x,y,z,U_0,U_1,U_2
0,0,0,0.3,-0.000645945,0
0,0.1,0,0.3,-0.000387567,0
0,0.2,0,0.3,-0.000129189,0
0,0.3,0,0.3,0,0
0,0.4,0,0.3,0,0
0,0.5,0,0.3,-2.97292e-19,0
0,0.6,0,0.3,0,0
0,0.7,0,0.3,0,0
0,0.8,0,0.3,0,0
0,0.9,0,0.3,0,0
0,1,0,0.3,0,0
0,1.1,0,0.3,0,0
0,1.2,0,0.3,0,0
0,1.3,0,0.3,0,0
0,1.4,0,0.3,0,0
0,1.5,0,0.3,0,0
0,1.6,0,0.3,0,0
0,1.7,0,0.3,0,0
0,1.8,0,0.3,0,0
0,1.9,0,0.3,0,0
0,2,0,0.3,0,0
0,2.1,0,0.3,0,0
0,2.2,0,0.3,0,0
0,2.3,0,0.3,0,0
0,2.4,0,0.3,0,0
0,2.5,0,0.3,0,0
0,2.6,0,0.3,0,0
0,2.7,0,0.3,0,0
0,2.8,0,0.3,0,0
0,2.9,0,0.3,0,0
0,3,0,0.3,0,0
0,3.1,0,0.3,0,0
0,3.2,0,0.3,0,0
0,3.3,0,0.3,0,0
0,3.4,0,0.3,0,0
0,3.5,0,0.3,0,0
0,3.6,0,0.3,0,0
0,3.7,0,0.3,0,0
0,3.8,0,0.3,0,0
0,3.9,0,0.3,0,0
0,4,0,0.3,0,0
0,4.1,0,0.3,0,0
0,4.2,0,0.3,0,0
0,4.3,0,0.3,0,0
0,4.4,0,0.3,0,0
0,4.5,0,0.3,0,0
0,4.6,0,0.3,0,0
0,4.7,0,0.3,0,0
0,4.8,0,0.3,0,0
0,4.9,0,0.3,0,0
0,5,0,0.3,-9.93258e-20,0
0,5.1,0,0.3,0,0
0,5.2,0,0.3,0,0
0,5.3,0,0.3,0,0
0,5.4,0,0.3,-6.64855e-20,0
0,5.5,0,0.3,0,0
0,5.6,0,0.3,0,0
0,5.7,0,0.3,0,0
0,5.8,0,0.3,-3.3603e-20,0
0,5.9,0,0.3,0,0
0,6,0,0.3,0,0
0,6.1,0,0.3,0,0
0,6.2,0,0.3,-3.86272e-22,0
0,6.3,0,0.3,0,0
0,6.4,0,0.3,1.61248e-20,0
0,6.5,0,0.3,0,0
0,6.6,0,0.3,0,0
0,6.7,0,0.3,0,0
0,6.8,0,0.3,0,0
0,6.9,0,0.3,0,0
0,7,0,0.3,0,0
0,7.1,0,0.3,0,0
0,7.2,0,0.3,0,0
0,7.3,0,0.3,0,0
0,7.4,0,0.3,0,0
0,7.5,0,0.3,0,0
0,7.6,0,0.3,0,0
0,7.7,0,0.3,0,0
0,7.8,0,0.3,0,0
0,7.9,0,0.3,0,0
0,8,0,0.3,0,0
0,8.1,0,0.3,0,0
0,8.2,0,0.3,0,0
0,8.3,0,0.3,0,0
0,8.4,0,0.3,0,0
0,8.5,0,0.3,0,0
0,8.6,0,0.3,0,0
0,8.7,0,0.3,0,0
0,8.8,0,0.3,0,0
0,8.9,0,0.3,0,0
0,9,0,0.3,0,0
0,9.1,0,0.3,0,0
0,9.2,0,0.3,0,0
0,9.3,0,0.3,0,0
0,9.4,0,0.3,0,0
0,9.5,0,0.3,0,0
0,9.6,0,0.3,0,0
0,9.7,0,0.3,0,0
0,9.8,0,0.3,0,0
0,9.9,0,0.3,0,0
0,10,0,0.3,0,0
0,10.1,0,0.3,0,0
0,10.2,0,0.3,0,0
0,10.3,0,0.3,0,0
0,10.4,0,0.3,0,0
0,10.5,0,0.3,0,0
0,10.6,0,0.3,0,0
0,10.7,0,0.3,0,0
0,10.8,0,0.3,0,0
0,10.9,0,0.3,0,0
0,11,0,0.3,0,0
0,11.1,0,0.3,0,0
0,11.2,0,0.3,0,0
0,11.3,0,0.3,0,0
0,11.4,0,0.3,0,0
0,11.5,0,0.3,0,0
0,11.6,0,0.3,0,0
0,11.7,0,0.3,0,0
0,11.8,0,0.3,0,0
0,11.9,0,0.3,0,0
0,12,0,0.3,0,0
0,12.1,0,0.3,0,0
0,12.2,0,0.3,0,0
0,12.3,0,0.3,0,0
0,12.4,0,0.3,0,0
0,12.5,0,0.3,0.000180678,0
0,12.6,0,0.3,0.000393241,0
0,12.7,0,0.3,0.000605804,0
0.1,0,0,0.299999,-0.00110124,0
0.1,0.1,0,0.299999,-0.000836526,0
0.1,0.2,0,0.299999,-0.000593041,0
0.1,0.3,0,0.299999,-0.000590957,0
0.1,0.4,0,0.299999,-0.000590187,0
0.1,0.5,0,0.299996,-0.000595061,0
0.1,0.6,0,0.299999,-0.000585636,0
0.1,0.7,0,0.299998,-0.000586109,0
0.1,0.8,0,0.299998,-0.000580037,0
0.1,0.9,0,0.299998,-0.000578889,0
0.1,1,0,0.299992,-0.000583796,0
0.1,1.1,0,0.299998,-0.000570036,0
0.1,1.2,0,0.299997,-0.000570563,0
0.1,1.3,0,0.299997,-0.000560771,0
0.1,1.4,0,0.299997,-0.000559156,0
0.1,1.5,0,0.299989,-0.000564868,0
0.1,1.6,0,0.299997,-0.000546333,0
0.1,1.7,0,0.299996,-0.00054694,0
0.1,1.8,0,0.299997,-0.000533732,0
0.1,1.9,0,0.299998,-0.000531658,0
0.1,2,0,0.299985,-0.000537824,0
0.1,2.1,0,0.299999,-0.000515191,0
0.1,2.2,0,0.299997,-0.000515781,0
0.1,2.3,0,0.299999,-0.000499385,0
0.1,2.4,0,0.300001,-0.000496973,0
0.1,2.5,0,0.299981,-0.000502121,0
0.1,2.6,0,0.300004,-0.000476969,0
0.1,2.7,0,0.300002,-0.000477362,0
0.1,2.8,0,0.300006,-0.000457658,0
0.1,2.9,0,0.300009,-0.000455076,0
0.1,3,0,0.299976,-0.00045741,0
0.1,3.1,0,0.300014,-0.00043112,0
0.1,3.2,0,0.30001,-0.000431177,0
0.1,3.3,0,0.300015,-0.000407601,0
0.1,3.4,0,0.30002,-0.000404924,0
0.1,3.5,0,0.29997,-0.000403822,0
0.1,3.6,0,0.300025,-0.000376385,0
0.1,3.7,0,0.30002,-0.000376134,0
0.1,3.8,0,0.300023,-0.000348387,0
0.1,3.9,0,0.300029,-0.000345555,0
0.1,4,0,0.299966,-0.000341956,0
0.1,4.1,0,0.300031,-0.000312679,0
0.1,4.2,0,0.300024,-0.000312227,0
0.1,4.3,0,0.300024,-0.000281161,0
0.1,4.4,0,0.300031,-0.000278161,0
0.1,4.5,0,0.299963,-0.000272589,0
0.1,4.6,0,0.300028,-0.000242509,0
0.1,4.7,0,0.300021,-0.000241801,0
0.1,4.8,0,0.300018,-0.000209056,0
0.1,4.9,0,0.300024,-0.000206126,0
0.1,5,0,0.299961,-0.000198811,0
0.1,5.1,0,0.300021,-0.000172505,0
0.1,5.2,0,0.299961,-0.000165328,0
0.1,5.3,0,0.300018,-0.000141916,0
0.1,5.4,0,0.299961,-0.000133077,0
0.1,5.5,0,0.300015,-0.000111168,0
0.1,5.6,0,0.299961,-0.000100335,0
0.1,5.7,0,0.300013,-8.03809e-05,0
0.1,5.8,0,0.299961,-6.72597e-05,0
0.1,5.9,0,0.300012,-4.95422e-05,0
0.1,6,0,0.299961,-3.40128e-05,0
0.1,6.1,0,0.300012,-1.86537e-05,0
0.1,6.2,0,0.299961,-7.73161e-07,0
0.1,6.3,0,0.300014,1.2264e-05,0
0.1,6.4,0,0.299961,3.22754e-05,0
0.1,6.5,0,0.300016,4.32019e-05,0
0.1,6.6,0,0.299961,6.49755e-05,0
0.1,6.7,0,0.300018,7.41871e-05,0
0.1,6.8,0,0.299961,9.71802e-05,0
0.1,6.9,0,0.300021,0.000105041,0
0.1,7,0,0.299961,0.000131887,0
0.1,7.1,0,0.300025,0.000141291,0
0.1,7.2,0,0.300025,0.000141291,0
0.1,7.3,0,0.299977,0.000174798,0
0.1,7.4,0,0.300028,0.000182363,0
0.1,7.5,0,0.300028,0.000182363,0
0.1,7.6,0,0.299995,0.000218236,0
0.1,7.7,0,0.30003,0.000222391,0
0.1,7.8,0,0.300021,0.00022661,0
0.1,7.9,0,0.30001,0.000258881,0
0.1,8,0,0.300028,0.000260685,0
0.1,8.1,0,0.300006,0.000272254,0
0.1,8.2,0,0.300021,0.000296362,0
0.1,8.3,0,0.300024,0.000296599,0
0.1,8.4,0,0.299991,0.000315148,0
0.1,8.5,0,0.300019,0.000329798,0
0.1,8.6,0,0.300019,0.000329798,0
0.1,8.7,0,0.29998,0.000355055,0
0.1,8.8,0,0.300012,0.000360251,0
0.1,8.9,0,0.300012,0.000360251,0
0.1,9,0,0.299978,0.000389484,0
0.1,9.1,0,0.300007,0.000388138,0
0.1,9.2,0,0.300007,0.000388138,0
0.1,9.3,0,0.299986,0.000415689,0
0.1,9.4,0,0.300003,0.000413702,0
0.1,9.5,0,0.300003,0.000413702,0
0.1,9.6,0,0.299991,0.000438771,0
0.1,9.7,0,0.3,0.000437118,0
0.1,9.8,0,0.299996,0.000442417,0
0.1,9.9,0,0.299995,0.000459265,0
0.1,10,0,0.299999,0.000458458,0
0.1,10.1,0,0.299993,0.000468614,0
0.1,10.2,0,0.299998,0.000477702,0
0.1,10.3,0,0.299998,0.000477702,0
0.1,10.4,0,0.29999,0.000491293,0
0.1,10.5,0,0.299997,0.000494787,0
0.1,10.6,0,0.299997,0.000494787,0
0.1,10.7,0,0.299989,0.000510332,0
0.1,10.8,0,0.299998,0.000509667,0
0.1,10.9,0,0.299998,0.000509667,0
0.1,11,0,0.299992,0.000523397,0
0.1,11.1,0,0.299998,0.000522307,0
0.1,11.2,0,0.299998,0.000522307,0
0.1,11.3,0,0.299995,0.000533198,0
0.1,11.4,0,0.299999,0.000532729,0
0.1,11.5,0,0.299998,0.00053319,0
0.1,11.6,0,0.299997,0.000541165,0
0.1,11.7,0,0.299999,0.000540978,0
0.1,11.8,0,0.299998,0.000542904,0
0.1,11.9,0,0.299999,0.00054718,0
0.1,12,0,0.299999,0.000547111,0
0.1,12.1,0,0.299998,0.000549683,0
0.1,12.2,0,0.3,0.000551164,0
0.1,12.3,0,0.3,0.000551164,0
0.1,12.4,0,0.299999,0.000553796,0
0.1,12.5,0,0.3,0.000599246,0
0.1,12.6,0,0.3,0.000811809,0
0.1,12.7,0,0.299999,0.00102667,0
0.2,0,0,0.299998,-0.00155653,0
0.2,0.1,0,0.299999,-0.00128675,0
0.2,0.2,0,0.299997,-0.00119093,0
0.2,0.3,0,0.299997,-0.00118884,0
0.2,0.4,0,0.299998,-0.00118135,0
0.2,0.5,0,0.299992,-0.00119012,0
0.2,0.6,0,0.299997,-0.00117316,0
0.2,0.7,0,0.299993,-0.00117648,0
0.2,0.8,0,0.299992,-0.00117041,0
0.2,0.9,0,0.299995,-0.00115876,0
0.2,1,0,0.299985,-0.00116759,0
0.2,1.1,0,0.299994,-0.00114282,0
0.2,1.2,0,0.299988,-0.00114588,0
0.2,1.3,0,0.299987,-0.00113608,0
0.2,1.4,0,0.299993,-0.00111945,0
0.2,1.5,0,0.299977,-0.00112974,0
0.2,1.6,0,0.299993,-0.00109637,0
0.2,1.7,0,0.299983,-0.00109934,0
0.2,1.8,0,0.299984,-0.00108613,0
0.2,1.9,0,0.299993,-0.00106455,0
0.2,2,0,0.29997,-0.00107565,0
0.2,2.1,0,0.299995,-0.00103491,0
0.2,2.2,0,0.29998,-0.00103687,0
0.2,2.3,0,0.299982,-0.00102047,0
0.2,2.4,0,0.299999,-0.000994976,0
0.2,2.5,0,0.299961,-0.00100424,0
0.2,2.6,0,0.300004,-0.000958968,0
0.2,2.7,0,0.29998,-0.000958259,0
0.2,2.8,0,0.299984,-0.000938555,0
0.2,2.9,0,0.300011,-0.000910618,0
0.2,3,0,0.299952,-0.000914821,0
0.2,3.1,0,0.300021,-0.000867497,0
0.2,3.2,0,0.299983,-0.000862873,0
0.2,3.3,0,0.299988,-0.000839297,0
0.2,3.4,0,0.30003,-0.000809627,0
0.2,3.5,0,0.299941,-0.000807644,0
0.2,3.6,0,0.30004,-0.000758257,0
0.2,3.7,0,0.299987,-0.00075001,0
0.2,3.8,0,0.299991,-0.000722264,0
0.2,3.9,0,0.300045,-0.00069039,0
0.2,4,0,0.299931,-0.000683912,0
0.2,4.1,0,0.300049,-0.000631213,0
0.2,4.2,0,0.299988,-0.000620384,0
0.2,4.3,0,0.299988,-0.000589318,0
0.2,4.4,0,0.300048,-0.000555208,0
0.2,4.5,0,0.299925,-0.000545178,0
0.2,4.6,0,0.300043,-0.000491035,0
0.2,4.7,0,0.299983,-0.000477223,0
0.2,4.8,0,0.29998,-0.000444479,0
0.2,4.9,0,0.300036,-0.000410789,0
0.2,5,0,0.299923,-0.000397621,0
0.2,5.1,0,0.300042,-0.00034501,0
0.2,5.2,0,0.299922,-0.000330655,0
0.2,5.3,0,0.300036,-0.000283831,0
0.2,5.4,0,0.299922,-0.000266155,0
0.2,5.5,0,0.30003,-0.000222336,0
0.2,5.6,0,0.299922,-0.000200671,0
0.2,5.7,0,0.300027,-0.000160762,0
0.2,5.8,0,0.299922,-0.000134519,0
0.2,5.9,0,0.300025,-9.90844e-05,0
0.2,6,0,0.299922,-6.80256e-05,0
0.2,6.1,0,0.300025,-3.73074e-05,0
0.2,6.2,0,0.299922,-1.54632e-06,0
0.2,6.3,0,0.300028,2.45279e-05,0
0.2,6.4,0,0.299922,6.45508e-05,0
0.2,6.5,0,0.300031,8.64038e-05,0
0.2,6.6,0,0.299922,0.000129951,0
0.2,6.7,0,0.300036,0.000148374,0
0.2,6.8,0,0.299922,0.00019436,0
0.2,6.9,0,0.300043,0.000210082,0
0.2,7,0,0.299922,0.000263774,0
0.2,7.1,0,0.300023,0.000278622,0
0.2,7.2,0,0.300008,0.000303081,0
0.2,7.3,0,0.299939,0.000347249,0
0.2,7.4,0,0.300045,0.000362899,0
0.2,7.5,0,0.299998,0.000393477,0
0.2,7.6,0,0.299957,0.000432733,0
0.2,7.7,0,0.30006,0.000444782,0
0.2,7.8,0,0.299986,0.000481062,0
0.2,7.9,0,0.299974,0.000513333,0
0.2,8,0,0.300057,0.000521371,0
0.2,8.1,0,0.299973,0.000564339,0
0.2,8.2,0,0.299988,0.000588447,0
0.2,8.3,0,0.300047,0.000594005,0
0.2,8.4,0,0.299961,0.000642394,0
0.2,8.5,0,0.299997,0.000657514,0
0.2,8.6,0,0.300025,0.000667489,0
0.2,8.7,0,0.299952,0.000714845,0
0.2,8.8,0,0.300002,0.000720235,0
0.2,8.9,0,0.300006,0.000735176,0
0.2,9,0,0.299953,0.000779084,0
0.2,9.1,0,0.300003,0.000776776,0
0.2,9.2,0,0.299993,0.000797253,0
0.2,9.3,0,0.299964,0.000832295,0
0.2,9.4,0,0.300004,0.000827709,0
0.2,9.5,0,0.299984,0.000853801,0
0.2,9.6,0,0.299972,0.000879583,0
0.2,9.7,0,0.3,0.000874236,0
0.2,9.8,0,0.299979,0.000904707,0
0.2,9.9,0,0.299978,0.000921554,0
0.2,10,0,0.299997,0.000916916,0
0.2,10.1,0,0.299977,0.000949772,0
0.2,10.2,0,0.299983,0.00095877,0
0.2,10.3,0,0.299994,0.000957495,0
0.2,10.4,0,0.299977,0.000988859,0
0.2,10.5,0,0.299987,0.000991621,0
0.2,10.6,0,0.299992,0.000995347,0
0.2,10.7,0,0.299978,0.001022,0
0.2,10.8,0,0.299991,0.00102033,0
0.2,10.9,0,0.299991,0.0010274,0
0.2,11,0,0.299982,0.001047,0
0.2,11.1,0,0.299994,0.00104495,0
0.2,11.2,0,0.299992,0.00105375,0
0.2,11.3,0,0.299987,0.0010667,0
0.2,11.4,0,0.299997,0.00106548,0
0.2,11.5,0,0.299992,0.00107468,0
0.2,11.6,0,0.299991,0.00108265,0
0.2,11.7,0,0.299997,0.00108196,0
0.2,11.8,0,0.299993,0.00109054,0
0.2,11.9,0,0.299994,0.00109481,0
0.2,12,0,0.299998,0.00109422,0
0.2,12.1,0,0.299995,0.00110168,0
0.2,12.2,0,0.299997,0.00110307,0
0.2,12.3,0,0.299999,0.00110296,0
0.2,12.4,0,0.299997,0.00110841,0
0.2,12.5,0,0.299999,0.00110732,0
0.2,12.6,0,0.3,0.00123134,0
0.2,12.7,0,0.299998,0.00144753,0
0.3,0,0,0.299997,-0.00201182,0
0.3,0.1,0,0.299997,-0.00178672,0
0.3,0.2,0,0.299995,-0.00178881,0
0.3,0.3,0,0.299995,-0.00178673,0
0.3,0.4,0,0.299993,-0.00177872,0
0.3,0.5,0,0.299988,-0.00178518,0
0.3,0.6,0,0.299992,-0.00176964,0
0.3,0.7,0,0.299987,-0.00176685,0
0.3,0.8,0,0.299986,-0.00176077,0
0.3,0.9,0,0.299987,-0.001746,0
0.3,1,0,0.299978,-0.00175139,0
0.3,1.1,0,0.299985,-0.0017282,0
0.3,1.2,0,0.299978,-0.00172119,0
0.3,1.3,0,0.299978,-0.0017114,0
0.3,1.4,0,0.29998,-0.00168917,0
0.3,1.5,0,0.299966,-0.00169461,0
0.3,1.6,0,0.299979,-0.00166306,0
0.3,1.7,0,0.29997,-0.00165173,0
0.3,1.8,0,0.29997,-0.00163852,0
0.3,1.9,0,0.299975,-0.00160859,0
0.3,2,0,0.299955,-0.00161347,0
0.3,2.1,0,0.299975,-0.0015745,0
0.3,2.2,0,0.299963,-0.00155795,0
0.3,2.3,0,0.299965,-0.00154155,0
0.3,2.4,0,0.299974,-0.00150433,0
0.3,2.5,0,0.299942,-0.00150636,0
0.3,2.6,0,0.299977,-0.00146227,0
0.3,2.7,0,0.299959,-0.00143916,0
0.3,2.8,0,0.299963,-0.00141945,0
0.3,2.9,0,0.299978,-0.00137578,0
0.3,3,0,0.299927,-0.00137223,0
0.3,3.1,0,0.299984,-0.00132508,0
0.3,3.2,0,0.299956,-0.00129457,0
0.3,3.3,0,0.299962,-0.00127099,0
0.3,3.4,0,0.299986,-0.00122148,0
0.3,3.5,0,0.299911,-0.00121147,0
0.3,3.6,0,0.299993,-0.00116133,0
0.3,3.7,0,0.299955,-0.00112389,0
0.3,3.8,0,0.299958,-0.00109614,0
0.3,3.9,0,0.299992,-0.00104084,0
0.3,4,0,0.299897,-0.00102587,0
0.3,4.1,0,0.299994,-0.000971812,0
0.3,4.2,0,0.299952,-0.000928541,0
0.3,4.3,0,0.299952,-0.000897475,0
0.3,4.4,0,0.29999,-0.000836796,0
0.3,4.5,0,0.299888,-0.000817766,0
0.3,4.6,0,0.299986,-0.000761497,0
0.3,4.7,0,0.299945,-0.000712646,0
0.3,4.8,0,0.299942,-0.000679901,0
0.3,4.9,0,0.299979,-0.000618389,0
0.3,5,0,0.299884,-0.000596432,0
0.3,5.1,0,0.299973,-0.000531861,0
0.3,5.2,0,0.299884,-0.000495983,0
0.3,5.3,0,0.299968,-0.000436677,0
0.3,5.4,0,0.299883,-0.000399232,0
0.3,5.5,0,0.299964,-0.000341812,0
0.3,5.6,0,0.299883,-0.000301006,0
0.3,5.7,0,0.299962,-0.000246268,0
0.3,5.8,0,0.299883,-0.000201779,0
0.3,5.9,0,0.29996,-0.000150268,0
0.3,6,0,0.299883,-0.000102038,0
0.3,6.1,0,0.29996,-5.407e-05,0
0.3,6.2,0,0.299883,-2.31948e-06,0
0.3,6.3,0,0.299962,4.20226e-05,0
0.3,6.4,0,0.299883,9.68262e-05,0
0.3,6.5,0,0.299965,0.000137741,0
0.3,6.6,0,0.299883,0.000194927,0
0.3,6.7,0,0.299969,0.000232897,0
0.3,6.8,0,0.299883,0.000291541,0
0.3,6.9,0,0.299974,0.000329362,0
0.3,7,0,0.299883,0.000395661,0
0.3,7.1,0,0.299979,0.000412969,0
0.3,7.2,0,0.29997,0.000475532,0
0.3,7.3,0,0.299901,0.000519699,0
0.3,7.4,0,0.299986,0.000545498,0
0.3,7.5,0,0.299961,0.000607974,0
0.3,7.6,0,0.29992,0.00064723,0
0.3,7.7,0,0.29999,0.000677413,0
0.3,7.8,0,0.29995,0.000735514,0
0.3,7.9,0,0.299939,0.000767786,0
0.3,8,0,0.299991,0.000802417,0
0.3,8.1,0,0.29994,0.000856425,0
0.3,8.2,0,0.299955,0.000880533,0
0.3,8.3,0,0.29999,0.000919112,0
0.3,8.4,0,0.299931,0.00096964,0
0.3,8.5,0,0.299967,0.00098476,0
0.3,8.6,0,0.299986,0.00102668,0
0.3,8.7,0,0.299925,0.00107464,0
0.3,8.8,0,0.299974,0.00108003,0
0.3,8.9,0,0.299982,0.00112478,0
0.3,9,0,0.299929,0.00116868,0
0.3,9.1,0,0.299974,0.00117087,0
0.3,9.2,0,0.299971,0.00121386,0
0.3,9.3,0,0.299942,0.0012489,0
0.3,9.4,0,0.299973,0.00125502,0
0.3,9.5,0,0.299965,0.00129461,0
0.3,9.6,0,0.299953,0.0013204,0
0.3,9.7,0,0.299972,0.00133046,0
0.3,9.8,0,0.299962,0.001367,0
0.3,9.9,0,0.299961,0.00138384,0
0.3,10,0,0.299974,0.00139751,0
0.3,10.1,0,0.299962,0.00143093,0
0.3,10.2,0,0.299968,0.00143993,0
0.3,10.3,0,0.299976,0.00145643,0
0.3,10.4,0,0.299964,0.00148643,0
0.3,10.5,0,0.299974,0.00148919,0
0.3,10.6,0,0.299979,0.00150745,0
0.3,10.7,0,0.299967,0.00153366,0
0.3,10.8,0,0.29998,0.001532,0
0.3,10.9,0,0.299982,0.001551,0
0.3,11,0,0.299973,0.0015706,0
0.3,11.1,0,0.299984,0.00157121,0
0.3,11.2,0,0.299984,0.00158725,0
0.3,11.3,0,0.299979,0.00160021,0
0.3,11.4,0,0.299987,0.00160313,0
0.3,11.5,0,0.299986,0.00161616,0
0.3,11.6,0,0.299985,0.00162414,0
0.3,11.7,0,0.29999,0.00162806,0
0.3,11.8,0,0.299988,0.00163817,0
0.3,11.9,0,0.299989,0.00164244,0
0.3,12,0,0.299993,0.00164625,0
0.3,12.1,0,0.299992,0.00165368,0
0.3,12.2,0,0.299994,0.00165507,0
0.3,12.3,0,0.299997,0.00165784,0
0.3,12.4,0,0.299996,0.00166302,0
0.3,12.5,0,0.299997,0.00166193,0
0.3,12.6,0,0.299999,0.00166295,0
0.3,12.7,0,0.299998,0.00186839,0
0.4,0,0,0.299996,-0.00246711,0
0.4,0.1,0,0.299995,-0.00239094,0
0.4,0.2,0,0.299993,-0.00238923,0
0.4,0.3,0,0.299992,-0.00238656,0
0.4,0.4,0,0.299989,-0.00238148,0
0.4,0.5,0,0.299985,-0.00238024,0
0.4,0.6,0,0.299984,-0.00236943,0
0.4,0.7,0,0.29998,-0.00236098,0
0.4,0.8,0,0.299979,-0.0023531,0
0.4,0.9,0,0.299975,-0.00234127,0
0.4,1,0,0.29997,-0.00233518,0
0.4,1.1,0,0.29997,-0.00231728,0
0.4,1.2,0,0.299967,-0.00230201,0
0.4,1.3,0,0.299965,-0.002289,0
0.4,1.4,0,0.299962,-0.0022702,0
0.4,1.5,0,0.299955,-0.00225947,0
0.4,1.6,0,0.299957,-0.00223399,0
0.4,1.7,0,0.299953,-0.00221154,0
0.4,1.8,0,0.299952,-0.00219338,0
0.4,1.9,0,0.299949,-0.00216716,0
0.4,2,0,0.29994,-0.0021513,0
0.4,2.1,0,0.299944,-0.00211822,0
0.4,2.2,0,0.29994,-0.00208809,0
0.4,2.3,0,0.29994,-0.0020647,0
0.4,2.4,0,0.299936,-0.00203056,0
0.4,2.5,0,0.299923,-0.00200848,0
0.4,2.6,0,0.299932,-0.00196832,0
0.4,2.7,0,0.299927,-0.00193011,0
0.4,2.8,0,0.299928,-0.00190128,0
0.4,2.9,0,0.299923,-0.00185901,0
0.4,3,0,0.299903,-0.00182964,0
0.4,3.1,0,0.299919,-0.00178307,0
0.4,3.2,0,0.299914,-0.00173678,0
0.4,3.3,0,0.299915,-0.00170225,0
0.4,3.4,0,0.29991,-0.00165207,0
0.4,3.5,0,0.299882,-0.00161529,0
0.4,3.6,0,0.299906,-0.00156264,0
0.4,3.7,0,0.299901,-0.00150874,0
0.4,3.8,0,0.299901,-0.00146858,0
0.4,3.9,0,0.299897,-0.00141112,0
0.4,4,0,0.299862,-0.00136782,0
0.4,4.1,0,0.299893,-0.00130925,0
0.4,4.2,0,0.29989,-0.00124841,0
0.4,4.3,0,0.299888,-0.0012034,0
0.4,4.4,0,0.299886,-0.00113938,0
0.4,4.5,0,0.29985,-0.00109036,0
0.4,4.6,0,0.299882,-0.001027,0
0.4,4.7,0,0.299881,-0.000960101,0
0.4,4.8,0,0.299878,-0.000912398,0
0.4,4.9,0,0.299878,-0.000846496,0
0.4,5,0,0.299846,-0.000795242,0
0.4,5.1,0,0.299875,-0.000723494,0
0.4,5.2,0,0.299845,-0.00066131,0
0.4,5.3,0,0.299873,-0.000593166,0
0.4,5.4,0,0.299844,-0.00053231,0
0.4,5.5,0,0.299871,-0.000464057,0
0.4,5.6,0,0.299844,-0.000401342,0
0.4,5.7,0,0.29987,-0.000333482,0
0.4,5.8,0,0.299844,-0.000269039,0
0.4,5.9,0,0.29987,-0.000201998,0
0.4,6,0,0.299844,-0.000136051,0
0.4,6.1,0,0.299869,-7.02023e-05,0
0.4,6.2,0,0.299844,-3.09264e-06,0
0.4,6.3,0,0.29987,6.12609e-05,0
0.4,6.4,0,0.299844,0.000129102,0
0.4,6.5,0,0.299871,0.00019179,0
0.4,6.6,0,0.299844,0.000259902,0
0.4,6.7,0,0.299872,0.000320866,0
0.4,6.8,0,0.299844,0.000388721,0
0.4,6.9,0,0.299874,0.000453388,0
0.4,7,0,0.299844,0.000527548,0
0.4,7.1,0,0.299877,0.000576016,0
0.4,7.2,0,0.299878,0.000640063,0
0.4,7.3,0,0.299862,0.00069215,0
0.4,7.4,0,0.299882,0.000750083,0
0.4,7.5,0,0.299883,0.000816472,0
0.4,7.6,0,0.299883,0.000861727,0
0.4,7.7,0,0.299887,0.000923971,0
0.4,7.8,0,0.29989,0.000987058,0
0.4,7.9,0,0.29989,0.00102885,0
0.4,8,0,0.299894,0.00108827,0
0.4,8.1,0,0.299898,0.00114769,0
0.4,8.2,0,0.299898,0.00118633,0
0.4,8.3,0,0.299902,0.00124184,0
0.4,8.4,0,0.2999,0.00129689,0
0.4,8.5,0,0.299905,0.00133253,0
0.4,8.6,0,0.29991,0.00138391,0
0.4,8.7,0,0.299898,0.00143443,0
0.4,8.8,0,0.299913,0.00146685,0
0.4,8.9,0,0.299917,0.00151392,0
0.4,9,0,0.299904,0.00155828,0
0.4,9.1,0,0.299921,0.00158894,0
0.4,9.2,0,0.299925,0.00163158,0
0.4,9.3,0,0.299921,0.00166551,0
0.4,9.4,0,0.299929,0.00169873,0
0.4,9.5,0,0.299932,0.00173695,0
0.4,9.6,0,0.299932,0.00176253,0
0.4,9.7,0,0.299936,0.00179644,0
0.4,9.8,0,0.299939,0.00183036,0
0.4,9.9,0,0.29994,0.00185271,0
0.4,10,0,0.299943,0.0018825,0
0.4,10.1,0,0.299947,0.00191229,0
0.4,10.2,0,0.299947,0.00193154,0
0.4,10.3,0,0.29995,0.00195745,0
0.4,10.4,0,0.299951,0.00198399,0
0.4,10.5,0,0.299954,0.00199963,0
0.4,10.6,0,0.299957,0.0020219,0
0.4,10.7,0,0.299956,0.00204533,0
0.4,10.8,0,0.299961,0.0020576,0
0.4,10.9,0,0.299964,0.00207644,0
0.4,11,0,0.299963,0.0020942,0
0.4,11.1,0,0.299968,0.00210601,0
0.4,11.2,0,0.299971,0.00212164,0
0.4,11.3,0,0.299972,0.00213371,0
0.4,11.4,0,0.299975,0.00214539,0
0.4,11.5,0,0.299977,0.00215799,0
0.4,11.6,0,0.299978,0.0021665,0
0.4,11.7,0,0.29998,0.0021762,0
0.4,11.8,0,0.299983,0.00218591,0
0.4,11.9,0,0.299984,0.00219188,0
0.4,12,0,0.299986,0.00219877,0
0.4,12.1,0,0.299989,0.00220567,0
0.4,12.2,0,0.29999,0.00220916,0
0.4,12.3,0,0.299992,0.00221328,0
0.4,12.4,0,0.299994,0.00221763,0
0.4,12.5,0,0.299995,0.00221847,0
0.4,12.6,0,0.299996,0.00221986,0
0.4,12.7,0,0.299997,0.00228926,0
0.5,0,0,0.299993,-0.00299663,0
0.5,0.1,0,0.299993,-0.00299611,0
0.5,0.2,0,0.299991,-0.0029944,0
0.5,0.3,0,0.299987,-0.00299025,0
0.5,0.4,0,0.299984,-0.00298517,0
0.5,0.5,0,0.299978,-0.00297744,0
0.5,0.6,0,0.299975,-0.00297016,0
0.5,0.7,0,0.299972,-0.00296171,0
0.5,0.8,0,0.299967,-0.00294932,0
0.5,0.9,0,0.299964,-0.00293749,0
0.5,1,0,0.299956,-0.00292059,0
0.5,1.1,0,0.299956,-0.00290732,0
0.5,1.2,0,0.299952,-0.00289205,0
0.5,1.3,0,0.299947,-0.00287102,0
0.5,1.4,0,0.299944,-0.00285222,0
0.5,1.5,0,0.299934,-0.00282529,0
0.5,1.6,0,0.299935,-0.00280595,0
0.5,1.7,0,0.299932,-0.0027835,0
0.5,1.8,0,0.299926,-0.00275301,0
0.5,1.9,0,0.299923,-0.00272678,0
0.5,2,0,0.299911,-0.00268943,0
0.5,2.1,0,0.299913,-0.00266304,0
0.5,2.2,0,0.299909,-0.00263291,0
0.5,2.3,0,0.299902,-0.00259206,0
0.5,2.4,0,0.299898,-0.00255792,0
0.5,2.5,0,0.299887,-0.00251056,0
0.5,2.6,0,0.299886,-0.0024755,0
0.5,2.7,0,0.299882,-0.0024373,0
0.5,2.8,0,0.299873,-0.00238564,0
0.5,2.9,0,0.299868,-0.00234337,0
0.5,3,0,0.29986,-0.00228707,0
0.5,3.1,0,0.299854,-0.00224215,0
0.5,3.2,0,0.299849,-0.00219587,0
0.5,3.3,0,0.299838,-0.0021339,0
0.5,3.4,0,0.299834,-0.00208373,0
0.5,3.5,0,0.299832,-0.00201937,0
0.5,3.6,0,0.299819,-0.00196497,0
0.5,3.7,0,0.299814,-0.00191106,0
0.5,3.8,0,0.299805,-0.00183982,0
0.5,3.9,0,0.299801,-0.00178236,0
0.5,4,0,0.299805,-0.00171006,0
0.5,4.1,0,0.299791,-0.0016476,0
0.5,4.2,0,0.299788,-0.00158676,0
0.5,4.3,0,0.299784,-0.00150684,0
0.5,4.4,0,0.299782,-0.00144282,0
0.5,4.5,0,0.299787,-0.00136305,0
0.5,4.6,0,0.299778,-0.00129325,0
0.5,4.7,0,0.299777,-0.00122635,0
0.5,4.8,0,0.299777,-0.00113921,0
0.5,4.9,0,0.299776,-0.00107331,0
0.5,5,0,0.299777,-0.000994066,0
0.5,5.1,0,0.299777,-0.000913611,0
0.5,5.2,0,0.299775,-0.000826587,0
0.5,5.3,0,0.299777,-0.00074994,0
0.5,5.4,0,0.299773,-0.000665293,0
0.5,5.5,0,0.299778,-0.000586509,0
0.5,5.6,0,0.299772,-0.000501586,0
0.5,5.7,0,0.299779,-0.000420823,0
0.5,5.8,0,0.299771,-0.000336249,0
0.5,5.9,0,0.299779,-0.000253773,0
0.5,6,0,0.29977,-0.000170075,0
0.5,6.1,0,0.299779,-8.62824e-05,0
0.5,6.2,0,0.29977,-3.9297e-06,0
0.5,6.3,0,0.299778,8.0638e-05,0
0.5,6.4,0,0.299771,0.000161293,0
0.5,6.5,0,0.299777,0.000246049,0
0.5,6.6,0,0.299772,0.00032483,0
0.5,6.7,0,0.299776,0.000409121,0
0.5,6.8,0,0.299774,0.000485942,0
0.5,6.9,0,0.299775,0.000574626,0
0.5,7,0,0.299776,0.000659574,0
0.5,7.1,0,0.299774,0.00073661,0
0.5,7.2,0,0.299775,0.000800658,0
0.5,7.3,0,0.299779,0.000880369,0
0.5,7.4,0,0.299777,0.000955637,0
0.5,7.5,0,0.299779,0.00102203,0
0.5,7.6,0,0.299782,0.00110767,0
0.5,7.7,0,0.299784,0.00117165,0
0.5,7.8,0,0.299787,0.00123474,0
0.5,7.9,0,0.299793,0.0013159,0
0.5,8,0,0.299797,0.00137532,0
0.5,8.1,0,0.299801,0.00143474,0
0.5,8.2,0,0.29981,0.00151033,0
0.5,8.3,0,0.299814,0.00156585,0
0.5,8.4,0,0.29982,0.00162157,0
0.5,8.5,0,0.299829,0.00169111,0
0.5,8.6,0,0.299833,0.00174249,0
0.5,8.7,0,0.299841,0.00179371,0
0.5,8.8,0,0.299848,0.00185738,0
0.5,8.9,0,0.299853,0.00190445,0
0.5,9,0,0.299859,0.00195234,0
0.5,9.1,0,0.299867,0.00200842,0
0.5,9.2,0,0.299872,0.00205106,0
0.5,9.3,0,0.299878,0.00209999,0
0.5,9.4,0,0.299884,0.00214384,0
0.5,9.5,0,0.299888,0.00218206,0
0.5,9.6,0,0.299896,0.00222986,0
0.5,9.7,0,0.299899,0.00226377,0
0.5,9.8,0,0.299903,0.00229768,0
0.5,9.9,0,0.299909,0.00233897,0
0.5,10,0,0.299913,0.00236876,0
0.5,10.1,0,0.299916,0.00239855,0
0.5,10.2,0,0.299921,0.00243376,0
0.5,10.3,0,0.299924,0.00245966,0
0.5,10.4,0,0.299925,0.00248475,0
0.5,10.5,0,0.299932,0.00251519,0
0.5,10.6,0,0.299935,0.00253746,0
0.5,10.7,0,0.299934,0.00255848,0
0.5,10.8,0,0.299943,0.00258424,0
0.5,10.9,0,0.299946,0.00260309,0
0.5,11,0,0.299946,0.00262255,0
0.5,11.1,0,0.299953,0.00264179,0
0.5,11.2,0,0.299956,0.00265743,0
0.5,11.3,0,0.299959,0.00267519,0
0.5,11.4,0,0.299962,0.00268859,0
0.5,11.5,0,0.299965,0.00270119,0
0.5,11.6,0,0.299968,0.00271553,0
0.5,11.7,0,0.299971,0.00272524,0
0.5,11.8,0,0.299973,0.00273495,0
0.5,11.9,0,0.299977,0.00274528,0
0.5,12,0,0.299979,0.00275217,0
0.5,12.1,0,0.299982,0.0027591,0
0.5,12.2,0,0.299986,0.00276547,0
0.5,12.3,0,0.299988,0.0027696,0
0.5,12.4,0,0.29999,0.00277408,0
0.5,12.5,0,0.299994,0.00277626,0
0.5,12.6,0,0.299995,0.00277764,0
0.5,12.7,0,0.299995,0.00277944,0
0.6,0,0,0.29999,-0.00360038,0
0.6,0.1,0,0.299992,-0.00360222,0
0.6,0.2,0,0.299988,-0.0035984,0
0.6,0.3,0,0.299982,-0.00359366,0
0.6,0.4,0,0.299979,-0.00358979,0
0.6,0.5,0,0.299967,-0.00357678,0
0.6,0.6,0,0.299967,-0.00357183,0
0.6,0.7,0,0.299959,-0.00355888,0
0.6,0.8,0,0.299953,-0.00354468,0
0.6,0.9,0,0.299953,-0.00353465,0
0.6,1,0,0.299935,-0.00350762,0
0.6,1.1,0,0.299941,-0.00349832,0
0.6,1.2,0,0.299931,-0.00347519,0
0.6,1.3,0,0.299924,-0.00345097,0
0.6,1.4,0,0.299926,-0.00343524,0
0.6,1.5,0,0.299902,-0.00339206,0
0.6,1.6,0,0.299913,-0.00337895,0
0.6,1.7,0,0.299901,-0.00334487,0
0.6,1.8,0,0.299894,-0.00330946,0
0.6,1.9,0,0.299897,-0.00328748,0
0.6,2,0,0.299869,-0.00322787,0
0.6,2.1,0,0.299881,-0.00320895,0
0.6,2.2,0,0.299868,-0.00316402,0
0.6,2.3,0,0.299859,-0.0031162,0
0.6,2.4,0,0.299861,-0.0030864,0
0.6,2.5,0,0.299834,-0.00301258,0
0.6,2.6,0,0.299841,-0.00298382,0
0.6,2.7,0,0.299829,-0.00292909,0
0.6,2.8,0,0.299817,-0.0028683,0
0.6,2.9,0,0.299814,-0.00282886,0
0.6,3,0,0.299798,-0.0027445,0
0.6,3.1,0,0.299788,-0.00270234,0
0.6,3.2,0,0.299783,-0.00263913,0
0.6,3.3,0,0.299768,-0.00256618,0
0.6,3.4,0,0.299757,-0.00251644,0
0.6,3.5,0,0.299761,-0.00242371,0
0.6,3.6,0,0.299732,-0.0023683,0
0.6,3.7,0,0.299734,-0.0022971,0
0.6,3.8,0,0.299722,-0.0022134,0
0.6,3.9,0,0.299705,-0.00215456,0
0.6,4,0,0.299726,-0.00205258,0
0.6,4.1,0,0.299688,-0.00198686,0
0.6,4.2,0,0.299696,-0.00190759,0
0.6,4.3,0,0.299692,-0.00181369,0
0.6,4.4,0,0.299677,-0.00174711,0
0.6,4.5,0,0.299698,-0.00163584,0
0.6,4.6,0,0.299674,-0.00156023,0
0.6,4.7,0,0.299679,-0.00147446,0
0.6,4.8,0,0.29968,-0.00137073,0
0.6,4.9,0,0.299675,-0.00129882,0
0.6,5,0,0.299679,-0.0011929,0
0.6,5.1,0,0.299679,-0.00110221,0
0.6,5.2,0,0.299673,-0.000991813,0
0.6,5.3,0,0.299682,-0.000906997,0
0.6,5.4,0,0.299669,-0.000798182,0
0.6,5.5,0,0.299686,-0.00070917,0
0.6,5.6,0,0.299666,-0.000601738,0
0.6,5.7,0,0.299688,-0.000508289,0
0.6,5.8,0,0.299664,-0.00040341,0
0.6,5.9,0,0.299689,-0.000305594,0
0.6,6,0,0.299663,-0.000204109,0
0.6,6.1,0,0.299688,-0.00010231,0
0.6,6.2,0,0.299663,-4.83065e-06,0
0.6,6.3,0,0.299686,0.000100154,0
0.6,6.4,0,0.299665,0.000193401,0
0.6,6.5,0,0.299683,0.000300517,0
0.6,6.6,0,0.299668,0.00038971,0
0.6,6.7,0,0.299679,0.000497661,0
0.6,6.8,0,0.299672,0.000583204,0
0.6,6.9,0,0.299676,0.000693077,0
0.6,7,0,0.299678,0.00079174,0
0.6,7.1,0,0.299672,0.000894753,0
0.6,7.2,0,0.299674,0.000961113,0
0.6,7.3,0,0.299686,0.00105315,0
0.6,7.4,0,0.299673,0.00116216,0
0.6,7.5,0,0.299681,0.00123181,0
0.6,7.6,0,0.299695,0.00132246,0
0.6,7.7,0,0.299681,0.00142045,0
0.6,7.8,0,0.299697,0.0014873,0
0.6,7.9,0,0.299708,0.0015777,0
0.6,8,0,0.299699,0.00166358,0
0.6,8.1,0,0.299721,0.00172651,0
0.6,8.2,0,0.299727,0.00181739,0
0.6,8.3,0,0.299726,0.00189113,0
0.6,8.4,0,0.299747,0.00194879,0
0.6,8.5,0,0.299753,0.0020407,0
0.6,8.6,0,0.299757,0.00210242,0
0.6,8.7,0,0.299772,0.00215315,0
0.6,8.8,0,0.299784,0.00224674,0
0.6,8.9,0,0.299788,0.00229637,0
0.6,9,0,0.299795,0.00234132,0
0.6,9.1,0,0.299814,0.0024293,0
0.6,9.2,0,0.299817,0.00247077,0
0.6,9.3,0,0.29982,0.00251593,0
0.6,9.4,0,0.29984,0.00259034,0
0.6,9.5,0,0.29984,0.00262566,0
0.6,9.6,0,0.299844,0.00267173,0
0.6,9.7,0,0.299863,0.00273243,0
0.6,9.8,0,0.299859,0.00276186,0
0.6,9.9,0,0.299867,0.0028086,0
0.6,10,0,0.299882,0.00285629,0
0.6,10.1,0,0.299875,0.00288072,0
0.6,10.2,0,0.299888,0.00292696,0
0.6,10.3,0,0.299898,0.00296307,0
0.6,10.4,0,0.299889,0.00298373,0
0.6,10.5,0,0.299907,0.00302768,0
0.6,10.6,0,0.299913,0.00305413,0
0.6,10.7,0,0.299903,0.00307222,0
0.6,10.8,0,0.299924,0.00311194,0
0.6,10.9,0,0.299927,0.00313067,0
0.6,11,0,0.29992,0.00314879,0
0.6,11.1,0,0.299938,0.00317856,0
0.6,11.2,0,0.299938,0.00319414,0
0.6,11.3,0,0.299937,0.00321177,0
0.6,11.4,0,0.29995,0.00323272,0
0.6,11.5,0,0.29995,0.00324573,0
0.6,11.6,0,0.299953,0.00326107,0
0.6,11.7,0,0.299961,0.00327518,0
0.6,11.8,0,0.299961,0.0032859,0
0.6,11.9,0,0.299967,0.00329763,0
0.6,12,0,0.299972,0.00330646,0
0.6,12.1,0,0.299974,0.00331486,0
0.6,12.2,0,0.29998,0.00332208,0
0.6,12.3,0,0.299984,0.00332677,0
0.6,12.4,0,0.299986,0.00333262,0
0.6,12.5,0,0.299992,0.0033349,0
0.6,12.6,0,0.299994,0.00333629,0
0.6,12.7,0,0.299992,0.00333895,0
0.7,0,0,0.299986,-0.00420414,0
0.7,0.1,0,0.299989,-0.00420668,0
0.7,0.2,0,0.299982,-0.004201,0
0.7,0.3,0,0.299976,-0.00419626,0
0.7,0.4,0,0.29997,-0.00419071,0
0.7,0.5,0,0.299956,-0.00417612,0
0.7,0.6,0,0.299957,-0.00417187,0
0.7,0.7,0,0.299944,-0.00415304,0
0.7,0.8,0,0.299938,-0.00413884,0
0.7,0.9,0,0.299935,-0.00412472,0
0.7,1,0,0.299914,-0.00409464,0
0.7,1.1,0,0.299922,-0.00408654,0
0.7,1.2,0,0.299905,-0.00405309,0
0.7,1.3,0,0.299898,-0.00402887,0
0.7,1.4,0,0.299898,-0.00400688,0
0.7,1.5,0,0.299871,-0.00395883,0
0.7,1.6,0,0.299885,-0.00394758,0
0.7,1.7,0,0.299864,-0.00389849,0
0.7,1.8,0,0.299857,-0.00386308,0
0.7,1.9,0,0.299859,-0.0038326,0
0.7,2,0,0.299827,-0.00376631,0
0.7,2.1,0,0.299843,-0.00374964,0
0.7,2.2,0,0.299821,-0.00368527,0
0.7,2.3,0,0.299811,-0.00363744,0
0.7,2.4,0,0.299813,-0.00359637,0
0.7,2.5,0,0.299782,-0.00351461,0
0.7,2.6,0,0.299791,-0.00348774,0
0.7,2.7,0,0.299772,-0.00340986,0
0.7,2.8,0,0.299759,-0.00334907,0
0.7,2.9,0,0.299754,-0.00329471,0
0.7,3,0,0.299735,-0.00320194,0
0.7,3.1,0,0.299725,-0.0031606,0
0.7,3.2,0,0.299716,-0.00307111,0
0.7,3.3,0,0.299701,-0.00299816,0
0.7,3.4,0,0.299685,-0.00292929,0
0.7,3.5,0,0.29969,-0.00282805,0
0.7,3.6,0,0.299656,-0.00277234,0
0.7,3.7,0,0.299659,-0.0026716,0
0.7,3.8,0,0.299647,-0.0025879,0
0.7,3.9,0,0.299621,-0.00250599,0
0.7,4,0,0.299647,-0.0023951,0
0.7,4.1,0,0.299602,-0.0023284,0
0.7,4.2,0,0.299612,-0.00221613,0
0.7,4.3,0,0.299608,-0.00212223,0
0.7,4.4,0,0.299583,-0.00202936,0
0.7,4.5,0,0.299609,-0.00190864,0
0.7,4.6,0,0.299581,-0.00183129,0
0.7,4.7,0,0.299585,-0.00171,0
0.7,4.8,0,0.299586,-0.00160627,0
0.7,4.9,0,0.299576,-0.00150566,0
0.7,5,0,0.299581,-0.00139174,0
0.7,5.1,0,0.29958,-0.00128753,0
0.7,5.2,0,0.299571,-0.00115704,0
0.7,5.3,0,0.299582,-0.00106005,0
0.7,5.4,0,0.299564,-0.000931071,0
0.7,5.5,0,0.299587,-0.00082876,0
0.7,5.6,0,0.299559,-0.00070189,0
0.7,5.7,0,0.299589,-0.000593851,0
0.7,5.8,0,0.299556,-0.000470572,0
0.7,5.9,0,0.29959,-0.000356803,0
0.7,6,0,0.299555,-0.000238143,0
0.7,6.1,0,0.299589,-0.000119058,0
0.7,6.2,0,0.299556,-5.7316e-06,0
0.7,6.3,0,0.299587,0.000117714,0
0.7,6.4,0,0.299559,0.000225509,0
0.7,6.5,0,0.299584,0.000351998,0
0.7,6.6,0,0.299564,0.00045459,0
0.7,6.7,0,0.29958,0.000582466,0
0.7,6.8,0,0.299571,0.000680466,0
0.7,6.9,0,0.299576,0.000809659,0
0.7,7,0,0.299581,0.000923906,0
0.7,7.1,0,0.299574,0.00102897,0
0.7,7.2,0,0.299581,0.0011339,0
0.7,7.3,0,0.299593,0.00122594,0
0.7,7.4,0,0.299576,0.0013456,0
0.7,7.5,0,0.299594,0.00144661,0
0.7,7.6,0,0.299607,0.00153726,0
0.7,7.7,0,0.299586,0.00165435,0
0.7,7.8,0,0.299615,0.00174204,0
0.7,7.9,0,0.299625,0.00183245,0
0.7,8,0,0.299611,0.00194595,0
0.7,8.1,0,0.299643,0.00201881,0
0.7,8.2,0,0.29965,0.00210969,0