/*--------------------------------*- C++ -*----------------------------------*\
| =========                 |                                                 |
| \\      /  F ield         | OpenFOAM: The Open Source CFD Toolbox           |
|  \\    /   O peration     | Version:  v1806                                 |
|   \\  /    A nd           | Web:      www.OpenFOAM.com                      |
|    \\/     M anipulation  |                                                 |
\*---------------------------------------------------------------------------*/
FoamFile
{
    version     2.0;
    format      ascii;
    class       surfaceScalarField;
    location    "11";
    object      phi;
}
// * * * * * * * * * * * * * * * * * * * * * * * * * * * * * * * * * * * * * //

dimensions      [0 3 -1 0 0 0 0];
oriented        oriented;


internalField   nonuniform List<scalar> 
68400
(
0.0714951
0.0014295
0.0170754
0.0558872
0.00157652
0.0140314
0.0445977
0.00126284
0.0100267
0.0373379
0.00104733
0.00621247
0.0330855
0.000907769
0.00334463
0.0304294
0.00080321
0.00185286
0.0285778
0.000709663
0.00114201
0.0271858
0.000613902
0.000778026
0.0261115
0.000514321
0.000560061
0.0252408
0.000418671
0.000451971
0.0245461
0.000322822
0.000371912
0.0239695
0.000241291
0.00033526
0.023525
0.000154474
0.000290059
0.0231585
9.18971e-05
0.000274574
0.0228991
1.32796e-05
0.000246099
0.0226768
-1.52647e-05
0.000237572
0.02253
-7.27752e-05
0.000219593
0.0223717
-4.02135e-05
0.000198533
0.0222464
-6.98252e-05
0.000195176
-1.33331e-06
0.000147578
0.0221001
0.0732509
0.000955429
0.0172232
0.059242
0.00129421
0.0142912
0.0490973
0.00115415
0.0102534
0.0423515
0.00102604
0.00676712
0.0383599
0.000917732
0.00398165
0.0359964
0.000806568
0.0023601
0.0344709
0.000697631
0.00153761
0.0334184
0.000585291
0.00108108
0.0326558
0.000467173
0.000809715
0.0320818
0.000348098
0.000644615
0.0316381
0.000223406
0.000543121
0.0313022
0.000108059
0.000469165
0.031054
-1.18444e-05
0.000414484
0.0308882
-0.000116074
0.000373792
0.030791
-0.000225846
0.000336291
0.0307412
-0.000288351
0.000322894
0.0307464
-0.000356479
0.000278526
0.0307045
-0.000340865
0.000342529
0.0307378
-0.000341052
0.000237883
-0.000263561
0.000490521
0.0305095
0.0730877
0.000631534
0.0172362
0.059107
0.0010221
0.0142528
0.0491366
0.00102123
0.0101033
0.0425359
0.000954439
0.00667225
0.0386451
0.000865829
0.00394268
0.0363772
0.000745967
0.00232855
0.0349416
0.000617741
0.00151545
0.033983
0.000483951
0.00105996
0.0333085
0.0003464
0.000795249
0.0328267
0.000204792
0.000625103
0.032467
5.53002e-05
0.000527883
0.0322176
-8.94551e-05
0.000446871
0.0320495
-0.000237346
0.000393598
0.031967
-0.000371498
0.00033796
0.0319502
-0.000501384
0.000292328
0.0319818
-0.000593348
0.000273416
0.0320704
-0.000663804
0.000218696
0.0320919
-0.000666258
0.000303859
0.0322056
-0.00063417
0.000179457
-0.000532263
0.000442156
0.0320321
0.0729121
0.000438461
0.017281
0.0588059
0.000798564
0.0143298
0.0488301
0.000865691
0.0101313
0.0422666
0.000826925
0.00669103
0.0384134
0.000754842
0.00396417
0.0361839
0.00063496
0.00234053
0.0347807
0.000504557
0.00151637
0.0338511
0.000356249
0.00105725
0.0332012
0.000207997
0.000788289
0.0327431
4.74311e-05
0.000615469
0.0324062
-0.00012022
0.000512411
0.0321782
-0.000297425
0.000435978
0.0320329
-0.000473599
0.00038156
0.031972
-0.000644981
0.000334426
0.0319859
-0.00080063
0.000285296
0.0320444
-0.000925147
0.000273334
0.032176
-0.00100673
0.000211349
0.032226
-0.00102195
0.000305663
0.0323888
-0.000967159
0.00017017
-0.000824675
0.000439079
0.0322422
0.0728072
0.000326217
0.0173051
0.0586256
0.000624205
0.0143559
0.0486436
0.000731628
0.0101161
0.0421013
0.000711654
0.00665757
0.0382622
0.000660312
0.00393369
0.0360468
0.000537362
0.00231292
0.034651
0.000410934
0.00148945
0.033728
0.000244793
0.00103444
0.033079
8.61023e-05
0.000770964
0.0326242
-0.000101387
0.00060361
0.0322903
-0.000283423
0.000497115
0.0320702
-0.000491377
0.00041398
0.0319358
-0.000692295
0.000353143
0.0318886
-0.000903553
0.000305771
0.0319228
-0.00108984
0.000255022
0.0320053
-0.00125304
0.000245346
0.0321695
-0.00135633
0.000185426
0.0322542
-0.00138781
0.000281183
0.0324566
-0.00131845
0.000148924
-0.001135
0.000422185
0.0323447
0.0727423
0.000259971
0.0173239
0.0585074
0.000478505
0.0143806
0.0484982
0.000606612
0.0101342
0.0419523
0.000585598
0.006672
0.0381062
0.000555297
0.00395112
0.0358941
0.000420277
0.00232918
0.0344973
0.000305729
0.00150204
0.0335791
0.000119728
0.00104323
0.0329272
-3.77238e-05
0.000775693
0.0324717
-0.000257108
0.000611211
0.0321322
-0.000454825
0.000510925
0.0319106
-0.000704225
0.000434495
0.0317763
-0.000932588
0.000374585
0.0317378
-0.00119196
0.000326899
0.031788
-0.0014142
0.000274088
0.0318969
-0.00162414
0.000262198
0.0320989
-0.0017575
0.000199164
0.0322297
-0.00181065
0.000292048
0.0324853
-0.00173157
0.000157584
-0.00150232
0.000420529
0.0324321
0.0726916
0.000224455
0.0173439
0.0584212
0.000354225
0.0143947
0.0483843
0.000498482
0.010145
0.0418367
0.000460105
0.00667311
0.0379768
0.000460216
0.00395495
0.0357692
0.000300624
0.0023273
0.0343619
0.000210866
0.00150217
0.0334482
-8.98909e-06
0.00104237
0.0327861
-0.000153992
0.000778397
0.0323344
-0.000411647
0.000606208
0.0319875
-0.00060929
0.000501396
0.0317709
-0.000910356
0.0004227
0.0316352
-0.00115846
0.000361625
0.0316086
-0.0014826
0.000317244
0.0316725
-0.00174254
0.000264367
0.0318129
-0.00201926
0.000254769
0.0320569
-0.00219197
0.000190469
0.032246
-0.00228406
0.000284331
0.032569
-0.00220373
0.000149159
-0.00193141
0.000409157
0.0325889
0.0726468
0.000210081
0.0173676
0.0583603
0.000243959
0.0143968
0.0482951
0.00041278
0.0101509
0.0417484
0.000337492
0.00666932
0.0378624
0.000381097
0.00396512
0.035662
0.000176627
0.00232444
0.0342336
0.000130938
0.00150827
0.0333291
-0.000140716
0.00103622
0.0326436
-0.000250653
0.000782206
0.0321958
-0.000573873
0.000609979
0.0318238
-0.000749105
0.000511853
0.0316116
-0.00112996
0.000431779
0.0314608
-0.00137767
0.000370017
0.0314489
-0.00179709
0.000326438
0.0315203
-0.00208381
0.000269898
0.0316987
-0.00246239
0.000264666
0.0319887
-0.00267773
0.000195738
0.0322517
-0.00283946
0.00029248
0.032661
-0.00276616
0.000153125
-0.00245671
0.000408555
0.0327777
0.0726019
0.00020866
0.0173995
0.0583166
0.000143388
0.0143859
0.0482195
0.000351463
0.0101584
0.0416802
0.000217727
0.00665905
0.0377539
0.000322855
0.00398455
0.0355691
4.60006e-05
0.0023154
0.0341036
7.49092e-05
0.00152155
0.0332201
-0.000284486
0.00102726
0.0324936
-0.000316154
0.000792064
0.0320639
-0.000746088
0.000601911
0.0316499
-0.000850784
0.000515611
0.0314556
-0.00136227
0.000426662
0.0312692
-0.00156138
0.000370066
0.0312835
-0.00213722
0.000325823
0.0313453
-0.00241057
0.000264949
0.0315752
-0.00296193
0.000269637
0.0319097
-0.00320088
0.000188684
0.0322677
-0.00349718
0.00029969
0.0327881
-0.00343209
0.000145584
-0.00310421
0.000400568
0.033035
0.072555
0.000212621
0.0174411
0.0582871
5.29011e-05
0.0143583
0.0481538
0.000317769
0.010167
0.0416314
0.000101791
0.00663832
0.0376516
0.000291329
0.0040113
0.0354955
-9.21797e-05
0.00229435
0.0339757
5.37431e-05
0.00154089
0.0331274
-0.000440091
0.00100396
0.0323377
-0.000333759
0.000807331
0.0319406
-0.000932994
0.000584025
0.0314566
-0.00089635
0.000529556
0.0312975
-0.00161863
0.000415388
0.0310441
-0.00168434
0.000376425
0.0311056
-0.00252126
0.000322512
0.0311232
-0.00269045
0.000262264
0.0314304
-0.00354767
0.00027855
0.0317866
-0.00373496
0.000177868
0.0322788
-0.00430931
0.000319953
0.0329316
-0.00422049
0.000135639
-0.00392461
0.000397713
0.0333542
0.0725082
0.000210206
0.0174942
0.0582703
-2.60733e-05
0.0143169
0.0480954
0.000311694
0.0101809
0.0416026
-7.30526e-06
0.00660196
0.0375563
0.000289225
0.00404838
0.0354473
-0.000233958
0.00225079
0.0338495
7.53561e-05
0.00157614
0.03305
-0.000600029
0.000959436
0.0321724
-0.000298785
0.000842598
0.0318268
-0.00113072
0.000543402
0.0312413
-0.000874052
0.000563191
0.0311409
-0.00189705
0.000378762
0.0307782
-0.00172271
0.000401087
0.0309184
-0.00295449
0.000293013
0.0308383
-0.00288104
0.000270702
0.0312712
-0.00424876
0.00026823
0.031595
-0.00421973
0.000160934
0.0322988
-0.00535561
0.00034253
0.033087
-0.00511219
0.000103514
-0.00502946
0.000452697
0.0337391
0.0724683
0.000195012
0.0175469
0.0582678
-8.82301e-05
0.0142627
0.0480435
0.000327946
0.010208
0.0415851
-0.000110052
0.00656115
0.0374685
0.0003177
0.00408815
0.0354091
-0.000368843
0.0021943
0.033727
0.000136533
0.00162092
0.0329814
-0.000755958
0.000901538
0.0320041
-0.000209147
0.000887619
0.0317183
-0.00133066
0.000485784
0.031012
-0.000771725
0.000603984
0.0309819
-0.00218912
0.000322132
0.0304764
-0.00164918
0.000431949
0.0307116
-0.00343798
0.000248283
0.0304829
-0.00292777
0.000275407
0.0310781
-0.0050976
0.000253689
0.0313064
-0.00455873
0.000110695
0.0323119
-0.00675168
0.000390563
0.0332045
-0.00597062
-3.41805e-05
-0.00664003
0.000597511
0.0342176
0.0724432
0.000158627
0.0175932
0.0582764
-0.000124172
0.0142027
0.0479987
0.000356638
0.010249
0.0415676
-0.000195687
0.00651678
0.0373899
0.000364577
0.00413082
0.035374
-0.000484471
0.00213151
0.0336121
0.000226313
0.00167215
0.0329156
-0.000891045
0.000831524
0.0318391
-7.45155e-05
0.000941908
0.0316082
-0.00150514
0.000405343
0.0307725
-0.000603873
0.000667904
0.0308084
-0.00245368
0.000228642
0.030139
-0.00147827
0.000498444
0.0304673
-0.00390914
0.000142893
0.0300408
-0.00284384
0.000342569
0.0308237
-0.00601892
0.000138457
0.0308531
-0.00474976
0.00016162
0.0323099
-0.00851644
0.000307927
0.0331661
-0.00670193
-0.000124863
-0.00908377
0.000748632
0.0348612
0.0724419
9.79343e-05
0.0176188
0.0582903
-0.000127791
0.0141552
0.0479652
0.000394567
0.0102872
0.0415477
-0.000254179
0.00647594
0.0373237
0.000420166
0.00416841
0.035337
-0.000570225
0.00207251
0.0335061
0.000330868
0.00172628
0.0328446
-0.000991028
0.000761548
0.0316742
8.58733e-05
0.00100995
0.0314876
-0.00163887
0.000320313
0.0305228
-0.000374424
0.000735405
0.0306154
-0.00267047
0.000124226
0.0297663
-0.00118838
0.000559142
0.0301818
-0.00434143
1.6867e-05
0.0295046
-0.00257022
0.000403577
0.0304796
-0.00701321
1.92559e-05
0.0302478
-0.0046294
0.000111432
0.0321905
-0.0108611
0.000401985
0.0329839
-0.00696687
-0.000528474
-0.0132463
0.00162258
0.0355239
0.0724626
9.68084e-06
0.0176256
0.0583002
-0.000107491
0.0141421
0.0479328
0.000426482
0.0103355
0.0415185
-0.000300783
0.00646089
0.0372606
0.00046961
0.00420844
0.0352924
-0.000645639
0.00204362
0.0334094
0.000443565
0.00177033
0.0327698
-0.00108088
0.000729462
0.0315271
0.000283253
0.00104532
0.0313645
-0.00175816
0.000281899
0.0302914
-7.42381e-05
0.000772874
0.030405
-0.00285873
7.46599e-05
0.0293862
-0.000797209
0.000627674
0.0298409
-0.00474304
-5.31375e-05
0.0289277
-0.00211791
0.000460906
0.0300258
-0.00805373
-5.75723e-05
0.0295298
-0.00416983
3.64481e-05
0.0320071
-0.0137348
0.000396403
0.0324407
-0.00652699
-0.000873498
-0.0202211
0.00270045
0.036715
0.0725568
-0.000109827
0.0175627
0.0582947
-4.25591e-05
0.0141972
0.0479491
0.000433278
0.0103388
0.041456
-0.000311587
0.00650392
0.0372555
0.000472252
0.00419787
0.0352179
-0.000677322
0.00206926
0.0333775
0.000499135
0.00178486
0.0326685
-0.00110686
0.000734881
0.0314501
0.000413136
0.00108855
0.0312162
-0.00177722
0.000252971
0.0301364
0.000145516
0.000860013
0.0301841
-0.00290597
-4.52438e-07
0.0291096
-0.000425492
0.000702816
0.0295045
-0.00493078
-0.000207152
0.0284729
-0.00157232
0.000486048
0.0295906
-0.00881264
-0.000358855
0.0287797
-0.00343626
7.73478e-05
0.0319299
-0.0169785
9.34644e-05
0.0315843
-0.00473388
-0.00144745
-0.0323418
0.00423393
0.039471
0.0726828
-0.000296843
0.0175042
0.0582828
9.2228e-05
0.0142653
0.0479532
0.00031322
0.0104497
0.0413801
-0.000256723
0.00651817
0.0372432
0.000325977
0.00428325
0.0351423
-0.000613589
0.00203713
0.0333256
0.000366805
0.00194904
0.0325624
-0.00102451
0.000680808
0.0313487
0.000320071
0.00130683
0.0310735
-0.00166192
0.000159899
0.0299631
0.000125433
0.00113048
0.0299617
-0.00275185
-0.0001528
0.0287929
-0.000381146
0.00112454
0.0291334
-0.00482174
-0.000449609
0.0278832
-0.00151379
0.00119165
0.0290798
-0.00926112
-0.00074804
0.0279119
-0.00322302
0.000954592
0.0320493
-0.0206791
-0.000436784
0.0310917
-0.00192448
-0.00185178
-0.0498975
0.00592371
0.0427237
0.0729239
-0.000410074
0.0171894
0.0582417
0.000268302
0.0145061
0.0480672
8.04117e-05
0.0104073
0.0411186
-9.91973e-05
0.00679112
0.0373675
-5.37643e-05
0.00413078
0.0348536
-0.0003503
0.00225069
0.0334586
-9.19406e-05
0.00185369
0.0322293
-0.00067853
0.000883322
0.0314738
-0.000223072
0.00129869
0.0306856
-0.0011746
0.000300894
0.0300651
-0.0005
0.00124593
0.0294833
-0.00206356
-0.000106479
0.0288496
-0.00111311
0.00136567
0.0284998
-0.0038643
-0.000607704
0.0278902
-0.00249453
0.00159039
0.0282655
-0.00814737
-0.00148913
0.0282467
-0.00488458
0.0016804
0.0335899
-0.0219917
-0.00403058
0.0324301
0.00139838
-0.00216306
-0.0762827
0.00293388
0.0558813
0.0732034
-0.000608944
0.0169955
0.058179
0.000748193
0.0145445
0.0482709
-0.000463796
0.0104523
0.0409796
0.000536142
0.00665598
0.0376507
-0.000872442
0.00414761
0.034704
0.000626865
0.00196951
0.0337127
-0.00117435
0.00207369
0.032014
0.000645238
0.000374933
0.0316946
-0.00164218
0.0017385
0.0303739
0.00064839
-0.000502259
0.0302006
-0.00237991
0.0020532
0.0290414
0.000500735
-0.00140509
0.0287828
-0.00367362
0.00281909
0.0276874
-0.000101732
-0.00266716
0.0273433
-0.00630449
0.0041541
0.0260893
-0.00221448
-0.0046789
0.0258928
-0.0120481
0.00736
0.025704
-0.0130382
-0.0087647
0.0212423
-0.0140083
0.0198685
-0.101453
-0.0114818
0.0578943
0.0731932
0.0168936
-0.000695757
0.0582775
0.0146501
0.00101382
0.0483697
0.0103335
-0.000889552
0.0411645
0.00675849
0.000982823
0.0378704
0.00382085
-0.00139917
0.034918
0.00235473
0.00122454
0.0339955
0.00160209
-0.00185399
0.0322407
0.000995226
0.00140481
0.0320125
0.00107554
-0.00248946
0.0305342
0.000523453
0.00160326
0.0304714
0.00110451
-0.00342164
0.0289576
0.000277235
0.00173733
0.0287907
0.00140165
-0.00490838
0.0270358
8.77578e-05
0.00156542
0.0265179
0.00195625
-0.00774293
0.0242299
0.000302668
-0.000229093
0.025228
0.00257848
-0.0156247
0.0225302
0.00462251
-0.014963
0.0342578
0.0249159
-0.0506518
-0.0213213
0.0789005
-0.124774
0.0911809
0.0015656
0.0143289
0.0887672
0.00203238
0.0144128
0.0849648
0.00198484
0.0118442
0.0804951
0.00193905
0.00874316
0.07621
0.00186386
0.00576579
0.0723738
0.00177837
0.0039107
0.0689973
0.00166993
0.00284864
0.06605
0.00155929
0.00216602
0.0635289
0.00141539
0.00166577
0.0613588
0.00128323
0.00133883
0.0595302
0.00111659
0.00108387
0.0579603
0.000985738
0.000919425
0.0566688
0.000810473
0.000771133
0.0555648
0.000697168
0.000681378
0.0546972
0.000519557
0.000594136
0.0539481
0.000442491
0.000544182
0.0533887
0.000280317
0.000498709
0.05287
0.000265402
0.000451832
0.0524366
0.000162936
0.000465683
0.000169655
0.000279385
0.0521351
0.0932948
0.00104893
0.014445
0.0932493
0.00165681
0.0147123
0.0917669
0.00176911
0.0119515
0.0894019
0.00182495
0.00924627
0.0869251
0.00182825
0.00649408
0.0847007
0.00178567
0.00457716
0.0827464
0.00169904
0.00346275
0.0810786
0.00159453
0.00271365
0.0796673
0.00144732
0.00218908
0.0785076
0.00129636
0.00179124
0.0775416
0.00110309
0.00152258
0.076779
0.000926299
0.00129125
0.0761644
0.000707058
0.00113248
0.0757204
0.000527737
0.000987215
0.0753984
0.00030528
0.000872545
0.0751973
0.000150932
0.000815614
0.0751203
-3.59983e-05
0.000671785
0.0749985
-0.00012947
0.000859188
0.075029
-0.000222934
0.000593281
-0.000253787
0.00149031
0.0744527
0.0931477
0.00067847
0.014459
0.093128
0.00124019
0.0146892
0.0917901
0.00144184
0.0117685
0.089636
0.00154892
0.00910235
0.0874002
0.00159681
0.00640995
0.0854416
0.00157464
0.0044982
0.0837536
0.001497
0.0034055
0.0823611
0.00138109
0.00266591
0.0812134
0.00122584
0.00216437
0.0803201
0.00104858
0.00176626
0.0796012
0.000836672
0.00151313
0.0790847
0.000614973
0.00127478
0.0786969
0.000364697
0.00112376
0.0784788
0.00012009
0.000963691
0.0783713
-0.000135153
0.000840211
0.0783781
-0.000358259
0.000775805
0.0785126
-0.000566581
0.00061476
0.0785648
-0.000714517
0.000836735
0.0787883
-0.000803569
0.000536609
-0.000824754
0.00147186
0.0783296
0.0929942
0.00047004
0.0144952
0.0928432
0.000946646
0.0147743
0.091432
0.00118623
0.0117982
0.0892461
0.00130261
0.00912324
0.0870045
0.00136814
0.00643441
0.0850679
0.00134385
0.00450788
0.0834128
0.00127215
0.00339631
0.0820644
0.00113762
0.00264916
0.0809632
0.000973748
0.00214157
0.0801206
0.000765005
0.00174164
0.0794539
0.00053412
0.00148164
0.0789881
0.000269397
0.00124735
0.0786527
-8.52286e-06
0.0010902
0.0784817
-0.000315009
0.000940519
0.0784326
-0.000614621
0.000813856
0.0784881
-0.00090483
0.000764471
0.0786958
-0.00115353
0.000590565
0.0787993
-0.00135098
0.000838584
0.0791115
-0.00145472
0.000509135
-0.00147022
0.00149449
0.0787016
0.0929022
0.000354505
0.0145184
0.0926746
0.00072034
0.0148099
0.0912152
0.000968154
0.0117935
0.0890093
0.00107119
0.00909483
0.0867522
0.00115412
0.00640482
0.0848142
0.0011175
0.00447736
0.0831559
0.00105809
0.00336179
0.0818099
0.000902347
0.00261566
0.0807069
0.000735619
0.00211214
0.079866
0.000491534
0.00171795
0.0792004
0.000239502
0.00145735
0.0787421
-7.76094e-05
0.00121929
0.0784194
-0.0003912
0.00105849
0.0782647
-0.000754507
0.000900023
0.0782408
-0.00110146
0.000765763
0.0783256
-0.00146076
0.000716399
0.0785744
-0.00176125
0.000544421
0.0787241
-0.00201437
0.0007948
0.0790942
-0.00214471
0.000468864
-0.00215576
0.00146053
0.0787414
0.0928455
0.000295008
0.0145379
0.092568
0.000538951
0.0148395
0.0910557
0.000793129
0.0118215
0.0888181
0.000860489
0.00912038
0.0865236
0.000964484
0.00643519
0.0845664
0.000896469
0.00450739
0.0828861
0.000854302
0.00338618
0.0815319
0.000664775
0.00263504
0.0804156
0.000502648
0.00212493
0.0795683
0.000218578
0.00173147
0.0788896
-4.27229e-05
0.0014718
0.0784218
-0.000417012
0.00124172
0.0780892
-0.000769867
0.00108583
0.0779334
-0.00120565
0.000933835
0.077917
-0.00161073
0.000799775
0.0780227
-0.00205056
0.000746361
0.0783088
-0.00241785
0.000569671
0.0785106
-0.00273939
0.000815163
0.078947
-0.00290894
0.000485472
-0.00292834
0.00146305
0.0786771
0.0927999
0.000277546
0.0145616
0.0924936
0.000385337
0.0148546
0.0909302
0.000659178
0.0118424
0.0886738
0.000660605
0.00912938
0.0863398
0.000804106
0.00644928
0.0843726
0.000677302
0.00451373
0.0826616
0.000674383
0.00339307
0.0813021
0.000428002
0.00263863
0.0801596
0.000291995
0.00213151
0.0793093
-5.89721e-05
0.00173405
0.0786128
-0.000313116
0.00146835
0.0781456
-0.000758849
0.00123177
0.0778033
-0.00113275
0.00106678
0.0776539
-0.00165912
0.000920135
0.0776426
-0.00212011
0.000784986
0.0777745
-0.00266367
0.000736008
0.0780997
-0.00310998
0.000557427
0.0783646
-0.00352451
0.000804512
0.0788827
-0.0037513
0.000473399
-0.00379485
0.00144818
0.0787102
0.0927575
0.000294464
0.0145931
0.0924476
0.000240864
0.0148511
0.0908288
0.000569019
0.0118599
0.0885676
0.000463365
0.00912778
0.086183
0.000684413
0.00646935
0.0842152
0.000453595
0.00451592
0.082459
0.000532493
0.00340638
0.081104
0.00018236
0.00263684
0.079919
0.000121914
0.00213733
0.0790687
-0.000338362
0.00173964
0.0783276
-0.000540133
0.00148001
0.0778571
-0.00110684
0.00125026
0.0774797
-0.00146507
0.00107974
0.0773342
-0.00212595
0.000938722
0.0773126
-0.00262236
0.000793745
0.0774727
-0.0033125
0.000753441
0.077834
-0.00384254
0.000566951
0.0781736
-0.00439065
0.000819094
0.0787892
-0.00469752
0.000483749
-0.00479306
0.00145242
0.0787435
0.0927129
0.000341224
0.0146398
0.0924266
9.107e-05
0.014822
0.0907377
0.000529171
0.0118871
0.0884891
0.000258431
0.00911255
0.0860369
0.000619802
0.00650134
0.0840863
0.000212039
0.00450758
0.0822618
0.000450054
0.00342845
0.0809305
-8.80827e-05
0.00262901
0.0796746
1.74111e-05
0.00215251
0.0788464
-0.000644618
0.00173636
0.0780357
-0.000696349
0.00148256
0.0775845
-0.00147999
0.00125101
0.0771427
-0.00172864
0.00107545
0.0770182
-0.00262243
0.000946789
0.0769594
-0.00308131
0.000782678
0.0771609
-0.00401085
0.000766532
0.0775484
-0.0045973
0.000555935
0.0779798
-0.00535378
0.00083141
0.0787136
-0.00576315
0.000477372
-0.005954
0.00144465
0.0788305
0.0926645
0.000413685
0.0147041
0.0924354
-7.59106e-05
0.0147544
0.0906526
0.000546623
0.0119324
0.0884369
3.47549e-05
0.00907769
0.0858997
0.000624661
0.00654367
0.0839902
-6.23953e-05
0.00447829
0.0820717
0.000449398
0.00345997
0.0807897
-0.000401125
0.00259907
0.0794301
1.01143e-05
0.00217424
0.0786505
-0.00099931
0.00171829
0.0777271
-0.00073808
0.00149466
0.077324
-0.00190959
0.00124813
0.0767689
-0.0018688
0.00107168
0.0766959
-0.00318714
0.000960157
0.0765462
-0.003434
0.000764663
0.0768177
-0.00479971
0.000795898
0.0771898
-0.00532605
0.000534544
0.0777479
-0.00645554
0.000863622
0.0786076
-0.00696462
0.000477422
-0.00731144
0.001426
0.0789367
0.0926159
0.000500421
0.0147916
0.0924875
-0.000270664
0.01464
0.0905721
0.00062968
0.0120133
0.0884126
-0.000219155
0.00901534
0.0857702
0.000709646
0.00660585
0.0839332
-0.000382974
0.00440831
0.0818863
0.000553833
0.00351858
0.0806811
-0.00076926
0.0025328
0.0791787
0.000132026
0.0022231
0.0784836
-0.00142503
0.00166425
0.0773954
-0.000620449
0.00153372
0.0770837
-0.00243049
0.00121135
0.0763464
-0.00181836
0.00108793
0.0763786
-0.0038731
0.000946813
0.0760527
-0.00358635
0.000748945
0.0764592
-0.00575517
0.000817228
0.0767281
-0.00592446
0.000490439
0.0774922
-0.0077823
0.000905136
0.0784484
-0.00828722
0.000469914
-0.00893253
0.00147428
0.0790479
0.0925732
0.000590987
0.0148831
0.0925363
-0.00048379
0.0145127
0.0904998
0.000768934
0.0121052
0.0884077
-0.00050256
0.00893666
0.085651
0.000876949
0.00667756
0.0838941
-0.000742127
0.00431037
0.0817092
0.000764635
0.00359502
0.0805954
-0.00119212
0.00243814
0.0789286
0.000394662
0.00229182
0.0783394
-0.00192977
0.00157977
0.0770511
-0.00031332
0.00158513
0.076861
-0.00306539
0.00114714
0.0758835
-0.00151391
0.00110499
0.0760585
-0.00473208
0.000932194
0.0754717
-0.00342229
0.000698233
0.0760658
-0.00698347
0.000887846
0.0761329
-0.00621505
0.000334229
0.0771884
-0.00950286
0.00105556
0.0781992
-0.00953325
0.000201093
-0.0109794
0.00172972
0.0791138
0.0925462
0.000668333
0.0149697
0.0925734
-0.000697885
0.0143896
0.0904413
0.00094907
0.0122009
0.0884047
-0.000798674
0.00884954
0.085547
0.00110806
0.00675742
0.0838605
-0.00112407
0.00419996
0.0815466
0.0010663
0.00368437
0.0805173
-0.00165359
0.00232225
0.0786884
0.000787892
0.00237757
0.0782007
-0.00249399
0.00145731
0.076699
0.000184902
0.00167134
0.0766306
-0.00379272
0.00102443
0.0753758
-0.000940866
0.00118019
0.0757058
-0.00574654
0.000827297
0.0747695
-0.00288961
0.000746245
0.0756021
-0.00850606
0.000828392
0.0752951
-0.00607513
0.000328757
0.0768068
-0.0117465
0.00103982
0.0777183
-0.0105989
2.93481e-05
-0.0136762
0.00126128
0.0799025
0.09254
0.000719131
0.015028
0.0926024
-0.000898653
0.0142936
0.090402
0.00115415
0.0122825
0.0884041
-0.00108723
0.00876235
0.0854612
0.00138371
0.00683575
0.0838316
-0.00150796
0.004086
0.0813966
0.00144203
0.00378554
0.0804435
-0.002132
0.00219306
0.0784457
0.0012999
0.00249572
0.0780598
-0.00310026
0.00131253
0.0763235
0.000862596
0.001794
0.0763918
-0.00460916
0.000872329
0.0748059
-7.31532e-05
0.00127734
0.0753292
-0.00695096
0.000697969
0.0739286
-0.00185707
0.000771655
0.0750409
-0.0104508
0.00085168
0.0742521
-0.00523413
5.92451e-05
0.0761712
-0.0148446
0.00158094
0.0769928
-0.0111481
-0.000800835
-0.0174891
0.00285633
0.0795719
0.0925585
0.000727686
0.0150586
0.0926237
-0.00108118
0.0142594
0.0903771
0.00137478
0.0123615
0.0883981
-0.0013783
0.00873096
0.0853874
0.00169216
0.00691064
0.0837948
-0.00191267
0.00404091
0.0812681
0.00187747
0.00386162
0.0803664
-0.00264885
0.00214804
0.0782435
0.00191309
0.00255506
0.0779271
-0.00376612
0.00126409
0.0760051
0.00172047
0.00183703
0.0761664
-0.00551069
0.000814836
0.0742797
0.00112314
0.0013181
0.0749425
-0.00831141
0.000644517
0.0730896
-0.000304866
0.000761623
0.0744389
-0.0127513
0.000893674
0.0730766
-0.00365208
-0.00018326
0.0755107
-0.018825
0.00194264
0.075896
-0.0110011
-0.00140576
-0.0228125
0.00432953
0.0795903
0.0926657
0.000652338
0.0149723
0.0925925
-0.00117995
0.0143692
0.0904591
0.00152122
0.0123257
0.0883646
-0.00156623
0.00878642
0.0854416
0.00190418
0.00690884
0.0837428
-0.00220034
0.00405569
0.0812917
0.00221657
0.0038969
0.0802969
-0.0030328
0.00211364
0.0782191
0.0024479
0.00263152
0.0778292
-0.00427858
0.00115535
0.0758925
0.00255067
0.00196649
0.0760232
-0.00626291
0.000621014
0.0740216
0.00238318
0.00144441
0.074735
-0.00957715
0.000345211
0.0725657
0.00155615
0.000794375
0.0741947
-0.0152473
0.000508113
0.0719851
-0.00110223
-0.00026294
0.0752606
-0.0241002
0.00209321
0.0746522
-0.00932103
-0.00251911
-0.0305787
0.0064358
0.0802166
0.0928348
0.000399736
0.014922
0.0925011
-0.00105963
0.0144787
0.0905526
0.00145653
0.0124628
0.0883129
-0.00157396
0.00876564
0.0854938
0.00188535
0.00712109
0.0836766
-0.00229204
0.00394607
0.0812986
0.00229892
0.00424473
0.0802047
-0.00320495
0.00194678
0.0781705
0.00270014
0.00308884
0.077723
-0.00455759
0.000886418
0.0757776
0.00308846
0.00253807
0.0759134
-0.00674125
0.000189802
0.0737637
0.00343836
0.00221905
0.0746384
-0.0105535
-0.000348039
0.0719763
0.00354852
0.00186141
0.0742174
-0.0176624
-0.000574069
0.070906
0.00237119
0.0007926
0.0758013
-0.0302089
0.000776627
0.0742194
-0.00655162
-0.00303932
-0.0406726
0.00861152
0.0816255
0.0931407
-1.87163e-05
0.0144671
0.0923034
-0.000590905
0.0148747
0.0908562
0.000952905
0.0123581
0.0879954
-0.00110828
0.00918622
0.0858167
0.00120885
0.00698601
0.0832907
-0.00173026
0.00421491
0.0816621
0.00153754
0.00424363
0.0797776
-0.00254318
0.00210604
0.078599
0.0018812
0.00329623
0.0772925
-0.00375662
0.000806472
0.0762982
0.00230899
0.00301962
0.0755379
-0.00580823
-0.000279113
0.0744552
0.00288247
0.00300423
0.0745187
-0.00967363
-0.00155105
0.0729757
0.00377042
0.00291148
0.075065
-0.0178759
-0.00336494
0.0725985
0.00526116
0.00125695
0.0805679
-0.0367074
-0.00550152
0.076667
0.0028757
-0.00768954
-0.060165
0.00753232
0.091561
0.0936204
-0.000935796
0.0142921
0.0921155
0.000782531
0.014676
0.0913199
-0.000434501
0.0126353
0.0876745
0.00050572
0.00868741
0.0862998
-0.000625281
0.00735642
0.0828276
0.00033628
0.00337519
0.0820435
-0.000754907
0.00515028
0.0790495
6.77639e-05
0.000758005
0.0787944
-0.000981786
0.00485658
0.0761518
-0.000379112
-0.00123716
0.0761574
-0.00127064
0.00562719
0.0737544
-0.00134929
-0.00346102
0.0736399
-0.00158157
0.00739765
0.0715084
-0.00370234
-0.006507
0.0706593
-0.0016413
0.0104149
0.0691687
-0.0102475
-0.0108167
0.0657304
-2.79052e-05
0.0160874
0.0686331
-0.0313735
-0.0170013
0.0536873
0.012291
0.025399
-0.0908202
-0.0148744
0.087735
0.0934267
0.0139929
-0.00146171
0.0924286
0.0147467
0.00168401
0.0914507
0.012273
-0.00139597
0.0881401
0.00897953
0.00159526
0.0865822
0.00654658
-0.00179308
0.0834638
0.00413562
0.00167378
0.0824735
0.00401624
-0.00217882
0.0797907
0.00202259
0.00172328
0.0792793
0.00329198
-0.00268684
0.0768313
0.000914845
0.00167744
0.0765308
0.00344854
-0.00331417
0.0739626
0.000206386
0.00128981
0.0735633
0.00429319
-0.00407385
0.0702145
-0.000217889
-4.79112e-05
0.0694822
0.00611432
-0.00506699
0.0635672
1.46088e-06
-0.00403138
0.0632885
0.00976901
-0.00693972
0.0553993
0.00255066
-0.0214124
0.0688764
0.0384213
-0.0146915
-0.0364258
0.122019
-0.128859
0.0933947
0.00155375
0.00938037
0.0955906
0.00205969
0.0101572
0.0965652
0.00205841
0.00881112
0.0960988
0.00212179
0.00708773
0.0946254
0.00211495
0.00512425
0.0926488
0.00209089
0.00379647
0.0904769
0.00202749
0.00299309
0.0882332
0.00197077
0.00243894
0.0860519
0.00185967
0.00198734
0.0839611
0.00177093
0.00165873
0.082041
0.00162163
0.0013823
0.0802622
0.00151669
0.00118153
0.0786955
0.00134157
0.000996298
0.0772727
0.00123571
0.000868497
0.0760757
0.00104581
0.000745256
0.0749941
0.000956955
0.000668834
0.0741226
0.00077325
0.000596972
0.0733162
0.000735739
0.000522486
0.0726774
0.000594955
0.000509549
0.000607864
0.000112289
0.0722366
0.0955014
0.00104297
0.00945434
0.100163
0.00168715
0.0104236
0.103494
0.00184193
0.00883676
0.105467
0.00198809
0.00740629
0.106356
0.00206486
0.0056559
0.106626
0.00209455
0.0043031
0.106555
0.00206635
0.00349553
0.106305
0.00202872
0.00290516
0.105949
0.00193193
0.00247317
0.105575
0.00183687
0.00209915
0.105196
0.00168096
0.00184199
0.104872
0.00154203
0.00158963
0.104588
0.00134275
0.00141619
0.104391
0.00117773
0.00124167
0.104255
0.000957075
0.0010977
0.10421
0.000790271
0.00102644
0.104235
0.000582407
0.000838516
0.104337
0.000456536
0.00103572
0.104512
0.000310374
0.000702892
0.000268037
0.00158656
0.104756
0.0953618
0.000678271
0.00946185
0.100087
0.00125841
0.0103924
0.103486
0.00149082
0.0087205
0.105635
0.00165574
0.00728629
0.106769
0.00176645
0.00557416
0.107333
0.0018126
0.00421612
0.107575
0.00180233
0.0034272
0.107671
0.00175511
0.00284354
0.107669
0.00166223
0.0024367
0.107665
0.00154235
0.00206465
0.10765
0.00138016
0.00182873
0.107694
0.00119863
0.00157408
0.107764
0.00098166
0.00141524
0.107918
0.000755211
0.00123233
0.108118
0.000508825
0.00108776
0.108404
0.000268114
0.00101218
0.108749
3.57508e-05
0.000816621
0.109161
-0.000160717
0.0010421
0.109637
-0.000309388
0.000680022
-0.000406218
0.00154948
0.110234
0.0952189
0.000473022
0.00948152
0.0998574
0.000954522
0.0104397
0.103177
0.00122027
0.00874881
0.105284
0.00137646
0.00729606
0.106399
0.00149856
0.00558747
0.106967
0.00153402
0.00421777
0.107223
0.00153068
0.00341221
0.107346
0.00146135
0.00281958
0.107379
0.00136373
0.00240726
0.10742
0.00121097
0.0020326
0.107456
0.00103367
0.00179168
0.107555
0.000807853
0.00153955
0.107686
0.000563891
0.00137654
0.107899
0.000281624
0.00120115
0.10817
3.78332e-07
0.00105089
0.108519
-0.000309111
0.000993347
0.108948
-0.000582678
0.000780224
0.109427
-0.000842124
0.00104077
0.109999
-0.00102043
0.000647493
-0.00114902
0.00158803
0.110649
0.0951325
0.000362671
0.00949622
0.0997169
0.000720334
0.0104596
0.102984
0.000991659
0.00875541
0.10506
0.0011158
0.00727877
0.106148
0.00124781
0.00556776
0.106705