/*--------------------------------*- C++ -*----------------------------------*\
| =========                 |                                                 |
| \\      /  F ield         | OpenFOAM: The Open Source CFD Toolbox           |
|  \\    /   O peration     | Version:  plus                                  |
|   \\  /    A nd           | Web:      www.OpenFOAM.com                      |
|    \\/     M anipulation  |                                                 |
\*---------------------------------------------------------------------------*/
FoamFile
{
    version     2.0;
    format      ascii;
    class       volVectorField;
    location    "9";
    object      U;
}
// * * * * * * * * * * * * * * * * * * * * * * * * * * * * * * * * * * * * * //

dimensions      [0 1 -1 0 0 0 0];


internalField   nonuniform List<vector> 
2400
(
(3 -0.0100676 0)
(3.00006 -0.0318152 0)
(3 -0.0531685 0)
(3.00003 -0.0741137 0)
(2.99994 -0.0937921 0)
(3.00031 -0.117979 0)
(2.99995 -0.138331 0)
(3.00037 -0.160614 0)
(3.00016 -0.181311 0)
(3.00072 -0.204903 0)
(3.00053 -0.222474 0)
(3.00136 -0.245154 0)
(3.00167 -0.266593 0)
(3.00221 -0.287664 0)
(3.003 -0.302043 0)
(3.00388 -0.320388 0)
(3.00564 -0.337201 0)
(3.00653 -0.353278 0)
(3.00945 -0.365252 0)
(3.01036 -0.376014 0)
(2.9999 -0.0101233 0)
(3.00018 -0.0318034 0)
(2.99997 -0.0530707 0)
(3.00016 -0.074055 0)
(2.99988 -0.0939605 0)
(3.00063 -0.118064 0)
(3.00008 -0.138277 0)
(3.00081 -0.160905 0)
(3.00059 -0.181526 0)
(3.00171 -0.205386 0)
(3.00163 -0.222952 0)
(3.00332 -0.246344 0)
(3.00426 -0.267315 0)
(3.00584 -0.289032 0)
(3.00757 -0.303523 0)
(3.01008 -0.322973 0)
(3.01348 -0.339484 0)
(3.01628 -0.356304 0)
(3.02085 -0.368185 0)
(3.02531 -0.380071 0)
(2.99986 -0.0101395 0)
(3.00023 -0.0318351 0)
(2.99995 -0.0529558 0)
(3.0002 -0.0740193 0)
(2.99985 -0.094037 0)
(3.00076 -0.118292 0)
(3.00012 -0.138268 0)
(3.00105 -0.161379 0)
(3.00088 -0.181897 0)
(3.00236 -0.206313 0)
(3.0025 -0.223747 0)
(3.0048 -0.248157 0)
(3.0063 -0.268788 0)
(3.00867 -0.291497 0)
(3.0114 -0.305939 0)
(3.01508 -0.326909 0)
(3.02004 -0.343163 0)
(3.02458 -0.361395 0)
(3.03187 -0.373217 0)
(3.03694 -0.386849 0)
(2.99978 -0.010208 0)
(3.00034 -0.0318104 0)
(2.99983 -0.0528005 0)
(3.00025 -0.0738869 0)
(2.99965 -0.0942351 0)
(3.00088 -0.118436 0)
(2.99983 -0.138268 0)
(3.00119 -0.16195 0)
(3.00072 -0.182464 0)
(3.00282 -0.207417 0)
(3.0027 -0.224978 0)
(3.00601 -0.250606 0)
(3.00755 -0.27079 0)
(3.0111 -0.294818 0)
(3.01427 -0.309483 0)
(3.01963 -0.332303 0)
(3.02544 -0.348229 0)
(3.03162 -0.368345 0)
(3.0398 -0.380198 0)
(3.04824 -0.395894 0)
(2.99972 -0.0102648 0)
(3.00041 -0.0317567 0)
(2.9997 -0.052585 0)
(3.0002 -0.0737058 0)
(2.9994 -0.0943336 0)
(3.00072 -0.118538 0)
(2.99935 -0.13821 0)
(3.00096 -0.162578 0)
(3.00022 -0.183061 0)
(3.00267 -0.208755 0)
(3.00241 -0.226399 0)
(3.00643 -0.253575 0)
(3.00806 -0.273345 0)
(3.0126 -0.299113 0)
(3.01619 -0.313865 0)
(3.02293 -0.33914 0)
(3.02989 -0.354682 0)
(3.0381 -0.377252 0)
(3.04876 -0.38879 0)
(3.05814 -0.407208 0)
(2.9996 -0.0103514 0)
(3.00054 -0.0316093 0)
(2.99945 -0.0522798 0)
(3.00012 -0.0733937 0)
(2.99895 -0.0943828 0)
(3.00044 -0.118434 0)
(2.99843 -0.138061 0)
(3.00046 -0.163134 0)
(2.99902 -0.183613 0)
(3.00206 -0.210082 0)
(3.00112 -0.228039 0)
(3.00626 -0.256963 0)
(3.0072 -0.27627 0)
(3.0132 -0.30412 0)
(3.01647 -0.31917 0)
(3.0254 -0.347425 0)
(3.03245 -0.362503 0)
(3.04285 -0.388006 0)
(3.05354 -0.39904 0)
(3.06683 -0.420967 0)
(2.99954 -0.0104376 0)
(3.00058 -0.0313598 0)
(2.99919 -0.0518279 0)
(2.99986 -0.0729794 0)
(2.99847 -0.0942351 0)
(2.99972 -0.118095 0)
(2.99726 -0.137705 0)
(2.99932 -0.163534 0)
(2.9973 -0.183928 0)
(3.00054 -0.211373 0)
(2.99904 -0.229668 0)
(3.00484 -0.260587 0)
(3.00502 -0.279374 0)
(3.01223 -0.309843 0)
(3.0152 -0.325191 0)
(3.02602 -0.356999 0)
(3.0333 -0.371775 0)
(3.04659 -0.400925 0)
(3.05878 -0.411713 0)
(3.07331 -0.436612 0)
(2.99948 -0.0105311 0)
(3.0006 -0.0308502 0)
(2.99885 -0.0512377 0)
(2.99953 -0.0723751 0)
(2.99775 -0.0938494 0)
(2.99865 -0.117312 0)
(2.99561 -0.137096 0)
(2.99763 -0.163583 0)
(2.99473 -0.183847 0)
(2.99815 -0.212463 0)
(2.99568 -0.231035 0)
(3.00212 -0.264318 0)
(3.00094 -0.282205 0)
(3.00965 -0.316525 0)
(3.01166 -0.331253 0)
(3.02462 -0.368305 0)
(3.03116 -0.381144 0)
(3.04731 -0.417155 0)
(3.05958 -0.426273 0)
(3.07737 -0.460236 0)
(2.99966 -0.0107961 0)
(3.00023 -0.029755 0)
(2.99866 -0.0508136 0)
(2.99869 -0.0711172 0)
(2.99698 -0.0934758 0)
(2.99674 -0.115528 0)
(2.99377 -0.136669 0)
(2.9948 -0.162372 0)
(2.99155 -0.183953 0)
(2.99424 -0.212211 0)
(2.99115 -0.232894 0)
(2.99727 -0.26659 0)
(2.995 -0.28607 0)
(3.00466 -0.322278 0)
(3.00555 -0.339053 0)
(3.02048 -0.379105 0)
(3.02574 -0.393198 0)
(3.04489 -0.432997 0)
(3.05592 -0.442178 0)
(3.08024 -0.479638 0)
(3.00033 -0.0106753 0)
(2.99907 -0.0286849 0)
(2.99889 -0.0499063 0)
(2.99675 -0.0698491 0)
(2.99655 -0.0922823 0)
(2.99338 -0.113493 0)
(2.99229 -0.135291 0)
(2.98994 -0.160666 0)
(2.98846 -0.182924 0)
(2.98759 -0.211529 0)
(2.98616 -0.233605 0)
(2.98879 -0.268511 0)
(2.98802 -0.289082 0)
(2.99534 -0.328495 0)
(2.99765 -0.346395 0)
(3.01151 -0.391272 0)
(3.01832 -0.405528 0)
(3.03905 -0.451361 0)
(3.05231 -0.45981 0)
(3.07855 -0.502957 0)
(3.0015 -0.0101405 0)
(2.99697 -0.0274767 0)
(2.99947 -0.048623 0)
(2.9935 -0.0682422 0)
(2.9965 -0.0903702 0)
(2.98833 -0.110631 0)
(2.99131 -0.133086 0)
(2.98263 -0.157586 0)
(2.98569 -0.181109 0)
(2.97739 -0.209164 0)
(2.98104 -0.233669 0)
(2.97552 -0.268503 0)
(2.9804 -0.292009 0)
(2.98014 -0.333434 0)
(2.9885 -0.354097 0)
(2.99581 -0.403421 0)
(3.00885 -0.418746 0)
(3.02545 -0.472291 0)
(3.04451 -0.480758 0)
(3.07015 -0.535024 0)
(3.00301 -0.00833204 0)
(2.99379 -0.0273363 0)
(3 -0.0459306 0)
(2.98882 -0.0672952 0)
(2.99669 -0.0864117 0)
(2.98163 -0.107912 0)
(2.99067 -0.128635 0)
(2.97264 -0.153933 0)
(2.9831 -0.177221 0)
(2.96318 -0.205433 0)
(2.97586 -0.232157 0)
(2.95663 -0.266019 0)
(2.97243 -0.294639 0)
(2.9575 -0.335296 0)
(2.97845 -0.363404 0)
(2.97107 -0.412918 0)
(2.99817 -0.435958 0)
(3.00183 -0.491698 0)
(3.03492 -0.505554 0)
(3.05453 -0.562375 0)
(3.00436 -0.00362238 0)
(2.99027 -0.0307089 0)
(2.99999 -0.0393682 0)
(2.9839 -0.0695221 0)
(2.99653 -0.0772759 0)
(2.97453 -0.108557 0)
(2.98935 -0.11816 0)
(2.96141 -0.153674 0)
(2.9795 -0.166721 0)
(2.94645 -0.204562 0)
(2.96937 -0.223807 0)
(2.93342 -0.265256 0)
(2.9627 -0.291563 0)
(2.92768 -0.337336 0)
(2.96588 -0.369382 0)
(2.9363 -0.421964 0)
(2.98562 -0.453868 0)
(2.96751 -0.512211 0)
(3.02762 -0.535261 0)
(3.02663 -0.593536 0)
(3.00572 0.00431211 0)
(2.98695 -0.0382607 0)
(2.99983 -0.0278989 0)
(2.97969 -0.075786 0)
(2.99571 -0.0616056 0)
(2.96821 -0.114182 0)
(2.98629 -0.0996004 0)
(2.9509 -0.159247 0)
(2.97309 -0.146169 0)
(2.93012 -0.210025 0)
(2.95886 -0.203833 0)
(2.90948 -0.270879 0)
(2.94715 -0.276642 0)
(2.89466 -0.344532 0)
(2.94504 -0.365694 0)
(2.89506 -0.434183 0)
(2.96279 -0.468089 0)
(2.92275 -0.535442 0)
(3.00995 -0.570746 0)
(2.98618 -0.633828 0)
(3.01027 0.014638 0)
(2.98114 -0.0489294 0)
(3.00344 -0.0122876 0)
(2.973 -0.0850571 0)
(2.9976 -0.0403369 0)
(2.95943 -0.123855 0)
(2.9845 -0.0733606 0)
(2.93857 -0.169958 0)
(2.96601 -0.11492 0)
(2.91262 -0.222357 0)
(2.94486 -0.169503 0)
(2.88423 -0.285677 0)
(2.92441 -0.243966 0)
(2.85904 -0.362986 0)
(2.91202 -0.342972 0)
(2.84861 -0.458117 0)
(2.92198 -0.468609 0)
(2.87067 -0.567619 0)
(2.97017 -0.605356 0)
(2.94179 -0.671501 0)
(3.02351 0.0256289 0)
(2.96704 -0.0603679 0)
(3.01754 0.00505791 0)
(2.95669 -0.0944901 0)
(3.00955 -0.0163029 0)
(2.94001 -0.133828 0)
(2.99212 -0.0426667 0)
(2.9156 -0.181476 0)
(2.96668 -0.0763665 0)
(2.88478 -0.237049 0)
(2.93534 -0.123461 0)
(2.84876 -0.30607 0)
(2.90117 -0.193144 0)
(2.81231 -0.392699 0)
(2.87185 -0.294961 0)
(2.78801 -0.501448 0)
(2.86545 -0.440551 0)
(2.80245 -0.62599 0)
(2.91128 -0.625883 0)
(2.89399 -0.72498 0)
(3.04845 0.0352315 0)
(2.94135 -0.0697418 0)
(3.04681 0.0210212 0)
(2.92637 -0.10066 0)
(3.03775 0.00635833 0)
(2.90381 -0.139037 0)
(3.01783 -0.0130049 0)
(2.87361 -0.186886 0)
(2.98664 -0.0377276 0)
(2.83564 -0.244957 0)
(2.94464 -0.0743266 0)
(2.7898 -0.320868 0)
(2.89369 -0.132606 0)
(2.73927 -0.422239 0)
(2.84112 -0.225813 0)
(2.69648 -0.558715 0)
(2.80769 -0.375151 0)
(2.69454 -0.724587 0)
(2.84567 -0.606944 0)
(2.81769 -0.850227 0)
(3.084 0.041232 0)
(2.90517 -0.0718968 0)
(3.09129 0.0329375 0)
(2.88299 -0.0987865 0)
(3.08481 0.0241264 0)
(2.85076 -0.133873 0)
(3.06775 0.0120781 0)
(2.81054 -0.178466 0)
(3.03735 -0.00246249 0)
(2.76011 -0.234602 0)
(2.99044 -0.0256445 0)
(2.69865 -0.31206 0)
(2.92533 -0.067633 0)
(2.62726 -0.423369 0)
(2.84477 -0.143297 0)
(2.55949 -0.589413 0)
(2.7659 -0.280291 0)
(2.53676 -0.822328 0)
(2.76694 -0.545105 0)
(2.66565 -1.01967 0)
(3.12479 0.0365113 0)
(2.86197 -0.0599922 0)
(3.1427 0.0312872 0)
(2.83027 -0.0812207 0)
(3.14369 0.0241289 0)
(2.78543 -0.109291 0)
(3.13784 0.0153957 0)
(2.72948 -0.144854 0)
(3.12008 0.00525347 0)
(2.65738 -0.191639 0)
(3.08526 -0.0112763 0)
(2.56565 -0.260448 0)
(3.02945 -0.0424219 0)
(2.45243 -0.370569 0)
(2.94947 -0.103327 0)
(2.33494 -0.569242 0)
(2.84254 -0.230576 0)
(2.29319 -0.939025 0)
(2.76872 -0.493329 0)
(2.44308 -1.38146 0)
(3.13793 0.0396429 0)
(2.85114 -0.0594147 0)
(3.16551 0.0401746 0)
(2.81426 -0.0791539 0)
(3.1764 0.0395244 0)
(2.7625 -0.104454 0)
(3.18751 0.0399049 0)
(2.69499 -0.136468 0)
(3.19391 0.0409248 0)
(2.60396 -0.179396 0)
(3.19466 0.0400572 0)
(2.48219 -0.243806 0)
(3.19033 0.0317638 0)
(2.31809 -0.352135 0)
(3.18264 0.00106955 0)
(2.10272 -0.563829 0)
(3.18553 -0.097432 0)
(1.89933 -1.04401 0)
(3.34884 -0.380955 0)
(2.49054 -2.2941 0)
(3.0114 -0.381026 0)
(3.01234 -0.384003 0)
(3.01475 -0.386201 0)
(3.01572 -0.388817 0)
(3.01763 -0.390396 0)
(3.01818 -0.392483 0)
(3.02033 -0.393046 0)
(3.02087 -0.394504 0)
(3.02333 -0.393693 0)
(3.02382 -0.394705 0)
(3.03217 -0.385848 0)
(3.03369 -0.389829 0)
(3.03549 -0.392341 0)
(3.03655 -0.395526 0)
(3.03972 -0.397009 0)
(3.04159 -0.399496 0)
(3.04546 -0.399921 0)
(3.04736 -0.401815 0)
(3.05154 -0.400934 0)
(3.05335 -0.40239 0)
(3.04099 -0.392401 0)
(3.04399 -0.396735 0)
(3.04929 -0.399039 0)
(3.05286 -0.402806 0)
(3.05751 -0.40411 0)
(3.06031 -0.407276 0)
(3.06514 -0.407414 0)
(3.06791 -0.410048 0)
(3.0732 -0.408774 0)
(3.07591 -0.41105 0)
(3.05859 -0.401422 0)
(3.06204 -0.406599 0)
(3.06607 -0.408758 0)
(3.06911 -0.413426 0)
(3.07464 -0.414452 0)
(3.07837 -0.418608 0)
(3.08468 -0.418311 0)
(3.08833 -0.422018 0)
(3.09514 -0.42016 0)
(3.0986 -0.423619 0)
(3.06565 -0.412568 0)
(3.07059 -0.418835 0)
(3.07816 -0.420762 0)
(3.08371 -0.426635 0)
(3.0909 -0.427187 0)
(3.09562 -0.432615 0)
(3.10325 -0.431595 0)
(3.10774 -0.43672 0)
(3.11612 -0.433922 0)
(3.12029 -0.438991 0)
(3.08035 -0.426322 0)
(3.08601 -0.434282 0)
(3.09221 -0.435984 0)
(3.09762 -0.443437 0)
(3.1057 -0.44324 0)
(3.11166 -0.450253 0)
(3.12068 -0.44818 0)
(3.12617 -0.455136 0)
(3.13604 -0.451048 0)
(3.14095 -0.458185 0)
(3.08291 -0.442693 0)
(3.09031 -0.453416 0)
(3.10031 -0.454841 0)
(3.10923 -0.464225 0)
(3.1191 -0.462846 0)
(3.12648 -0.471973 0)
(3.13648 -0.468403 0)
(3.14304 -0.477837 0)
(3.15429 -0.471855 0)
(3.16025 -0.481811 0)
(3.08866 -0.462264 0)
(3.09825 -0.472558 0)
(3.10922 -0.471673 0)
(3.11989 -0.483304 0)
(3.13049 -0.480806 0)
(3.13946 -0.493143 0)
(3.15036 -0.487957 0)
(3.15843 -0.500881 0)
(3.17089 -0.492582 0)
(3.17811 -0.506483 0)
(3.09726 -0.481841 0)
(3.10825 -0.496195 0)
(3.11665 -0.495036 0)
(3.12746 -0.510064 0)
(3.13777 -0.505949 0)
(3.14896 -0.52181 0)
(3.16049 -0.514283 0)
(3.17091 -0.531301 0)
(3.18398 -0.519916 0)
(3.19324 -0.538512 0)
(3.09095 -0.505736 0)
(3.10407 -0.524334 0)
(3.11568 -0.522468 0)
(3.13081 -0.540975 0)
(3.14211 -0.534628 0)
(3.15607 -0.554312 0)
(3.16754 -0.543772 0)
(3.18088 -0.565415 0)
(3.19388 -0.55017 0)
(3.20644 -0.574256 0)
(3.08655 -0.533913 0)
(3.1012 -0.553015 0)
(3.11473 -0.548508 0)
(3.13134 -0.570364 0)
(3.14381 -0.56206 0)
(3.15975 -0.586437 0)
(3.17178 -0.573011 0)
(3.18787 -0.600235 0)
(3.20067 -0.580943 0)
(3.21685 -0.611803 0)
(3.08494 -0.563109 0)
(3.09676 -0.585824 0)
(3.11268 -0.581593 0)
(3.12536 -0.606463 0)
(3.14201 -0.59675 0)
(3.15629 -0.624642 0)
(3.17252 -0.608795 0)
(3.18795 -0.640818 0)
(3.20362 -0.618054 0)
(3.2204 -0.655292 0)
(3.06942 -0.599778 0)
(3.07452 -0.624195 0)
(3.10432 -0.621718 0)
(3.11092 -0.646853 0)
(3.13987 -0.63714 0)
(3.14529 -0.665447 0)
(3.17272 -0.64889 0)
(3.17893 -0.682586 0)
(3.20516 -0.658529 0)
(3.21383 -0.699254 0)
(3.05411 -0.644733 0)
(3.05058 -0.665415 0)
(3.09732 -0.665484 0)
(3.09144 -0.687491 0)
(3.1387 -0.681172 0)
(3.12738 -0.70598 0)
(3.17441 -0.692755 0)
(3.16031 -0.72298 0)
(3.20762 -0.702379 0)
(3.19382 -0.740527 0)
(3.03287 -0.691901 0)
(3.0241 -0.71292 0)
(3.08281 -0.717973 0)
(3.06661 -0.736514 0)
(3.13048 -0.734819 0)
(3.10352 -0.754251 0)
(3.17061 -0.747004 0)
(3.13367 -0.770501 0)
(3.20538 -0.757166 0)
(3.16209 -0.786794 0)
(2.98131 -0.749794 0)
(2.9828 -0.769029 0)
(3.04796 -0.770016 0)
(3.03922 -0.783419 0)
(3.10636 -0.782375 0)
(3.0776 -0.800542 0)
(3.14963 -0.800015 0)
(3.10448 -0.82271 0)
(3.18766 -0.818872 0)
(3.12864 -0.845266 0)
(2.93019 -0.849493 0)
(2.96737 -0.839865 0)
(3.02583 -0.800199 0)
(3.02607 -0.786056 0)
(3.06571 -0.759019 0)
(3.04327 -0.763046 0)
(3.09166 -0.747573 0)
(3.05844 -0.761563 0)
(3.12231 -0.750494 0)
(3.07399 -0.769744 0)
(2.97845 -1.05509 0)
(3.08928 -1.05338 0)
(3.14357 -1.03617 0)
(3.12018 -1.0492 0)
(3.10965 -1.03742 0)
(3.06878 -1.05512 0)
(3.06877 -1.03304 0)
(3.02745 -1.05138 0)
(3.03461 -1.01912 0)
(2.98091 -1.04193 0)
(2.89286 -0.880119 0)
(2.98134 -0.639682 0)
(2.95719 -0.527039 0)
(2.88298 -0.48829 0)
(2.84857 -0.460012 0)
(2.78327 -0.451996 0)
(2.75405 -0.4355 0)
(2.66685 -0.452837 0)
(2.61708 -0.44084 0)
(2.50829 -0.474774 0)
(3.58452 -1.80326 0)
(3.1628 -1.53023 0)
(2.57235 -1.35336 0)
(2.17056 -1.22405 0)
(1.93238 -1.11947 0)
(1.67513 -1.01609 0)
(1.44444 -0.938127 0)
(1.14744 -0.870827 0)
(0.958989 -0.816725 0)
(0.626834 -0.76108 0)
(3.03822 -0.381122 0)
(3.05107 -0.366546 0)
(3.0529 -0.261665 0)
(3.08571 -0.140743 0)
(3.11809 -0.104243 0)
(3.07401 -0.0584325 0)
(3.04701 -0.111816 0)
(3.0934 -0.296901 0)
(3.0639 -0.451346 0)
(2.99142 -0.651483 0)
(2.97401 -1.00024 0)
(2.86763 -1.32439 0)
(2.54215 -1.48499 0)
(2.05353 -1.51767 0)
(1.54049 -1.47526 0)
(1.09444 -1.35892 0)
(0.748404 -1.17187 0)
(0.48909 -0.92959 0)
(0.31961 -0.675282 0)
(0.180897 -0.296104 0)
(3.07724 -0.388917 0)
(3.09968 -0.374517 0)
(3.11467 -0.269476 0)
(3.1574 -0.153012 0)
(3.17497 -0.103731 0)
(3.0987 -0.0440763 0)
(3.06798 -0.115382 0)
(3.09301 -0.299657 0)
(3.01142 -0.428976 0)
(2.93448 -0.636185 0)
(2.92009 -0.978635 0)
(2.76567 -1.22807 0)
(2.40642 -1.29516 0)
(1.95778 -1.28194 0)
(1.52885 -1.25065 0)
(1.1552 -1.17607 0)
(0.851655 -1.0367 0)
(0.608901 -0.838001 0)
(0.449637 -0.615231 0)
(0.304457 -0.272041 0)
(3.10614 -0.394899 0)
(3.1291 -0.384889 0)
(3.15832 -0.275078 0)
(3.20865 -0.152019 0)
(3.20388 -0.091183 0)
(3.1076 -0.0314101 0)
(3.06849 -0.112679 0)
(3.06053 -0.285108 0)
(2.96755 -0.411356 0)
(2.91818 -0.627476 0)
(2.91217 -0.95412 0)
(2.75441 -1.1886 0)
(2.40465 -1.27138 0)
(1.95872 -1.28178 0)
(1.52008 -1.25569 0)
(1.14015 -1.17138 0)
(0.841417 -1.02022 0)
(0.611967 -0.814591 0)
(0.47251 -0.592558 0)
(0.376466 -0.258822 0)
(3.13777 -0.403637 0)
(3.16149 -0.398724 0)
(3.20633 -0.284907 0)
(3.26949 -0.154393 0)
(3.2476 -0.0792083 0)
(3.12245 -0.0124991 0)
(3.07054 -0.106237 0)
(3.04498 -0.272499 0)
(2.93622 -0.388954 0)
(2.89731 -0.619382 0)
(2.87698 -0.936884 0)
(2.6563 -1.10475 0)
(2.26227 -1.10214 0)
(1.85498 -1.07006 0)
(1.50418 -1.05762 0)
(1.19613 -1.01722 0)
(0.931597 -0.915068 0)
(0.70826 -0.749507 0)
(0.556133 -0.557107 0)
(0.451266 -0.247684 0)
(3.1693 -0.412717 0)
(3.18791 -0.416438 0)
(3.25781 -0.298258 0)
(3.33821 -0.152165 0)
(3.28452 -0.0574827 0)
(3.13135 0.00944087 0)
(3.07754 -0.0946852 0)
(3.01805 -0.248955 0)
(2.89341 -0.372532 0)
(2.87783 -0.614469 0)
(2.84879 -0.894436 0)
(2.62283 -1.03215 0)
(2.25442 -1.06003 0)
(1.85507 -1.07081 0)
(1.48716 -1.06643 0)
(1.17129 -1.00782 0)
(0.918612 -0.886349 0)
(0.721812 -0.713658 0)
(0.598577 -0.529043 0)
(0.512974 -0.236325 0)
(3.20003 -0.423256 0)
(3.21017 -0.438647 0)
(3.31664 -0.31653 0)
(3.4103 -0.148426 0)
(3.3212 -0.0302749 0)
(3.14806 0.0367174 0)
(3.07919 -0.0797108 0)
(2.98382 -0.225233 0)
(2.86511 -0.350973 0)
(2.87543 -0.604326 0)
(2.81656 -0.867877 0)
(2.51686 -0.952776 0)
(2.1058 -0.911946 0)
(1.75411 -0.889254 0)
(1.4761 -0.900825 0)
(1.2233 -0.885606 0)
(0.993108 -0.808074 0)
(0.790214 -0.66532 0)
(0.656224 -0.502179 0)
(0.570379 -0.22721 0)
(3.22885 -0.434251 0)
(3.22802 -0.466867 0)
(3.38209 -0.341575 0)
(3.4913 -0.139304 0)
(3.36223 0.00468957 0)
(3.15939 0.0652326 0)
(3.07516 -0.0567937 0)
(2.95187 -0.19125 0)
(2.84425 -0.340124 0)
(2.86003 -0.602356 0)
(2.75706 -0.807478 0)
(2.45246 -0.856214 0)
(2.08192 -0.860205 0)
(1.74071 -0.89053 0)
(1.44771 -0.908685 0)
(1.19368 -0.869518 0)
(0.985779 -0.772239 0)
(0.814837 -0.627068 0)
(0.699702 -0.47578 0)
(0.62059 -0.217887 0)
(3.25575 -0.44323 0)
(3.24007 -0.500883 0)
(3.45984 -0.372696 0)
(3.58411 -0.12738 0)
(3.39799 0.0484501 0)
(3.17267 0.104366 0)
(3.07143 -0.0288656 0)
(2.91305 -0.164975 0)
(2.8273 -0.325329 0)
(2.85634 -0.580112 0)
(2.7059 -0.761575 0)
(2.32449 -0.775276 0)
(1.93202 -0.733747 0)
(1.65614 -0.743386 0)
(1.44681 -0.779042 0)
(1.24096 -0.778004 0)
(1.04074 -0.713506 0)
(0.863015 -0.58779 0)
(0.745434 -0.451642 0)
(0.666544 -0.209406 0)
(3.27618 -0.453872 0)
(3.25081 -0.546046 0)
(3.5553 -0.416664 0)
(3.68621 -0.10614 0)
(3.44139 0.103439 0)
(3.19104 0.141308 0)
(3.05374 0.00611294 0)
(2.88005 -0.12627 0)
(2.83171 -0.321327 0)
(2.82991 -0.569061 0)
(2.60388 -0.676822 0)
(2.22641 -0.666746 0)
(1.8799 -0.684104 0)
(1.61914 -0.746441 0)
(1.4069 -0.782868 0)
(1.21374 -0.756165 0)
(1.04369 -0.676328 0)
(0.891155 -0.551891 0)
(0.784489 -0.427424 0)
(0.707664 -0.200797 0)
(3.28822 -0.463359 0)
(3.27201 -0.603014 0)
(3.67639 -0.467908 0)
(3.80841 -0.0791242 0)
(3.48798 0.166244 0)
(3.20634 0.193861 0)
(3.04116 0.0483125 0)
(2.85342 -0.103443 0)
(2.82391 -0.308729 0)
(2.79892 -0.524403 0)
(2.50662 -0.606193 0)
(2.06531 -0.581645 0)
(1.73893 -0.582104 0)
(1.55952 -0.638119 0)
(1.41719 -0.690693 0)
(1.25212 -0.690766 0)
(1.08232 -0.630738 0)
(0.92804 -0.517768 0)
(0.822689 -0.404598 0)
(0.745259 -0.192375 0)
(3.29297 -0.472846 0)
(3.32644 -0.679911 0)
(3.82274 -0.53348 0)
(3.93807 -0.0370273 0)
(3.54421 0.246252 0)
(3.22907 0.245973 0)
(3.0128 0.0941939 0)
(2.83429 -0.070358 0)
(2.83733 -0.303195 0)
(2.72078 -0.483003 0)
(2.34343 -0.495831 0)
(1.93941 -0.479117 0)
(1.67584 -0.547913 0)
(1.51816 -0.645684 0)
(1.38217 -0.689985 0)
(1.23761 -0.666056 0)
(1.09359 -0.595493 0)
(0.955494 -0.485227 0)
(0.856807 -0.381834 0)
(0.779302 -0.183737 0)
(3.30277 -0.490368 0)
(3.4305 -0.785609 0)
(3.96571 -0.605152 0)
(4.0601 0.0147917 0)
(3.58976 0.334164 0)
(3.24252 0.318502 0)
(2.99131 0.147773 0)
(2.81839 -0.0522945 0)
(2.80835 -0.276749 0)
(2.62437 -0.404007 0)
(2.1708 -0.403097 0)
(1.75724 -0.402323 0)
(1.56767 -0.478757 0)
(1.49045 -0.576051 0)
(1.39998 -0.629612 0)
(1.26719 -0.619115 0)
(1.12275 -0.557937 0)
(0.985856 -0.454458 0)
(0.8893 -0.359783 0)
(0.810481 -0.174969 0)
(3.34394 -0.522442 0)
(3.57421 -0.904844 0)
(4.03657 -0.680364 0)
(4.11301 0.0860769 0)
(3.60439 0.433913 0)
(3.23044 0.385866 0)
(2.94259 0.201973 0)
(2.80794 -0.0222475 0)
(2.75934 -0.245882 0)
(2.43896 -0.316148 0)
(1.95646 -0.281931 0)
(1.62919 -0.330056 0)
(1.51469 -0.471605 0)
(1.46128 -0.589161 0)
(1.38175 -0.624907 0)
(1.26697 -0.593689 0)
(1.13897 -0.525287 0)
(1.01139 -0.424713 0)
(0.918901 -0.337797 0)
(0.838897 -0.165886 0)
(3.44491 -0.58239 0)
(3.67363 -1.01894 0)
(3.93565 -0.727239 0)
(4.02261 0.149191 0)
(3.52759 0.537212 0)
(3.14989 0.47829 0)
(2.8455 0.257654 0)
(2.7344 -0.00201963 0)
(2.63411 -0.181014 0)
(2.20873 -0.202976 0)
(1.71062 -0.190597 0)
(1.49321 -0.284897 0)
(1.4805 -0.440145 0)
(1.47509 -0.551335 0)
(1.4093 -0.5859 0)
(1.2935 -0.557459 0)
(1.16397 -0.492134 0)
(1.03759 -0.39613 0)
(0.946749 -0.316088 0)
(0.86494 -0.15651 0)
(3.57445 -0.673562 0)
(3.60628 -1.09613 0)
(3.57118 -0.742765 0)
(3.6855 0.223752 0)
(3.3064 0.619048 0)
(3.00874 0.550321 0)
(2.72786 0.312818 0)
(2.60866 0.0343946 0)
(2.38285 -0.104165 0)
(1.88727 -0.0821726 0)
(1.49257 -0.105247 0)
(1.42752 -0.271754 0)
(1.47747 -0.460036 0)
(1.47804 -0.563085 0)
(1.41353 -0.575107 0)
(1.30523 -0.530722 0)
(1.183 -0.460965 0)
(1.06099 -0.36812 0)
(0.972324 -0.294313 0)
(0.888719 -0.146763 0)
(3.62947 -0.790375 0)
(3.26427 -1.07475 0)
(2.88627 -0.716419 0)
(3.12103 0.249578 0)
(2.85376 0.682787 0)
(2.65371 0.615223 0)
(2.45945 0.358697 0)
(2.35819 0.0893351 0)
(1.99889 0.00463181 0)
(1.50118 0.0250253 0)
(1.32268 -0.069991 0)
(1.42853 -0.27944 0)
(1.52802 -0.456607 0)
(1.52776 -0.540678 0)
(1.45044 -0.544578 0)
(1.33212 -0.498239 0)
(1.20617 -0.429435 0)
(1.08406 -0.340661 0)
(0.996165 -0.27251 0)
(0.91046 -0.136652 0)
(3.49958 -0.722444 0)
(2.59889 -0.928921 0)
(1.96847 -0.634594 0)
(2.25508 0.272274 0)
(2.30352 0.695707 0)
(2.17519 0.645597 0)
(2.11625 0.391528 0)
(1.96756 0.156544 0)
(1.49697 0.120053 0)
(1.18094 0.0899034 0)
(1.28286 -0.0900298 0)
(1.49609 -0.321708 0)
(1.59297 -0.480636 0)
(1.56727 -0.539395 0)
(1.47463 -0.523974 0)
(1.35215 -0.468244 0)
(1.22641 -0.398167 0)
(1.10521 -0.313346 0)
(1.01805 -0.250492 0)
(0.930245 -0.126145 0)
(3.01519 -0.813187 0)
(1.63074 -0.802762 0)
(0.956292 -0.591362 0)
(1.37968 0.213777 0)
(1.49373 0.683363 0)
(1.53837 0.650386 0)
(1.70516 0.39907 0)
(1.40005 0.24882 0)
(1.02719 0.209955 0)
(1.07188 0.0798875 0)
(1.38506 -0.148985 0)
(1.62884 -0.355987 0)
(1.69768 -0.476919 0)
(1.63682 -0.513321 0)
(1.51701 -0.490618 0)
(1.37958 -0.434222 0)
(1.24814 -0.366169 0)
(1.12546 -0.286089 0)
(1.03821 -0.228252 0)
(0.9482 -0.115246 0)
(2.11145 -0.297027 0)
(0.667578 -0.388873 0)
(-0.0130505 -0.53425 0)
(0.398088 0.150109 0)
(0.592165 0.629386 0)
(0.938733 0.583301 0)
(0.986346 0.431868 0)
(0.737278 0.332088 0)
(0.801192 0.206353 0)
(1.17348 -0.00245659 0)
(1.56129 -0.228924 0)
(1.76769 -0.39615 0)
(1.78404 -0.479215 0)
(1.68663 -0.491771 0)
(1.54777 -0.458144 0)
(1.40215 -0.399453 0)
(1.26771 -0.333536 0)
(1.14401 -0.258624 0)
(1.05654 -0.205684 0)
(0.964374 -0.103948 0)
(0.0299176 -0.224657 0)
(-0.389817 -0.356252 0)
(-1.09668 -0.508656 0)
(-0.652174 0.0813652 0)
(-0.306354 0.540281 0)
(0.0971396 0.531399 0)
(0.239361 0.443742 0)
(0.439336 0.297002 0)
(0.910356 0.101485 0)
(1.41496 -0.114066 0)
(1.76348 -0.298091 0)
(1.89418 -0.413374 0)
(1.85767 -0.459192 0)
(1.73235 -0.455411 0)
(1.5786 -0.418729 0)
(1.42489 -0.362228 0)
(1.28659 -0.300128 0)
(1.16119 -0.230954 0)
(1.07311 -0.182761 0)
(0.97882 -0.0922589 0)
(0.0252378 -0.0291018 0)
(-0.768471 -0.187271 0)
(-1.70723 -0.466601 0)
(-1.3029 -0.00517311 0)
(-0.875913 0.461301 0)
(-0.418018 0.469136 0)
(-0.0131976 0.380712 0)
(0.506069 0.205569 0)
(1.12521 0.00263019 0)
(1.61594 -0.187308 0)
(1.88645 -0.334305 0)
(1.94742 -0.418074 0)
(1.87555 -0.444375 0)
(1.74181 -0.431167 0)
(1.58918 -0.391556 0)
(1.43658 -0.335935 0)
(1.29807 -0.276382 0)
(1.17199 -0.211485 0)
(1.08342 -0.166423 0)
(0.987724 -0.0838042 0)
(-0.0451501 -0.0318556 0)
(-0.935739 -0.110024 0)
(-1.92933 -0.425989 0)
(-1.67338 -0.0407044 0)
(-1.17859 0.411101 0)
(-0.668947 0.418571 0)
(-0.0503145 0.322379 0)
(0.621866 0.14003 0)
(1.27166 -0.0544811 0)
(1.72886 -0.223808 0)
(1.95185 -0.348403 0)
(1.97658 -0.415426 0)
(1.88682 -0.432738 0)
(1.74832 -0.416166 0)
(1.59567 -0.375932 0)
(1.44328 -0.32102 0)
(1.30451 -0.262856 0)
(1.17798 -0.200379 0)
(1.08909 -0.157023 0)
(0.99257 -0.0789187 0)
(-0.102376 0.0590748 0)
(-1.04658 -0.0165894 0)
(-2.08083 -0.375374 0)
(-2.01774 -0.0744094 0)
(-1.44938 0.35314 0)
(-0.781216 0.350382 0)
(0.031427 0.246446 0)
(0.787397 0.0689659 0)
(1.42591 -0.109571 0)
(1.83956 -0.256118 0)
(2.01376 -0.358939 0)
(2.00104 -0.410958 0)
(1.89317 -0.420762 0)
(1.75139 -0.401357 0)
(1.60047 -0.360443 0)
(1.44932 -0.306109 0)
(1.31063 -0.249283 0)
(1.18372 -0.189228 0)
(1.09449 -0.147561 0)
(0.997159 -0.0739781 0)
(-0.117121 0.102672 0)
(-1.07381 0.0785793 0)
(-2.11467 -0.311093 0)
(-2.26596 -0.0993797 0)
(-1.62443 0.278616 0)
(-0.701094 0.261548 0)
(0.198377 0.161266 0)
(0.974662 -0.00288422 0)
(1.57931 -0.160926 0)
(1.94498 -0.283482 0)
(2.07077 -0.364815 0)
(2.02196 -0.403285 0)
(1.89707 -0.407406 0)
(1.75281 -0.386379 0)
(1.60434 -0.345125 0)
(1.4549 -0.291292 0)
(1.31648 -0.235704 0)
(1.18921 -0.17804 0)
(1.09961 -0.138041 0)
(1.00149 -0.0689854 0)
(-0.087815 0.174959 0)
(-1.01418 0.171681 0)
(-2.01555 -0.238732 0)
(-2.32659 -0.120446 0)
(-1.55202 0.184422 0)
(-0.519731 0.158319 0)
(0.41234 0.073433 0)
(1.16748 -0.0723398 0)
(1.72689 -0.20768 0)
(2.04337 -0.305866 0)
(2.123 -0.366488 0)
(2.03995 -0.393058 0)
(1.89882 -0.393184 0)
(1.75269 -0.371492 0)
(1.60732 -0.33007 0)
(1.46005 -0.276596 0)
(1.32206 -0.222122 0)
(1.19445 -0.166814 0)
(1.10447 -0.128462 0)
(1.00555 -0.063942 0)
(-0.0147231 0.213424 0)
(-0.869841 0.26028 0)
(-1.78704 -0.163825 0)
(-2.18261 -0.147461 0)
(-1.21762 0.081773 0)
(-0.297293 0.0576338 0)
(0.647313 -0.0142551 0)
(1.35971 -0.137633 0)
(1.86678 -0.249541 0)
(2.13387 -0.323538 0)
(2.1703 -0.364172 0)
(2.05561 -0.380235 0)
(1.89929 -0.377962 0)
(1.75161 -0.356649 0)
(1.60967 -0.315307 0)
(1.46485 -0.262049 0)
(1.3274 -0.20855 0)
(1.19945 -0.15555 0)
(1.10905 -0.118823 0)
(1.00936 -0.0588491 0)
(0.106833 0.289329 0)
(-0.648515 0.343388 0)
(-1.45215 -0.0906572 0)
(-1.86859 -0.180462 0)
(-0.821824 -0.0200242 0)
(-0.013133 -0.0340318 0)
(0.893717 -0.0984213 0)
(1.55007 -0.197437 0)
(1.99849 -0.286097 0)
(2.21605 -0.336782 0)
(2.21279 -0.358406 0)
(2.06977 -0.365246 0)
(1.89947 -0.361938 0)
(1.75022 -0.341881 0)
(1.61166 -0.300833 0)
(1.46938 -0.247659 0)
(1.33253 -0.194989 0)
(1.20423 -0.144247 0)
(1.11337 -0.109122 0)
(1.01291 -0.0537084 0)
(0.268605 0.235318 0)
(-0.372714 0.404028 0)
(-1.04471 -0.02241 0)
(-1.42602 -0.212042 0)
(-0.470578 -0.117221 0)
(0.313716 -0.120194 0)
(1.1472 -0.175655 0)
(1.73691 -0.25062 0)
(2.12135 -0.316714 0)
(2.28953 -0.345575 0)
(2.25059 -0.349644 0)
(2.0832 -0.348505 0)
(1.90039 -0.34532 0)
(1.74923 -0.327238 0)
(1.61363 -0.286624 0)
(1.47376 -0.2334 0)
(1.33747 -0.181428 0)
(1.20879 -0.132903 0)
(1.11744 -0.0993574 0)
(1.0162 -0.0485216 0)
(0.493987 0.35573 0)
(-0.0842759 0.487824 0)
(-0.598554 0.032131 0)
(-0.909955 -0.238787 0)
(-0.111781 -0.206116 0)
(0.6496 -0.202046 0)
(1.39974 -0.24482 0)
(1.91671 -0.296503 0)
(2.23424 -0.340966 0)
(2.35397 -0.349536 0)
(2.28385 -0.337846 0)
(2.09674 -0.330101 0)
(1.9032 -0.32811 0)
(1.7495 -0.312792 0)
(1.61594 -0.272736 0)
(1.47811 -0.219274 0)
(1.34227 -0.167853 0)
(1.21314 -0.121504 0)
(1.12125 -0.0895253 0)
(1.01924 -0.0432895 0)
(0.842597 0.11511 0)
(0.328265 0.488872 0)
(-0.141523 0.0694761 0)
(-0.366385 -0.263966 0)
(0.287209 -0.283581 0)
(0.983048 -0.278216 0)
(1.64366 -0.305518 0)
(2.08581 -0.334883 0)
(2.33628 -0.359047 0)
(2.40934 -0.34875 0)
(2.31288 -0.322296 0)
(2.11117 -0.309022 0)
(1.90905 -0.309497 0)
(1.75195 -0.298183 0)
(1.61908 -0.25923 0)
(1.48258 -0.205407 0)
(1.34695 -0.154321 0)
(1.2173 -0.110037 0)
(1.12482 -0.0796338 0)
(1.02204 -0.0380039 0)
(1.26615 0.573291 0)
(0.743809 0.74796 0)
(0.827937 0.168376 0)
(0.820064 -0.295208 0)
(1.20976 -0.422241 0)
(1.6954 -0.424335 0)
(2.14605 -0.418613 0)
(2.42531 -0.402693 0)
(2.53413 -0.386609 0)
(2.51089 -0.339697 0)
(2.36808 -0.280875 0)
(2.14639 -0.255044 0)
(1.93084 -0.264467 0)
(1.76403 -0.264558 0)
(1.62864 -0.229946 0)
(1.49288 -0.175889 0)
(1.35693 -0.125184 0)
(1.22589 -0.0849993 0)
(1.13204 -0.0580342 0)
(1.0276 -0.0263614 0)
(3.18521 0.323936 0)
(2.52618 0.504568 0)
(2.63667 0.0198227 0)
(2.56052 -0.394555 0)
(2.60427 -0.540799 0)
(2.69281 -0.544073 0)
(2.77314 -0.505304 0)
(2.79954 -0.440375 0)
(2.71299 -0.378077 0)
(2.56649 -0.302684 0)
(2.41279 -0.228798 0)
(2.23494 -0.198337 0)
(2.03242 -0.209409 0)
(1.8349 -0.213489 0)
(1.66645 -0.179933 0)
(1.51472 -0.12542 0)
(1.3717 -0.0772355 0)
(1.23629 -0.0448077 0)
(1.13959 -0.0238613 0)
(1.03293 -0.00790234 0)
(3.46053 0.772198 0)
(3.37672 0.859115 0)
(3.53562 0.253911 0)
(3.41098 -0.240009 0)
(3.26416 -0.450564 0)
(3.12887 -0.470267 0)
(2.97923 -0.430399 0)
(2.87386 -0.358355 0)
(2.75003 -0.28558 0)
(2.58792 -0.220425 0)
(2.4946 -0.153272 0)
(2.4544 -0.111126 0)
(2.32292 -0.117983 0)
(2.0649 -0.138797 0)
(1.78896 -0.123847 0)
(1.56511 -0.0772978 0)
(1.39117 -0.0314177 0)
(1.24481 -0.00472665 0)
(1.14389 0.0108529 0)
(1.03512 0.010853 0)
(3.46682 0.365132 0)
(3.65158 0.530846 0)
(3.87847 0.0882976 0)
(3.79767 -0.315401 0)
(3.53485 -0.489787 0)
(3.30506 -0.488148 0)
(3.12521 -0.441186 0)
(2.98735 -0.380825 0)
(2.90371 -0.29519 0)
(2.77911 -0.227195 0)
(2.62428 -0.193398 0)
(2.55548 -0.149458 0)
(2.50852 -0.0842646 0)
(2.31094 -0.0330613 0)
(1.98026 -0.00614912 0)
(1.66333 0.0149171 0)
(1.42925 0.034441 0)
(1.25668 0.0421525 0)
(1.14614 0.0477074 0)
(1.03431 0.0301008 0)
(3.4589 0.527786 0)
(3.62847 0.592539 0)
(3.85477 0.230259 0)
(3.78782 -0.136541 0)
(3.54682 -0.30034 0)
(3.28702 -0.331264 0)
(3.10988 -0.30202 0)
(2.95413 -0.259587 0)
(2.79521 -0.196151 0)
(2.68648 -0.110175 0)
(2.54874 -0.0636195 0)
(2.34523 -0.0617662 0)
(2.14756 -0.033396 0)
(1.96984 0.0367672 0)
(1.78219 0.0908805 0)
(1.58641 0.107406 0)
(1.40681 0.105766 0)
(1.24977 0.0922796 0)
(1.14134 0.0858745 0)
(1.02953 0.0495838 0)
(3.41851 0.355186 0)
(3.57343 0.416636 0)
(3.76377 0.123836 0)
(3.7013 -0.182952 0)
(3.5161 -0.321115 0)
(3.31858 -0.351255 0)
(3.13901 -0.33737 0)
(3.0368 -0.279329 0)
(2.90113 -0.204781 0)
(2.75992 -0.143471 0)
(2.66126 -0.0803247 0)
(2.47463 -0.0121101 0)
(2.18661 0.049298 0)
(1.92534 0.0975614 0)
(1.72853 0.132447 0)
(1.5563 0.150977 0)
(1.39359 0.153776 0)
(1.24159 0.135807 0)
(1.13288 0.122799 0)
(1.0212 0.0687338 0)
(3.41788 0.381527 0)
(3.50585 0.386626 0)
(3.67044 0.192427 0)
(3.65623 -0.0652046 0)
(3.44219 -0.20246 0)
(3.2765 -0.230293 0)
(3.12828 -0.215234 0)