/*--------------------------------*- C++ -*----------------------------------*\
| =========                 |                                                 |
| \\      /  F ield         | OpenFOAM: The Open Source CFD Toolbox           |
|  \\    /   O peration     | Version:  v1806                                 |
|   \\  /    A nd           | Web:      www.OpenFOAM.com                      |
|    \\/     M anipulation  |                                                 |
\*---------------------------------------------------------------------------*/
FoamFile
{
    version     2.0;
    format      ascii;
    class       volVectorField;
    location    "180";
    object      U;
}
// * * * * * * * * * * * * * * * * * * * * * * * * * * * * * * * * * * * * * //

dimensions      [0 1 -1 0 0 0 0];


internalField   nonuniform List<vector> 
2400
(
(0.300007 -0.000592232 0)
(0.29998 -0.00247058 0)
(0.299979 -0.00357599 0)
(0.299906 -0.00579371 0)
(0.299878 -0.00692422 0)
(0.299732 -0.00972301 0)
(0.299672 -0.0109739 0)
(0.299416 -0.0146267 0)
(0.299316 -0.0161058 0)
(0.298904 -0.020873 0)
(0.298763 -0.0227112 0)
(0.298141 -0.0287624 0)
(0.297964 -0.0311122 0)
(0.297112 -0.0382667 0)
(0.29693 -0.0412688 0)
(0.295951 -0.0486445 0)
(0.295828 -0.0522466 0)
(0.295113 -0.0580135 0)
(0.295176 -0.0614053 0)
(0.295337 -0.0637205 0)
(0.300005 -0.000588415 0)
(0.299969 -0.00246359 0)
(0.29994 -0.00355541 0)
(0.299839 -0.00577256 0)
(0.299762 -0.00687819 0)
(0.299571 -0.0096834 0)
(0.299439 -0.0108887 0)
(0.299119 -0.0145648 0)
(0.298924 -0.0159605 0)
(0.29842 -0.0207883 0)
(0.298169 -0.0224792 0)
(0.297422 -0.0286633 0)
(0.297155 -0.0307689 0)
(0.29614 -0.0381798 0)
(0.295978 -0.0408328 0)
(0.294828 -0.0486165 0)
(0.294986 -0.051866 0)
(0.294217 -0.0580947 0)
(0.29487 -0.061397 0)
(0.295387 -0.0639682 0)
(0.300003 -0.000581843 0)
(0.299957 -0.00244869 0)
(0.299893 -0.00351962 0)
(0.299757 -0.00573434 0)
(0.299614 -0.00680403 0)
(0.299363 -0.00961932 0)
(0.299135 -0.010759 0)
(0.298725 -0.0144739 0)
(0.298403 -0.0157496 0)
(0.297773 -0.0206781 0)
(0.297378 -0.0221554 0)
(0.296462 -0.0285604 0)
(0.296081 -0.0303093 0)
(0.294858 -0.0381471 0)
(0.294719 -0.0402758 0)
(0.293352 -0.0487521 0)
(0.293848 -0.0514212 0)
(0.292978 -0.0584592 0)
(0.294353 -0.0614971 0)
(0.29521 -0.0644729 0)
(0.300001 -0.000572873 0)
(0.299946 -0.00242523 0)
(0.299848 -0.00346932 0)
(0.299672 -0.00567796 0)
(0.299462 -0.00670312 0)
(0.299144 -0.00952933 0)
(0.298812 -0.0105876 0)
(0.298302 -0.0143524 0)
(0.297843 -0.0154776 0)
(0.297074 -0.0205396 0)
(0.296523 -0.0217463 0)
(0.295423 -0.0284491 0)
(0.294913 -0.0297385 0)
(0.293465 -0.0381615 0)
(0.293336 -0.0395922 0)
(0.291727 -0.0490448 0)
(0.292577 -0.0508809 0)
(0.291532 -0.0591166 0)
(0.293743 -0.0616592 0)
(0.294833 -0.0652711 0)
(0.300001 -0.000561948 0)
(0.299934 -0.0023927 0)
(0.299804 -0.00340521 0)
(0.299587 -0.00560146 0)
(0.299311 -0.0065755 0)
(0.298922 -0.00940849 0)
(0.298487 -0.0103738 0)
(0.297875 -0.0141906 0)
(0.297274 -0.0151431 0)
(0.296364 -0.0203573 0)
(0.295645 -0.0212501 0)
(0.29436 -0.0283062 0)
(0.293702 -0.0290536 0)
(0.292023 -0.0381936 0)
(0.291883 -0.038773 0)
(0.290002 -0.049472 0)
(0.291208 -0.0502166 0)
(0.289896 -0.060085 0)
(0.293072 -0.0618362 0)
(0.294233 -0.0664267 0)
(0.300004 -0.000549583 0)
(0.29992 -0.00235033 0)
(0.299764 -0.00332862 0)
(0.299501 -0.00550309 0)
(0.299164 -0.00642321 0)
(0.298702 -0.00925298 0)
(0.298167 -0.0101206 0)
(0.297451 -0.0139815 0)
(0.296706 -0.0147513 0)
(0.295658 -0.0201192 0)
(0.294757 -0.0206742 0)
(0.293295 -0.0281142 0)
(0.29246 -0.0282625 0)
(0.290552 -0.0382219 0)
(0.290366 -0.03782 0)
(0.288182 -0.0500185 0)
(0.289739 -0.0494081 0)
(0.288055 -0.0613907 0)
(0.292338 -0.061977 0)
(0.29336 -0.0680233 0)
(0.30001 -0.000536281 0)
(0.299903 -0.00229733 0)
(0.29973 -0.00324106 0)
(0.299412 -0.00538132 0)
(0.299025 -0.00624918 0)
(0.298482 -0.00905961 0)
(0.297856 -0.00983339 0)
(0.297031 -0.0137189 0)
(0.296141 -0.0143101 0)
(0.294961 -0.0198143 0)
(0.293859 -0.0200291 0)
(0.292238 -0.0278561 0)
(0.29118 -0.0273755 0)
(0.289065 -0.0382248 0)
(0.288768 -0.0367349 0)
(0.28627 -0.0506666 0)
(0.288153 -0.0484336 0)
(0.28598 -0.0630549 0)
(0.291524 -0.0620266 0)
(0.29216 -0.0701639 0)
(0.300021 -0.000522443 0)
(0.299881 -0.00223309 0)
(0.299703 -0.00314398 0)
(0.299316 -0.00523485 0)
(0.298898 -0.00605641 0)
(0.298257 -0.00882537 0)
(0.297558 -0.00951747 0)
(0.29661 -0.0133963 0)
(0.295588 -0.0138285 0)
(0.294271 -0.0194301 0)
(0.292954 -0.0193274 0)
(0.291194 -0.027511 0)
(0.289849 -0.0264056 0)
(0.287579 -0.038175 0)
(0.287057 -0.0355209 0)
(0.284278 -0.0513939 0)
(0.28642 -0.0472697 0)
(0.283638 -0.0650904 0)
(0.290621 -0.06193 0)
(0.290571 -0.0729722 0)
(0.300039 -0.000508258 0)
(0.29985 -0.00215734 0)
(0.299688 -0.0030385 0)
(0.299211 -0.00506292 0)
(0.298789 -0.00584746 0)
(0.298021 -0.00854777 0)
(0.297285 -0.0091781 0)
(0.296181 -0.0130071 0)
(0.295059 -0.013316 0)
(0.293576 -0.0189522 0)
(0.292054 -0.0185841 0)
(0.290157 -0.0270522 0)
(0.288461 -0.0253713 0)
(0.286109 -0.0380354 0)
(0.285182 -0.0341879 0)
(0.282249 -0.0521728 0)
(0.28447 -0.0458906 0)
(0.281008 -0.0675078 0)
(0.289642 -0.0616315 0)
(0.2885 -0.0765871 0)
(0.300066 -0.000493613 0)
(0.299808 -0.00207034 0)
(0.299689 -0.00292513 0)
(0.299089 -0.00486566 0)
(0.298705 -0.00562389 0)
(0.297765 -0.00822568 0)
(0.29705 -0.00881929 0)
(0.295725 -0.0125461 0)
(0.294578 -0.0127818 0)
(0.292854 -0.0183652 0)
(0.291189 -0.0178166 0)
(0.2891 -0.0264454 0)
(0.287035 -0.0242998 0)
(0.284648 -0.0377516 0)
(0.283094 -0.0327625 0)
(0.280252 -0.0529609 0)
(0.282159 -0.0442733 0)
(0.278152 -0.0703316 0)
(0.288594 -0.0610582 0)
(0.285767 -0.0811366 0)
(0.300103 -0.000478039 0)
(0.299752 -0.00197299 0)
(0.299708 -0.00280365 0)
(0.298948 -0.00464441 0)
(0.298654 -0.00538583 0)
(0.297479 -0.00786022 0)
(0.296869 -0.00844242 0)
(0.295226 -0.0120117 0)
(0.294174 -0.0122317 0)
(0.292069 -0.0176567 0)
(0.290412 -0.0170426 0)
(0.287963 -0.0256513 0)
(0.285636 -0.0232275 0)
(0.283132 -0.0372428 0)
(0.280794 -0.0312982 0)
(0.278327 -0.0536766 0)
(0.279265 -0.0424199 0)
(0.275282 -0.0736179 0)
(0.287364 -0.0600839 0)
(0.282073 -0.0867234 0)
(0.300149 -0.000460768 0)
(0.299681 -0.00186678 0)
(0.299746 -0.00267307 0)
(0.298784 -0.00440177 0)
(0.29864 -0.0051318 0)
(0.297157 -0.00745513 0)
(0.296754 -0.00804544 0)
(0.294666 -0.0114074 0)
(0.293881 -0.0116649 0)
(0.29118 -0.0168235 0)
(0.289791 -0.0162718 0)
(0.286663 -0.0246354 0)
(0.284388 -0.0221945 0)
(0.281416 -0.0364001 0)
(0.278404 -0.0298805 0)
(0.276375 -0.0541582 0)
(0.275581 -0.0404052 0)
(0.272763 -0.0774312 0)
(0.285479 -0.0584919 0)
(0.277172 -0.0935399 0)
(0.300202 -0.000440883 0)
(0.299599 -0.00175355 0)
(0.299801 -0.00253195 0)
(0.2986 -0.00414133 0)
(0.298662 -0.00485908 0)
(0.296802 -0.00701655 0)
(0.296709 -0.00762306 0)
(0.294042 -0.010743 0)
(0.293715 -0.0110721 0)
(0.290162 -0.0158764 0)
(0.289391 -0.0154954 0)
(0.285115 -0.0233893 0)
(0.283454 -0.0212251 0)
(0.279284 -0.0351112 0)
(0.276218 -0.0286207 0)
(0.274038 -0.0541233 0)
(0.271153 -0.0384354 0)
(0.270832 -0.0817049 0)
(0.281917 -0.0560187 0)
(0.271469 -0.102141 0)
(0.30026 -0.000417571 0)
(0.299509 -0.00163518 0)
(0.299867 -0.00237884 0)
(0.298407 -0.00386692 0)
(0.298711 -0.00456452 0)
(0.296426 -0.00655185 0)
(0.296722 -0.00716813 0)
(0.293369 -0.010032 0)
(0.29367 -0.0104378 0)
(0.289024 -0.0148392 0)
(0.289232 -0.014683 0)
(0.283279 -0.0219428 0)
(0.28297 -0.02029 0)
(0.276533 -0.0333372 0)
(0.274652 -0.0276093 0)
(0.270698 -0.0531845 0)
(0.266576 -0.0368617 0)
(0.269037 -0.0859904 0)
(0.275368 -0.0525872 0)
(0.26678 -0.113762 0)
(0.300316 -0.000390396 0)
(0.299421 -0.00151305 0)
(0.299935 -0.00221296 0)
(0.298216 -0.00358179 0)
(0.29877 -0.00424586 0)
(0.296053 -0.00606783 0)
(0.296766 -0.00667419 0)
(0.292687 -0.00928873 0)
(0.293703 -0.00974463 0)
(0.287826 -0.013742 0)
(0.289264 -0.0137918 0)
(0.281217 -0.0203564 0)
(0.282946 -0.0192975 0)
(0.273102 -0.0311539 0)
(0.274056 -0.0267998 0)
(0.265725 -0.051062 0)
(0.263038 -0.0360872 0)
(0.265724 -0.0892631 0)
(0.265347 -0.04877 0)
(0.266123 -0.130398 0)
(0.300366 -0.0003595 0)
(0.299344 -0.00138776 0)
(0.299993 -0.00203464 0)
(0.298046 -0.00328773 0)
(0.298818 -0.00390293 0)
(0.295714 -0.00556882 0)
(0.296801 -0.00613842 0)
(0.292055 -0.00852358 0)
(0.293741 -0.00898073 0)
(0.286676 -0.0126111 0)
(0.289356 -0.012782 0)
(0.279115 -0.0186984 0)
(0.283187 -0.0181291 0)
(0.269218 -0.0287248 0)
(0.274397 -0.0259267 0)
(0.258936 -0.0478717 0)
(0.261731 -0.0362958 0)
(0.258352 -0.0900289 0)
(0.253853 -0.0461874 0)
(0.271087 -0.153795 0)
(0.300403 -0.000325628 0)
(0.299286 -0.00125892 0)
(0.300031 -0.00184568 0)
(0.297912 -0.00298467 0)
(0.298837 -0.00353839 0)
(0.295439 -0.00505539 0)
(0.29679 -0.00556375 0)
(0.291531 -0.00773947 0)
(0.293704 -0.00814578 0)
(0.285699 -0.0114584 0)
(0.289339 -0.0116353 0)
(0.277247 -0.0170145 0)
(0.283332 -0.0166911 0)
(0.265433 -0.0262169 0)
(0.275042 -0.0246259 0)
(0.251011 -0.0440659 0)
(0.262719 -0.0369975 0)
(0.245103 -0.0872696 0)
(0.245787 -0.0474093 0)
(0.277672 -0.182461 0)
(0.300425 -0.000290042 0)
(0.299251 -0.00112515 0)
(0.300043 -0.00164927 0)
(0.297822 -0.00267064 0)
(0.298814 -0.00315787 0)
(0.295248 -0.00452416 0)
(0.296707 -0.00495952 0)
(0.291159 -0.00693054 0)
(0.293536 -0.00725402 0)
(0.284999 -0.0102754 0)
(0.289069 -0.0103675 0)
(0.27587 -0.0153031 0)
(0.283004 -0.0149662 0)
(0.262435 -0.0237039 0)
(0.274972 -0.0226362 0)
(0.243582 -0.0401505 0)
(0.264071 -0.0368614 0)
(0.226979 -0.081825 0)
(0.245393 -0.0544585 0)
(0.275286 -0.210508 0)
(0.300432 -0.000254453 0)
(0.29924 -0.000984434 0)
(0.30003 -0.00144951 0)
(0.297778 -0.00234257 0)
(0.298749 -0.0027689 0)
(0.295142 -0.00396933 0)
(0.296548 -0.00433934 0)
(0.29095 -0.00608506 0)
(0.293222 -0.00633052 0)
(0.284609 -0.00903774 0)
(0.288498 -0.00902507 0)
(0.27511 -0.0135152 0)
(0.282001 -0.0130303 0)
(0.260704 -0.0211126 0)
(0.273348 -0.0199657 0)
(0.238551 -0.0362688 0)
(0.262464 -0.0347148 0)
(0.208973 -0.0752206 0)
(0.247954 -0.0658057 0)
(0.250561 -0.229528 0)
(0.300427 -0.000219731 0)
(0.299248 -0.000837244 0)
(0.299995 -0.00124777 0)
(0.297773 -0.00200068 0)
(0.298651 -0.00237514 0)
(0.29511 -0.00339016 0)
(0.296333 -0.00371139 0)
(0.29088 -0.00519834 0)
(0.292799 -0.00539392 0)
(0.284489 -0.00772894 0)
(0.287689 -0.00765306 0)
(0.274903 -0.0115989 0)
(0.280423 -0.0109978 0)
(0.260228 -0.0182859 0)
(0.2701 -0.0168791 0)
(0.236736 -0.0320492 0)
(0.25572 -0.0304797 0)
(0.197727 -0.0680833 0)
(0.237533 -0.0740348 0)
(0.19259 -0.224566 0)
(0.295811 -0.0645389 0)
(0.296516 -0.0640505 0)
(0.297361 -0.0624926 0)
(0.298212 -0.0603094 0)
(0.299049 -0.0577743 0)
(0.299858 -0.0550067 0)
(0.300618 -0.0521243 0)
(0.301299 -0.0492451 0)
(0.301913 -0.0464533 0)
(0.30245 -0.0437805 0)
(0.296361 -0.0649815 0)
(0.297576 -0.0645569 0)
(0.298783 -0.0630246 0)
(0.29982 -0.0608524 0)
(0.300749 -0.0582989 0)
(0.301589 -0.05549 0)
(0.302321 -0.0525578 0)
(0.302927 -0.0496298 0)
(0.303443 -0.0467916 0)
(0.303877 -0.0440765 0)
(0.296795 -0.0656905 0)
(0.298621 -0.0652333 0)
(0.300254 -0.0636352 0)
(0.301534 -0.0614119 0)
(0.302611 -0.0587896 0)
(0.303531 -0.0558989 0)
(0.304273 -0.0528918 0)
(0.304836 -0.0499056 0)
(0.305281 -0.047021 0)
(0.305635 -0.0442739 0)
(0.297156 -0.0666956 0)
(0.299673 -0.0661217 0)
(0.301739 -0.0643936 0)
(0.303267 -0.0620719 0)
(0.304505 -0.0593336 0)
(0.305511 -0.0563187 0)
(0.306265 -0.0532073 0)
(0.306793 -0.0501456 0)
(0.307181 -0.0472067 0)
(0.307474 -0.0444248 0)
(0.297488 -0.0680255 0)
(0.300784 -0.0672372 0)
(0.303275 -0.0653233 0)
(0.305042 -0.062852 0)
(0.306444 -0.0599431 0)
(0.307534 -0.0567604 0)
(0.308297 -0.0535186 0)
(0.308794 -0.0503679 0)
(0.309136 -0.047369 0)
(0.309382 -0.0445515 0)
(0.297847 -0.0697054 0)
(0.302002 -0.0685834 0)
(0.304885 -0.0664323 0)
(0.306881 -0.0637525 0)
(0.308453 -0.0606116 0)
(0.309631 -0.0572193 0)
(0.310408 -0.0538265 0)
(0.31089 -0.0505766 0)
(0.311199 -0.0475126 0)
(0.311398 -0.044656 0)
(0.2983 -0.0717615 0)
(0.303363 -0.0701648 0)
(0.306579 -0.0677268 0)
(0.308806 -0.0647728 0)
(0.310578 -0.0613378 0)
(0.311869 -0.057701 0)
(0.312689 -0.0541418 0)
(0.31317 -0.0507803 0)
(0.313436 -0.0476378 0)
(0.313538 -0.0447253 0)
(0.298913 -0.0742101 0)
(0.304876 -0.0719932 0)
(0.308364 -0.0692194 0)
(0.310883 -0.0659222 0)
(0.312935 -0.0621366 0)
(0.314394 -0.0582261 0)
(0.315274 -0.0544786 0)
(0.31572 -0.050974 0)
(0.315838 -0.0477143 0)
(0.315662 -0.0447003 0)
(0.299723 -0.0770317 0)
(0.306539 -0.0741081 0)
(0.310318 -0.0709553 0)
(0.313298 -0.0672406 0)
(0.315759 -0.0630451 0)
(0.31741 -0.0588157 0)
(0.318264 -0.0548214 0)
(0.318465 -0.051095 0)
(0.318115 -0.047632 0)
(0.317244 -0.0444295 0)
(0.300742 -0.080191 0)
(0.308428 -0.0766173 0)
(0.312725 -0.0730468 0)
(0.316437 -0.0688038 0)
(0.319358 -0.064092 0)
(0.321014 -0.0594302 0)
(0.321447 -0.0550488 0)
(0.320849 -0.0509463 0)
(0.319364 -0.047137 0)
(0.317076 -0.0436231 0)
(0.302116 -0.0837704 0)
(0.31092 -0.0797452 0)
(0.316203 -0.0756693 0)
(0.320777 -0.0706575 0)
(0.323793 -0.0651868 0)
(0.324737 -0.0598436 0)
(0.323812 -0.0548219 0)
(0.321376 -0.0501178 0)
(0.317707 -0.0457907 0)
(0.313026 -0.0418482 0)
(0.304488 -0.0881109 0)
(0.314909 -0.0838462 0)
(0.321465 -0.0789273 0)
(0.3263 -0.0726195 0)
(0.328139 -0.0659218 0)
(0.32683 -0.0594894 0)
(0.322966 -0.0535003 0)
(0.317245 -0.0479723 0)
(0.310147 -0.0430133 0)
(0.302117 -0.0386123 0)
(0.309322 -0.0938226 0)
(0.321418 -0.0891995 0)
(0.328338 -0.0824904 0)
(0.331351 -0.0739604 0)
(0.32952 -0.0653685 0)
(0.32363 -0.0573958 0)
(0.314893 -0.0501966 0)
(0.304465 -0.043782 0)
(0.293003 -0.038268 0)
(0.281192 -0.0335631 0)
(0.318396 -0.101438 0)
(0.330028 -0.0954341 0)
(0.334083 -0.0850765 0)
(0.331431 -0.0731524 0)
(0.322558 -0.062088 0)
(0.309656 -0.052382 0)
(0.294593 -0.0440742 0)
(0.278889 -0.037062 0)
(0.263181 -0.0313835 0)
(0.248264 -0.0267708 0)
(0.331701 -0.110607 0)
(0.336443 -0.100839 0)
(0.332089 -0.0841687 0)
(0.319009 -0.0680914 0)
(0.300173 -0.0545913 0)
(0.279141 -0.0436101 0)
(0.25804 -0.0348892 0)
(0.238308 -0.0280395 0)
(0.220159 -0.0229123 0)
(0.204175 -0.0189616 0)
(0.344454 -0.119106 0)
(0.331097 -0.101895 0)
(0.31256 -0.0765589 0)
(0.285442 -0.0570214 0)
(0.256466 -0.0422573 0)
(0.229283 -0.0313979 0)
(0.205274 -0.023607 0)
(0.184968 -0.0180293 0)
(0.167694 -0.0142534 0)
(0.153447 -0.011428 0)
(0.345828 -0.121288 0)
(0.30091 -0.0937816 0)
(0.266079 -0.0600007 0)
(0.22563 -0.0399937 0)
(0.191659 -0.0264827 0)
(0.164306 -0.0179636 0)
(0.142936 -0.012629 0)
(0.126475 -0.00919303 0)
(0.11336 -0.00712001 0)
(0.102979 -0.00544131 0)
(0.320722 -0.108356 0)
(0.234238 -0.0721536 0)
(0.190202 -0.0352236 0)
(0.144938 -0.0203902 0)
(0.116694 -0.011367 0)
(0.096689 -0.00703182 0)
(0.0827648 -0.00466904 0)
(0.0727912 -0.00326354 0)
(0.0651794 -0.0025128 0)
(0.0591101 -0.00161897 0)
(0.253938 -0.0720819 0)
(0.129855 -0.037419 0)
(0.097838 -0.00847558 0)
(0.0635566 -0.00491421 0)
(0.0505633 -0.00176832 0)
(0.0410586 -0.00113647 0)
(0.0352423 -0.000686602 0)
(0.0312589 -0.000432254 0)
(0.0283339 -0.000297532 0)
(0.0257252 0.000360231 0)
(0.129182 -0.0398702 0)
(0.013174 -0.00976549 0)
(0.0194943 0.0019458 0)
(0.00716726 0.000116753 0)
(0.00761869 0.000522421 0)
(0.00592193 0.000210502 0)
(0.00541211 0.000176818 0)
(0.00505639 0.000143901 0)
(0.00498416 0.00014174 0)
(0.00444927 0.000259647 0)
(0.30288 -0.0415616 0)
(0.303209 -0.0397311 0)
(0.303523 -0.0379773 0)
(0.303798 -0.036287 0)
(0.304072 -0.0346674 0)
(0.304298 -0.0331024 0)
(0.304535 -0.0316082 0)
(0.304708 -0.0301687 0)
(0.304907 -0.0288102 0)
(0.305014 -0.0275193 0)
(0.305169 -0.0263274 0)
(0.305192 -0.0252311 0)
(0.305299 -0.0242514 0)
(0.305216 -0.0234134 0)
(0.305276 -0.0226927 0)
(0.305064 -0.0221859 0)
(0.305084 -0.0217514 0)
(0.304715 -0.0216484 0)
(0.304709 -0.0214821 0)
(0.304164 -0.0218497 0)
(0.304218 -0.041827 0)
(0.304477 -0.0399765 0)
(0.30473 -0.0382037 0)
(0.304947 -0.0364958 0)
(0.30517 -0.0348583 0)
(0.305344 -0.0332757 0)
(0.305534 -0.0317624 0)
(0.305649 -0.0303025 0)
(0.305796 -0.0289216 0)
(0.30583 -0.0276055 0)
(0.305922 -0.0263876 0)
(0.305846 -0.0252605 0)
(0.305879 -0.0242524 0)
(0.305663 -0.0233778 0)
(0.305643 -0.0226284 0)
(0.305256 -0.0220786 0)
(0.305204 -0.0216171 0)
(0.304609 -0.021463 0)
(0.304567 -0.0212734 0)
(0.303714 -0.021582 0)
(0.305909 -0.0420032 0)
(0.306111 -0.0401377 0)
(0.306314 -0.0383524 0)
(0.306483 -0.0366336 0)
(0.306662 -0.0349838 0)
(0.306786 -0.033387 0)
(0.306928 -0.0318561 0)
(0.306978 -0.0303743 0)
(0.307062 -0.0289686 0)
(0.306997 -0.0276212 0)
(0.307003 -0.0263722 0)
(0.306782 -0.0252042 0)
(0.306704 -0.0241621 0)
(0.306284 -0.0232377 0)
(0.306136 -0.0224562 0)
(0.305471 -0.0218475 0)
(0.305297 -0.0213612 0)
(0.304329 -0.0211382 0)
(0.304209 -0.0209356 0)
(0.302843 -0.0211662 0)
(0.307696 -0.0421341 0)
(0.307857 -0.040257 0)
(0.308021 -0.0384621 0)
(0.308149 -0.0367338 0)
(0.308287 -0.035071 0)
(0.308358 -0.0334568 0)
(0.308443 -0.0319026 0)
(0.308408 -0.0303908 0)
(0.308404 -0.0289501 0)
(0.308206 -0.0275589 0)
(0.308084 -0.0262656 0)
(0.307664 -0.0250412 0)
(0.30742 -0.0239513 0)
(0.306718 -0.0229596 0)
(0.30638 -0.0221349 0)
(0.305333 -0.0214486 0)
(0.304976 -0.0209324 0)
(0.303494 -0.020619 0)
(0.303249 -0.0204058 0)
(0.301181 -0.0205255 0)
(0.309558 -0.0422417 0)
(0.309677 -0.0403541 0)
(0.309795 -0.0385489 0)
(0.309869 -0.0368081 0)
(0.309941 -0.0351259 0)
(0.309926 -0.0334852 0)
(0.309907 -0.031895 0)
(0.309734 -0.0303387 0)
(0.309573 -0.0288449 0)
(0.309168 -0.0273914 0)
(0.308834 -0.0260323 0)
(0.308123 -0.0247309 0)
(0.307616 -0.0235708 0)
(0.306528 -0.0224909 0)
(0.305899 -0.0216024 0)
(0.304347 -0.0208173 0)
(0.303713 -0.0202554 0)
(0.301566 -0.0198287 0)
(0.301133 -0.0195961 0)
(0.298161 -0.0195764 0)
(0.311509 -0.042323 0)
(0.311558 -0.0404196 0)
(0.311586 -0.0385963 0)
(0.311548 -0.0368319 0)
(0.311479 -0.0351154 0)
(0.31129 -0.0334307 0)
(0.311061 -0.0317835 0)
(0.310638 -0.0301607 0)
(0.310194 -0.0285887 0)
(0.309454 -0.0270492 0)
(0.308766 -0.0255972 0)
(0.307632 -0.0241958 0)
(0.306717 -0.0229384 0)
(0.305108 -0.0217494 0)
(0.304045 -0.0207719 0)
(0.301854 -0.0198701 0)
(0.300816 -0.0192413 0)
(0.297859 -0.0186842 0)
(0.297153 -0.0184189 0)
(0.293089 -0.0182412 0)
(0.313501 -0.0423509 0)
(0.313384 -0.0404138 0)
(0.313203 -0.0385516 0)
(0.312915 -0.0367401 0)
(0.312548 -0.0349628 0)
(0.312017 -0.0332064 0)
(0.311396 -0.0314729 0)
(0.310539 -0.0297552 0)
(0.309617 -0.0280754 0)
(0.308361 -0.0264239 0)
(0.307127 -0.0248509 0)
(0.305402 -0.0233283 0)
(0.303897 -0.0219474 0)
(0.301624 -0.0206342 0)
(0.299964 -0.0195436 0)
(0.297015 -0.0185155 0)
(0.295433 -0.0177987 0)
(0.291561 -0.0171055 0)
(0.290485 -0.016793 0)
(0.285201 -0.0164532 0)
(0.315261 -0.0422427 0)
(0.314766 -0.0402356 0)
(0.314142 -0.0382982 0)
(0.313355 -0.0364027 0)
(0.312428 -0.0345285 0)
(0.311292 -0.0326658 0)
(0.310015 -0.0308139 0)
(0.308475 -0.0289729 0)
(0.30683 -0.0271593 0)
(0.304841 -0.0253754 0)
(0.302848 -0.0236614 0)
(0.300365 -0.0220055 0)
(0.298092 -0.0204853 0)
(0.295042 -0.0190441 0)
(0.292638 -0.0178255 0)
(0.288871 -0.0166754 0)
(0.286628 -0.015855 0)
(0.281825 -0.0150366 0)
(0.280297 -0.0146638 0)
(0.273787 -0.0141772 0)
(0.31607 -0.0418201 0)
(0.314826 -0.0396904 0)
(0.313384 -0.0376311 0)
(0.311729 -0.0356097 0)
(0.309887 -0.0336029 0)
(0.307813 -0.0316048 0)
(0.305572 -0.0296126 0)
(0.303075 -0.0276331 0)
(0.300466 -0.025677 0)
(0.29755 -0.0237579 0)
(0.294626 -0.0219036 0)
(0.291272 -0.0201215 0)
(0.288123 -0.0184663 0)
(0.284264 -0.0169114 0)
(0.281051 -0.0155673 0)
(0.276513 -0.014316 0)
(0.273561 -0.0133883 0)
(0.267944 -0.0124726 0)
(0.265924 -0.012031 0)
(0.258347 -0.0114319 0)
(0.314501 -0.0407813 0)
(0.311994 -0.0384777 0)
(0.309256 -0.0362592 0)
(0.306302 -0.0340857 0)
(0.303165 -0.0319327 0)
(0.299829 -0.0297966 0)
(0.296359 -0.0276726 0)
(0.292705 -0.0255711 0)
(0.288986 -0.0234969 0)
(0.285058 -0.0214716 0)
(0.281163 -0.0195096 0)
(0.276957 -0.0176352 0)
(0.272965 -0.0158772 0)
(0.268402 -0.0142431 0)
(0.264451 -0.0127973 0)
(0.259322 -0.0114801 0)
(0.255731 -0.0104547 0)
(0.249558 -0.00948182 0)
(0.247079 -0.00896783 0)
(0.238765 -0.00830277 0)
(0.308309 -0.038724 0)
(0.30399 -0.0362333 0)
(0.299505 -0.0338616 0)
(0.294897 -0.0315577 0)
(0.290205 -0.0292956 0)
(0.285439 -0.0270705 0)
(0.280659 -0.0248742 0)
(0.275844 -0.0227151 0)
(0.271081 -0.0205926 0)
(0.266267 -0.0185291 0)
(0.261568 -0.0165274 0)
(0.256721 -0.0146215 0)
(0.252109 -0.0128176 0)
(0.247107 -0.0111531 0)
(0.242651 -0.00964572 0)
(0.237241 -0.00830292 0)
(0.233205 -0.00719908 0)
(0.226846 -0.00620974 0)
(0.224016 -0.00562113 0)
(0.215423 -0.00493646 0)
(0.294659 -0.0352521 0)
(0.288175 -0.0326475 0)
(0.281746 -0.0302118 0)
(0.275422 -0.0278791 0)
(0.269234 -0.0256204 0)
(0.263196 -0.0234239 0)
(0.257353 -0.0212745 0)
(0.251685 -0.0191735 0)
(0.246236 -0.0171133 0)
(0.240919 -0.0151104 0)
(0.235819 -0.0131588 0)
(0.230732 -0.0112944 0)
(0.225896 -0.00950933 0)
(0.220842 -0.00786146 0)
(0.216234 -0.00633405 0)
(0.210919 -0.00499507 0)
(0.206722 -0.00383236 0)
(0.200581 -0.00285492 0)
(0.197563 -0.00218481 0)
(0.189189 -0.00151688 0)
(0.270929 -0.0301751 0)
(0.262422 -0.0276543 0)
(0.254366 -0.0253504 0)
(0.246769 -0.023183 0)
(0.239619 -0.0211163 0)
(0.232904 -0.0191247 0)
(0.226627 -0.0171828 0)
(0.220739 -0.0152812 0)
(0.215224 -0.0134043 0)
(0.209988 -0.0115599 0)
(0.205037 -0.00973778 0)
(0.200205 -0.00797145 0)
(0.195606 -0.00625106 0)
(0.190907 -0.00464456 0)
(0.186526 -0.00312172 0)
(0.181651 -0.00179044 0)
(0.177588 -0.000582115 0)
(0.172018 0.000374413 0)
(0.168984 0.00113535 0)
(0.161287 0.00176103 0)
(0.236012 -0.0237462 0)
(0.226347 -0.0216261 0)
(0.217634 -0.0197368 0)
(0.20977 -0.017989 0)
(0.202657 -0.0163335 0)
(0.196219 -0.0147278 0)
(0.190388 -0.013137 0)
(0.185067 -0.0115433 0)
(0.180181 -0.00992774 0)
(0.175618 -0.00829251 0)
(0.17133 -0.00663076 0)
(0.167178 -0.0049749 0)
(0.163193 -0.00332466 0)
(0.159152 -0.00175006 0)
(0.155292 -0.000231298 0)
(0.151089 0.0011071 0)
(0.147397 0.00235775 0)
(0.142629 0.00330753 0)
(0.139738 0.00416676 0)
(0.133091 0.00472435 0)
(0.191641 -0.0167987 0)
(0.182317 -0.0154336 0)
(0.174406 -0.0142422 0)
(0.167602 -0.0131346 0)
(0.161687 -0.0120434 0)
(0.156506 -0.0109171 0)
(0.151921 -0.00972476 0)
(0.147798 -0.0084523 0)
(0.144034 -0.00708764 0)
(0.140521 -0.00563617 0)
(0.137191 -0.0041017 0)
(0.133938 -0.00251948 0)
(0.130756 -0.000905657 0)
(0.127505 0.00067032 0)
(0.124312 0.00220622 0)
(0.120876 0.00357829 0)
(0.117712 0.00487118 0)
(0.113853 0.00583677 0)
(0.111251 0.00678192 0)
(0.105934 0.00723058 0)
(0.142627 -0.010552 0)
(0.135295 -0.0101994 0)
(0.129609 -0.00986614 0)
(0.124982 -0.00946309 0)
(0.121092 -0.00891827 0)
(0.117739 -0.00820441 0)
(0.114769 -0.00732082 0)
(0.112067 -0.00627361 0)
(0.109551 -0.00506687 0)
(0.107144 -0.00371507 0)
(0.104794 -0.0022345 0)
(0.102434 -0.000666155 0)
(0.100051 0.000963809 0)
(0.0975738 0.00258009 0)
(0.0950687 0.00415896 0)
(0.0923925 0.00558566 0)
(0.0898436 0.00690832 0)
(0.0869143 0.00789388 0)
(0.084759 0.00887224 0)
(0.0809706 0.00915558 0)
(0.0952911 -0.00608726 0)
(0.0911207 -0.00683476 0)
(0.0884481 -0.00730206 0)
(0.0863959 -0.00743261 0)
(0.0846547 -0.00721549 0)
(0.0830713 -0.00670237 0)
(0.0815643 -0.00594407 0)
(0.0800908 -0.00497177 0)
(0.0786237 -0.00380289 0)
(0.0771328 -0.0024572 0)
(0.0755944 -0.000958258 0)
(0.0739801 0.000653587 0)
(0.0722866 0.00233822 0)
(0.0704833 0.0040189 0)
(0.0686215 0.0056489 0)
(0.066657 0.0071221 0)
(0.0647717 0.00844428 0)
(0.0627655 0.00941978 0)
(0.0612323 0.0103459 0)
(0.0590799 0.0103942 0)
(0.0550527 -0.00392004 0)
(0.0543565 -0.00569638 0)
(0.0545255 -0.0066459 0)
(0.0545918 -0.00692864 0)
(0.0544478 -0.0067085 0)
(0.0540902 -0.00614755 0)
(0.0535608 -0.00533655 0)
(0.0529028 -0.0043137 0)
(0.0521426 -0.00309407 0)
(0.0512868 -0.00169238 0)
(0.0503364 -0.000130957 0)
(0.0492865 0.00155302 0)
(0.0481439 0.00330316 0)
(0.0469108 0.00504491 0)
(0.0456368 0.00670924 0)
(0.0443414 0.00819227 0)
(0.0431542 0.00946252 0)
(0.0420672 0.0103566 0)
(0.0413083 0.0111457 0)
(0.0407926 0.0108627 0)
(0.0251451 -0.00391098 0)
(0.0271798 -0.00649127 0)
(0.0291311 -0.00738515 0)
(0.0302667 -0.0073813 0)
(0.0308368 -0.00687859 0)
(0.0310039 -0.00610756 0)
(0.0309114 -0.00515106 0)
(0.0306537 -0.0040245 0)
(0.0302805 -0.00272366 0)
(0.0298127 -0.00124993 0)
(0.0292604 0.000380692 0)
(0.0286293 0.00212808 0)
(0.0279329 0.00393077 0)
(0.0271938 0.00570601 0)
(0.0264676 0.0073651 0)
(0.0258132 0.00879909 0)
(0.0253395 0.00994864 0)
(0.0251676 0.0106598 0)
(0.025233 0.0112512 0)
(0.026258 0.0105724 0)
(0.00671209 -0.0059113 0)
(0.00955613 -0.0083905 0)
(0.0117197 -0.00862467 0)
(0.0127195 -0.00805594 0)
(0.013159 -0.00718006 0)
(0.0132634 -0.00618614 0)
(0.0131959 -0.00509851 0)
(0.013042 -0.00389035 0)
(0.0128385 -0.00253144 0)
(0.0125977 -0.00100936 0)
(0.0123239 0.000664422 0)
(0.0120226 0.00244537 0)
(0.0117099 0.00426545 0)
(0.0114182 0.00603018 0)
(0.0112087 0.00763118 0)
(0.0111634 0.00894829 0)
(0.0113732 0.00990463 0)
(0.0120774 0.0103352 0)
(0.0128911 0.0106798 0)
(0.0152454 0.00966554 0)
(0.00122794 -0.00708627 0)
(0.00130474 -0.00940992 0)
(0.00192651 -0.00920257 0)
(0.00188292 -0.00826865 0)
(0.00167922 -0.00720264 0)
(0.00141174 -0.00612632 0)
(0.0011644 -0.00501097 0)
(0.000966525 -0.00379768 0)
(0.000818576 -0.00243951 0)
(0.000711451 -0.000917646 0)
(0.000636197 0.000754418 0)
(0.000591576 0.00252751 0)
(0.000591542 0.00432434 0)
(0.000668972 0.00603771 0)
(0.000885682 0.00754157 0)
(0.00133254 0.00870312 0)
(0.00207261 0.00942889 0)
(0.00346035 0.00957637 0)
(0.00478533 0.00962577 0)
(0.00804417 0.00849019 0)
(-0.000678519 -0.00703767 0)
(-0.00258437 -0.009135 0)
(-0.00386735 -0.00892611 0)
(-0.00504599 -0.00796583 0)
(-0.00595147 -0.00692754 0)
(-0.00662108 -0.00590833 0)
(-0.00707169 -0.00485682 0)
(-0.00733773 -0.00370117 0)
(-0.00745721 -0.00238978 0)
(-0.00746247 -0.000904762 0)
(-0.00737648 0.00073505 0)
(-0.00720865 0.00247398 0)
(-0.00695042 0.00422465 0)
(-0.00657315 0.00586756 0)
(-0.00601908 0.00726145 0)
(-0.00519967 0.00826089 0)
(-0.0040736 0.00875543 0)
(-0.00221336 0.00866532 0)
(-0.000579416 0.00837034 0)
(0.00323187 0.00733316 0)
(-0.00141906 -0.0056451 0)
(-0.00470821 -0.00781915 0)
(-0.00765314 -0.00786633 0)
(-0.00986409 -0.00716777 0)
(-0.0114171 -0.00635732 0)
(-0.0124547 -0.00552835 0)
(-0.0130871 -0.00462963 0)
(-0.013409 -0.00359316 0)
(-0.0134948 -0.00237361 0)
(-0.0133988 -0.000960686 0)
(-0.0131583 0.000618678 0)
(-0.0127923 0.00229964 0)
(-0.0123003 0.00398381 0)
(-0.0116618 0.00553935 0)
(-0.0108285 0.00681058 0)
(-0.009723 0.00763801 0)
(-0.00831745 0.00789928 0)
(-0.00617475 0.00757706 0)
(-0.00436707 0.00693322 0)
(-0.000282302 0.00614059 0)
(-0.00171765 -0.00375042 0)
(-0.00588548 -0.00577789 0)
(-0.0100026 -0.00619983 0)
(-0.0129749 -0.00596677 0)
(-0.0150086 -0.005547 0)
(-0.0163129 -0.00502048 0)
(-0.0170661 -0.00435045 0)
(-0.0174087 -0.00348589 0)
(-0.017443 -0.00239665 0)
(-0.0172415 -0.00108519 0)
(-0.0168537 0.000410495 0)
(-0.0163086 0.00201522 0)
(-0.0156154 0.00361995 0)
(-0.0147652 0.00508111 0)
(-0.0137238 0.00622992 0)
(-0.0124316 0.00689272 0)
(-0.0108734 0.00693961 0)
(-0.00863984 0.00639069 0)
(-0.0067899 0.00547236 0)
(-0.00273364 0.00490419 0)
(-0.00184581 -0.00162493 0)
(-0.00647938 -0.00329687 0)
(-0.0112215 -0.00414624 0)
(-0.0146097 -0.00450463 0)
(-0.0169013 -0.00458372 0)
(-0.018338 -0.00443717 0)
(-0.0191343 -0.00404983 0)
(-0.0194555 -0.00339567 0)
(-0.0194202 -0.0024652 0)
(-0.0191119 -0.00127685 0)
(-0.0185899 0.000118338 0)
(-0.0178922 0.00163687 0)
(-0.0170384 0.0031578 0)
(-0.0160336 0.00452797 0)
(-0.0148613 0.00556747 0)
(-0.0134839 0.00608942 0)
(-0.0119027 0.0059574 0)
(-0.00975133 0.00520983 0)
(-0.0080061 0.00408465 0)
(-0.00422631 0.00365276 0)
(-0.00188793 0.000607307 0)
(-0.00660773 -0.00064229 0)
(-0.0114113 -0.00194176 0)
(-0.0148466 -0.00294374 0)
(-0.0171577 -0.00356812 0)
(-0.0185883 -0.00383736 0)
(-0.0193526 -0.00376013 0)
(-0.0196169 -0.0033377 0)
(-0.0195022 -0.00258282 0)
(-0.0190959 -0.00153035 0)
(-0.0184615 -0.000243531 0)
(-0.0176452 0.00118495 0)
(-0.016678 0.00262541 0)
(-0.0155784 0.00391693 0)
(-0.0143503 0.00487095 0)
(-0.0129803 0.00528896 0)
(-0.0114911 0.00502698 0)
(-0.00956551 0.00412659 0)
(-0.00806007 0.00284681 0)
(-0.00475585 0.00248972 0)
(-0.0018128 0.00282018 0)
(-0.00620837 0.00191562 0)
(-0.0104984 0.000173248 0)
(-0.0136195 -0.00144594 0)
(-0.0157269 -0.00259786 0)
(-0.0170312 -0.00327477 0)
(-0.0177074 -0.00350726 0)
(-0.0178979 -0.00332044 0)
(-0.0177111 -0.00274648 0)
(-0.0172295 -0.00183447 0)
(-0.0165172 -0.00065721 0)
(-0.0156259 0.000682966 0)
(-0.0145959 0.00205195 0)
(-0.0134599 0.00328321 0)
(-0.0122425 0.00418242 0)
(-0.0109552 0.00454212 0)
(-0.00964694 0.00420825 0)
(-0.00805242 0.00321275 0)
(-0.00689172 0.00182384 0)
(-0.00421723 0.00149515 0)
(-0.00145552 0.00484884 0)
(-0.00502484 0.00408089 0)
(-0.00822532 0.00195894 0)
(-0.0107121 -0.000159621 0)
(-0.0124379 -0.00175487 0)
(-0.0135345 -0.00278785 0)
(-0.0141008 -0.00330312 0)
(-0.01423 -0.00333985 0)
(-0.0140037 -0.00294251 0)
(-0.0134906 -0.00216976 0)
(-0.0127508 -0.00110056 0)
(-0.0118383 0.000157273 0)
(-0.0108012 0.00146683 0)
(-0.00968506 0.00265843 0)
(-0.00853438 0.00353571 0)
(-0.00738453 0.00388601 0)
(-0.00631411 0.00354169 0)
(-0.00511361 0.00252005 0)
(-0.00436341 0.00106023 0)
(-0.00242949 0.000730783 0)
(-0.00039856 0.00631583 0)
(-0.00252379 0.00553585 0)
(-0.00411795 0.00319719 0)
(-0.00574367 0.000793229 0)
(-0.00699103 -0.00109204 0)
(-0.00785886 -0.00239 0)
(-0.0083412 -0.00313852 0)
(-0.00846151 -0.00337395 0)
(-0.00826211 -0.00314215 0)
(-0.00778957 -0.00250426 0)
(-0.00709453 -0.00154021 0)
(-0.00623031 -0.000359456 0)
(-0.0052506 0.000901105 0)
(-0.0042121 0.0020714 0)
(-0.00317636 0.00295662 0)
(-0.00220202 0.00334386 0)
(-0.0013947 0.00304715 0)
(-0.000613609 0.00207767 0)
(-0.000294095 0.000563066 0)
(0.000828662 0.000253527 0)
(0.00241775 0.00603748 0)
(0.00233775 0.00592896 0)
(0.00255283 0.00372647 0)