x,y,z,p
0,0,0,14.3273
0,0.1,0,14.2882
0,0.2,0,14.249
0,0.3,0,14.2055
0,0.4,0,14.1575
0,0.5,0,14.1095
0,0.6,0,14.0901
0,0.7,0,14.0707
0,0.8,0,14.0531
0,0.9,0,14.0374
0,1,0,14.0217
0,1.1,0,14.0132
0,1.2,0,14.0047
0,1.3,0,13.9981
0,1.4,0,13.9932
0,1.5,0,13.9884
0,1.6,0,13.9865
0,1.7,0,13.9846
0,1.8,0,13.9839
0,1.9,0,13.9844
0,2,0,13.9848
0,2.1,0,13.987
0,2.2,0,13.9892
0,2.3,0,13.992
0,2.4,0,13.9955
0,2.5,0,13.999
0,2.6,0,14.0034
0,2.7,0,14.0078
0,2.8,0,14.0125
0,2.9,0,14.0175
0,3,0,14.0225
0,3.1,0,14.0277
0,3.2,0,14.033
0,3.3,0,14.0384
0,3.4,0,14.044
0,3.5,0,14.0496
0,3.6,0,14.0556
0,3.7,0,14.0617
0,3.8,0,14.0679
0,3.9,0,14.0744
0,4,0,14.0809
0,4.1,0,14.0894
0,4.2,0,14.0978
0,4.3,0,14.1064
0,4.4,0,14.115
0,4.5,0,14.1236
0,4.6,0,14.1309
0,4.7,0,14.1384
0,4.8,0,14.1451
0,4.9,0,14.1512
0,5,0,14.1573
0,5.1,0,14.1621
0,5.2,0,14.1662
0,5.3,0,14.17
0,5.4,0,14.1719
0,5.5,0,14.1719
0,5.6,0,14.1698
0,5.7,0,14.1654
0,5.8,0,14.1587
0,5.9,0,14.1509
0,6,0,14.1402
0,6.1,0,14.128
0,6.2,0,14.1158
0,6.3,0,14.1036
0,6.4,0,14.0912
0,6.5,0,14.0787
0,6.6,0,14.0662
0,6.7,0,14.0538
0,6.8,0,14.0415
0,6.9,0,14.0292
0,7,0,14.0169
0,7.1,0,14.0045
0,7.2,0,13.9922
0,7.3,0,13.9798
0,7.4,0,13.9683
0,7.5,0,13.9572
0,7.6,0,13.9461
0,7.7,0,13.935
0,7.8,0,13.9237
0,7.9,0,13.9123
0,8,0,13.901
0,8.1,0,13.8897
0,8.2,0,13.8784
0,8.3,0,13.8671
0,8.4,0,13.856
0,8.5,0,13.845
0,8.6,0,13.834
0,8.7,0,13.8231
0,8.8,0,13.8128
0,8.9,0,13.8025
0,9,0,13.7922
0,9.1,0,13.7828
0,9.2,0,13.7736
0,9.3,0,13.7643
0,9.4,0,13.7557
0,9.5,0,13.7478
0,9.6,0,13.7398
0,9.7,0,13.7321
0,9.8,0,13.7257
0,9.9,0,13.7193
0,10,0,13.7129
0,10.1,0,13.7079
0,10.2,0,13.7032
0,10.3,0,13.6986
0,10.4,0,13.6948
0,10.5,0,13.692
0,10.6,0,13.6892
0,10.7,0,13.6867
0,10.8,0,13.6864
0,10.9,0,13.6861
0,11,0,13.6858
0,11.1,0,13.6872
0,11.2,0,13.6892
0,11.3,0,13.6912
0,11.4,0,13.6952
0,11.5,0,13.702
0,11.6,0,13.7089
0,11.7,0,13.7159
0,11.8,0,13.7251
0,11.9,0,13.7344
0,12,0,13.7437
0,12.1,0,13.7662
0,12.2,0,13.7944
0,12.3,0,13.8225
0,12.4,0,13.8494
0,12.5,0,13.8737
0,12.6,0,13.898
0,12.7,0,13.9223
0.1,0,0,14.2396
0.1,0.1,0,14.2131
0.1,0.2,0,14.1739
0.1,0.3,0,14.1379
0.1,0.4,0,14.0975
0.1,0.5,0,14.0495
0.1,0.6,0,14.034
0.1,0.7,0,14.0146
0.1,0.8,0,13.9982
0.1,0.9,0,13.9836
0.1,1,0,13.9679
0.1,1.1,0,13.9605
0.1,1.2,0,13.9521
0.1,1.3,0,13.9457
0.1,1.4,0,13.9411
0.1,1.5,0,13.9362
0.1,1.6,0,13.9348
0.1,1.7,0,13.9329
0.1,1.8,0,13.9324
0.1,1.9,0,13.933
0.1,2,0,13.9334
0.1,2.1,0,13.936
0.1,2.2,0,13.9382
0.1,2.3,0,13.9413
0.1,2.4,0,13.9451
0.1,2.5,0,13.9486
0.1,2.6,0,13.954
0.1,2.7,0,13.9584
0.1,2.8,0,13.9638
0.1,2.9,0,13.9694
0.1,3,0,13.9744
0.1,3.1,0,13.9815
0.1,3.2,0,13.9868
0.1,3.3,0,13.9931
0.1,3.4,0,13.9995
0.1,3.5,0,14.0051
0.1,3.6,0,14.0121
0.1,3.7,0,14.0181
0.1,3.8,0,14.0241
0.1,3.9,0,14.0303
0.1,4,0,14.0367
0.1,4.1,0,14.0414
0.1,4.2,0,14.0499
0.1,4.3,0,14.0559
0.1,4.4,0,14.062
0.1,4.5,0,14.0706
0.1,4.6,0,14.0716
0.1,4.7,0,14.079
0.1,4.8,0,14.082
0.1,4.9,0,14.0844
0.1,5,0,14.0905
0.1,5.1,0,14.0927
0.1,5.2,0,14.0954
0.1,5.3,0,14.0979
0.1,5.4,0,14.099
0.1,5.5,0,14.0986
0.1,5.6,0,14.0964
0.1,5.7,0,14.0923
0.1,5.8,0,14.0865
0.1,5.9,0,14.0796
0.1,6,0,14.0706
0.1,6.1,0,14.0672
0.1,6.2,0,14.058
0.1,6.3,0,14.0458
0.1,6.4,0,14.0376
0.1,6.5,0,14.0295
0.1,6.6,0,14.017
0.1,6.7,0,14.0054
0.1,6.8,0,13.9956
0.1,6.9,0,13.9834
0.1,7,0,13.9711
0.1,7.1,0,13.9597
0.1,7.2,0,13.9478
0.1,7.3,0,13.9354
0.1,7.4,0,13.9231
0.1,7.5,0,13.9111
0.1,7.6,0,13.9001
0.1,7.7,0,13.8886
0.1,7.8,0,13.8758
0.1,7.9,0,13.8644
0.1,8,0,13.853
0.1,8.1,0,13.8408
0.1,8.2,0,13.829
0.1,8.3,0,13.8177
0.1,8.4,0,13.8063
0.1,8.5,0,13.7948
0.1,8.6,0,13.7838
0.1,8.7,0,13.7728
0.1,8.8,0,13.7622
0.1,8.9,0,13.7518
0.1,9,0,13.7415
0.1,9.1,0,13.732
0.1,9.2,0,13.7226
0.1,9.3,0,13.7134
0.1,9.4,0,13.7047
0.1,9.5,0,13.6967
0.1,9.6,0,13.6888
0.1,9.7,0,13.681
0.1,9.8,0,13.6746
0.1,9.9,0,13.6681
0.1,10,0,13.6617
0.1,10.1,0,13.6567
0.1,10.2,0,13.652
0.1,10.3,0,13.6473
0.1,10.4,0,13.6434
0.1,10.5,0,13.6406
0.1,10.6,0,13.6378
0.1,10.7,0,13.6352
0.1,10.8,0,13.6348
0.1,10.9,0,13.6345
0.1,11,0,13.6342
0.1,11.1,0,13.6354
0.1,11.2,0,13.6372
0.1,11.3,0,13.6392
0.1,11.4,0,13.6428
0.1,11.5,0,13.649
0.1,11.6,0,13.6558
0.1,11.7,0,13.6627
0.1,11.8,0,13.6705
0.1,11.9,0,13.6794
0.1,12,0,13.6887
0.1,12.1,0,13.7058
0.1,12.2,0,13.7291
0.1,12.3,0,13.7573
0.1,12.4,0,13.7817
0.1,12.5,0,13.7994
0.1,12.6,0,13.8237
0.1,12.7,0,13.848
0.2,0,0,14.1518
0.2,0.1,0,14.1253
0.2,0.2,0,14.0989
0.2,0.3,0,14.0629
0.2,0.4,0,14.03
0.2,0.5,0,13.9895
0.2,0.6,0,13.9741
0.2,0.7,0,13.9586
0.2,0.8,0,13.9422
0.2,0.9,0,13.9287
0.2,1,0,13.9141
0.2,1.1,0,13.9067
0.2,1.2,0,13.8994
0.2,1.3,0,13.893
0.2,1.4,0,13.8887
0.2,1.5,0,13.8841
0.2,1.6,0,13.8827
0.2,1.7,0,13.8812
0.2,1.8,0,13.8807
0.2,1.9,0,13.8814
0.2,2,0,13.882
0.2,2.1,0,13.8846
0.2,2.2,0,13.8872
0.2,2.3,0,13.8903
0.2,2.4,0,13.8944
0.2,2.5,0,13.8982
0.2,2.6,0,13.9036
0.2,2.7,0,13.9089
0.2,2.8,0,13.9143
0.2,2.9,0,13.9207
0.2,3,0,13.9263
0.2,3.1,0,13.9334
0.2,3.2,0,13.9405
0.2,3.3,0,13.9468
0.2,3.4,0,13.9541
0.2,3.5,0,13.9606
0.2,3.6,0,13.9676
0.2,3.7,0,13.9746
0.2,3.8,0,13.9805
0.2,3.9,0,13.9864
0.2,4,0,13.9926
0.2,4.1,0,13.9973
0.2,4.2,0,14.002
0.2,4.3,0,14.008
0.2,4.4,0,14.0116
0.2,4.5,0,14.0177
0.2,4.6,0,14.0186
0.2,4.7,0,14.0196
0.2,4.8,0,14.0226
0.2,4.9,0,14.0213
0.2,5,0,14.0236
0.2,5.1,0,14.0234
0.2,5.2,0,14.0246
0.2,5.3,0,14.0259
0.2,5.4,0,14.0262
0.2,5.5,0,14.0253
0.2,5.6,0,14.023
0.2,5.7,0,14.0193
0.2,5.8,0,14.0142
0.2,5.9,0,14.0082
0.2,6,0,14.0009
0.2,6.1,0,13.9976
0.2,6.2,0,13.9942
0.2,6.3,0,13.988
0.2,6.4,0,13.9798
0.2,6.5,0,13.9737
0.2,6.6,0,13.9676
0.2,6.7,0,13.9562
0.2,6.8,0,13.9464
0.2,6.9,0,13.9367
0.2,7,0,13.9254
0.2,7.1,0,13.914
0.2,7.2,0,13.9026
0.2,7.3,0,13.891
0.2,7.4,0,13.8787
0.2,7.5,0,13.8664
0.2,7.6,0,13.8541
0.2,7.7,0,13.8425
0.2,7.8,0,13.8298
0.2,7.9,0,13.817
0.2,8,0,13.8051
0.2,8.1,0,13.7928
0.2,8.2,0,13.7805
0.2,8.3,0,13.7683
0.2,8.4,0,13.7569
0.2,8.5,0,13.7452
0.2,8.6,0,13.7336
0.2,8.7,0,13.7226
0.2,8.8,0,13.7119
0.2,8.9,0,13.7013
0.2,9,0,13.6908
0.2,9.1,0,13.6813
0.2,9.2,0,13.6718
0.2,9.3,0,13.6624
0.2,9.4,0,13.6538
0.2,9.5,0,13.6457
0.2,9.6,0,13.6377
0.2,9.7,0,13.6299
0.2,9.8,0,13.6235
0.2,9.9,0,13.617
0.2,10,0,13.6106
0.2,10.1,0,13.6055
0.2,10.2,0,13.6007
0.2,10.3,0,13.596
0.2,10.4,0,13.5921
0.2,10.5,0,13.5893
0.2,10.6,0,13.5864
0.2,10.7,0,13.5838
0.2,10.8,0,13.5834
0.2,10.9,0,13.583
0.2,11,0,13.5826
0.2,11.1,0,13.5838
0.2,11.2,0,13.5855
0.2,11.3,0,13.5872
0.2,11.4,0,13.5908
0.2,11.5,0,13.5969
0.2,11.6,0,13.6029
0.2,11.7,0,13.6096
0.2,11.8,0,13.6174
0.2,11.9,0,13.6253
0.2,12,0,13.6337
0.2,12.1,0,13.6508
0.2,12.2,0,13.6713
0.2,12.3,0,13.692
0.2,12.4,0,13.7164
0.2,12.5,0,13.734
0.2,12.6,0,13.7516
0.2,12.7,0,13.7737
0.3,0,0,14.018
0.3,0.1,0,14.0003
0.3,0.2,0,13.9739
0.3,0.3,0,13.955
0.3,0.4,0,13.9221
0.3,0.5,0,13.8892
0.3,0.6,0,13.8771
0.3,0.7,0,13.8617
0.3,0.8,0,13.8495
0.3,0.9,0,13.836
0.3,1,0,13.8225
0.3,1.1,0,13.8164
0.3,1.2,0,13.809
0.3,1.3,0,13.8039
0.3,1.4,0,13.7996
0.3,1.5,0,13.7953
0.3,1.6,0,13.7943
0.3,1.7,0,13.7928
0.3,1.8,0,13.7928
0.3,1.9,0,13.7936
0.3,2,0,13.7944
0.3,2.1,0,13.7973
0.3,2.2,0,13.7999
0.3,2.3,0,13.8036
0.3,2.4,0,13.8077
0.3,2.5,0,13.8118
0.3,2.6,0,13.8175
0.3,2.7,0,13.8229
0.3,2.8,0,13.8291
0.3,2.9,0,13.8354
0.3,3,0,13.8418
0.3,3.1,0,13.8492
0.3,3.2,0,13.8563
0.3,3.3,0,13.8637
0.3,3.4,0,13.871
0.3,3.5,0,13.8784
0.3,3.6,0,13.8853
0.3,3.7,0,13.8923
0.3,3.8,0,13.8985
0.3,3.9,0,13.9044
0.3,4,0,13.9102
0.3,4.1,0,13.9141
0.3,4.2,0,13.9188
0.3,4.3,0,13.9219
0.3,4.4,0,13.9255
0.3,4.5,0,13.9291
0.3,4.6,0,13.9288
0.3,4.7,0,13.9298
0.3,4.8,0,13.9287
0.3,4.9,0,13.9274
0.3,5,0,13.926
0.3,5.1,0,13.9244
0.3,5.2,0,13.9248
0.3,5.3,0,13.9252
0.3,5.4,0,13.925
0.3,5.5,0,13.9238
0.3,5.6,0,13.9215
0.3,5.7,0,13.918
0.3,5.8,0,13.9134
0.3,5.9,0,13.9079
0.3,6,0,13.9017
0.3,6.1,0,13.8998
0.3,6.2,0,13.8965
0.3,6.3,0,13.8931
0.3,6.4,0,13.8897
0.3,6.5,0,13.8837
0.3,6.6,0,13.8776
0.3,6.7,0,13.8708
0.3,6.8,0,13.8616
0.3,6.9,0,13.8519
0.3,7,0,13.8421
0.3,7.1,0,13.8313
0.3,7.2,0,13.82
0.3,7.3,0,13.8086
0.3,7.4,0,13.7966
0.3,7.5,0,13.7843
0.3,7.6,0,13.772
0.3,7.7,0,13.7594
0.3,7.8,0,13.7465
0.3,7.9,0,13.7338
0.3,8,0,13.721
0.3,8.1,0,13.7082
0.3,8.2,0,13.6959
0.3,8.3,0,13.6835
0.3,8.4,0,13.6713
0.3,8.5,0,13.6596
0.3,8.6,0,13.648
0.3,8.7,0,13.6365
0.3,8.8,0,13.6256
0.3,8.9,0,13.615
0.3,9,0,13.6044
0.3,9.1,0,13.5946
0.3,9.2,0,13.5851
0.3,9.3,0,13.5757
0.3,9.4,0,13.5669
0.3,9.5,0,13.5588
0.3,9.6,0,13.5507
0.3,9.7,0,13.5429
0.3,9.8,0,13.5363
0.3,9.9,0,13.5299
0.3,10,0,13.5234
0.3,10.1,0,13.5182
0.3,10.2,0,13.5134
0.3,10.3,0,13.5087
0.3,10.4,0,13.5047
0.3,10.5,0,13.5018
0.3,10.6,0,13.4989
0.3,10.7,0,13.4962
0.3,10.8,0,13.4956
0.3,10.9,0,13.4952
0.3,11,0,13.4947
0.3,11.1,0,13.4954
0.3,11.2,0,13.497
0.3,11.3,0,13.4987
0.3,11.4,0,13.5015
0.3,11.5,0,13.5071
0.3,11.6,0,13.5131
0.3,11.7,0,13.5191
0.3,11.8,0,13.5253
0.3,11.9,0,13.5331
0.3,12,0,13.541
0.3,12.1,0,13.5499
0.3,12.2,0,13.5704
0.3,12.3,0,13.5909
0.3,12.4,0,13.6069
0.3,12.5,0,13.6212
0.3,12.6,0,13.6388
0.3,12.7,0,13.6564
0.4,0,0,13.838
0.4,0.1,0,13.8292
0.4,0.2,0,13.8116
0.4,0.3,0,13.7927
0.4,0.4,0,13.7814
0.4,0.5,0,13.7485
0.4,0.6,0,13.7398
0.4,0.7,0,13.7277
0.4,0.8,0,13.7155
0.4,0.9,0,13.7066
0.4,1,0,13.6931
0.4,1.1,0,13.6882
0.4,1.2,0,13.6821
0.4,1.3,0,13.6769
0.4,1.4,0,13.674
0.4,1.5,0,13.6697
0.4,1.6,0,13.6691
0.4,1.7,0,13.6682
0.4,1.8,0,13.6682
0.4,1.9,0,13.6697
0.4,2,0,13.6705
0.4,2.1,0,13.6737
0.4,2.2,0,13.6766
0.4,2.3,0,13.6803
0.4,2.4,0,13.6851
0.4,2.5,0,13.6892
0.4,2.6,0,13.6953
0.4,2.7,0,13.7011
0.4,2.8,0,13.7073
0.4,2.9,0,13.7144
0.4,3,0,13.7208
0.4,3.1,0,13.7285
0.4,3.2,0,13.7359
0.4,3.3,0,13.7434
0.4,3.4,0,13.7511
0.4,3.5,0,13.7584
0.4,3.6,0,13.7654
0.4,3.7,0,13.7723
0.4,3.8,0,13.7785
0.4,3.9,0,13.7838
0.4,4,0,13.7897
0.4,4.1,0,13.7927
0.4,4.2,0,13.7966
0.4,4.3,0,13.7997
0.4,4.4,0,13.8013
0.4,4.5,0,13.8049
0.4,4.6,0,13.8034
0.4,4.7,0,13.8031
0.4,4.8,0,13.802
0.4,4.9,0,13.799
0.4,5,0,13.7976
0.4,5.1,0,13.7958
0.4,5.2,0,13.7959
0.4,5.3,0,13.796
0.4,5.4,0,13.7955
0.4,5.5,0,13.7941
0.4,5.6,0,13.7917
0.4,5.7,0,13.7883
0.4,5.8,0,13.7841
0.4,5.9,0,13.7789
0.4,6,0,13.7728
0.4,6.1,0,13.7717
0.4,6.2,0,13.7706
0.4,6.3,0,13.7673
0.4,6.4,0,13.7639
0.4,6.5,0,13.7605
0.4,6.6,0,13.7554
0.4,6.7,0,13.7486
0.4,6.8,0,13.7402
0.4,6.9,0,13.7314
0.4,7,0,13.7217
0.4,7.1,0,13.7111
0.4,7.2,0,13.7004
0.4,7.3,0,13.6891
0.4,7.4,0,13.677
0.4,7.5,0,13.6645
0.4,7.6,0,13.6521
0.4,7.7,0,13.6396
0.4,7.8,0,13.6264
0.4,7.9,0,13.6133
0.4,8,0,13.6005
0.4,8.1,0,13.5876
0.4,8.2,0,13.5747
0.4,8.3,0,13.5623
0.4,8.4,0,13.5501
0.4,8.5,0,13.538
0.4,8.6,0,13.5261
0.4,8.7,0,13.5146
0.4,8.8,0,13.5036
0.4,8.9,0,13.4926
0.4,9,0,13.482
0.4,9.1,0,13.4722
0.4,9.2,0,13.4625
0.4,9.3,0,13.453
0.4,9.4,0,13.4441
0.4,9.5,0,13.4359
0.4,9.6,0,13.4278
0.4,9.7,0,13.4199
0.4,9.8,0,13.4133
0.4,9.9,0,13.4067
0.4,10,0,13.4002
0.4,10.1,0,13.395
0.4,10.2,0,13.3901
0.4,10.3,0,13.3853
0.4,10.4,0,13.3813
0.4,10.5,0,13.3782
0.4,10.6,0,13.3752
0.4,10.7,0,13.3725
0.4,10.8,0,13.3717
0.4,10.9,0,13.3709
0.4,11,0,13.3705
0.4,11.1,0,13.3711
0.4,11.2,0,13.372
0.4,11.3,0,13.3735
0.4,11.4,0,13.3762
0.4,11.5,0,13.3805
0.4,11.6,0,13.3856
0.4,11.7,0,13.3916
0.4,11.8,0,13.3967
0.4,11.9,0,13.4019
0.4,12,0,13.4097
0.4,12.1,0,13.4183
0.4,12.2,0,13.4272
0.4,12.3,0,13.4441
0.4,12.4,0,13.4601
0.4,12.5,0,13.4676
0.4,12.6,0,13.4786
0.4,12.7,0,13.4962
0.5,0,0,13.658
0.5,0.1,0,13.6492
0.5,0.2,0,13.6404
0.5,0.3,0,13.6304
0.5,0.4,0,13.6191
0.5,0.5,0,13.6078
0.5,0.6,0,13.5991
0.5,0.7,0,13.5904
0.5,0.8,0,13.5816
0.5,0.9,0,13.5727
0.5,1,0,13.5638
0.5,1.1,0,13.5589
0.5,1.2,0,13.5539
0.5,1.3,0,13.55
0.5,1.4,0,13.547
0.5,1.5,0,13.5441
0.5,1.6,0,13.5436
0.5,1.7,0,13.543
0.5,1.8,0,13.5435
0.5,1.9,0,13.545
0.5,2,0,13.5465
0.5,2.1,0,13.5498
0.5,2.2,0,13.553
0.5,2.3,0,13.5571
0.5,2.4,0,13.5618
0.5,2.5,0,13.5666
0.5,2.6,0,13.5728
0.5,2.7,0,13.5789
0.5,2.8,0,13.5855
0.5,2.9,0,13.5926
0.5,3,0,13.5998
0.5,3.1,0,13.6075
0.5,3.2,0,13.6153
0.5,3.3,0,13.623
0.5,3.4,0,13.6307
0.5,3.5,0,13.6385
0.5,3.6,0,13.6454
0.5,3.7,0,13.6524
0.5,3.8,0,13.6585
0.5,3.9,0,13.6638
0.5,4,0,13.6691
0.5,4.1,0,13.6722
0.5,4.2,0,13.6752
0.5,4.3,0,13.6776
0.5,4.4,0,13.6791
0.5,4.5,0,13.6807
0.5,4.6,0,13.6792
0.5,4.7,0,13.6777
0.5,4.8,0,13.6754
0.5,4.9,0,13.6723
0.5,5,0,13.6692
0.5,5.1,0,13.6673
0.5,5.2,0,13.667
0.5,5.3,0,13.6667
0.5,5.4,0,13.6659
0.5,5.5,0,13.6644
0.5,5.6,0,13.6619
0.5,5.7,0,13.6587
0.5,5.8,0,13.6547
0.5,5.9,0,13.6498
0.5,6,0,13.644
0.5,6.1,0,13.6429
0.5,6.2,0,13.6418
0.5,6.3,0,13.6407
0.5,6.4,0,13.6381
0.5,6.5,0,13.6347
0.5,6.6,0,13.6313
0.5,6.7,0,13.6263
0.5,6.8,0,13.6179
0.5,6.9,0,13.6095
0.5,7,0,13.6011
0.5,7.1,0,13.5906
0.5,7.2,0,13.5799
0.5,7.3,0,13.5693
0.5,7.4,0,13.5575
0.5,7.5,0,13.545
0.5,7.6,0,13.5325
0.5,7.7,0,13.5198
0.5,7.8,0,13.5065
0.5,7.9,0,13.4933
0.5,8,0,13.4801
0.5,8.1,0,13.4671
0.5,8.2,0,13.4542
0.5,8.3,0,13.4413
0.5,8.4,0,13.4289
0.5,8.5,0,13.4167
0.5,8.6,0,13.4046
0.5,8.7,0,13.3927
0.5,8.8,0,13.3817
0.5,8.9,0,13.3707
0.5,9,0,13.3597
0.5,9.1,0,13.3498
0.5,9.2,0,13.3401
0.5,9.3,0,13.3304
0.5,9.4,0,13.3214
0.5,9.5,0,13.3132
0.5,9.6,0,13.305
0.5,9.7,0,13.297
0.5,9.8,0,13.2903
0.5,9.9,0,13.2837
0.5,10,0,13.2771
0.5,10.1,0,13.2718
0.5,10.2,0,13.2669
0.5,10.3,0,13.262
0.5,10.4,0,13.2579
0.5,10.5,0,13.2548
0.5,10.6,0,13.2516
0.5,10.7,0,13.2487
0.5,10.8,0,13.248
0.5,10.9,0,13.2472
0.5,11,0,13.2464
0.5,11.1,0,13.2469
0.5,11.2,0,13.2478
0.5,11.3,0,13.2487
0.5,11.4,0,13.251
0.5,11.5,0,13.2553
0.5,11.6,0,13.2596
0.5,11.7,0,13.264
0.5,11.8,0,13.2691
0.5,11.9,0,13.2742
0.5,12,0,13.2793
0.5,12.1,0,13.287
0.5,12.2,0,13.2959
0.5,12.3,0,13.3048
0.5,12.4,0,13.3132
0.5,12.5,0,13.3208
0.5,12.6,0,13.3283
0.5,12.7,0,13.3359
0.6,0,0,13.4856
0.6,0.1,0,13.4829
0.6,0.2,0,13.4741
0.6,0.3,0,13.4681
0.6,0.4,0,13.4607
0.6,0.5,0,13.4494
0.6,0.6,0,13.445
0.6,0.7,0,13.4363
0.6,0.8,0,13.4295
0.6,0.9,0,13.4225
0.6,1,0,13.4136
0.6,1.1,0,13.411
0.6,1.2,0,13.4061
0.6,1.3,0,13.4029
0.6,1.4,0,13.4007
0.6,1.5,0,13.3978
0.6,1.6,0,13.3984
0.6,1.7,0,13.3979
0.6,1.8,0,13.3988
0.6,1.9,0,13.4007
0.6,2,0,13.4022
0.6,2.1,0,13.4062
0.6,2.2,0,13.4094
0.6,2.3,0,13.4137
0.6,2.4,0,13.4187
0.6,2.5,0,13.4235
0.6,2.6,0,13.4298
0.6,2.7,0,13.4359
0.6,2.8,0,13.4425
0.6,2.9,0,13.4496
0.6,3,0,13.4567
0.6,3.1,0,13.4641
0.6,3.2,0,13.4718
0.6,3.3,0,13.4794
0.6,3.4,0,13.487
0.6,3.5,0,13.4947
0.6,3.6,0,13.5018
0.6,3.7,0,13.5088
0.6,3.8,0,13.5154
0.6,3.9,0,13.5213
0.6,4,0,13.5266
0.6,4.1,0,13.5321
0.6,4.2,0,13.5351
0.6,4.3,0,13.5392
0.6,4.4,0,13.5424
0.6,4.5,0,13.544
0.6,4.6,0,13.5465
0.6,4.7,0,13.545
0.6,4.8,0,13.5445
0.6,4.9,0,13.5433
0.6,5,0,13.5402
0.6,5.1,0,13.54
0.6,5.2,0,13.5409
0.6,5.3,0,13.5414
0.6,5.4,0,13.5411
0.6,5.5,0,13.5399
0.6,5.6,0,13.5374
0.6,5.7,0,13.5339
0.6,5.8,0,13.5294
0.6,5.9,0,13.5235
0.6,6,0,13.5159
0.6,6.1,0,13.5107
0.6,6.2,0,13.5082
0.6,6.3,0,13.5071
0.6,6.4,0,13.502
0.6,6.5,0,13.4959
0.6,6.6,0,13.4925
0.6,6.7,0,13.487
0.6,6.8,0,13.4766
0.6,6.9,0,13.4681
0.6,7,0,13.4597
0.6,7.1,0,13.4483
0.6,7.2,0,13.4373
0.6,7.3,0,13.4267
0.6,7.4,0,13.415
0.6,7.5,0,13.4025
0.6,7.6,0,13.39
0.6,7.7,0,13.3774
0.6,7.8,0,13.3645
0.6,7.9,0,13.3513
0.6,8,0,13.338
0.6,8.1,0,13.3252
0.6,8.2,0,13.3124
0.6,8.3,0,13.2995
0.6,8.4,0,13.2869
0.6,8.5,0,13.2747
0.6,8.6,0,13.2626
0.6,8.7,0,13.2507
0.6,8.8,0,13.2395
0.6,8.9,0,13.2284
0.6,9,0,13.2174
0.6,9.1,0,13.2073
0.6,9.2,0,13.1975
0.6,9.3,0,13.1878
0.6,9.4,0,13.1788
0.6,9.5,0,13.1704
0.6,9.6,0,13.1621
0.6,9.7,0,13.1541
0.6,9.8,0,13.1472
0.6,9.9,0,13.1406
0.6,10,0,13.1339
0.6,10.1,0,13.1285
0.6,10.2,0,13.1235
0.6,10.3,0,13.1186
0.6,10.4,0,13.1143
0.6,10.5,0,13.1109
0.6,10.6,0,13.1077
0.6,10.7,0,13.1048
0.6,10.8,0,13.1035
0.6,10.9,0,13.1026
0.6,11,0,13.1018
0.6,11.1,0,13.1017
0.6,11.2,0,13.1021
0.6,11.3,0,13.103
0.6,11.4,0,13.1046
0.6,11.5,0,13.1073
0.6,11.6,0,13.1117
0.6,11.7,0,13.116
0.6,11.8,0,13.119
0.6,11.9,0,13.1235
0.6,12,0,13.1286
0.6,12.1,0,13.1326
0.6,12.2,0,13.1381
0.6,12.3,0,13.147
0.6,12.4,0,13.1539
0.6,12.5,0,13.1572
0.6,12.6,0,13.1647
0.6,12.7,0,13.1723
0.7,0,0,13.3132
0.7,0.1,0,13.3105
0.7,0.2,0,13.3078
0.7,0.3,0,13.3018
0.7,0.4,0,13.2984
0.7,0.5,0,13.2911
0.7,0.6,0,13.2867
0.7,0.7,0,13.2823
0.7,0.8,0,13.2754
0.7,0.9,0,13.2704
0.7,1,0,13.2634
0.7,1.1,0,13.2608
0.7,1.2,0,13.2582
0.7,1.3,0,13.255
0.7,1.4,0,13.2537
0.7,1.5,0,13.2515
0.7,1.6,0,13.2521
0.7,1.7,0,13.2528
0.7,1.8,0,13.2537
0.7,1.9,0,13.256
0.7,2,0,13.258
0.7,2.1,0,13.2619
0.7,2.2,0,13.2658
0.7,2.3,0,13.2701
0.7,2.4,0,13.2753
0.7,2.5,0,13.2804
0.7,2.6,0,13.2867
0.7,2.7,0,13.293
0.7,2.8,0,13.2996
0.7,2.9,0,13.3066
0.7,3,0,13.3137
0.7,3.1,0,13.3211
0.7,3.2,0,13.3284
0.7,3.3,0,13.336
0.7,3.4,0,13.3434
0.7,3.5,0,13.3509
0.7,3.6,0,13.358
0.7,3.7,0,13.3651
0.7,3.8,0,13.3718
0.7,3.9,0,13.3782
0.7,4,0,13.384
0.7,4.1,0,13.3895
0.7,4.2,0,13.395
0.7,4.3,0,13.3991
0.7,4.4,0,13.404
0.7,4.5,0,13.4073
0.7,4.6,0,13.4098
0.7,4.7,0,13.4123
0.7,4.8,0,13.4118
0.7,4.9,0,13.4124
0.7,5,0,13.4111
0.7,5.1,0,13.4126
0.7,5.2,0,13.4147
0.7,5.3,0,13.416
0.7,5.4,0,13.4164
0.7,5.5,0,13.4154
0.7,5.6,0,13.4129
0.7,5.7,0,13.4091
0.7,5.8,0,13.404
0.7,5.9,0,13.3972
0.7,6,0,13.3877
0.7,6.1,0,13.3826
0.7,6.2,0,13.3774
0.7,6.3,0,13.3735
0.7,6.4,0,13.3684
0.7,6.5,0,13.3612
0.7,6.6,0,13.3539
0.7,6.7,0,13.3483
0.7,6.8,0,13.3379
0.7,6.9,0,13.3275
0.7,7,0,13.3183
0.7,7.1,0,13.3069
0.7,7.2,0,13.2954
0.7,7.3,0,13.2841
0.7,7.4,0,13.2724
0.7,7.5,0,13.26
0.7,7.6,0,13.2475
0.7,7.7,0,13.2349
0.7,7.8,0,13.222
0.7,7.9,0,13.2091
0.7,8,0,13.196
0.7,8.1,0,13.1832
0.7,8.2,0,13.1704
0.7,8.3,0,13.1576
0.7,8.4,0,13.145
0.7,8.5,0,13.1328
0.7,8.6,0,13.1206
0.7,8.7,0,13.1087
0.7,8.8,0,13.0975
0.7,8.9,0,13.0863
0.7,9,0,13.0752
0.7,9.1,0,13.0651
0.7,9.2,0,13.0552
0.7,9.3,0,13.0453
0.7,9.4,0,13.0362
0.7,9.5,0,13.0278
0.7,9.6,0,13.0193
0.7,9.7,0,13.0112
0.7,9.8,0,13.0044
0.7,9.9,0,12.9976
0.7,10,0,12.9908
0.7,10.1,0,12.9854
0.7,10.2,0,12.9802
0.7,10.3,0,12.9751
0.7,10.4,0,12.9709
0.7,10.5,0,12.9674
0.7,10.6,0,12.9639
0.7,10.7,0,12.9609
0.7,10.8,0,12.9596
0.7,10.9,0,12.9583
0.7,11,0,12.9573
0.7,11.1,0,12.9571
0.7,11.2,0,12.9572
0.7,11.3,0,12.9573
0.7,11.4,0,12.9589
0.7,11.5,0,12.9616
0.7,11.6,0,12.9642
0.7,11.7,0,12.968
0.7,11.8,0,12.971
0.7,11.9,0,12.9741
0.7,12,0,12.9779
0.7,12.1,0,12.9819
0.7,12.2,0,12.9855
0.7,12.3,0,12.9892
0.7,12.4,0,12.9961
0.7,12.5,0,12.9993
0.7,12.6,0,13.0025
0.7,12.7,0,13.0087
0.8,0,0,13.1517
0.8,0.1,0,13.1497
0.8,0.2,0,13.147
0.8,0.3,0,13.1449
0.8,0.4,0,13.1415
0.8,0.5,0,13.1382
0.8,0.6,0,13.1348
0.8,0.7,0,13.1303
0.8,0.8,0,13.1269
0.8,0.9,0,13.1218
0.8,1,0,13.1168
0.8,1.1,0,13.1151
0.8,1.2,0,13.1125
0.8,1.3,0,13.1112
0.8,1.4,0,13.1099
0.8,1.5,0,13.1085
0.8,1.6,0,13.1098
0.8,1.7,0,13.1104
0.8,1.8,0,13.1124
0.8,1.9,0,13.1147
0.8,2,0,13.1171
0.8,2.1,0,13.1214
0.8,2.2,0,13.1254
0.8,2.3,0,13.1304
0.8,2.4,0,13.1356
0.8,2.5,0,13.1409
0.8,2.6,0,13.1477
0.8,2.7,0,13.154
0.8,2.8,0,13.1613
0.8,2.9,0,13.1683
0.8,3,0,13.1753
0.8,3.1,0,13.1834
0.8,3.2,0,13.1908
0.8,3.3,0,13.199
0.8,3.4,0,13.2064
0.8,3.5,0,13.2138
0.8,3.6,0,13.2218
0.8,3.7,0,13.2289
0.8,3.8,0,13.2365
0.8,3.9,0,13.2428
0.8,4,0,13.2492
0.8,4.1,0,13.2555
0.8,4.2,0,13.261
0.8,4.3,0,13.267
0.8,4.4,0,13.272
0.8,4.5,0,13.2769
0.8,4.6,0,13.2807
0.8,4.7,0,13.2832
0.8,4.8,0,13.2864
0.8,4.9,0,13.2869
0.8,5,0,13.2875
0.8,5.1,0,13.2907
0.8,5.2,0,13.2937
0.8,5.3,0,13.2957
0.8,5.4,0,13.2965
0.8,5.5,0,13.2957
0.8,5.6,0,13.2932
0.8,5.7,0,13.2892
0.8,5.8,0,13.2836
0.8,5.9,0,13.2762
0.8,6,0,13.265
0.8,6.1,0,13.2576
0.8,6.2,0,13.2525
0.8,6.3,0,13.2473
0.8,6.4,0,13.2391
0.8,6.5,0,13.2318
0.8,6.6,0,13.2245
0.8,6.7,0,13.2159
0.8,6.8,0,13.205
0.8,6.9,0,13.1946
0.8,7,0,13.1842
0.8,7.1,0,13.1717
0.8,7.2,0,13.1602
0.8,7.3,0,13.1486
0.8,7.4,0,13.1357
0.8,7.5,0,13.1231
0.8,7.6,0,13.1107
0.8,7.7,0,13.0979
0.8,7.8,0,13.0844
0.8,7.9,0,13.0715
0.8,8,0,13.0586
0.8,8.1,0,13.0453
0.8,8.2,0,13.0325
0.8,8.3,0,13.0197
0.8,8.4,0,13.0069
0.8,8.5,0,12.9946
0.8,8.6,0,12.9824
0.8,8.7,0,12.9703
0.8,8.8,0,12.9589
0.8,8.9,0,12.9477
0.8,9,0,12.9365
0.8,9.1,0,12.9262
0.8,9.2,0,12.9163
0.8,9.3,0,12.9064
0.8,9.4,0,12.8971
0.8,9.5,0,12.8886
0.8,9.6,0,12.8801
0.8,9.7,0,12.8719
0.8,9.8,0,12.8649
0.8,9.9,0,12.8581
0.8,10,0,12.8512
0.8,10.1,0,12.8456
0.8,10.2,0,12.8404
0.8,10.3,0,12.8353
0.8,10.4,0,12.8307
0.8,10.5,0,12.8272
0.8,10.6,0,12.8237
0.8,10.7,0,12.8204
0.8,10.8,0,12.8188
0.8,10.9,0,12.8175
0.8,11,0,12.8163
0.8,11.1,0,12.8155
0.8,11.2,0,12.8156
0.8,11.3,0,12.8156
0.8,11.4,0,12.8162
0.8,11.5,0,12.8185
0.8,11.6,0,12.8211
0.8,11.7,0,12.8237
0.8,11.8,0,12.826
0.8,11.9,0,12.829
0.8,12,0,12.8321
0.8,12.1,0,12.8344
0.8,12.2,0,12.838
0.8,12.3,0,12.8416
0.8,12.4,0,12.8446
0.8,12.5,0,12.8474
0.8,12.6,0,12.8506
0.8,12.7,0,12.8538
0.9,0,0,13.0014
0.9,0.1,0,12.9999
0.9,0.2,0,12.9978
0.9,0.3,0,12.9956
0.9,0.4,0,12.994
0.9,0.5,0,12.9906
0.9,0.6,0,12.9882
0.9,0.7,0,12.9848
0.9,0.8,0,12.9813
0.9,0.9,0,12.9788
0.9,1,0,12.9738
0.9,1.1,0,12.973
0.9,1.2,0,12.9713
0.9,1.3,0,12.97
0.9,1.4,0,12.9701
0.9,1.5,0,12.9688
0.9,1.6,0,12.9706
0.9,1.7,0,12.9719
0.9,1.8,0,12.9739
0.9,1.9,0,12.9772
0.9,2,0,12.9796
0.9,2.1,0,12.9844
0.9,2.2,0,12.9887
0.9,2.3,0,12.9937
0.9,2.4,0,12.9999
0.9,2.5,0,13.0051
0.9,2.6,0,13.0124
0.9,2.7,0,13.0192
0.9,2.8,0,13.0264
0.9,2.9,0,13.0346
0.9,3,0,13.0416
0.9,3.1,0,13.0504
0.9,3.2,0,13.0585
0.9,3.3,0,13.0667
0.9,3.4,0,13.0758
0.9,3.5,0,13.0832
0.9,3.6,0,13.0921
0.9,3.7,0,13.1001
0.9,3.8,0,13.1077
0.9,3.9,0,13.1158
0.9,4,0,13.1222
0.9,4.1,0,13.1292
0.9,4.2,0,13.1354
0.9,4.3,0,13.1414
0.9,4.4,0,13.1479
0.9,4.5,0,13.1529
0.9,4.6,0,13.158
0.9,4.7,0,13.1618
0.9,4.8,0,13.1649
0.9,4.9,0,13.1687
0.9,5,0,13.1693
0.9,5.1,0,13.1741
0.9,5.2,0,13.1779
0.9,5.3,0,13.1803
0.9,5.4,0,13.1814
0.9,5.5,0,13.1808
0.9,5.6,0,13.1783
0.9,5.7,0,13.1741
0.9,5.8,0,13.1683
0.9,5.9,0,13.1604
0.9,6,0,13.1477
0.9,6.1,0,13.1392
0.9,6.2,0,13.1307
0.9,6.3,0,13.1255
0.9,6.4,0,13.1173
0.9,6.5,0,13.1075
0.9,6.6,0,13.0993
0.9,6.7,0,13.0907
0.9,6.8,0,13.0789
0.9,6.9,0,13.0675
0.9,7,0,13.0571
0.9,7.1,0,13.0442
0.9,7.2,0,13.0312
0.9,7.3,0,13.0196
0.9,7.4,0,13.0066
0.9,7.5,0,12.9927
0.9,7.6,0,12.9797
0.9,7.7,0,12.9668
0.9,7.8,0,12.9527
0.9,7.9,0,12.9389
0.9,8,0,12.926
0.9,8.1,0,12.9124
0.9,8.2,0,12.8988
0.9,8.3,0,12.8859
0.9,8.4,0,12.8732
0.9,8.5,0,12.8604
0.9,8.6,0,12.8479
0.9,8.7,0,12.8358
0.9,8.8,0,12.8242
0.9,8.9,0,12.8127
0.9,9,0,12.8015
0.9,9.1,0,12.7911
0.9,9.2,0,12.7809
0.9,9.3,0,12.7709
0.9,9.4,0,12.7616
0.9,9.5,0,12.7529
0.9,9.6,0,12.7443
0.9,9.7,0,12.7361
0.9,9.8,0,12.729
0.9,9.9,0,12.7219
0.9,10,0,12.7151
0.9,10.1,0,12.7094
0.9,10.2,0,12.704
0.9,10.3,0,12.6988
0.9,10.4,0,12.6942
0.9,10.5,0,12.6904
0.9,10.6,0,12.6867
0.9,10.7,0,12.6834
0.9,10.8,0,12.6816
0.9,10.9,0,12.6798
0.9,11,0,12.6785
0.9,11.1,0,12.6777
0.9,11.2,0,12.677
0.9,11.3,0,12.6769
0.9,11.4,0,12.6775
0.9,11.5,0,12.6789
0.9,11.6,0,12.6807
0.9,11.7,0,12.6833
0.9,11.8,0,12.6851
0.9,11.9,0,12.6869
0.9,12,0,12.6899
0.9,12.1,0,12.6922
0.9,12.2,0,12.6941
0.9,12.3,0,12.6972
0.9,12.4,0,12.7003
0.9,12.5,0,12.7022
0.9,12.6,0,12.7045
0.9,12.7,0,12.7077
1,0,0,12.851
1,0.1,0,12.8495
1,0.2,0,12.848
1,0.3,0,12.8464
1,0.4,0,12.8447
1,0.5,0,12.8431
1,0.6,0,12.8407
1,0.7,0,12.8383
1,0.8,0,12.8358
1,0.9,0,12.8333
1,1,0,12.8308
1,1.1,0,12.83
1,1.2,0,12.8292
1,1.3,0,12.8288
1,1.4,0,12.8289
1,1.5,0,12.829
1,1.6,0,12.8309
1,1.7,0,12.8328
1,1.8,0,12.8354
1,1.9,0,12.8387
1,2,0,12.842
1,2.1,0,12.8468
1,2.2,0,12.8516
1,2.3,0,12.8571
1,2.4,0,12.8632
1,2.5,0,12.8694
1,2.6,0,12.8766
1,2.7,0,12.8839
1,2.8,0,12.8916
1,2.9,0,12.8997
1,3,0,12.9079
1,3.1,0,12.9167
1,3.2,0,12.9255
1,3.3,0,12.9344
1,3.4,0,12.9435
1,3.5,0,12.9526
1,3.6,0,12.9615
1,3.7,0,12.9705
1,3.8,0,12.979
1,3.9,0,12.9871
1,4,0,12.9952
1,4.1,0,13.0022
1,4.2,0,13.0092
1,4.3,0,13.0159
1,4.4,0,13.0224
1,4.5,0,13.0289
1,4.6,0,13.034
1,4.7,0,13.0391
1,4.8,0,13.0435
1,4.9,0,13.0473
1,5,0,13.0511
1,5.1,0,13.0575
1,5.2,0,13.062
1,5.3,0,13.065
1,5.4,0,13.0664
1,5.5,0,13.0659
1,5.6,0,13.0635
1,5.7,0,13.0591
1,5.8,0,13.0529
1,5.9,0,13.0446
1,6,0,13.0303
1,6.1,0,13.0219
1,6.2,0,13.0134
1,6.3,0,13.0049
1,6.4,0,12.9956
1,6.5,0,12.9857
1,6.6,0,12.9759
1,6.7,0,12.9655
1,6.8,0,12.9537
1,6.9,0,12.9418
1,7,0,12.93
1,7.1,0,12.9171
1,7.2,0,12.9041
1,7.3,0,12.8911
1,7.4,0,12.8775
1,7.5,0,12.8636
1,7.6,0,12.8497
1,7.7,0,12.8358
1,7.8,0,12.8217
1,7.9,0,12.8076
1,8,0,12.7935
1,8.1,0,12.7798
1,8.2,0,12.7662
1,8.3,0,12.7526
1,8.4,0,12.7394
1,8.5,0,12.7266
1,8.6,0,12.7139
1,8.7,0,12.7013
1,8.8,0,12.6897
1,8.9,0,12.6781
1,9,0,12.6665
1,9.1,0,12.6561
1,9.2,0,12.6459
1,9.3,0,12.6356
1,9.4,0,12.6262
1,9.5,0,12.6175
1,9.6,0,12.6087
1,9.7,0,12.6003
1,9.8,0,12.5932
1,9.9,0,12.5861
1,10,0,12.5789
1,10.1,0,12.5732
1,10.2,0,12.5678
1,10.3,0,12.5624
1,10.4,0,12.5577
1,10.5,0,12.5539
1,10.6,0,12.55
1,10.7,0,12.5464
1,10.8,0,12.5446
1,10.9,0,12.5428
1,11,0,12.541
1,11.1,0,12.54
1,11.2,0,12.5393
1,11.3,0,12.5387
1,11.4,0,12.5388
1,11.5,0,12.5401
1,11.6,0,12.5415
1,11.7,0,12.5428
1,11.8,0,12.5446
1,11.9,0,12.5464
1,12,0,12.5482
1,12.1,0,12.5501
1,12.2,0,12.552
1,12.3,0,12.554
1,12.4,0,12.5559
1,12.5,0,12.5578
1,12.6,0,12.5597
1,12.7,0,12.5617
1.1,0,0,12.7152
1.1,0.1,0,12.7143
1.1,0.2,0,12.7128
1.1,0.3,0,12.7116
1.1,0.4,0,12.7103
1.1,0.5,0,12.7086
1.1,0.6,0,12.7075
1.1,0.7,0,12.7051
1.1,0.8,0,12.7034
1.1,0.9,0,12.7017
1.1,1,0,12.6992
1.1,1.1,0,12.6997
1.1,1.2,0,12.6989
1.1,1.3,0,12.6992
1.1,1.4,0,12.7
1.1,1.5,0,12.7001
1.1,1.6,0,12.7032
1.1,1.7,0,12.7051
1.1,1.8,0,12.7082
1.1,1.9,0,12.7121
1.1,2,0,12.7154
1.1,2.1,0,12.7213
1.1,2.2,0,12.7261
1.1,2.3,0,12.7322
1.1,2.4,0,12.7389
1.1,2.5,0,12.745
1.1,2.6,0,12.7536
1.1,2.7,0,12.7609
1.1,2.8,0,12.7694
1.1,2.9,0,12.7783
1.1,3,0,12.7865
1.1,3.1,0,12.7972
1.1,3.2,0,12.8059
1.1,3.3,0,12.8159
1.1,3.4,0,12.826
1.1,3.5,0,12.8351
1.1,3.6,0,12.8458
1.1,3.7,0,12.8548
1.1,3.8,0,12.864
1.1,3.9,0,12.8728
1.1,4,0,12.8809
1.1,4.1,0,12.8887
1.1,4.2,0,12.8956
1.1,4.3,0,12.9027
1.1,4.4,0,12.9096
1.1,4.5,0,12.9161
1.1,4.6,0,12.9217
1.1,4.7,0,12.9268
1.1,4.8,0,12.9312
1.1,4.9,0,12.9349
1.1,5,0,12.9387
1.1,5.1,0,12.9449
1.1,5.2,0,12.9494
1.1,5.3,0,12.9525
1.1,5.4,0,12.954
1.1,5.5,0,12.9535
1.1,5.6,0,12.9511
1.1,5.7,0,12.9467
1.1,5.8,0,12.9404
1.1,5.9,0,12.932
1.1,6,0,12.9179
1.1,6.1,0,12.9096
1.1,6.2,0,12.9012
1.1,6.3,0,12.8928
1.1,6.4,0,12.8831
1.1,6.5,0,12.873
1.1,6.6,0,12.8632
1.1,6.7,0,12.8525
1.1,6.8,0,12.8398
1.1,6.9,0,12.8279
1.1,7,0,12.8161
1.1,7.1,0,12.8019
1.1,7.2,0,12.7884
1.1,7.3,0,12.7754
1.1,7.4,0,12.7608
1.1,7.5,0,12.7457
1.1,7.6,0,12.7318
1.1,7.7,0,12.7174
1.1,7.8,0,12.7017
1.1,7.9,0,12.6875
1.1,8,0,12.6734
1.1,8.1,0,12.6587
1.1,8.2,0,12.6445
1.1,8.3,0,12.6309
1.1,8.4,0,12.6173
1.1,8.5,0,12.6038
1.1,8.6,0,12.5911
1.1,8.7,0,12.5784
1.1,8.8,0,12.5662
1.1,8.9,0,12.5545
1.1,9,0,12.5429
1.1,9.1,0,12.5321
1.1,9.2,0,12.5217
1.1,9.3,0,12.5115
1.1,9.4,0,12.5018
1.1,9.5,0,12.4928
1.1,9.6,0,12.4841
1.1,9.7,0,12.4756
1.1,9.8,0,12.4682
1.1,9.9,0,12.461
1.1,10,0,12.4539
1.1,10.1,0,12.4479
1.1,10.2,0,12.4424
1.1,10.3,0,12.437
1.1,10.4,0,12.4321
1.1,10.5,0,12.428
1.1,10.6,0,12.4242
1.1,10.7,0,12.4205
1.1,10.8,0,12.4182
1.1,10.9,0,12.4162
1.1,11,0,12.4144
1.1,11.1,0,12.413
1.1,11.2,0,12.412
1.1,11.3,0,12.4113
1.1,11.4,0,12.4111
1.1,11.5,0,12.4116
1.1,11.6,0,12.4129
1.1,11.7,0,12.4142
1.1,11.8,0,12.4152
1.1,11.9,0,12.4167
1.1,12,0,12.4185
1.1,12.1,0,12.4199
1.1,12.2,0,12.4214
1.1,12.3,0,12.4233
1.1,12.4,0,12.425
1.1,12.5,0,12.4264
1.1,12.6,0,12.4283
1.1,12.7,0,12.4303
1.2,0,0,12.5795
1.2,0.1,0,12.5785
1.2,0.2,0,12.5776
1.2,0.3,0,12.5764
1.2,0.4,0,12.5755
1.2,0.5,0,12.5742
1.2,0.6,0,12.5731
1.2,0.7,0,12.5719
1.2,0.8,0,12.5702
1.2,0.9,0,12.5693
1.2,1,0,12.5676
1.2,1.1,0,12.5681
1.2,1.2,0,12.5687
1.2,1.3,0,12.569
1.2,1.4,0,12.5704
1.2,1.5,0,12.5712
1.2,1.6,0,12.5743
1.2,1.7,0,12.5774
1.2,1.8,0,12.5805
1.2,1.9,0,12.5849
1.2,2,0,12.5888
1.2,2.1,0,12.5947
1.2,2.2,0,12.6006
1.2,2.3,0,12.6067
1.2,2.4,0,12.614
1.2,2.5,0,12.6207
1.2,2.6,0,12.6293
1.2,2.7,0,12.6379
1.2,2.8,0,12.6464
1.2,2.9,0,12.6561
1.2,3,0,12.6651
1.2,3.1,0,12.6758
1.2,3.2,0,12.6864
1.2,3.3,0,12.6964
1.2,3.4,0,12.7075
1.2,3.5,0,12.7176
1.2,3.6,0,12.7283
1.2,3.7,0,12.7391
1.2,3.8,0,12.7483
1.2,3.9,0,12.7578
1.2,4,0,12.7666
1.2,4.1,0,12.7743
1.2,4.2,0,12.7821
1.2,4.3,0,12.7892
1.2,4.4,0,12.7964
1.2,4.5,0,12.8032
1.2,4.6,0,12.8089
1.2,4.7,0,12.8146
1.2,4.8,0,12.819
1.2,4.9,0,12.8226
1.2,5,0,12.8263
1.2,5.1,0,12.8323
1.2,5.2,0,12.8368
1.2,5.3,0,12.84
1.2,5.4,0,12.8416
1.2,5.5,0,12.8412
1.2,5.6,0,12.8387
1.2,5.7,0,12.8343
1.2,5.8,0,12.828
1.2,5.9,0,12.8195
1.2,6,0,12.8055
1.2,6.1,0,12.7972
1.2,6.2,0,12.7889
1.2,6.3,0,12.7806
1.2,6.4,0,12.771
1.2,6.5,0,12.7607
1.2,6.6,0,12.7504
1.2,6.7,0,12.7397
1.2,6.8,0,12.727
1.2,6.9,0,12.7144
1.2,7,0,12.7022
1.2,7.1,0,12.688
1.2,7.2,0,12.6737
1.2,7.3,0,12.6597
1.2,7.4,0,12.6451
1.2,7.5,0,12.6295
1.2,7.6,0,12.6139
1.2,7.7,0,12.5995
1.2,7.8,0,12.5838
1.2,7.9,0,12.5681
1.2,8,0,12.5534
1.2,8.1,0,12.5386
1.2,8.2,0,12.5238
1.2,8.3,0,12.5092
1.2,8.4,0,12.4956
1.2,8.5,0,12.482
1.2,8.6,0,12.4684
1.2,8.7,0,12.4556
1.2,8.8,0,12.4434
1.2,8.9,0,12.4312
1.2,9,0,12.4194
1.2,9.1,0,12.4086
1.2,9.2,0,12.3979
1.2,9.3,0,12.3873
1.2,9.4,0,12.3777
1.2,9.5,0,12.3686
1.2,9.6,0,12.3595
1.2,9.7,0,12.351
1.2,9.8,0,12.3436
1.2,9.9,0,12.3361
1.2,10,0,12.3289
1.2,10.1,0,12.3229
1.2,10.2,0,12.3172
1.2,10.3,0,12.3116
1.2,10.4,0,12.3067
1.2,10.5,0,12.3025
1.2,10.6,0,12.2984
1.2,10.7,0,12.2946
1.2,10.8,0,12.2923
1.2,10.9,0,12.29
1.2,11,0,12.2879
1.2,11.1,0,12.2864
1.2,11.2,0,12.2852
1.2,11.3,0,12.2839
1.2,11.4,0,12.2837
1.2,11.5,0,12.2841
1.2,11.6,0,12.2846
1.2,11.7,0,12.2856
1.2,11.8,0,12.2866
1.2,11.9,0,12.2876
1.2,12,0,12.2888
1.2,12.1,0,12.2902
1.2,12.2,0,12.2914
1.2,12.3,0,12.2926
1.2,12.4,0,12.2944
1.2,12.5,0,12.2957
1.2,12.6,0,12.2971
1.2,12.7,0,12.2988
1.3,0,0,12.4479
1.3,0.1,0,12.4474
1.3,0.2,0,12.4464
1.3,0.3,0,12.4461
1.3,0.4,0,12.4452
1.3,0.5,0,12.4444
1.3,0.6,0,12.4437
1.3,0.7,0,12.4425
1.3,0.8,0,12.4421
1.3,0.9,0,12.4412
1.3,1,0,12.4403
1.3,1.1,0,12.4414
1.3,1.2,0,12.4419
1.3,1.3,0,12.4435
1.3,1.4,0,12.4449
1.3,1.5,0,12.4463
1.3,1.6,0,12.45
1.3,1.7,0,12.4531
1.3,1.8,0,12.4574
1.3,1.9,0,12.4618
1.3,2,0,12.4663
1.3,2.1,0,12.4727
1.3,2.2,0,12.4787
1.3,2.3,0,12.4859
1.3,2.4,0,12.4932
1.3,2.5,0,12.5005
1.3,2.6,0,12.5097
1.3,2.7,0,12.5183
1.3,2.8,0,12.5281
1.3,2.9,0,12.5379
1.3,3,0,12.5476
1.3,3.1,0,12.559
1.3,3.2,0,12.5696
1.3,3.3,0,12.5811
1.3,3.4,0,12.5922
1.3,3.5,0,12.6033
1.3,3.6,0,12.6147
1.3,3.7,0,12.6254
1.3,3.8,0,12.6361
1.3,3.9,0,12.6456