x,y,z,p
0,0,0,0.00024898
0,0.1,0,0.000547809
0,0.2,0,0.000846637
0,0.3,0,0.00119536
0,0.4,0,0.00159397
0,0.5,0,0.00199258
0,0.6,0,0.00239152
0,0.7,0,0.00279046
0,0.8,0,0.00318958
0,0.9,0,0.00358888
0,1,0,0.00398818
0,1.1,0,0.00438773
0,1.2,0,0.00478728
0,1.3,0,0.00518681
0,1.4,0,0.00558632
0,1.5,0,0.00598583
0,1.6,0,0.00638476
0,1.7,0,0.0067837
0,1.8,0,0.00718194
0,1.9,0,0.0075795
0,2,0,0.00797705
0,2.1,0,0.0083721
0,2.2,0,0.00876715
0,2.3,0,0.00916022
0,2.4,0,0.00955129
0,2.5,0,0.00994236
0,2.6,0,0.0103276
0,2.7,0,0.0107128
0,2.8,0,0.011094
0,2.9,0,0.0114711
0,3,0,0.0118482
0,3.1,0,0.0122145
0,3.2,0,0.0125808
0,3.3,0,0.0129401
0,3.4,0,0.0132924
0,3.5,0,0.0136448
0,3.6,0,0.0139796
0,3.7,0,0.0143145
0,3.8,0,0.0146387
0,3.9,0,0.0149523
0,4,0,0.0152659
0,4.1,0,0.0155539
0,4.2,0,0.015842
0,4.3,0,0.0161153
0,4.4,0,0.0163737
0,4.5,0,0.0166321
0,4.6,0,0.0168565
0,4.7,0,0.017081
0,4.8,0,0.0172704
0,4.9,0,0.0174248
0,5,0,0.0175792
0,5.1,0,0.0178203
0,5.2,0,0.0179612
0,5.3,0,0.0180845
0,5.4,0,0.0181895
0,5.5,0,0.0182761
0,5.6,0,0.0183439
0,5.7,0,0.0183924
0,5.8,0,0.0184218
0,5.9,0,0.0184318
0,6,0,0.0184222
0,6.1,0,0.0183932
0,6.2,0,0.0183448
0,6.3,0,0.0182773
0,6.4,0,0.0181907
0,6.5,0,0.0180855
0,6.6,0,0.0179621
0,6.7,0,0.0178208
0,6.8,0,0.0176622
0,6.9,0,0.0174868
0,7,0,0.0171796
0,7.1,0,0.0169995
0,7.2,0,0.0168193
0,7.3,0,0.0166276
0,7.4,0,0.0163705
0,7.5,0,0.0161134
0,7.6,0,0.0158471
0,7.7,0,0.0155593
0,7.8,0,0.0152714
0,7.9,0,0.0149729
0,8,0,0.0146613
0,8.1,0,0.0143497
0,8.2,0,0.014028
0,8.3,0,0.0136995
0,8.4,0,0.0133709
0,8.5,0,0.0130344
0,8.6,0,0.0126951
0,8.7,0,0.0123558
0,8.8,0,0.0120118
0,8.9,0,0.0116672
0,9,0,0.0113226
0,9.1,0,0.0109773
0,9.2,0,0.010632
0,9.3,0,0.0102872
0,9.4,0,0.00994464
0,9.5,0,0.00960211
0,9.6,0,0.00926151
0,9.7,0,0.00892447
0,9.8,0,0.00858743
0,9.9,0,0.00825405
0,10,0,0.00792433
0,10.1,0,0.00759462
0,10.2,0,0.00727037
0,10.3,0,0.00694907
0,10.4,0,0.00662777
0,10.5,0,0.00631357
0,10.6,0,0.00600114
0,10.7,0,0.00568871
0,10.8,0,0.00538463
0,10.9,0,0.00508099
0,11,0,0.00477817
0,11.1,0,0.0044828
0,11.2,0,0.00418743
0,11.3,0,0.00389391
0,11.4,0,0.00360594
0,11.5,0,0.00331798
0,11.6,0,0.00303251
0,11.7,0,0.0027508
0,11.8,0,0.00246909
0,11.9,0,0.00219008
0,12,0,0.00191327
0,12.1,0,0.00163647
0,12.2,0,0.00136204
0,12.3,0,0.00108862
0,12.4,0,0.00081521
0,12.5,0,0.000600672
0,12.6,0,0.000396523
0,12.7,0,0.000192374
0.1,0,0,0.000149388
0.1,0.1,0,0.000448165
0.1,0.2,0,0.000796771
0.1,0.3,0,0.00119524
0.1,0.4,0,0.00159383
0.1,0.5,0,0.00199243
0.1,0.6,0,0.00239133
0.1,0.7,0,0.00279028
0.1,0.8,0,0.0031894
0.1,0.9,0,0.0035887
0.1,1,0,0.00398804
0.1,1.1,0,0.00438765
0.1,1.2,0,0.00478724
0.1,1.3,0,0.00518687
0.1,1.4,0,0.00558645
0.1,1.5,0,0.00598604
0.1,1.6,0,0.00638521
0.1,1.7,0,0.00678419
0.1,1.8,0,0.00718268
0.1,1.9,0,0.00758043
0.1,2,0,0.00797806
0.1,2.1,0,0.00837367
0.1,2.2,0,0.00876876
0.1,2.3,0,0.00916224
0.1,2.4,0,0.0095537
0.1,2.5,0,0.00994479
0.1,2.6,0,0.010331
0.1,2.7,0,0.0107162
0.1,2.8,0,0.011098
0.1,2.9,0,0.0114758
0.1,3,0,0.0118528
0.1,3.1,0,0.0122206
0.1,3.2,0,0.0125868
0.1,3.3,0,0.0129469
0.1,3.4,0,0.0133002
0.1,3.5,0,0.0136521
0.1,3.6,0,0.0139893
0.1,3.7,0,0.0143238
0.1,3.8,0,0.0146491
0.1,3.9,0,0.014964
0.1,4,0,0.0152766
0.1,4.1,0,0.0155677
0.1,4.2,0,0.0158552
0.1,4.3,0,0.0161296
0.1,4.4,0,0.0163896
0.1,4.5,0,0.0166465
0.1,4.6,0,0.0168746
0.1,4.7,0,0.017098
0.1,4.8,0,0.0173044
0.1,4.9,0,0.0174768
0.1,5,0,0.0175961
0.1,5.1,0,0.0178376
0.1,5.2,0,0.0179789
0.1,5.3,0,0.0181025
0.1,5.4,0,0.0182079
0.1,5.5,0,0.0182947
0.1,5.6,0,0.0183627
0.1,5.7,0,0.0184115
0.1,5.8,0,0.018441
0.1,5.9,0,0.0184509
0.1,6,0,0.0184414
0.1,6.1,0,0.0184122
0.1,6.2,0,0.0183637
0.1,6.3,0,0.0182959
0.1,6.4,0,0.0182091
0.1,6.5,0,0.0181035
0.1,6.6,0,0.0179797
0.1,6.7,0,0.017838
0.1,6.8,0,0.0176788
0.1,6.9,0,0.017503
0.1,7,0,0.0171951
0.1,7.1,0,0.0170611
0.1,7.2,0,0.0168736
0.1,7.3,0,0.0166423
0.1,7.4,0,0.0163901
0.1,7.5,0,0.0161299
0.1,7.6,0,0.0158597
0.1,7.7,0,0.0155748
0.1,7.8,0,0.0152835
0.1,7.9,0,0.0149828
0.1,8,0,0.0146728
0.1,8.1,0,0.0143579
0.1,8.2,0,0.0140351
0.1,8.3,0,0.0137073
0.1,8.4,0,0.0133757
0.1,8.5,0,0.0130386
0.1,8.6,0,0.0126994
0.1,8.7,0,0.0123579
0.1,8.8,0,0.0120135
0.1,8.9,0,0.0116686
0.1,9,0,0.0113228
0.1,9.1,0,0.0109767
0.1,9.2,0,0.0106311
0.1,9.3,0,0.0102858
0.1,9.4,0,0.00994215
0.1,9.5,0,0.00959977
0.1,9.6,0,0.00925886
0.1,9.7,0,0.0089207
0.1,9.8,0,0.00858419
0.1,9.9,0,0.00825045
0.1,10,0,0.00791975
0.1,10.1,0,0.00759097
0.1,10.2,0,0.00726613
0.1,10.3,0,0.00694406
0.1,10.4,0,0.00662411
0.1,10.5,0,0.00630898
0.1,10.6,0,0.00599618
0.1,10.7,0,0.00568529
0.1,10.8,0,0.00537997
0.1,10.9,0,0.00507644
0.1,11,0,0.00477492
0.1,11.1,0,0.00447834
0.1,11.2,0,0.00418351
0.1,11.3,0,0.00389087
0.1,11.4,0,0.00360202
0.1,11.5,0,0.00331479
0.1,11.6,0,0.00302985
0.1,11.7,0,0.00274759
0.1,11.8,0,0.00246671
0.1,11.9,0,0.00218797
0.1,12,0,0.00191089
0.1,12.1,0,0.0016349
0.1,12.2,0,0.00136063
0.1,12.3,0,0.00108714
0.1,12.4,0,0.000814436
0.1,12.5,0,0.000542732
0.1,12.6,0,0.000319108
0.1,12.7,0,0.000115424
0.2,0,0,4.97961e-05
0.2,0.1,0,0.00039835
0.2,0.2,0,0.000796682
0.2,0.3,0,0.00119515
0.2,0.4,0,0.0015937
0.2,0.5,0,0.00199228
0.2,0.6,0,0.00239119
0.2,0.7,0,0.0027901
0.2,0.8,0,0.00318923
0.2,0.9,0,0.00358857
0.2,1,0,0.00398791
0.2,1.1,0,0.00438755
0.2,1.2,0,0.00478722
0.2,1.3,0,0.00518686
0.2,1.4,0,0.00558658
0.2,1.5,0,0.00598624
0.2,1.6,0,0.00638547
0.2,1.7,0,0.00678474
0.2,1.8,0,0.00718322
0.2,1.9,0,0.00758125
0.2,2,0,0.00797908
0.2,2.1,0,0.00837472
0.2,2.2,0,0.0087704
0.2,2.3,0,0.00916388
0.2,2.4,0,0.00955574
0.2,2.5,0,0.00994722
0.2,2.6,0,0.0103334
0.2,2.7,0,0.0107196
0.2,2.8,0,0.0111014
0.2,2.9,0,0.0114797
0.2,3,0,0.0118573
0.2,3.1,0,0.012225
0.2,3.2,0,0.0125926
0.2,3.3,0,0.0129528
0.2,3.4,0,0.0133066
0.2,3.5,0,0.0136595
0.2,3.6,0,0.0139963
0.2,3.7,0,0.0143329
0.2,3.8,0,0.0146581
0.2,3.9,0,0.0149734
0.2,4,0,0.0152874
0.2,4.1,0,0.0155779
0.2,4.2,0,0.0158678
0.2,4.3,0,0.0161422
0.2,4.4,0,0.0164024
0.2,4.5,0,0.0166609
0.2,4.6,0,0.016888
0.2,4.7,0,0.0171141
0.2,4.8,0,0.0173205
0.2,4.9,0,0.0174758
0.2,5,0,0.017613
0.2,5.1,0,0.0178549
0.2,5.2,0,0.0179966
0.2,5.3,0,0.0181205
0.2,5.4,0,0.0182263
0.2,5.5,0,0.0183134
0.2,5.6,0,0.0183816
0.2,5.7,0,0.0184305
0.2,5.8,0,0.0184601
0.2,5.9,0,0.0184701
0.2,6,0,0.0184606
0.2,6.1,0,0.0184313
0.2,6.2,0,0.0183827
0.2,6.3,0,0.0183146
0.2,6.4,0,0.0182275
0.2,6.5,0,0.0181216
0.2,6.6,0,0.0179974
0.2,6.7,0,0.0178551
0.2,6.8,0,0.0176955
0.2,6.9,0,0.0175192
0.2,7,0,0.0172105
0.2,7.1,0,0.0170561
0.2,7.2,0,0.0168747
0.2,7.3,0,0.0166563
0.2,7.4,0,0.0164
0.2,7.5,0,0.0161407
0.2,7.6,0,0.0158711
0.2,7.7,0,0.0155825
0.2,7.8,0,0.0152923
0.2,7.9,0,0.0149916
0.2,8,0,0.0146783
0.2,8.1,0,0.0143641
0.2,8.2,0,0.0140412
0.2,8.3,0,0.0137107
0.2,8.4,0,0.0133797
0.2,8.5,0,0.0130422
0.2,8.6,0,0.0127011
0.2,8.7,0,0.0123598
0.2,8.8,0,0.012015
0.2,8.9,0,0.0116689
0.2,9,0,0.011323
0.2,9.1,0,0.0109767
0.2,9.2,0,0.0106302
0.2,9.3,0,0.0102846
0.2,9.4,0,0.00994113
0.2,9.5,0,0.00959772
0.2,9.6,0,0.00925672
0.2,9.7,0,0.0089189
0.2,9.8,0,0.00858136
0.2,9.9,0,0.00824762
0.2,10,0,0.00791747
0.2,10.1,0,0.00758775
0.2,10.2,0,0.00726302
0.2,10.3,0,0.00694158
0.2,10.4,0,0.00662072
0.2,10.5,0,0.00630596
0.2,10.6,0,0.00599356
0.2,10.7,0,0.00568195
0.2,10.8,0,0.00537723
0.2,10.9,0,0.00507377
0.2,11,0,0.00477178
0.2,11.1,0,0.004476
0.2,11.2,0,0.00418093
0.2,11.3,0,0.00388807
0.2,11.4,0,0.00360005
0.2,11.5,0,0.00331246
0.2,11.6,0,0.00302749
0.2,11.7,0,0.00274603
0.2,11.8,0,0.00246486
0.2,11.9,0,0.00218612
0.2,12,0,0.0019098
0.2,12.1,0,0.00163362
0.2,12.2,0,0.00135945
0.2,12.3,0,0.00108657
0.2,12.4,0,0.00081377
0.2,12.5,0,0.000542196
0.2,12.6,0,0.000271132
0.2,12.7,0,3.84748e-05
0.3,0,0,0
0.3,0.1,0,0.000398253
0.3,0.2,0,0.000796585
0.3,0.3,0,0.0011949
0.3,0.4,0,0.00159345
0.3,0.5,0,0.00199195
0.3,0.6,0,0.00239083
0.3,0.7,0,0.00278975
0.3,0.8,0,0.00318889
0.3,0.9,0,0.00358823
0.3,1,0,0.00398761
0.3,1.1,0,0.00438736
0.3,1.2,0,0.00478703
0.3,1.3,0,0.005187
0.3,1.4,0,0.00558672
0.3,1.5,0,0.00598663
0.3,1.6,0,0.00638616
0.3,1.7,0,0.00678543
0.3,1.8,0,0.00718471
0.3,1.9,0,0.00758273
0.3,2,0,0.00798114
0.3,2.1,0,0.0083773
0.3,2.2,0,0.00877298
0.3,2.3,0,0.00916786
0.3,2.4,0,0.00955972
0.3,2.5,0,0.00995219
0.3,2.6,0,0.0103392
0.3,2.7,0,0.0107254
0.3,2.8,0,0.0111093
0.3,2.9,0,0.0114875
0.3,3,0,0.0118667
0.3,3.1,0,0.0122354
0.3,3.2,0,0.012603
0.3,3.3,0,0.012966
0.3,3.4,0,0.0133198
0.3,3.5,0,0.0136748
0.3,3.6,0,0.0140127
0.3,3.7,0,0.0143492
0.3,3.8,0,0.0146779
0.3,3.9,0,0.0149932
0.3,4,0,0.0153097
0.3,4.1,0,0.0156013
0.3,4.2,0,0.0158912
0.3,4.3,0,0.0161692
0.3,4.4,0,0.0164294
0.3,4.5,0,0.0166909
0.3,4.6,0,0.0169186
0.3,4.7,0,0.0171447
0.3,4.8,0,0.0173542
0.3,4.9,0,0.0175094
0.3,5,0,0.017649
0.3,5.1,0,0.0178924
0.3,5.2,0,0.018035
0.3,5.3,0,0.0181598
0.3,5.4,0,0.0182664
0.3,5.5,0,0.0183542
0.3,5.6,0,0.018423
0.3,5.7,0,0.0184723
0.3,5.8,0,0.0185022
0.3,5.9,0,0.0185123
0.3,6,0,0.0185027
0.3,6.1,0,0.0184733
0.3,6.2,0,0.0184243
0.3,6.3,0,0.0183557
0.3,6.4,0,0.0182679
0.3,6.5,0,0.0181612
0.3,6.6,0,0.018036
0.3,6.7,0,0.0178927
0.3,6.8,0,0.0177319
0.3,6.9,0,0.0175542
0.3,7,0,0.0172434
0.3,7.1,0,0.0170864
0.3,7.2,0,0.016905
0.3,7.3,0,0.0166845
0.3,7.4,0,0.0164255
0.3,7.5,0,0.0161663
0.3,7.6,0,0.0158931
0.3,7.7,0,0.0156028
0.3,7.8,0,0.0153125
0.3,7.9,0,0.0150073
0.3,8,0,0.0146934
0.3,8.1,0,0.0143785
0.3,8.2,0,0.0140513
0.3,8.3,0,0.0137207
0.3,8.4,0,0.0133886
0.3,8.5,0,0.0130478
0.3,8.6,0,0.0127068
0.3,8.7,0,0.012364
0.3,8.8,0,0.0120169
0.3,8.9,0,0.0116708
0.3,9,0,0.0113232
0.3,9.1,0,0.0109756
0.3,9.2,0,0.010629
0.3,9.3,0,0.0102818
0.3,9.4,0,0.00993767
0.3,9.5,0,0.00959427
0.3,9.6,0,0.00925182
0.3,9.7,0,0.00891377
0.3,9.8,0,0.00857614
0.3,9.9,0,0.00824147
0.3,10,0,0.00791129
0.3,10.1,0,0.00758135
0.3,10.2,0,0.0072563
0.3,10.3,0,0.00693486
0.3,10.4,0,0.00661378
0.3,10.5,0,0.00629914
0.3,10.6,0,0.00598675
0.3,10.7,0,0.005675
0.3,10.8,0,0.00537068
0.3,10.9,0,0.00506722
0.3,11,0,0.00476535
0.3,11.1,0,0.00447002
0.3,11.2,0,0.00417494
0.3,11.3,0,0.00388252
0.3,11.4,0,0.00359485
0.3,11.5,0,0.00330726
0.3,11.6,0,0.00302306
0.3,11.7,0,0.00274179
0.3,11.8,0,0.0024607
0.3,11.9,0,0.00218295
0.3,12,0,0.00190664
0.3,12.1,0,0.0016307
0.3,12.2,0,0.00135748
0.3,12.3,0,0.00108461
0.3,12.4,0,0.000812235
0.3,12.5,0,0.000541495
0.3,12.6,0,0.000270431
0.3,12.7,0,0
0.4,0,0,0
0.4,0.1,0,0.000398174
0.4,0.2,0,0.000796292
0.4,0.3,0,0.0011946
0.4,0.4,0,0.00159299
0.4,0.5,0,0.00199144
0.4,0.6,0,0.0023903
0.4,0.7,0,0.00278917
0.4,0.8,0,0.0031883
0.4,0.9,0,0.00358772
0.4,1,0,0.00398714
0.4,1.1,0,0.00438697
0.4,1.2,0,0.00478693
0.4,1.3,0,0.00518689
0.4,1.4,0,0.00558712
0.4,1.5,0,0.00598721
0.4,1.6,0,0.00638698
0.4,1.7,0,0.00678705
0.4,1.8,0,0.00718633
0.4,1.9,0,0.00758545
0.4,2,0,0.00798423
0.4,2.1,0,0.00838088
0.4,2.2,0,0.00877803
0.4,2.3,0,0.00917291
0.4,2.4,0,0.00956664
0.4,2.5,0,0.00995972
0.4,2.6,0,0.0103474
0.4,2.7,0,0.0107359
0.4,2.8,0,0.0111198
0.4,2.9,0,0.0115009
0.4,3,0,0.0118809
0.4,3.1,0,0.0122507
0.4,3.2,0,0.0126214
0.4,3.3,0,0.0129843
0.4,3.4,0,0.0133418
0.4,3.5,0,0.0136979
0.4,3.6,0,0.0140372
0.4,3.7,0,0.0143776
0.4,3.8,0,0.0147062
0.4,3.9,0,0.0150258
0.4,4,0,0.0153437
0.4,4.1,0,0.0156368
0.4,4.2,0,0.0159309
0.4,4.3,0,0.0162089
0.4,4.4,0,0.0164736
0.4,4.5,0,0.0167364
0.4,4.6,0,0.0169657
0.4,4.7,0,0.0171957
0.4,4.8,0,0.0174052
0.4,4.9,0,0.0175801
0.4,5,0,0.017704
0.4,5.1,0,0.0179499
0.4,5.2,0,0.0180942
0.4,5.3,0,0.0182205
0.4,5.4,0,0.0183283
0.4,5.5,0,0.0184172
0.4,5.6,0,0.0184869
0.4,5.7,0,0.0185369
0.4,5.8,0,0.0185672
0.4,5.9,0,0.0185776
0.4,6,0,0.0185679
0.4,6.1,0,0.0185382
0.4,6.2,0,0.0184886
0.4,6.3,0,0.0184192
0.4,6.4,0,0.0183304
0.4,6.5,0,0.0182223
0.4,6.6,0,0.0180956
0.4,6.7,0,0.0179505
0.4,6.8,0,0.0177878
0.4,6.9,0,0.0176081
0.4,7,0,0.0172936
0.4,7.1,0,0.0171552
0.4,7.2,0,0.0169628
0.4,7.3,0,0.0167288
0.4,7.4,0,0.0164703
0.4,7.5,0,0.0162034
0.4,7.6,0,0.0159292
0.4,7.7,0,0.0156376
0.4,7.8,0,0.0153402
0.4,7.9,0,0.015035
0.4,8,0,0.0147183
0.4,8.1,0,0.0143982
0.4,8.2,0,0.0140709
0.4,8.3,0,0.0137364
0.4,8.4,0,0.0134008
0.4,8.5,0,0.0130597
0.4,8.6,0,0.0127145
0.4,8.7,0,0.0123698
0.4,8.8,0,0.0120219
0.4,8.9,0,0.0116722
0.4,9,0,0.0113236
0.4,9.1,0,0.010975
0.4,9.2,0,0.0106256
0.4,9.3,0,0.010278
0.4,9.4,0,0.00993256
0.4,9.5,0,0.00958741
0.4,9.6,0,0.00924491
0.4,9.7,0,0.00890541
0.4,9.8,0,0.0085671
0.4,9.9,0,0.00823244
0.4,10,0,0.00790093
0.4,10.1,0,0.00757108
0.4,10.2,0,0.00724592
0.4,10.3,0,0.0069236
0.4,10.4,0,0.00660304
0.4,10.5,0,0.00628814
0.4,10.6,0,0.00597556
0.4,10.7,0,0.00566442
0.4,10.8,0,0.00535978
0.4,10.9,0,0.00505683
0.4,11,0,0.00475544
0.4,11.1,0,0.0044598
0.4,11.2,0,0.00416583
0.4,11.3,0,0.00387368
0.4,11.4,0,0.00358597
0.4,11.5,0,0.00329976
0.4,11.6,0,0.0030156
0.4,11.7,0,0.0027347
0.4,11.8,0,0.00245487
0.4,11.9,0,0.00217712
0.4,12,0,0.00190159
0.4,12.1,0,0.00162667
0.4,12.2,0,0.00135352
0.4,12.3,0,0.00108181
0.4,12.4,0,0.000810137
0.4,12.5,0,0.000539601
0.4,12.6,0,0.000269953
0.4,12.7,0,0
0.5,0,0,0
0.5,0.1,0,0.000398039
0.5,0.2,0,0.000796077
0.5,0.3,0,0.00119426
0.5,0.4,0,0.0015926
0.5,0.5,0,0.00199094
0.5,0.6,0,0.00238977
0.5,0.7,0,0.00278861
0.5,0.8,0,0.00318776
0.5,0.9,0,0.00358721
0.5,1,0,0.00398667
0.5,1.1,0,0.00438671
0.5,1.2,0,0.00478675
0.5,1.3,0,0.00518697
0.5,1.4,0,0.00558738
0.5,1.5,0,0.00598778
0.5,1.6,0,0.0063881
0.5,1.7,0,0.00678842
0.5,1.8,0,0.00718832
0.5,1.9,0,0.00758782
0.5,2,0,0.00798732
0.5,2.1,0,0.00838496
0.5,2.2,0,0.00878259
0.5,2.3,0,0.00917857
0.5,2.4,0,0.00957291
0.5,2.5,0,0.00996725
0.5,2.6,0,0.0103565
0.5,2.7,0,0.0107457
0.5,2.8,0,0.0111313
0.5,2.9,0,0.0115132
0.5,3,0,0.0118951
0.5,3.1,0,0.0122669
0.5,3.2,0,0.0126387
0.5,3.3,0,0.0130039
0.5,3.4,0,0.0133624
0.5,3.5,0,0.013721
0.5,3.6,0,0.0140627
0.5,3.7,0,0.0144045
0.5,3.8,0,0.0147358
0.5,3.9,0,0.0150567
0.5,4,0,0.0153776
0.5,4.1,0,0.0156733
0.5,4.2,0,0.015969
0.5,4.3,0,0.0162498
0.5,4.4,0,0.0165158
0.5,4.5,0,0.0167819
0.5,4.6,0,0.0170135
0.5,4.7,0,0.0172451
0.5,4.8,0,0.0174406
0.5,4.9,0,0.0175998
0.5,5,0,0.017759
0.5,5.1,0,0.0180075
0.5,5.2,0,0.0181533
0.5,5.3,0,0.0182811
0.5,5.4,0,0.0183902
0.5,5.5,0,0.0184803
0.5,5.6,0,0.0185508
0.5,5.7,0,0.0186015
0.5,5.8,0,0.0186322
0.5,5.9,0,0.0186428
0.5,6,0,0.0186331
0.5,6.1,0,0.018603
0.5,6.2,0,0.0185529
0.5,6.3,0,0.0184827
0.5,6.4,0,0.0183928
0.5,6.5,0,0.0182835
0.5,6.6,0,0.0181552
0.5,6.7,0,0.0180084
0.5,6.8,0,0.0178437
0.5,6.9,0,0.0176619
0.5,7,0,0.0173439
0.5,7.1,0,0.0171572
0.5,7.2,0,0.0169705
0.5,7.3,0,0.0167719
0.5,7.4,0,0.0165054
0.5,7.5,0,0.0162389
0.5,7.6,0,0.0159631
0.5,7.7,0,0.0156656
0.5,7.8,0,0.0153681
0.5,7.9,0,0.01506
0.5,8,0,0.0147391
0.5,8.1,0,0.0144182
0.5,8.2,0,0.0140876
0.5,8.3,0,0.0137505
0.5,8.4,0,0.0134135
0.5,8.5,0,0.0130692
0.5,8.6,0,0.0127225
0.5,8.7,0,0.0123758
0.5,8.8,0,0.0120254
0.5,8.9,0,0.0116747
0.5,9,0,0.011324
0.5,9.1,0,0.0109737
0.5,9.2,0,0.0106235
0.5,9.3,0,0.0102741
0.5,9.4,0,0.00992797
0.5,9.5,0,0.00958182
0.5,9.6,0,0.009238
0.5,9.7,0,0.0088985
0.5,9.8,0,0.008559
0.5,9.9,0,0.00822368
0.5,10,0,0.00789254
0.5,10.1,0,0.00756139
0.5,10.2,0,0.00723628
0.5,10.3,0,0.00691443
0.5,10.4,0,0.00659258
0.5,10.5,0,0.0062784
0.5,10.6,0,0.00596614
0.5,10.7,0,0.00565389
0.5,10.8,0,0.00535054
0.5,10.9,0,0.00504767
0.5,11,0,0.00474567
0.5,11.1,0,0.00445154
0.5,11.2,0,0.00415741
0.5,11.3,0,0.00386522
0.5,11.4,0,0.00357885
0.5,11.5,0,0.00329249
0.5,11.6,0,0.00300873
0.5,11.7,0,0.00272889
0.5,11.8,0,0.00244906
0.5,11.9,0,0.00217203
0.5,12,0,0.0018973
0.5,12.1,0,0.00162257
0.5,12.2,0,0.00135032
0.5,12.3,0,0.00107914
0.5,12.4,0,0.000807964
0.5,12.5,0,0.000538447
0.5,12.6,0,0.000269223
0.5,12.7,0,0
0.6,0,0,0
0.6,0.1,0,0.000397727
0.6,0.2,0,0.000795642
0.6,0.3,0,0.00119358
0.6,0.4,0,0.0015918
0.6,0.5,0,0.00198996
0.6,0.6,0,0.00238866
0.6,0.7,0,0.00278747
0.6,0.8,0,0.00318661
0.6,0.9,0,0.00358607
0.6,1,0,0.00398566
0.6,1.1,0,0.00438592
0.6,1.2,0,0.00478614
0.6,1.3,0,0.00518679
0.6,1.4,0,0.00558744
0.6,1.5,0,0.00598849
0.6,1.6,0,0.0063896
0.6,1.7,0,0.0067904
0.6,1.8,0,0.00719138
0.6,1.9,0,0.00759146
0.6,2,0,0.00799233
0.6,2.1,0,0.00839151
0.6,2.2,0,0.00879005
0.6,2.3,0,0.00918794
0.6,2.4,0,0.00958329
0.6,2.5,0,0.0099799
0.6,2.6,0,0.0103716
0.6,2.7,0,0.0107623
0.6,2.8,0,0.0111507
0.6,2.9,0,0.0115341
0.6,3,0,0.0119193
0.6,3.1,0,0.0122946
0.6,3.2,0,0.0126683
0.6,3.3,0,0.0130374
0.6,3.4,0,0.013398
0.6,3.5,0,0.0137608
0.6,3.6,0,0.014107
0.6,3.7,0,0.0144511
0.6,3.8,0,0.0147872
0.6,3.9,0,0.0151105
0.6,4,0,0.0154364
0.6,4.1,0,0.0157371
0.6,4.2,0,0.0160354
0.6,4.3,0,0.0163215
0.6,4.4,0,0.0165901
0.6,4.5,0,0.0168612
0.6,4.6,0,0.017098
0.6,4.7,0,0.0173321
0.6,4.8,0,0.0175491
0.6,4.9,0,0.0177276
0.6,5,0,0.017856
0.6,5.1,0,0.0181097
0.6,5.2,0,0.0182587
0.6,5.3,0,0.0183892
0.6,5.4,0,0.0185007
0.6,5.5,0,0.0185928
0.6,5.6,0,0.018665
0.6,5.7,0,0.018717
0.6,5.8,0,0.0187486
0.6,5.9,0,0.0187595
0.6,6,0,0.0187497
0.6,6.1,0,0.0187191
0.6,6.2,0,0.018668
0.6,6.3,0,0.0185964
0.6,6.4,0,0.0185045
0.6,6.5,0,0.0183928
0.6,6.6,0,0.0182617
0.6,6.7,0,0.0181117
0.6,6.8,0,0.0179434
0.6,6.9,0,0.0177576
0.6,7,0,0.0174325
0.6,7.1,0,0.0172885
0.6,7.2,0,0.0170926
0.6,7.3,0,0.016849
0.6,7.4,0,0.0165804
0.6,7.5,0,0.0163092
0.6,7.6,0,0.0160249
0.6,7.7,0,0.0157246
0.6,7.8,0,0.0154213
0.6,7.9,0,0.015106
0.6,8,0,0.0147823
0.6,8.1,0,0.0144551
0.6,8.2,0,0.0141185
0.6,8.3,0,0.0137791
0.6,8.4,0,0.0134358
0.6,8.5,0,0.0130864
0.6,8.6,0,0.0127378
0.6,8.7,0,0.0123856
0.6,8.8,0,0.012031
0.6,8.9,0,0.0116785
0.6,9,0,0.0113238
0.6,9.1,0,0.0109698
0.6,9.2,0,0.0106184
0.6,9.3,0,0.0102662
0.6,9.4,0,0.00991701
0.6,9.5,0,0.00957013
0.6,9.6,0,0.00922441
0.6,9.7,0,0.00888281
0.6,9.8,0,0.00854299
0.6,9.9,0,0.00820637
0.6,10,0,0.00787388
0.6,10.1,0,0.00754296
0.6,10.2,0,0.00721694
0.6,10.3,0,0.00689433
0.6,10.4,0,0.00657332
0.6,10.5,0,0.00625849
0.6,10.6,0,0.00594599
0.6,10.7,0,0.0056351
0.6,10.8,0,0.00533126
0.6,10.9,0,0.00502867
0.6,11,0,0.00472816
0.6,11.1,0,0.00443385
0.6,11.2,0,0.00414044
0.6,11.3,0,0.0038497
0.6,11.4,0,0.00356352
0.6,11.5,0,0.00327821
0.6,11.6,0,0.00299585
0.6,11.7,0,0.00271642
0.6,11.8,0,0.00243794
0.6,11.9,0,0.00216227
0.6,12,0,0.00188803
0.6,12.1,0,0.00161493
0.6,12.2,0,0.00134404
0.6,12.3,0,0.00107335
0.6,12.4,0,0.000804019
0.6,12.5,0,0.000535899
0.6,12.6,0,0.000267322
0.6,12.7,0,0
0.7,0,0,0
0.7,0.1,0,0.000397603
0.7,0.2,0,0.000795083
0.7,0.3,0,0.00119302
0.7,0.4,0,0.00159094
0.7,0.5,0,0.00198898
0.7,0.6,0,0.00238766
0.7,0.7,0,0.00278631
0.7,0.8,0,0.00318545
0.7,0.9,0,0.00358505
0.7,1,0,0.00398465
0.7,1.1,0,0.00438509
0.7,1.2,0,0.00478572
0.7,1.3,0,0.00518636
0.7,1.4,0,0.0055879
0.7,1.5,0,0.00598919
0.7,1.6,0,0.00639079
0.7,1.7,0,0.00679289
0.7,1.8,0,0.00719386
0.7,1.9,0,0.00759588
0.7,2,0,0.00799733
0.7,2.1,0,0.00839742
0.7,2.2,0,0.00879841
0.7,2.3,0,0.00919631
0.7,2.4,0,0.00959493
0.7,2.5,0,0.00999255
0.7,2.6,0,0.0103857
0.7,2.7,0,0.0107802
0.7,2.8,0,0.0111687
0.7,2.9,0,0.0115568
0.7,3,0,0.0119435
0.7,3.1,0,0.0123207
0.7,3.2,0,0.0126999
0.7,3.3,0,0.0130689
0.7,3.4,0,0.0134358
0.7,3.5,0,0.0138007
0.7,3.6,0,0.0141492
0.7,3.7,0,0.0145001
0.7,3.8,0,0.0148362
0.7,3.9,0,0.0151669
0.7,4,0,0.0154952
0.7,4.1,0,0.0157985
0.7,4.2,0,0.0161045
0.7,4.3,0,0.0163905
0.7,4.4,0,0.0166669
0.7,4.5,0,0.0169406
0.7,4.6,0,0.0171798
0.7,4.7,0,0.0174214
0.7,4.8,0,0.0176385
0.7,4.9,0,0.0178054
0.7,5,0,0.0179531
0.7,5.1,0,0.018212
0.7,5.2,0,0.018364
0.7,5.3,0,0.0184973
0.7,5.4,0,0.0186112
0.7,5.5,0,0.0187054
0.7,5.6,0,0.0187792
0.7,5.7,0,0.0188325
0.7,5.8,0,0.0188649
0.7,5.9,0,0.0188762
0.7,6,0,0.0188663
0.7,6.1,0,0.0188352
0.7,6.2,0,0.0187831
0.7,6.3,0,0.01871
0.7,6.4,0,0.0186162
0.7,6.5,0,0.0185021
0.7,6.6,0,0.0183682
0.7,6.7,0,0.018215
0.7,6.8,0,0.018043
0.7,6.9,0,0.0178533
0.7,7,0,0.0175212
0.7,7.1,0,0.0173546
0.7,7.2,0,0.0171581
0.7,7.3,0,0.0169265
0.7,7.4,0,0.0166517
0.7,7.5,0,0.0163723
0.7,7.6,0,0.0160877
0.7,7.7,0,0.0157797
0.7,7.8,0,0.0154692
0.7,7.9,0,0.0151539
0.7,8,0,0.0148215
0.7,8.1,0,0.0144887
0.7,8.2,0,0.0141519
0.7,8.3,0,0.0138034
0.7,8.4,0,0.0134564
0.7,8.5,0,0.013106
0.7,8.6,0,0.0127494
0.7,8.7,0,0.0123949
0.7,8.8,0,0.012039
0.7,8.9,0,0.0116801
0.7,9,0,0.0113238
0.7,9.1,0,0.0109685
0.7,9.2,0,0.0106119
0.7,9.3,0,0.0102589
0.7,9.4,0,0.00990857
0.7,9.5,0,0.00955772
0.7,9.6,0,0.00921174
0.7,9.7,0,0.00886919
0.7,9.8,0,0.00852672
0.7,9.9,0,0.0081901
0.7,10,0,0.00785712
0.7,10.1,0,0.00752463
0.7,10.2,0,0.00719869
0.7,10.3,0,0.00687618
0.7,10.4,0,0.00655425
0.7,10.5,0,0.00623973
0.7,10.6,0,0.00592778
0.7,10.7,0,0.00561638
0.7,10.8,0,0.00531317
0.7,10.9,0,0.00501138
0.7,11,0,0.00471067
0.7,11.1,0,0.00441735
0.7,11.2,0,0.00412491
0.7,11.3,0,0.00383414
0.7,11.4,0,0.0035493
0.7,11.5,0,0.0032651
0.7,11.6,0,0.00298275
0.7,11.7,0,0.00270509
0.7,11.8,0,0.00242771
0.7,11.9,0,0.00215204
0.7,12,0,0.00188005
0.7,12.1,0,0.00160787
0.7,12.2,0,0.00133722
0.7,12.3,0,0.00106902
0.7,12.4,0,0.000800355
0.7,12.5,0,0.000532766
0.7,12.6,0,0.000266757
0.7,12.7,0,0
0.8,0,0,0
0.8,0.1,0,0.000397219
0.8,0.2,0,0.000794698
0.8,0.3,0,0.00119199
0.8,0.4,0,0.00158991
0.8,0.5,0,0.00198767
0.8,0.6,0,0.0023862
0.8,0.7,0,0.00278485
0.8,0.8,0,0.00318391
0.8,0.9,0,0.00358351
0.8,1,0,0.00398317
0.8,1.1,0,0.00438393
0.8,1.2,0,0.00478456
0.8,1.3,0,0.00518619
0.8,1.4,0,0.00558772
0.8,1.5,0,0.00598967
0.8,1.6,0,0.00639232
0.8,1.7,0,0.00679441
0.8,1.8,0,0.00719794
0.8,1.9,0,0.00759996
0.8,2,0,0.0080029
0.8,2.1,0,0.00840502
0.8,2.2,0,0.00880601
0.8,2.3,0,0.00920851
0.8,2.4,0,0.00960714
0.8,2.5,0,0.0100073
0.8,2.6,0,0.0104037
0.8,2.7,0,0.0107982
0.8,2.8,0,0.0111937
0.8,2.9,0,0.0115818
0.8,3,0,0.0119723
0.8,3.1,0,0.012354
0.8,3.2,0,0.0127331
0.8,3.3,0,0.0131118
0.8,3.4,0,0.0134786
0.8,3.5,0,0.0138485
0.8,3.6,0,0.0142028
0.8,3.7,0,0.0145537
0.8,3.8,0,0.0149014
0.8,3.9,0,0.0152321
0.8,4,0,0.0155663
0.8,4.1,0,0.0158761
0.8,4.2,0,0.0161821
0.8,4.3,0,0.0164809
0.8,4.4,0,0.0167572
0.8,4.5,0,0.0170371
0.8,4.6,0,0.0172827
0.8,4.7,0,0.0175244
0.8,4.8,0,0.0177533
0.8,4.9,0,0.0179201
0.8,5,0,0.0180712
0.8,5.1,0,0.0183363
0.8,5.2,0,0.0184921
0.8,5.3,0,0.0186288
0.8,5.4,0,0.0187457
0.8,5.5,0,0.0188424
0.8,5.6,0,0.0189184
0.8,5.7,0,0.0189732
0.8,5.8,0,0.0190067
0.8,5.9,0,0.0190186
0.8,6,0,0.0190086
0.8,6.1,0,0.0189769
0.8,6.2,0,0.0189236
0.8,6.3,0,0.0188487
0.8,6.4,0,0.0187525
0.8,6.5,0,0.0186355
0.8,6.6,0,0.0184981
0.8,6.7,0,0.0183409
0.8,6.8,0,0.0181646
0.8,6.9,0,0.0179699
0.8,7,0,0.0176292
0.8,7.1,0,0.0174577
0.8,7.2,0,0.0172613
0.8,7.3,0,0.0170186
0.8,7.4,0,0.0167372
0.8,7.5,0,0.0164579
0.8,7.6,0,0.0161591
0.8,7.7,0,0.0158468
0.8,7.8,0,0.0155359
0.8,7.9,0,0.0152047
0.8,8,0,0.0148704
0.8,8.1,0,0.014535
0.8,8.2,0,0.0141839
0.8,8.3,0,0.0138355
0.8,8.4,0,0.0134839
0.8,8.5,0,0.0131231
0.8,8.6,0,0.0127666
0.8,8.7,0,0.0124064
0.8,8.8,0,0.0120435
0.8,8.9,0,0.0116846
0.8,9,0,0.0113224
0.8,9.1,0,0.010963
0.8,9.2,0,0.0106064
0.8,9.3,0,0.0102479
0.8,9.4,0,0.00989544
0.8,9.5,0,0.00954459
0.8,9.6,0,0.00919414
0.8,9.7,0,0.00885073
0.8,9.8,0,0.00850801
0.8,9.9,0,0.00816847
0.8,10,0,0.00783534
0.8,10.1,0,0.00750243
0.8,10.2,0,0.00717532
0.8,10.3,0,0.00685282
0.8,10.4,0,0.00653069
0.8,10.5,0,0.00621624
0.8,10.6,0,0.00590429
0.8,10.7,0,0.0055932
0.8,10.8,0,0.00529075
0.8,10.9,0,0.00498895
0.8,11,0,0.00468931
0.8,11.1,0,0.00439693
0.8,11.2,0,0.00410449
0.8,11.3,0,0.00381563
0.8,11.4,0,0.00353163
0.8,11.5,0,0.00324742
0.8,11.6,0,0.00296786
0.8,11.7,0,0.00269073
0.8,11.8,0,0.00241373
0.8,11.9,0,0.00214134
0.8,12,0,0.00186941
0.8,12.1,0,0.00159817
0.8,12.2,0,0.00133062
0.8,12.3,0,0.00106242
0.8,12.4,0,0.000795317
0.8,12.5,0,0.00053044
0.8,12.6,0,0.000264431
0.8,12.7,0,0
0.9,0,0,0
0.9,0.1,0,0.000396958
0.9,0.2,0,0.000793774
0.9,0.3,0,0.00119107
0.9,0.4,0,0.00158842
0.9,0.5,0,0.00198603
0.9,0.6,0,0.00238443
0.9,0.7,0,0.00278282
0.9,0.8,0,0.00318187
0.9,0.9,0,0.00358151
0.9,1,0,0.00398122
0.9,1.1,0,0.00438213
0.9,1.2,0,0.00478333
0.9,1.3,0,0.00518495
0.9,1.4,0,0.00558756
0.9,1.5,0,0.00598992
0.9,1.6,0,0.00639313
0.9,1.7,0,0.00679707
0.9,1.8,0,0.0072006
0.9,1.9,0,0.00760519
0.9,2,0,0.00800904
0.9,2.1,0,0.00841229
0.9,2.2,0,0.00881685
0.9,2.3,0,0.00921935
0.9,2.4,0,0.00962246
0.9,2.5,0,0.0100242
0.9,2.6,0,0.0104224
0.9,2.7,0,0.0108225
0.9,2.8,0,0.011218
0.9,2.9,0,0.0116129
0.9,3,0,0.0120056
0.9,3.1,0,0.01239
0.9,3.2,0,0.012777
0.9,3.3,0,0.0131556
0.9,3.4,0,0.0135315
0.9,3.5,0,0.0139043
0.9,3.6,0,0.0142619
0.9,3.7,0,0.0146227
0.9,3.8,0,0.0149705
0.9,3.9,0,0.015312
0.9,4,0,0.0156497
0.9,4.1,0,0.0159634
0.9,4.2,0,0.0162805
0.9,4.3,0,0.0165793
0.9,4.4,0,0.0168672
0.9,4.5,0,0.0171507
0.9,4.6,0,0.0174003
0.9,4.7,0,0.0176526
0.9,4.8,0,0.0178815
0.9,4.9,0,0.0180752
0.9,5,0,0.0182103
0.9,5.1,0,0.0184828
0.9,5.2,0,0.018643
0.9,5.3,0,0.0187837
0.9,5.4,0,0.0189043
0.9,5.5,0,0.019004
0.9,5.6,0,0.0190825
0.9,5.7,0,0.0191393
0.9,5.8,0,0.0191741
0.9,5.9,0,0.0191866
0.9,6,0,0.0191766
0.9,6.1,0,0.0191442
0.9,6.2,0,0.0190894
0.9,6.3,0,0.0190124
0.9,6.4,0,0.0189134
0.9,6.5,0,0.0187929
0.9,6.6,0,0.0186514
0.9,6.7,0,0.0184895
0.9,6.8,0,0.0183079
0.9,6.9,0,0.0181075
0.9,7,0,0.0177568
0.9,7.1,0,0.0176041
0.9,7.2,0,0.0173889
0.9,7.3,0,0.01713
0.9,7.4,0,0.0168457
0.9,7.5,0,0.0165494
0.9,7.6,0,0.0162488
0.9,7.7,0,0.0159298
0.9,7.8,0,0.0156035
0.9,7.9,0,0.0152723
0.9,8,0,0.0149283
0.9,8.1,0,0.0145816
0.9,8.2,0,0.0142303
0.9,8.3,0,0.0138704
0.9,8.4,0,0.0135116
0.9,8.5,0,0.0131496
0.9,8.6,0,0.0127819
0.9,8.7,0,0.0124178
0.9,8.8,0,0.0120529
0.9,8.9,0,0.0116848
0.9,9,0,0.0113204
0.9,9.1,0,0.0109585
0.9,9.2,0,0.010595
0.9,9.3,0,0.0102356
0.9,9.4,0,0.00988029
0.9,9.5,0,0.00952501
0.9,9.6,0,0.00917438
0.9,9.7,0,0.00882809
0.9,9.8,0,0.0084833
0.9,9.9,0,0.00814377
0.9,10,0,0.00780832
0.9,10.1,0,0.00747501
0.9,10.2,0,0.00714776
0.9,10.3,0,0.00682402
0.9,10.4,0,0.00650243
0.9,10.5,0,0.00618774
0.9,10.6,0,0.00587593
0.9,10.7,0,0.00556563
0.9,10.8,0,0.00526302
0.9,10.9,0,0.00496262
0.9,11,0,0.00466366
0.9,11.1,0,0.00437137
0.9,11.2,0,0.00408132
0.9,11.3,0,0.00379289
0.9,11.4,0,0.0035096
0.9,11.5,0,0.00322826
0.9,11.6,0,0.00294877
0.9,11.7,0,0.00267321
0.9,11.8,0,0.00239886
0.9,11.9,0,0.00212647
0.9,12,0,0.00185703
0.9,12.1,0,0.00158794
0.9,12.2,0,0.00132061
0.9,12.3,0,0.00105559
0.9,12.4,0,0.000790022
0.9,12.5,0,0.000525671
0.9,12.6,0,0.000263241
0.9,12.7,0,0
1,0,0,0
1,0.1,0,0.000396555
1,0.2,0,0.000793111
1,0.3,0,0.00118999
1,0.4,0,0.00158718
1,0.5,0,0.00198438
1,0.6,0,0.00238265
1,0.7,0,0.00278092
1,0.8,0,0.0031799
1,0.9,0,0.00357959
1,1,0,0.00397928
1,1.1,0,0.00438061
1,1.2,0,0.00478195
1,1.3,0,0.00518413
1,1.4,0,0.00558715
1,1.5,0,0.00599017
1,1.6,0,0.00639467
1,1.7,0,0.00679917
1,1.8,0,0.00720417
1,1.9,0,0.00760967
1,2,0,0.00801518
1,2.1,0,0.00842087
1,2.2,0,0.00882656
1,2.3,0,0.00923173
1,2.4,0,0.00963639
1,2.5,0,0.0100411
1,2.6,0,0.0104431
1,2.7,0,0.0108451
1,2.8,0,0.0112446
1,2.9,0,0.0116418
1,3,0,0.0120389
1,3.1,0,0.0124286
1,3.2,0,0.0128182
1,3.3,0,0.0132024
1,3.4,0,0.0135813
1,3.5,0,0.0139601
1,3.6,0,0.0143243
1,3.7,0,0.0146884
1,3.8,0,0.015043
1,3.9,0,0.0153881
1,4,0,0.0157331
1,4.1,0,0.0160541
1,4.2,0,0.0163751
1,4.3,0,0.0166813
1,4.4,0,0.0169728
1,4.5,0,0.0172643
1,4.6,0,0.0175206
1,4.7,0,0.0177768
1,4.8,0,0.0179939
1,4.9,0,0.0181717
1,5,0,0.0183495
1,5.1,0,0.0186293
1,5.2,0,0.0187939
1,5.3,0,0.0189387
1,5.4,0,0.0190628
1,5.5,0,0.0191656
1,5.6,0,0.0192466
1,5.7,0,0.0193054
1,5.8,0,0.0193415
1,5.9,0,0.0193546
1,6,0,0.0193446
1,6.1,0,0.0193115
1,6.2,0,0.0192553
1,6.3,0,0.0191761
1,6.4,0,0.0190743
1,6.5,0,0.0189504
1,6.6,0,0.0188048
1,6.7,0,0.0186382
1,6.8,0,0.0184513
1,6.9,0,0.0182451
1,7,0,0.0178843
1,7.1,0,0.0176737
1,7.2,0,0.017463
1,7.3,0,0.0172392
1,7.4,0,0.0169408
1,7.5,0,0.0166424
1,7.6,0,0.0163346
1,7.7,0,0.0160046
1,7.8,0,0.0156747
1,7.9,0,0.0153348
1,8,0,0.014983
1,8.1,0,0.0146311
1,8.2,0,0.0142713
1,8.3,0,0.0139062
1,8.4,0,0.0135411
1,8.5,0,0.0131716
1,8.6,0,0.0128008
1,8.7,0,0.0124299
1,8.8,0,0.0120593
1,8.9,0,0.0116887
1,9,0,0.0113183
1,9.1,0,0.0109526
1,9.2,0,0.010587
1,9.3,0,0.0102229
1,9.4,0,0.0098655
1,9.5,0,0.00950808
1,9.6,0,0.0091543
1,9.7,0,0.00880731
1,9.8,0,0.00846032
1,9.9,0,0.00811916
1,10,0,0.00778383
1,10.1,0,0.00744849
1,10.2,0,0.00712101
1,10.3,0,0.00679777
1,10.4,0,0.00647452
1,10.5,0,0.0061608
1,10.6,0,0.00584946
1,10.7,0,0.00553811
1,10.8,0,0.00523745
1,10.9,0,0.00493735
1,11,0,0.00463826
1,11.1,0,0.00434836
1,11.2,0,0.00405846
1,11.3,0,0.00377079
1,11.4,0,0.00348979
1,11.5,0,0.00320879
1,11.6,0,0.00293074
1,11.7,0,0.00265713
1,11.8,0,0.00238351
1,11.9,0,0.00211305
1,12,0,0.00184516
1,12.1,0,0.00157727
1,12.2,0,0.0013122
1,12.3,0,0.00104833
1,12.4,0,0.00078447
1,12.5,0,0.00052273
1,12.6,0,0.000261365
1,12.7,0,0
1.1,0,0,0
1.1,0.1,0,0.000395734
1.1,0.2,0,0.000791978
1.1,0.3,0,0.00118821
1.1,0.4,0,0.00158508
1.1,0.5,0,0.00198176
1.1,0.6,0,0.0023796
1.1,0.7,0,0.00277771
1.1,0.8,0,0.00317646
1.1,0.9,0,0.00357609
1.1,1,0,0.00397577
1.1,1.1,0,0.00437738
1.1,1.2,0,0.00477892
1.1,1.3,0,0.00518168
1.1,1.4,0,0.00558509
1.1,1.5,0,0.00598899
1.1,1.6,0,0.00639489
1.1,1.7,0,0.00680012
1.1,1.8,0,0.00720692
1.1,1.9,0,0.00761348
1.1,2,0,0.00802113
1.1,2.1,0,0.00842976
1.1,2.2,0,0.00883691
1.1,2.3,0,0.00924547
1.1,2.4,0,0.00965207
1.1,2.5,0,0.0100605
1.1,2.6,0,0.0104673
1.1,2.7,0,0.0108717
1.1,2.8,0,0.0112766
1.1,2.9,0,0.0116767
1.1,3,0,0.0120795
1.1,3.1,0,0.0124762
1.1,3.2,0,0.0128691
1.1,3.3,0,0.0132608
1.1,3.4,0,0.0136437
1.1,3.5,0,0.0140301
1.1,3.6,0,0.0144034
1.1,3.7,0,0.0147717
1.1,3.8,0,0.0151356
1.1,3.9,0,0.0154857
1.1,4,0,0.0158397
1.1,4.1,0,0.0161714
1.1,4.2,0,0.0164971
1.1,4.3,0,0.0168136
1.1,4.4,0,0.0171107
1.1,4.5,0,0.0174114
1.1,4.6,0,0.0176789
1.1,4.7,0,0.0179396
1.1,4.8,0,0.0181851
1.1,4.9,0,0.018387
1.1,5,0,0.0185317
1.1,5.1,0,0.0188217
1.1,5.2,0,0.0189926
1.1,5.3,0,0.0191431
1.1,5.4,0,0.0192722
1.1,5.5,0,0.0193795
1.1,5.6,0,0.0194641
1.1,5.7,0,0.0195257
1.1,5.8,0,0.0195637
1.1,5.9,0,0.0195779
1.1,6,0,0.019568
1.1,6.1,0,0.0195339
1.1,6.2,0,0.0194758
1.1,6.3,0,0.0193938
1.1,6.4,0,0.0192882
1.1,6.5,0,0.0191594
1.1,6.6,0,0.0190081
1.1,6.7,0,0.018835
1.1,6.8,0,0.0186408
1.1,6.9,0,0.0184266
1.1,7,0,0.0180519
1.1,7.1,0,0.0178872
1.1,7.2,0,0.017664
1.1,7.3,0,0.0173835
1.1,7.4,0,0.0170777
1.1,7.5,0,0.0167711
1.1,7.6,0,0.0164475
1.1,7.7,0,0.0161098
1.1,7.8,0,0.0157698
1.1,7.9,0,0.0154161
1.1,8,0,0.0150573
1.1,8.1,0,0.0146945
1.1,8.2,0,0.0143229
1.1,8.3,0,0.0139524
1.1,8.4,0,0.0135764
1.1,8.5,0,0.0131971
1.1,8.6,0,0.0128222
1.1,8.7,0,0.0124417
1.1,8.8,0,0.0120629
1.1,8.9,0,0.011689
1.1,9,0,0.0113116
1.1,9.1,0,0.0109392
1.1,9.2,0,0.0105713
1.1,9.3,0,0.0102023
1.1,9.4,0,0.00983976