/*--------------------------------*- C++ -*----------------------------------*\
| =========                 |                                                 |
| \\      /  F ield         | OpenFOAM: The Open Source CFD Toolbox           |
|  \\    /   O peration     | Version:  v1806                                 |
|   \\  /    A nd           | Web:      www.OpenFOAM.com                      |
|    \\/     M anipulation  |                                                 |
\*---------------------------------------------------------------------------*/
FoamFile
{
    version     2.0;
    format      ascii;
    class       surfaceScalarField;
    location    "50";
    object      phi;
}
// * * * * * * * * * * * * * * * * * * * * * * * * * * * * * * * * * * * * * //

dimensions      [0 3 -1 0 0 0 0];
oriented        oriented;


internalField   nonuniform List<scalar> 
8600
(
0.048496
-0.0615897
-0.0426384
0.0557322
0.0434979
-0.0739241
0.0789221
0.0358722
-0.0797108
0.0873365
0.0296911
-0.0836998
0.089881
0.0252991
-0.0862245
0.0906164
0.0222372
-0.0877095
0.0907715
0.0200707
-0.0884909
0.0906574
0.0184901
-0.0888237
0.0904043
0.0173035
-0.0888913
0.0900779
0.016395
-0.0888039
0.0897124
0.0156897
-0.088623
0.0893282
0.0151361
-0.0883841
0.0889378
0.0146971
-0.0881095
0.0885485
0.0143462
-0.0878133
0.0881643
0.0140642
-0.0875048
0.0877868
0.013838
-0.0871897
0.0874159
0.0136583
-0.086871
0.0870507
0.0135189
-0.08655
0.0866894
0.013416
-0.0862292
0.0863321
-0.0859369
0.0860024
0.0296794
-0.0602485
-0.0310206
0.0259522
-0.0701968
0.0233057
-0.0770643
0.0215268
-0.081921
0.0201078
-0.0848054
0.0188299
-0.0864317
0.0176936
-0.0873546
0.0167282
-0.0878583
0.015929
-0.0880921
0.0152714
-0.0881463
0.0147289
-0.0880804
0.0142796
-0.0879348
0.0139069
-0.0877368
0.0135984
-0.0875048
0.0133444
-0.0872509
0.0131376
-0.0869829
0.0129723
-0.0867057
0.0128443
-0.0864219
0.0127509
-0.0861358
-0.0858725
0.0243135
-0.0632297
-0.0213324
0.0250278
-0.0709111
0.0242936
-0.0763301
0.0225586
-0.080186
0.0206391
-0.082886
0.0189483
-0.0847408
0.0175698
-0.0859761
0.016465
-0.0867535
0.0155759
-0.0872031
0.0148553
-0.0874257
0.0142683
-0.0874934
0.0137885
-0.0874551
0.0133959
-0.0873442
0.0130747
-0.0871836
0.012813
-0.0869892
0.0126019
-0.0867718
0.0124346
-0.0865385
0.012307
-0.0862942
0.0122157
-0.0860445
-0.0858138
0.0177472
-0.0664371
-0.0145398
0.0185283
-0.0716922
0.0182858
-0.0760876
0.0176936
-0.0795937
0.0170213
-0.0822137
0.0163249
-0.0840443
0.0156267
-0.0852779
0.0149626
-0.0860894
0.01436
-0.0866004
0.0138293
-0.0868951
0.0133698
-0.0870339
0.0129759
-0.0870612
0.0126409
-0.0870092
0.0123585
-0.0869012
0.0121233
-0.086754
0.0119307
-0.0865791
0.011777
-0.0863848
0.0116596
-0.0861768
0.0115762
-0.0859611
-0.0857612
0.0141203
-0.0697426
-0.0108149
0.0158478
-0.0734197
0.0165483
-0.0767881
0.0165255
-0.0795709
0.016066
-0.0817542
0.0154267
-0.083405
0.0147618
-0.084613
0.0141376
-0.0854653
0.0135763
-0.0860391
0.0130818
-0.0864006
0.0126517
-0.0866039
0.0122816
-0.086691
0.0119659
-0.0866935
0.0116994
-0.0866347
0.0114773
-0.0865319
0.0112955
-0.0863974
0.011151
-0.0862403
0.0110412
-0.086067
0.0109646
-0.0858845
-0.0857144
0.0110028
-0.0725018
-0.0082435
0.0126304
-0.0750473
0.0134241
-0.0775818
0.0136932
-0.0798401
0.0136601
-0.0817211
0.0134543
-0.0831992
0.0131496
-0.0843083
0.0127964
-0.085112
0.0124309
-0.0856737
0.0120773
-0.0860469
0.0117489
-0.0862755
0.0114522
-0.0863943
0.0111897
-0.086431
0.0109618
-0.0864068
0.0107679
-0.086338
0.010607
-0.0862364
0.0104779
-0.0861112
0.0103797
-0.0859689
0.0103117
-0.0858165
-0.0856736
0.00890452
-0.0749123
-0.00649404
0.0105757
-0.0767185
0.0116084
-0.0786144
0.0121407
-0.0803725
0.0123078
-0.0818881
0.0122394
-0.0831308
0.0120384
-0.0841073
0.0117726
-0.0848462
0.0114828
-0.0853839
0.0111929
-0.085757
0.0109166
-0.0859993
0.0106621
-0.0861397
0.0104333
-0.0862023
0.0102325
-0.086206
0.0100601
-0.0861656
0.00991628
-0.0860926
0.00980068
-0.0859956
0.00971301
-0.0858812
0.00965286
-0.0857563
-0.0856383
0.00724355
-0.076897
-0.00525892
0.00871493
-0.0781899
0.00970266
-0.0796022
0.0103009
-0.0809707
0.0106116
-0.0821988
0.01072
-0.0832392
0.010692
-0.0840794
0.0105763
-0.0847305
0.0104086
-0.0852162
0.0102154
-0.0855638
0.0100149
-0.0857987
0.00981924
-0.0859441
0.00963616
-0.0860192
0.00947054
-0.0860403
0.00932533
-0.0860204
0.0092023
-0.0859696
0.00910252
-0.0858958
0.00902666
-0.0858054
0.00897492
-0.0857046
-0.0856086
0.00598629
-0.0785924
-0.0042908
0.00732436
-0.0795279
0.00829993
-0.0805777
0.00895434
-0.0816251
0.00934577
-0.0825902
0.00953678
-0.0834302
0.00958583
-0.0841284
0.00954103
-0.0846857
0.00943783
-0.085113
0.00930147
-0.0854274
0.00914973
-0.085647
0.00899502
-0.0857893
0.00884585
-0.08587
0.00870799
-0.0859025
0.00858526
-0.0858977
0.00848021
-0.0858645
0.00839451
-0.0858101
0.00832931
-0.0857402
0.00828514
-0.0856604
-0.0855838
0.00498153
-0.0800009
-0.0035731
0.00613565
-0.0806821
0.00701886
-0.0814609
0.00765139
-0.0822577
0.0080721
-0.083011
0.00832419
-0.0836823
0.00844794
-0.0842522
0.00847835
-0.0847161
0.00844426
-0.085079
0.00836838
-0.0853515
0.00826809
-0.0855467
0.00815635
-0.0856776
0.00804259
-0.0857563
0.00793356
-0.0857934
0.00783404
-0.0857981
0.00774737
-0.0857778
0.00767592
-0.0857387
0.00762134
-0.0856856
0.00758454
-0.0856236
-0.0855635
0.00416191
-0.0811979
-0.00296487
0.00517157
-0.0816917
0.00597527
-0.0822646
0.00657922
-0.0828616
0.00700493
-0.0834367
0.00728146
-0.0839588
0.00743992
-0.0844107
0.00750955
-0.0847857
0.00751549
-0.0850849
0.00747806
-0.0853141
0.00741312
-0.0854818
0.00733281
-0.0855973
0.0072463
-0.0856698
0.00716043
-0.0857076
0.0070802
-0.0857179
0.00700926
-0.0857069
0.00695023
-0.0856796
0.00690499
-0.0856403
0.00687464
-0.0855933
-0.085547
0.0034836
-0.0821954
-0.00248609
0.00434365
-0.0825518
0.00504824
-0.0829692
0.00559699
-0.0834104
0.00600245
-0.0838421
0.00628417
-0.0842405
0.00646411
-0.0845906
0.00656384
-0.0848854
0.00660301
-0.0851241
0.00659859
-0.0853097
0.00656463
-0.0854478
0.00651234
-0.085545
0.00645047
-0.0856079
0.00638578
-0.0856429
0.00632333
-0.0856555
0.00626694
-0.0856505
0.00621943
-0.0856321
0.00618281
-0.0856037
0.00615832
-0.0855688
-0.085534
0.00290099
-0.083034
-0.00206236
0.00363507
-0.0832858
0.00424929
-0.0835834
0.00474047
-0.0839015
0.00511505
-0.0842167
0.00538574
-0.0845112
0.00556849
-0.0847734
0.00568013
-0.0849971
0.00573665
-0.0851806
0.00575224
-0.0853253
0.00573897
-0.0854345
0.00570674
-0.0855128
0.00566349
-0.0855647
0.00561546
-0.0855948
0.00556746
-0.0856075
0.0055232
-0.0856063
0.00548542
-0.0855943
0.00545615
-0.0855744
0.00543664
-0.0855493
-0.0855238
0.00239869
-0.0837245
-0.00170824
0.00301109
-0.0838982
0.0035324
-0.0841048
0.00395811
-0.0843272
0.00429121
-0.0845498
0.00453995
-0.0847599
0.00471551
-0.0849489
0.00483028
-0.0851118
0.00489653
-0.0852468
0.00492565
-0.0853544
0.00492766
-0.0854366
0.00491106
-0.0854962
0.00488287
-0.0855365
0.0048487
-0.0855607
0.00481299
-0.0855718
0.00477918
-0.0855724
0.00474987
-0.085565
0.004727
-0.0855516
0.0047118
-0.0855341
-0.0855161
0.00194963
-0.0842888
-0.00138534
0.00245433
-0.0844029
0.00288908
-0.0845395
0.00324951
-0.0846877
0.00353674
-0.084837
0.00375597
-0.0849792
0.0039151
-0.0851081
0.00402338
-0.0852201
0.00409034
-0.0853138
0.00412504
-0.0853891
0.00413564
-0.0854472
0.00412922
-0.0854898
0.00411171
-0.085519
0.00408797
-0.0855369
0.00406187
-0.0855457
0.00403648
-0.085547
0.00401414
-0.0855427
0.00399657
-0.085534
0.00398493
-0.0855224
-0.0855103
0.00154621
-0.0847346
-0.00110035
0.00194814
-0.0848049
0.00229793
-0.0848893
0.0025915
-0.0849812
0.00282885
-0.0850744
0.00301322
-0.0851635
0.00315006
-0.0852449
0.00324601
-0.0853161
0.00330817
-0.0853759
0.00334347
-0.0854244
0.00335831
-0.085462
0.00335837
-0.0854898
0.00334849
-0.0855091
0.0033327
-0.0855211
0.00331425
-0.0855272
0.00329575
-0.0855285
0.00327919
-0.0855261
0.00326608
-0.0855209
0.00325741
-0.0855138
-0.0855061
0.00117234
-0.0850739
-0.000833064
0.00147969
-0.0851122
0.00174885
-0.0851585
0.00197654
-0.0852089
0.00216245
-0.0852603
0.00230856
-0.0853096
0.00241857
-0.0853549
0.00249719
-0.0853947
0.00254956
-0.0854283
0.00258083
-0.0854557
0.00259583
-0.085477
0.00259888
-0.0854929
0.00259373
-0.0855039
0.00258353
-0.0855109
0.00257086
-0.0855146
0.00255779
-0.0855155
0.00254592
-0.0855143
0.00253645
-0.0855114
0.00253021
-0.0855075
-0.0855032
0.000822854
-0.0853115
-0.000585303
0.00103925
-0.0853286
0.00122956
-0.0853488
0.0013915
-0.0853709
0.00152464
-0.0853934
0.00163017
-0.0854152
0.00171044
-0.0854352
0.00176855
-0.0854528
0.00180797
-0.0854677
0.00183223
-0.0854799
0.00184467
-0.0854894
0.00184836
-0.0854966
0.00184595
-0.0855015
0.0018397
-0.0855047
0.00183148
-0.0855063
0.00182279
-0.0855068
0.0018148
-0.0855063
0.0018084
-0.085505
0.00180419
-0.0855033
-0.0855013
0.00048847
-0.0854541
-0.000345832
0.000617451
-0.0854576
0.000731075
-0.0854624
0.000828025
-0.0854678
0.000908019
-0.0854734
0.000971678
-0.0854788
0.00102032
-0.0854838
0.00105573
-0.0854882
0.00107993
-0.0854919
0.001095
-0.085495
0.00110292
-0.0854974
0.00110551
-0.0854991
0.00110438
-0.0855004
0.00110087
-0.0855012
0.00109612
-0.0855016
0.00109104
-0.0855017
0.00108635
-0.0855016
0.00108258
-0.0855013
0.0010801
-0.0855008
-0.0855003
0.000162946
-0.000117046
0.000205345
0.000242948
0.000275125
0.000301708
0.000322878
0.000339063
0.000350851
0.000358908
0.000363924
0.000366557
0.000367414
0.000367026
0.00036585
0.00036426
0.000362561
0.000360991
0.000359729
0.000358908
-0.0387537
-0.00677948
0.0455332
-0.0328669
-0.00588679
-0.0276183
-0.00524864
-0.0228616
-0.00475663
-0.0184935
-0.00436813
-0.0144314
-0.0040621
-0.0106056
-0.00382583
-0.00695557
-0.00365
-0.00342742
-0.00352815
2.86194e-05
-0.00345604
0.00345987
-0.00343125
0.00691287
-0.00345301
0.0104351
-0.00352222
0.0140767
-0.00364165
0.0178931
-0.00381638
0.0219479
-0.00405475
0.0263183
-0.00437046
0.0311052
-0.00478683
0.0364556
-0.00535042
-0.00618281
-0.0255815
-0.00883728
0.0276393
-0.0230898
-0.00837855
-0.0203666
-0.00797183
-0.0175005
-0.00762275
-0.0145392
-0.00732944
-0.0115126
-0.00708862
-0.00844135
-0.00689712
-0.00533913
-0.00675222
-0.00221549
-0.00665179
0.000922862
-0.00659439
0.00407081
-0.00657919
0.00722385
-0.00660605
0.0103771
-0.0066755
0.0135243
-0.00678884
0.0166562
-0.0069483
0.0197588
-0.00715732
0.0228094
-0.00742103
0.0257698
-0.0077472
0.0285684
-0.00814907
-0.00863502
-0.0167676
-0.010083
0.0180133
-0.0152894
-0.00985665
-0.0136135
-0.00964775
-0.011777
-0.00945928
-0.00981303
-0.00929341
-0.00774976
-0.00915189
-0.00561082
-0.00903606
-0.00341611
-0.00894694
-0.00118266
-0.00888524
0.00107442
-0.00885147
0.00334121
-0.00884599
0.0056042
-0.00886904
0.00784948
-0.00892079
0.010062
-0.00900134
0.0122244
-0.00911075
0.0143161
-0.00924899
0.0163111
-0.00941607
0.0181762
-0.00961223
0.0198658
-0.00983871
-0.0101016
-0.0105537
-0.0110793
0.0115499
-0.00947166
-0.0109387
-0.00831084
-0.0108086
-0.00707899
-0.0106911
-0.00578447
-0.0105879
-0.00443611
-0.0105002
-0.00304319
-0.010429
-0.00161526
-0.0103749
-0.00016208
-0.0103384
0.00130645
-0.01032
0.00278031
-0.0103198
0.00424938
-0.0103381
0.0057034
-0.0103748
0.00713196
-0.0104299
0.00852442
-0.0105032
0.00986996
-0.0105945
0.0111574
-0.0107035
0.0123751
-0.0108299
0.0135099
-0.0109735
-0.0111315
-0.00765252
-0.0118356
0.00840885
-0.00683813
-0.0117531
-0.00596945
-0.0116773
-0.00505149
-0.0116091
-0.00409013
-0.0115493
-0.00309176
-0.0114986
-0.0020631
-0.0114576
-0.00101107
-0.0114269
5.73177e-05
-0.0114068
0.00113497
-0.0113977
0.00221476
-0.0113996
0.00328949
-0.0114128
0.00435191
-0.0114372
0.00539467
-0.0114727
0.00641035
-0.0115189
0.00739138
-0.0115756
0.00833006
-0.0116422
0.0092185
-0.0117183
0.0100483
-0.0118033
-0.0118981
-0.00538951
-0.0124529
0.00600679
-0.00474431
-0.0123982
-0.00407324
-0.0123483
-0.00337863
-0.0123037
-0.0026631
-0.0122648
-0.00192956
-0.0122321
-0.00118119
-0.012206
-0.000421362
-0.0121867
0.000346355
-0.0121745
0.00111826
-0.0121696
0.00189055
-0.0121719
0.0026594
-0.0121817
0.00342095
-0.0121988
0.00417141
-0.0122231
0.00490707
-0.0122546
0.00562439
-0.0122929
0.00631999
-0.0123378
0.00699066
-0.012389
0.00763347
-0.0124461
-0.0125081
-0.00411484
-0.0129426
0.00460457
-0.00360567
-0.0129074
-0.00307842
-0.0128756
-0.00253473
-0.0128474
-0.00197649
-0.0128231
-0.00140581
-0.0128028
-0.000824949
-0.0127869
-0.000236332
-0.0127753
0.000357528
-0.0127684
0.000954035
-0.0127661
0.00155055
-0.0127684
0.0021444
-0.0127755
0.00273292
-0.0127873
0.0033135
-0.0128037
0.00388355
-0.0128246
0.00444058
-0.0128499
0.00498219
-0.0128794
0.00550614
-0.0129129
0.00601028
-0.0129503
-0.0129919
-0.00312131
-0.0133479
0.00352659
-0.00270509
-0.0133236
-0.00227888
-0.0133018
-0.00184374
-0.0132825
-0.00140079
-0.013266
-0.00095127
-0.0132524
-0.000496449
-0.0132417
-3.76797e-05
-0.0132341
0.00042364
-0.0132297
0.000886073
-0.0132285
0.00134816
-0.0132305
0.00180845
-0.0132358
0.00226547
-0.0132443
0.00271781
-0.013256
0.00316406
-0.0132709
0.0036029
-0.0132887
0.00403306
-0.0133096
0.00445332
-0.0133332
0.00486257
-0.0133595
-0.0133882
-0.00247088
-0.0136786
0.00280157
-0.00213243
-0.0136621
-0.00178688
-0.0136473
-0.00143497
-0.0136344
-0.00107751
-0.0136235
-0.00071537
-0.0136145
-0.000349474
-0.0136076
1.92082e-05
-0.0136028
0.000389671
-0.0136002
0.000760886
-0.0135997
0.00113181
-0.0136015
0.00150139
-0.0136054
0.00186859
-0.0136115
0.00223237
-0.0136198
0.00259175
-0.0136302
0.00294574
-0.0136427
0.00329343
-0.0136572
0.00363395
-0.0136737
0.00396649
-0.0136921
-0.0137126
-0.00195874
-0.0139552
0.00223532
-0.00167726
-0.0139436
-0.00139139
-0.0139332
-0.00110163
-0.0139242
-0.000808533
-0.0139166
-0.000512667
-0.0139104
-0.000214628
-0.0139056
8.49739e-05
-0.0139024
0.000385512
-0.0139007
0.00068635
-0.0139005
0.000986847
-0.013902
0.00128636
-0.0139049
0.00158426
-0.0139094
0.0018799
-0.0139155
0.00217269
-0.013923
0.00246201
-0.0139321
0.00274729
-0.0139425
0.00302797
-0.0139544
0.00330353
-0.0139676
-0.0139821
-0.00158468
-0.0141842
0.00181374
-0.00135208
-0.0141762
-0.0011163
-0.014169
-0.00087771
-0.0141628
-0.000636698
-0.0141576
-0.000393683
-0.0141534
-0.0001491
-0.0141502
9.66058e-05
-0.0141481
0.000342974
-0.0141471
0.00058954
-0.0141471
0.000835831
-0.0141482
0.00108138
-0.0141505
0.00132571
-0.0141538
0.00156836
-0.0141581
0.00180888
-0.0141635
0.00204683
-0.01417
0.00228178
-0.0141775
0.00251333
-0.0141859
0.00274108
-0.0141954
-0.0142059
-0.00128245
-0.0143761
0.00147431
-0.00108818
-0.0143704
-0.00089177
-0.0143654
-0.000693481
-0.0143611
-0.000493602
-0.0143575
-0.000292427
-0.0143546
-9.02584e-05
-0.0143524
0.000112596
-0.014351
0.000315823
-0.0143503
0.000519106
-0.0143504
0.000722126
-0.0143513
0.000924567
-0.0143529
0.00112611
-0.0143553
0.00132644
-0.0143585
0.00152526
-0.0143624
0.00172225
-0.014367
0.00191713
-0.0143724
0.00210961
-0.0143784
0.0022994
-0.0143852
-0.0143926
-0.00104338
-0.0145349
0.00120218
-0.000882799
-0.014531
-0.000720646
-0.0145276
-0.000557116
-0.0145246
-0.00039242
-0.0145222
-0.000226777
-0.0145202
-6.04108e-05
-0.0145187
0.00010645
-0.0145178
0.000273572
-0.0145174
0.00044072
-0.0145175
0.000607656
-0.0145182
0.000774143
-0.0145194
0.000939944
-0.0145211
0.00110483
-0.0145233
0.00126856
-0.0145261
0.00143091
-0.0145294
0.00159167
-0.0145331
0.00175062
-0.0145374
0.00190756
-0.0145421
-0.0145474
-0.000843022
-0.0146661
0.000974248
-0.000710531
-0.0146635
-0.000576922
-0.0146612
-0.000442348
-0.0146592
-0.000306964
-0.0146575
-0.000170931
-0.0146562
-3.44108e-05
-0.0146553
0.000102429
-0.0146547
0.000239421
-0.0146544
0.000376396
-0.0146545
0.000513183
-0.014655
0.000649614
-0.0146558
0.000785518
-0.014657
0.000920728
-0.0146585
0.00105508
-0.0146604
0.0011884
-0.0146627
0.00132055
-0.0146653
0.00145135
-0.0146682
0.00158065
-0.0146714
-0.014675
-0.000674274
-0.0147723
0.000780486
-0.000567129
-0.0147706
-0.000459162
-0.0147691
-0.000350483
-0.0147679
-0.000241211
-0.0147668
-0.000131463
-0.014766
-2.13614e-05
-0.0147654
8.89703e-05
-0.014765
0.000199407
-0.0147648
0.000309822
-0.0147649
0.00042009
-0.0147653
0.000530083
-0.0147658
0.000639674
-0.0147666
0.00074874
-0.0147676
0.000857156
-0.0147689
0.000964799
-0.0147703
0.00107155
-0.014772
0.0011773
-0.0147739
0.00128192
-0.014776
-0.0147784
-0.000526667
-0.0148565
0.000610838
-0.000441826
-0.0148555
-0.000356396
-0.0148546
-0.000270462
-0.0148538
-0.000184109
-0.0148532
-9.74252e-05
-0.0148527
-1.04985e-05
-0.0148523
7.65808e-05
-0.0148521
0.000163722
-0.014852
0.000250834
-0.014852
0.000337824
-0.0148522
0.000424601
-0.0148526
0.000511075
-0.0148531
0.000597153
-0.0148537
0.000682747
-0.0148544
0.000767767
-0.0148553
0.000852126
-0.0148564
0.000935737
-0.0148575
0.00101852
-0.0148588
-0.0148603
-0.000395359
-0.0149201
0.000458995
-0.000331247
-0.0149196
-0.000266717
-0.0149191
-0.000201829
-0.0149187
-0.000136645
-0.0149183
-7.12268e-05
-0.0149181
-5.63805e-06
-0.0149179
6.00569e-05
-0.0149178
0.000125793
-0.0149177
0.000191505
-0.0149178
0.000257128
-0.0149179
0.000322597
-0.0149181
0.000387845
-0.0149183
0.000452808
-0.0149187
0.000517422
-0.0149191
0.000581622
-0.0149195
0.000645346
-0.0149201
0.000708532
-0.0149207
0.00077112
-0.0149214
-0.0149222
-0.000275014
-0.0149648
0.000319667
-0.000230044
-0.0149646
-0.000184799
-0.0149643
-0.000139319
-0.0149642
-9.36445e-05
-0.014964
-4.78185e-05
-0.0149639
-1.88351e-06
-0.0149638
4.41172e-05
-0.0149638
9.01402e-05
-0.0149637
0.000136142
-0.0149638
0.000182078
-0.0149638
0.000227905
-0.0149639
0.000273579
-0.014964
0.000319056
-0.0149641
0.000364294
-0.0149643
0.000409247
-0.0149645
0.000453873
-0.0149647
0.000498127
-0.014965
0.000541963
-0.0149653
-0.0149655
-0.000162234
-0.0149912
0.000188629
-0.000135658
-0.0149911
-0.000108924
-0.0149911
-8.20551e-05
-0.014991
-5.50756e-05
-0.014991
-2.80101e-05
-0.014991
-8.8353e-07
-0.0149909
2.62789e-05
-0.0149909
5.34518e-05
-0.0149909
8.06095e-05
-0.0149909
0.000107726
-0.0149909
0.000134777
-0.0149909
0.000161736
-0.0149909
0.000188578
-0.014991
0.000215278
-0.014991
0.00024181
-0.014991
0.000268151
-0.0149911
0.000294274
-0.0149911
0.000320151
-0.0149911
-0.0149912
-5.37054e-05
6.25074e-05
-4.4842e-05
-3.59262e-05
-2.69645e-05
-1.7964e-05
-8.93232e-06
1.23263e-07
9.19535e-06
1.82767e-05
2.73602e-05
3.6439e-05
4.55067e-05
5.45572e-05
6.35851e-05
7.2586e-05
8.15562e-05
9.04934e-05
9.93973e-05
0.00010827
-0.0270553
-0.0141577
0.0150306
0.0261823
-0.0280331
-0.0140734
0.0150513
-0.0291621
-0.0139752
0.0151042
-0.0304575
-0.0138758
0.0151712
-0.0319293
-0.0137778
0.0152495
-0.0335793
-0.0136834
0.0153334
-0.0353989
-0.0135936
0.0154132
-0.037366
-0.0135078
0.0154749
-0.0394435
-0.0134226
0.0155001
-0.041578
-0.0133313
0.0154659
-0.0437008
-0.0132234
0.0153461
-0.0457289
-0.0130837
0.0151118
-0.0475684
-0.0128931
0.0147326
-0.0491182
-0.0126282
0.014178
-0.0502725
-0.0122627
0.013417
-0.0509212
-0.0117685
0.0124171
-0.0509434
-0.0111183
0.0111405
-0.0501949
-0.0102874
0.00953893
-0.0484953
-0.00924617
0.00754653
-0.00795521
0.00499312
-0.0199948
-0.0139902
0.0198273
-0.0201784
-0.0138898
-0.0203728
-0.0137808
-0.0205919
-0.0136567
-0.0208526
-0.0135171
-0.0211744
-0.0133615
-0.0215781
-0.0131899
-0.022083
-0.0130029
-0.022704
-0.0128016
-0.0234483
-0.0125871
-0.0243113
-0.0123604
-0.0252733
-0.0121216
-0.0262966
-0.0118698
-0.0273231
-0.0116017
-0.0282734
-0.0113124
-0.0290465
-0.0109954
-0.0295217
-0.0106431
-0.0295617
-0.0102474
-0.0290046
-0.00980328
-0.00932049
-0.0209833
-0.0137284
0.0207215
-0.0212295
-0.0136436
-0.0214601
-0.0135501
-0.0216667
-0.0134501
-0.0218414
-0.0133424
-0.0219773
-0.0132256
-0.0220688
-0.0130983
-0.0221128
-0.012959
-0.0221081
-0.0128062
-0.0220562
-0.012639
-0.02196
-0.0124566
-0.0218225
-0.0122591
-0.0216453
-0.0120469
-0.0214256
-0.0118214
-0.0211536
-0.0115844
-0.0208108
-0.0113382
-0.0203684
-0.0110855
-0.0197865
-0.0108293
-0.0190161
-0.0105736
-0.0103233
-0.0159721
-0.013657
0.0159007
-0.0160492
-0.0135665
-0.0161275
-0.0134718
-0.016205
-0.0133726
-0.0162783
-0.0132691
-0.0163426
-0.0131614
-0.0163913
-0.0130496
-0.0164165
-0.0129338
-0.0164087
-0.012814
-0.0163576
-0.0126901
-0.0162524
-0.0125618
-0.0160825
-0.012429
-0.0158381
-0.0122913
-0.0155108
-0.0121488
-0.0150937
-0.0120015
-0.0145818
-0.01185
-0.0139721
-0.0116952
-0.0132629
-0.0115385
-0.0124546
-0.0113819
-0.011228
-0.014531
-0.0137167
0.0145907
-0.0144516
-0.0136459
-0.0143526
-0.0135709
-0.014233
-0.0134922
-0.0140922
-0.0134099
-0.0139296
-0.0133239
-0.0137448
-0.0132344
-0.0135372
-0.0131414
-0.0133062
-0.0130451
-0.0130503
-0.012946
-0.0127678
-0.0128443
-0.0124561
-0.0127407
-0.0121117
-0.0126357
-0.0117305
-0.01253
-0.0113077
-0.0124243
-0.0108383
-0.0123194
-0.0103174
-0.0122161
-0.00974064
-0.0121152
-0.00910499
-0.0120176
-0.0119241
-0.0118709
-0.013795
0.0119491
-0.0117817
-0.0137351
-0.0116793
-0.0136732
-0.0115615
-0.01361
-0.011426
-0.0135454
-0.0112704
-0.0134795
-0.0110923
-0.0134124
-0.0108895
-0.0133442
-0.0106598
-0.0132749
-0.010401
-0.0132047
-0.0101115
-0.0131338
-0.0097899
-0.0130623
-0.00943505
-0.0129905
-0.00904631
-0.0129187
-0.00862335
-0.0128473
-0.00816619
-0.0127766
-0.00767518
-0.0127071
-0.00715096
-0.0126395
-0.00659443
-0.0125741
-0.0125117
-0.0101996
-0.0139321
0.0103367
-0.0100499
-0.0138847
-0.00988708
-0.0138361
-0.00971081
-0.0137863
-0.00952073
-0.0137355
-0.00931641
-0.0136838
-0.00909739
-0.0136314
-0.00886312
-0.0135784
-0.00861296
-0.013525
-0.00834622
-0.0134715
-0.0080621
-0.0134179
-0.0077598
-0.0133646
-0.00743846
-0.0133119
-0.00709728
-0.0132599
-0.00673552
-0.0132091
-0.00635258
-0.0131595
-0.00594805
-0.0131117
-0.00552174
-0.0130658
-0.00507378
-0.0130221
-0.0129809
-0.00857844
-0.0140659
0.00871223
-0.00843432
-0.0140289
-0.00827931
-0.0139911
-0.00811269
-0.0139529
-0.00793376
-0.0139144
-0.00774187
-0.0138757
-0.00753642
-0.0138369
-0.0073169
-0.013798
-0.00708286
-0.0137591
-0.00683397
-0.0137204
-0.00656997
-0.0136819
-0.00629073
-0.0136439
-0.00599622
-0.0136064
-0.00568652
-0.0135696
-0.0053618
-0.0135338
-0.00502236
-0.013499
-0.00466858
-0.0134655
-0.00430096
-0.0134334
-0.00392007
-0.013403
-0.0133744
-0.00728323
-0.0142093
0.00742666
-0.00713166
-0.0141804
-0.0069715
-0.0141512
-0.00680257
-0.0141218
-0.00662472
-0.0140923
-0.00643778
-0.0140627
-0.00624157
-0.0140331
-0.00603594
-0.0140036
-0.00582072
-0.0139743
-0.00559576
-0.0139453
-0.00536093
-0.0139167
-0.00511613
-0.0138887
-0.00486128
-0.0138612
-0.00459636
-0.0138346
-0.00432139
-0.0138087
-0.00403646
-0.0137839
-0.00374174
-0.0137602
-0.00343745
-0.0137377
-0.00312393
-0.0137165
-0.0136968
-0.00617994
-0.0143426
0.00631316
-0.00603971
-0.0143206
-0.00589241
-0.0142985
-0.00573782
-0.0142764
-0.00557579
-0.0142543
-0.00540617
-0.0142323
-0.00522883
-0.0142104
-0.00504369
-0.0141887
-0.00485071
-0.0141673
-0.00464986
-0.0141462
-0.00444119
-0.0141254
-0.00422475
-0.0141051
-0.00400065
-0.0140853
-0.00376905
-0.0140662
-0.00353013
-0.0140477
-0.00328413
-0.0140299
-0.00303132
-0.014013
-0.00277201
-0.013997
-0.00250655
-0.013982
-0.013968
-0.0052288
-0.014468
0.00535427
-0.00509808
-0.0144514
-0.00496192
-0.0144347
-0.00482025
-0.0144181
-0.00467304
-0.0144015
-0.00452026
-0.0143851
-0.00436189
-0.0143688
-0.00419791
-0.0143527
-0.00402834
-0.0143369
-0.00385319
-0.0143213
-0.00367249
-0.0143061
-0.00348631
-0.0142913
-0.00329472
-0.0142769
-0.00309782
-0.0142631
-0.00289573
-0.0142497
-0.00268861
-0.014237
-0.00247663
-0.014225
-0.00225999
-0.0142136
-0.00203894
-0.014203
-0.0141932
-0.00442327
-0.0145803
0.00453558
-0.00430653
-0.0145681
-0.00418538
-0.0145558
-0.00405979
-0.0145437
-0.00392974
-0.0145316
-0.00379521
-0.0145196
-0.00365622
-0.0145078
-0.00351278
-0.0144961
-0.00336493
-0.0144847
-0.00321271
-0.0144735
-0.00305619
-0.0144626
-0.00289547
-0.014452
-0.00273064
-0.0144418
-0.00256183
-0.0144319
-0.00238918
-0.0144224
-0.00221283
-0.0144134
-0.00203298
-0.0144048
-0.0018498
-0.0143968
-0.0016635
-0.0143893
-0.0143824
-0.00370592
-0.01468
0.00380557
-0.00360295
-0.0146711
-0.00349658
-0.0146622
-0.00338682
-0.0146534
-0.00327367
-0.0146447
-0.00315715
-0.0146361
-0.00303729
-0.0146277
-0.0029141
-0.0146193
-0.00278764
-0.0146112
-0.00265796
-0.0146032
-0.0025251
-0.0145955
-0.00238915
-0.014588
-0.00225019
-0.0145807
-0.0021083
-0.0145738
-0.00196359
-0.0145671
-0.00181618
-0.0145608
-0.00166618
-0.0145548
-0.00151375
-0.0145492
-0.00135903
-0.014544
-0.0145393
-0.0030814
-0.0147658
0.0031672
-0.00299286
-0.0147596
-0.00290164
-0.0147534
-0.00280773
-0.0147473
-0.00271114
-0.0147413
-0.00261191
-0.0147354
-0.00251005
-0.0147295
-0.0024056
-0.0147238
-0.00229861
-0.0147182
-0.00218913
-0.0147127
-0.00207721
-0.0147074
-0.00196293
-0.0147022
-0.00184636
-0.0146973
-0.00172758
-0.0146925
-0.00160668
-0.014688
-0.00148377
-0.0146837
-0.00135896
-0.0146796
-0.00123235
-0.0146758
-0.00110407
-0.0146723
-0.0146691
-0.00251157
-0.0148381
0.00258383
-0.00243727
-0.0148339
-0.00236092
-0.0148298
-0.00228252
-0.0148257
-0.0022021
-0.0148217
-0.00211968
-0.0148178
-0.00203528
-0.0148139
-0.00194894
-0.0148101
-0.0018607
-0.0148064
-0.0017706
-0.0148028
-0.00167868
-0.0147993
-0.00158501
-0.0147959
-0.00148963
-0.0147927
-0.00139262
-0.0147896
-0.00129405
-0.0147866
-0.00119398
-0.0147838
-0.0010925
-0.0147811
-0.000989697
-0.0147786
-0.00088566
-0.0147764
-0.0147742
-0.00199741
-0.0148967
0.00205608
-0.00193713
-0.0148942
-0.00187528
-0.0148916
-0.00181187
-0.0148891
-0.00174691
-0.0148867
-0.00168043
-0.0148843
-0.00161245
-0.0148819
-0.00154301
-0.0148796
-0.00147212
-0.0148773
-0.00139984
-0.0148751
-0.0013262
-0.0148729
-0.00125124
-0.0148709
-0.00117502
-0.0148689
-0.00109758
-0.014867
-0.00101898
-0.0148652
-0.000939289
-0.0148635
-0.000858558
-0.0148619
-0.000776859
-0.0148603
-0.000694261
-0.0148589
-0.0148577
-0.00151605
-0.0149421
0.0015614
-0.00146956
-0.0149407
-0.00142192
-0.0149393
-0.00137315
-0.0149379
-0.00132327
-0.0149366
-0.00127228
-0.0149352
-0.00122022
-0.014934
-0.0011671
-0.0149327
-0.00111295
-0.0149314
-0.0010578
-0.0149302
-0.00100167
-0.0149291
-0.000944607
-0.0149279
-0.000886635
-0.0149269
-0.000827796
-0.0149258
-0.00076813
-0.0149248
-0.000707681
-0.0149239
-0.000646493
-0.014923
-0.000584616
-0.0149222
-0.000522099
-0.0149215
-0.0149208
-0.00106527
-0.0149742
0.00109741
-0.00103229
-0.0149736
-0.00099852
-0.0149731
-0.000963963
-0.0149725
-0.000928636
-0.0149719
-0.000892554
-0.0149713
-0.000855731
-0.0149708
-0.000818186
-0.0149702
-0.000779936
-0.0149697
-0.000741002
-0.0149692
-0.000701406
-0.0149687
-0.000661171
-0.0149682
-0.000620322
-0.0149677
-0.000578886
-0.0149673
-0.000536893
-0.0149668
-0.000494371
-0.0149664
-0.000451354
-0.0149661
-0.000407874
-0.0149657
-0.000363966
-0.0149654
-0.0149651
-0.000630703
-0.0149934
0.000649907
-0.000611078
-0.0149933
-0.000590985
-0.0149931
-0.000570434
-0.014993
-0.000549435
-0.0149929
-0.000527996
-0.0149928
-0.000506128
-0.0149926
-0.00048384
-0.0149925
-0.000461143
-0.0149924
-0.00043805
-0.0149923
-0.000414574
-0.0149921
-0.000390728
-0.014992
-0.000366527
-0.0149919
-0.000341987
-0.0149918
-0.000317125
-0.0149917
-0.000291958
-0.0149916
-0.000266506
-0.0149915
-0.000240786
-0.0149914
-0.000214821
-0.0149913
-0.0149913
-0.000210875
0.000217443
-0.000204143
-0.000197291
-0.000190316
-0.000183213
-0.000175983
-0.000168624
-0.000161137
-0.000153525
-0.000145789
-0.000137932
-0.000129958
-0.00012187
-0.000113673
-0.000105372
-9.6973e-05
-8.84806e-05
-7.99011e-05
-7.12409e-05
-0.00966927
-0.0026329
0.0123022
-0.00756181
-0.00210746
-0.00586318
-0.00169862
-0.00449063
-0.00137255
-0.00338307
-0.00110756
-0.00249329
-0.000889781
-0.00178393
-0.000709355
-0.00122492
-0.000559017
-0.000791613
-0.000433304
-0.000463568
-0.000328045
-0.000223543
-0.000240025
-5.67789e-05
-0.000166764
4.96096e-05
-0.000106388
0.000107183
-5.75729e-05
0.000126829
-1.96465e-05
0.00011822
8.60874e-06
8.97282e-05
2.84921e-05
5.24697e-05
3.72585e-05
1.7953e-05
3.45167e-05
1.79529e-05
-0.00941376
-0.00369851
0.0104794
-0.00830677
-0.00321446
-0.007221
-0.00278439
-0.00619291
-0.00240063
-0.00524239
-0.00205809
-0.00437962
-0.00175254
-0.0036086
-0.00148038
-0.00292921
-0.00123841
-0.00233865
-0.00102386
-0.00183237
-0.000834318
-0.0014047
-0.000667698
-0.00104924
-0.000522223
-0.000759233
-0.000396396
-0.000527814
-0.000288992
-0.000348411
-0.00019905
-0.000213953
-0.00012585
-0.00011653
-6.89308e-05
-5.11909e-05
-2.80804e-05
-1.37541e-05
-2.92027e-06
4.19876e-06
-0.00795125
-0.0044751
0.00872783
-0.00714809
-0.00401762
-0.00634723
-0.00358525
-0.00556832
-0.00317954
-0.00482573
-0.00280068
-0.00412965
-0.00244863
-0.00348692
-0.00212311
-0.00290169
-0.00182364
-0.00237594
-0.00154961
-0.00190996
-0.0013003
-0.00150271
-0.00107495
-0.00115214
-0.000872789
-0.000855485
-0.000693055
-0.000609461
-0.000535016
-0.000410517
-0.000397994
-0.000254993
-0.000281374
-0.000139304
-0.00018462
-6.01095e-05
-0.000107275
-1.40435e-05
-4.89864e-05
-9.84474e-06
-0.00689671
-0.00520044
0.00762205
-0.00618852
-0.00472581
-0.00550367
-0.0042701
-0.00484835
-0.00383486
-0.00422769
-0.00342134
-0.00364582
-0.00303051
-0.00310586
-0.00266306
-0.00261003
-0.00231947
-0.00215966
-0.00199998
-0.00175531
-0.00170466
-0.00139682
-0.00143344
-0.00108346
-0.00118614
-0.000814022
-0.000962493
-0.000586899
-0.000762139
-0.000400206
-0.000584687
-0.000251871
-0.000429708
-0.000139734
-0.000296757
-6.16231e-05
-0.000185386
-1.54575e-05
-9.5152e-05
-2.53022e-05
-0.00664874
-0.00594063
0.00738894
-0.00593769
-0.00543686
-0.00525975
-0.00494805
-0.00461818
-0.00447643
-0.00401575
-0.00402376
-0.00345469
-0.00359157
-0.00293663
-0.00318112
-0.00246265
-0.00279345
-0.00203329
-0.00242934
-0.00164857
-0.00208938
-0.00130803
-0.00177398
-0.00101081
-0.00148336
-0.000755716
-0.00121759
-0.000541232
-0.000976622
-0.000365628
-0.000760291
-0.000226992
-0.000568344
-0.000123288
-0.000400462
-5.24007e-05
-0.000256273
-1.21807e-05
-0.000135372
-3.74829e-05
-0.0067549
-0.00670855
0.00752282
-0.00602077
-0.00617098
-0.00532343
-0.00564539
-0.00466567
-0.00513418
-0.00404986
-0.00463957
-0.00347787
-0.00416356