/*--------------------------------*- C++ -*----------------------------------*\
| =========                 |                                                 |
| \\      /  F ield         | OpenFOAM: The Open Source CFD Toolbox           |
|  \\    /   O peration     | Version:  v1806                                 |
|   \\  /    A nd           | Web:      www.OpenFOAM.com                      |
|    \\/     M anipulation  |                                                 |
\*---------------------------------------------------------------------------*/
FoamFile
{
    version     2.0;
    format      ascii;
    class       surfaceScalarField;
    location    "260";
    object      phi;
}
// * * * * * * * * * * * * * * * * * * * * * * * * * * * * * * * * * * * * * //

dimensions      [0 3 -1 0 0 0 0];
oriented        oriented;


internalField   nonuniform List<scalar> 
4680
(
0.0750003
-0.000229286
0.0750013
-0.000687675
0.0750032
-0.001145
0.0750063
-0.00159991
0.0750108
-0.00205115
0.0750171
-0.00249723
0.0750258
-0.00293631
0.0750374
-0.00336619
0.0750524
-0.00378424
0.0750717
-0.00418737
0.075096
-0.00457205
0.0751259
-0.00493433
0.0751623
-0.00526988
0.0752057
-0.00557415
0.0752568
-0.00584242
0.0753159
-0.00607009
0.0753832
-0.00625274
0.0754583
-0.00638655
0.0755409
-0.00646827
-0.00649676
0.0756322
0.0750008
-0.000230066
0.0750032
-0.000690061
0.0750073
-0.00114914
0.0750136
-0.00160617
0.0750224
-0.00206002
0.0750346
-0.00250935
0.0750507
-0.00295246
0.0750718
-0.00338726
0.0750987
-0.00381119
0.0751326
-0.00422123
0.0751744
-0.00461386
0.0752251
-0.00498508
0.0752857
-0.00533045
0.0753568
-0.00564522
0.0754388
-0.00592438
0.0755316
-0.00616298
0.075635
-0.00635614
0.0757481
-0.00649964
0.0758697
-0.0065898
-0.00662438
0.0759973
0.0750012
-0.000231271
0.0750049
-0.000693711
0.0750112
-0.00115547
0.0750207
-0.00161569
0.0750342
-0.0020735
0.0750526
-0.00252773
0.075077
-0.00297688
0.0751087
-0.00341902
0.0751493
-0.00385171
0.0752
-0.00427201
0.0752626
-0.00467638
0.0753382
-0.00506072
0.0754281
-0.00542039
0.0755332
-0.00575029
0.0756538
-0.00604495
0.0757896
-0.00629882
0.0759398
-0.00650634
0.0761027
-0.00666256
0.0762758
-0.00676291
-0.0068044
0.0764559
0.0750015
-0.000232786
0.0750061
-0.00069831
0.0750141
-0.00116348
0.0750263
-0.00162783
0.0750435
-0.00209077
0.0750672
-0.00255144
0.0750989
-0.00300858
0.0751404
-0.0034605
0.0751936
-0.00390492
0.0752606
-0.004339
0.0753434
-0.00475918
0.0754439
-0.00516125
0.0755638
-0.00554025
0.0757041
-0.00589063
0.0758654
-0.00620623
0.0760473
-0.00648068
0.0762483
-0.00670739
0.0764661
-0.00688036
0.0766971
-0.00699382
-0.007044
0.0769367
0.0750017
-0.000234462
0.0750068
-0.000703408
0.0750157
-0.00117242
0.0750294
-0.00164153
0.0750492
-0.00211053
0.0750767
-0.00257894
0.0751139
-0.00304583
0.0751632
-0.00350982
0.0752272
-0.00396888
0.0753085
-0.00442032
0.0754099
-0.00486059
0.075534
-0.00528535
0.075683
-0.00568926
0.0758586
-0.00606618
0.0760615
-0.00640908
0.0762912
-0.00671047
0.0765462
-0.00696235
0.0768231
-0.00715725
0.0771171
-0.00728779
-0.00734896
0.077422
0.0750016
-0.000236101
0.0750066
-0.000708418
0.0750155
-0.00118132
0.0750295
-0.00165544
0.07505
-0.00213106
0.0750792
-0.00260817
0.0751197
-0.00308627
0.0751743
-0.00356442
0.0752463
-0.00404088
0.0753392
-0.00451327
0.0754567
-0.00497807
0.0756022
-0.00543088
0.0757789
-0.0058659
0.075989
-0.00627636
0.076234
-0.00665405
0.0765137
-0.00699012
0.076826
-0.00727463
0.0771669
-0.00749818
0.0775301
-0.00765103
-0.00772643
0.0779076
0.0750014
-0.000237463
0.0750056
-0.000712612
0.0750132
-0.00118897
0.0750257
-0.00166789
0.0750448
-0.00215021
0.0750732
-0.00263653
0.0751138
-0.00312689
0.0751703
-0.00362094
0.0752468
-0.00411735
0.0753477
-0.00461423
0.0754778
-0.00510813
0.0756417
-0.00559479
0.0758437
-0.00606785
0.0760873
-0.00651998
0.0763747
-0.00694145
0.0767063
-0.00732175
0.0770801
-0.00764841
0.0774913
-0.00790937
0.0779319
-0.00809164
-0.00818593
0.0783914
0.0750008
-0.000238258
0.0750033
-0.000715123
0.0750083
-0.00119393
0.0750172
-0.00167684
0.0750324
-0.00216537
0.0750567
-0.00266085
0.0750938
-0.00316396
0.075148
-0.0036752
0.0752244
-0.0041937
0.0753286
-0.00471845
0.0754665
-0.00524602
0.0756445
-0.00577282
0.0758683
-0.00629162
0.0761433
-0.00679498
0.0764728
-0.00727101
0.0768587
-0.00770758
0.0772989
-0.00808863
0.0777882
-0.00839866
0.0783167
-0.00862017
-0.00874003
0.0788708
0.0749999
-0.000238155
0.0749997
-0.000714955
0.0750003
-0.00119452
0.0750034
-0.00167994
0.0750115
-0.00217344
0.075028
-0.00267733
0.075057
-0.00319295
0.0751038
-0.003722
0.0751742
-0.00426412
0.0752755
-0.00481978
0.0754149
-0.00538541
0.0756012
-0.00595907
0.0758415
-0.00653197
0.0761445
-0.00709793
0.0765148
-0.00764137
0.0769569
-0.00814965
0.0774692
-0.00860094
0.0780465
-0.00897592
0.0786767
-0.00925041
-0.00940549
0.0793422
0.0749986
-0.00023678
0.0749947
-0.000710989
0.074989
-0.00118887
0.0749836
-0.0016745
0.074981
-0.0021709
0.0749852
-0.00268152
0.0750007
-0.00320846
0.0750338
-0.00375505
0.075091
-0.00432139
0.0751817
-0.0049104
0.0753141
-0.00551787
0.0755005
-0.00614548
0.0757497
-0.00678116
0.0760752
-0.00742341
0.076483
-0.00804913
0.0769828
-0.00864947
0.0775731
-0.00919126
0.0782506
-0.00965345
0.0790007
-0.0100005
-0.0102047
0.0797999
0.074997
-0.000233733
0.074988
-0.000702017
0.074974
-0.00117492
0.0749571
-0.00165757
0.07494
-0.00215379
0.0749268
-0.00266839
0.0749226
-0.00320423
0.0749344
-0.00376687
0.0749697
-0.00435667
0.0750398
-0.0049805
0.0751543
-0.00563234
0.07533
-0.00632116
0.0755766
-0.0070278
0.0759163
-0.00776311
0.0763543
-0.00848715
0.0769125
-0.0092076
0.0775856
-0.00986442
0.0783792
-0.010447
0.0792729
-0.0108942
-0.0111684
0.0802366
0.0749949
-0.000228598
0.0749796
-0.000686782
0.0749552
-0.00115052
0.0749237
-0.001626
0.0748877
-0.00211785
0.0748517
-0.00263238
0.0748207
-0.00317323
0.0748027
-0.0037488
0.0748054
-0.00435941
0.0748428
-0.00501787
0.0749251
-0.00571462
0.0750754
-0.00647149
0.0753031
-0.00725549
0.0756445
-0.00810458
0.0760994
-0.00894204
0.0767151
-0.0098233
0.0774715
-0.0106208
0.0784022
-0.0113777
0.0794693
-0.0119612
-0.0123401
0.080641
0.0749924
-0.000220966
0.0749696
-0.000664043
0.0749327
-0.00111355
0.0748833
-0.00157664
0.0748242
-0.00205871
0.0747594
-0.00256765
0.0746941
-0.00310786
0.0746363
-0.00369107
0.0745944
-0.00431745
0.0745842
-0.00500766
0.0746165
-0.00574694
0.0747219
-0.00657693
0.0749078
-0.00744137
0.0752321
-0.00842886
0.0756805
-0.00939046
0.0763512
-0.010494
0.0771802
-0.0114498
0.0782808
-0.0124783
0.0795514
-0.0132318
-0.0137849
0.0809961
0.0749895
-0.000210466
0.0749581
-0.000632665
0.0749066
-0.00106203
0.0748364
-0.00150649
0.0747499
-0.00197215
0.0746506
-0.00246833
0.074543
-0.00300032
0.0744352
-0.00358321
0.0743351
-0.00421734
0.0742597
-0.00493229
0.0742205
-0.00570777
0.074255
-0.00661139
0.0743688
-0.00755517
0.074646
-0.00870608
0.075051
-0.00979547
0.0757675
-0.0112105
0.0766374
-0.0123197
0.0779665
-0.0138075
0.0794523
-0.0147176
-0.0156118
0.0812791
0.0749863
-0.000196796
0.0749454
-0.000591726
0.0748777
-0.000994319
0.0747842
-0.00141299
0.0746665
-0.00185446
0.0745272
-0.00232906
0.0743701
-0.00284317
0.0742015
-0.00341464
0.0740292
-0.004045
0.0738688
-0.00477193
0.0737334
-0.00557237
0.0736625
-0.00654053
0.0736663
-0.00755892
0.0738486
-0.00888835
0.0741593
-0.0101062
0.0748872
-0.0119383
0.0757366
-0.0131692
0.0773879
-0.0154587
0.0790464
-0.0163761
-0.0180611
0.0814957
0.074983
-0.000179765
0.0749319
-0.000540631
0.0748469
-0.00090933
0.0747283
-0.00129437
0.0745767
-0.00170285
0.0743932
-0.0021456
0.0741801
-0.0026301
0.0739413
-0.00317583
0.0736831
-0.00378682
0.0734172
-0.00450598
0.0731583
-0.00531348
0.0729401
-0.00632237
0.0727863
-0.00740514
0.0727997
-0.00890175
0.0729564
-0.0102628
0.0736
-0.012582
0.0743497
-0.0139189
0.0763845
-0.0174935
0.0780902
-0.0180817
-0.0217722
0.0818013
0.0749796
-0.00015933
0.0749182
-0.000479235
0.0748156
-0.000806713
0.0746711
-0.00114992
0.0744843
-0.00151601
0.0742542
-0.00191556
0.0739811
-0.00235694
0.073665
-0.00285978
0.0733096
-0.00343138
0.0729195
-0.0041159
0.0725091
-0.00490303
0.072098
-0.00591127
0.0717272
-0.00703441
0.0714677
-0.0086422
0.0713904
-0.0101855
0.0717627
-0.0129544
0.072376
-0.0145322
0.0746064
-0.0197239
0.0761878
-0.0196631
-0.0281066
0.0825221
0.0749763
-0.000135642
0.074905
-0.000407933
0.0747854
-0.00068706
0.0746158
-0.000980367
0.0743944
-0.00129457
0.074118
-0.00163916
0.0737839
-0.00202285
0.0733878
-0.00246375
0.0729285
-0.00297206
0.0724017
-0.00358909
0.0718153
-0.00431664
0.0711702
-0.0052661
0.0705116
-0.0063758
0.0698625
-0.00799317
0.0693924
-0.00971543
0.0692211
-0.012783
0.0696836
-0.0149947
0.0715557
-0.021596
0.0733471
-0.0214545
-0.0381306
0.0833712
0.0749735
-0.000109099
0.0748932
-0.000327704
0.0747582
-0.00055202
0.0745659
-0.000788036
0.0743128
-0.0010415
0.0739934
-0.00131978
0.073602
-0.00163144
0.0731292
-0.00199095
0.0725675
-0.00241036
0.0719018
-0.00292336
0.0711276
-0.00354242
0.070222
-0.00436057
0.0692099
-0.00536368
0.0680627
-0.006846
0.0669586
-0.00861132
0.0658906
-0.0117149
0.0657724
-0.0148765
0.0664045
-0.0222281
0.0706044
-0.0256544
-0.0485654
0.0810391
0.0749713
-8.03885e-05
0.0748835
-0.000239952
0.0747359
-0.000404357
0.0745248
-0.000576943
0.0742453
-0.000762058
0.0738897
-0.000964168
0.0734495
-0.00119123
0.0729102
-0.00145162
0.0722581
-0.00175831
0.0714664
-0.00213161
0.0705155
-0.00259155
0.069354
-0.00319903
0.0679653
-0.00397502
0.0662498
-0.00513045
0.0642735
-0.00663501
0.0618666
-0.0093081
0.0597688
-0.0127787
0.0581772
-0.0206364
0.0639895
-0.0314667
0.0666736
-0.0512494
0.0757086
-0.00517746
0.0757873
-0.00513163
0.0758687
-0.00505867
0.0759518
-0.00495977
0.0760356
-0.00483527
0.0761196
-0.00468934
0.0762029
-0.0045196
0.0762855
-0.0043366
0.0763668
-0.00412793
-0.00392051
0.0764418
0.0761024
-0.00528259
0.0762092
-0.00523838
0.076316
-0.00516548
0.0764218
-0.00506556
0.0765252
-0.00493868
0.0766254
-0.00478952
0.076721
-0.0046152
0.0768119
-0.00442751
0.0768956
-0.00421168
-0.00400146
0.0769766
0.0766025
-0.00542925
0.0767494
-0.00538531
0.0768944
-0.00531043
0.0770356
-0.00520672
0.077171
-0.00507408
0.0772994
-0.00491792
0.0774189
-0.00473469
0.0775295
-0.00453816
0.0776289
-0.00431107
-0.00409257
0.07772
0.0771307
-0.00562331
0.0773239
-0.00557849
0.0775132
-0.00549974
0.077696
-0.00538953
0.0778696
-0.00524766
0.0780323
-0.0050806
0.0781816
-0.00488397
0.0783177
-0.00467434
0.0784373
-0.00443066
-0.00419981
0.0785446
0.0776685
-0.00586975
0.0779131
-0.00582309
0.0781517
-0.00573842
0.0783809
-0.00561869
0.0785969
-0.00546366
0.0787976
-0.00528132
0.0789798
-0.0050662
0.0791441
-0.00483864
0.079286
-0.00457257
-0.00432546
0.0794117
0.0782125
-0.00617469
0.0785147
-0.00612521
0.0788084
-0.00603217
0.079089
-0.00589931
0.0793517
-0.00572636
0.0795939
-0.00552343
0.0798115
-0.00528381
0.0800055
-0.0050327
0.0801706
-0.00473768
-0.0044698
0.080315
0.0787628
-0.00654617
0.0791304
-0.00649273
0.0794865
-0.00638832
0.0798249
-0.00623768
0.0801393
-0.0060408
0.0804266
-0.00581067
0.0806819
-0.00553915
0.080907
-0.00525777
0.0810953
-0.00492605
-0.00463216
0.0812577
0.0793195
-0.00699485
0.0797629
-0.00693617
0.080191
-0.0068164
0.0805951
-0.0066418
0.0809674
-0.00641306
0.0813039
-0.0061472
0.0815994
-0.0058346
0.0818562
-0.00551464
0.0820672
-0.00513704
-0.00481093
0.082246
0.0798825
-0.00753516
0.0804159
-0.00746965
0.0809285
-0.00732901
0.0814085
-0.00712174
0.0818458
-0.00685041
0.0822363
-0.00653761
0.082574
-0.00617231
0.0828627
-0.00580341
0.0830947
-0.00536896
-0.0050031
0.0832868
0.0804516
-0.00818681
0.0810945
-0.00811252
0.0817082
-0.00794276
0.0822766
-0.00769009
0.0827875
-0.00736131
0.0832365
-0.00698666
0.0836181
-0.00655389
0.0839376
-0.00612294
0.0841872
-0.00561855
-0.00520368
0.0843878
0.0810275
-0.00897774
0.0818067
-0.00889171
0.0825434
-0.00867947
0.0832154
-0.00836208
0.0838092
-0.00795516
0.0843213
-0.00749875
0.0847471
-0.0069797
0.0850941
-0.00646992
0.0853556
-0.00587998
-0.00540432
0.0855562
0.0816134
-0.00995008
0.0825672
-0.00984553
0.0834549
-0.00956713
0.0842481
-0.00915536
0.0849347
-0.00864171
0.0855127
-0.00807678
0.0859801
-0.00744714
0.0863467
-0.00683644
0.0866089
-0.0061422
-0.00558992
0.0867945
0.0822186
-0.0111725
0.0834022
-0.0110292
0.084476
-0.0106409
0.08541
-0.0100893
0.0861972
-0.0094289
0.086838
-0.00871762
0.0873351
-0.00794419
0.0877002
-0.00720156
0.0879378
-0.00637979
-0.00572815
0.088076
0.0828668
-0.0127602
0.0843577
-0.0125201
0.0856595
-0.0119427
0.086751
-0.0111808
0.0876339
-0.0103118
0.08831
-0.00939378
0.088792
-0.00842615
0.0890955
-0.00750509
0.0892417
-0.00652595
-0.00574146
0.089255
0.0836267
-0.0148913
0.0855156
-0.0144089
0.0870729
-0.0135
0.0883007
-0.0124086
0.0892055
-0.0112166
0.0897988
-0.00998703
0.0901207
-0.00874804
0.0902008
-0.00758526
0.090092
-0.00641714
-0.00545615
0.0898067
0.0846813
-0.0177712
0.086975
-0.0167026
0.088677
-0.015202
0.0898154
-0.013547
0.090418
-0.0118193
0.0905575
-0.0101265
0.090347
-0.00853758
0.0898539
-0.00709218
0.0891721
-0.00573532
-0.0045762
0.0882921
0.0861915
-0.0214406
0.0884317
-0.0189428
0.0896196
-0.0163899
0.0898243
-0.0137517
0.0892472
-0.0112423
0.0881473
-0.00902656
0.0867378
-0.00712803
0.0851484
-0.00550283
0.0834976
-0.00408447
-0.00283385
0.0817552
0.0866473
-0.0247168
0.0872668
-0.0195623
0.0860618
-0.0151849
0.0835927
-0.0112826
0.0804862
-0.00813571
0.0772116
-0.005752
0.0740462
-0.00396262
0.0711447
-0.00260133
0.0685686
-0.00150837
-0.000491671
0.0662264
0.0790767
-0.0227544
0.0741598
-0.0146454
0.0677389
-0.00876404
0.0612025
-0.00474615
0.0554258
-0.00235904
0.0507051
-0.00103125
0.0470488
-0.000306303
0.0443325
0.000114917
0.0423663
0.000457821
0.000973235
0.0409014
0.0439192
0.0292738
0.0205098
0.0157636
0.0134046
0.0123733
0.012067
0.0121819
0.0126398
0.013613
0.0767491
-0.0149085
0.0769673
-0.00937767
0.0771399
-0.00468135
0.0772056
-0.000310176
0.077245
0.00253741
0.0772673
0.00431306
0.0772893
0.00534189
0.0773755
0.00535426
0.077427
0.00674557
0.0774943
0.00700114
0.0775052
0.00866215
0.0773854
0.00970084
0.0773255
0.00797876
0.0772316
0.00722822
0.0772844
0.0042613
0.0774791
0.00158563
0.0776237
0.00289906
0.0778791
0.0015779
0.0779192
0.00640408
0.00754793
0.0772302
-0.0151622
0.0773698
-0.00951721
0.0774496
-0.00476121
0.0774314
-0.000291981
0.0773941
0.00257474
0.0773631
0.00434407
0.0773726
0.00533241
0.0774604
0.00526649
0.0775122
0.00669368
0.0775743
0.00693907
0.0775497
0.00868679
0.0774032
0.00984733
0.0773207
0.00806127
0.0772119
0.00733701
0.0773153
0.0041579
0.0775579
0.00134297
0.0777267
0.00273031
0.0780108
0.0012938
0.0780089
0.00640595
0.00773074
0.0779493
-0.0153914
0.0780197
-0.00958766
0.0779981
-0.00473955
0.0778613
-0.000155176
0.0777142
0.0027218
0.0775952
0.00446309
0.0775735
0.00535409
0.0776558
0.00518422
0.0777061
0.0066434
0.0777555
0.00688961
0.0776727
0.0087696
0.0774708
0.0100492
0.0773384
0.00819368
0.0772005
0.00747492
0.0773765
0.00398194
0.0776972
0.00102231
0.0779198
0.0025077
0.0782501
0.00096344
0.0781863
0.00646973
0.00799479
0.0787688
-0.0156156
0.0787922
-0.00961109
0.0786804
-0.00462776
0.0784284
9.68591e-05
0.0781642
0.00298598
0.0779432
0.00468409
0.0778834
0.0054139
0.077959
0.00510854
0.0780092
0.00659326
0.0780445
0.00685426
0.0778865
0.00892762
0.0776062
0.0103295
0.0773994
0.00840052
0.0772118
0.00766256
0.0774706
0.00372307
0.0778898
0.000603173
0.0781865
0.00221098
0.078585
0.000564916
0.0784434
0.00661133
0.00836261
0.0796332
-0.0158372
0.0796212
-0.00959902
0.0794277
-0.00443434
0.0790689
0.000455666
0.0786897
0.00336524
0.0783653
0.00500843
0.0782702
0.00550902
0.078346
0.0050328
0.0784048
0.0065344
0.0784294
0.00682974
0.0781869
0.0091701
0.0778116
0.0107048
0.0775077
0.00870443
0.0772502
0.00791998
0.0775945
0.00337878
0.0781249
7.28188e-05
0.0785118
0.00182402
0.0789974
7.9363e-05
0.078768
0.00684074
0.00885248
0.0805253
-0.0160475
0.0804804
-0.00955411
0.0802055
-0.0041594
0.0797424
0.000918757
0.079248
0.0038596
0.0788213
0.00543512
0.0786977
0.00563267
0.0787848
0.00494573
0.0788672
0.00645195
0.0788878
0.00680914
0.0785566
0.00950126
0.0780747
0.0111867
0.0776524
0.00912671
0.0773081
0.00826429
0.0777353
0.00295158
0.0783828
-0.000574646
0.078875
0.00133183
0.0794625
-0.000508158
0.0791384
0.00716482
0.0094775
0.0814414
-0.0162313
0.0813619
-0.0094746
0.0809982
-0.00379563
0.0804273
0.00148964
0.079811
0.00447582
0.0792801
0.00596603
0.0791339
0.00577894
0.0792441
0.00483551
0.0793683
0.00632779
0.0793923
0.00678513
0.0789702
0.00992332
0.0783729
0.011784
0.0778113
0.00968827
0.0773666
0.00870899
0.0778676
0.00245062
0.0786309
-0.00133793
0.0792424
0.000720333
0.0799425
-0.00120833
0.079521
0.00758638
0.010244
0.0823816
-0.0163669
0.0822639
-0.00935689
0.0817983
-0.00333004
0.0811111
0.00217692
0.080359
0.00522786
0.0797175
0.00660759
0.0795506
0.00594582
0.0796933
0.00469279
0.0798776
0.00614346
0.0799103
0.00675247
0.0793954
0.0104382
0.0786742
0.0125052
0.0779526
0.0104099
0.0773962
0.00926543
0.0779508
0.00189602
0.0788185
-0.00220569
0.0795609
-2.20256e-05
0.0803804
-0.00202788
0.0798665
0.00810035
0.0111493
0.0833464
-0.0164264
0.0831854
-0.00919594
0.0825987
-0.00274332
0.0817811
0.00299446
0.0808718
0.00613724
0.0801076
0.0073717
0.0799153
0.0061382
0.0800944
0.00451365
0.0803547
0.00588322
0.0803982
0.00670897
0.0797891
0.0110473
0.0789356
0.0133586
0.0780347
0.0113108
0.077355
0.00994513
0.0779255
0.00132552
0.0788715
-0.00315173
0.0797499
-0.000900449
0.0806947
-0.00297265
0.0801075
0.00868753
0.0121784
0.0843344
-0.0163731
0.0841195
-0.00898103
0.0833834
-0.00200715
0.0824141
0.00396376
0.0813168
0.00723446
0.0804112
0.00827738
0.0801772
0.00637219
0.0803869
0.00430387
0.0807327
0.00553746
0.0807876
0.00665403
0.0800879
0.011747
0.0790966
0.0143499
0.0780024
0.0124051
0.077184
0.0107635
0.0777076
0.000801975
0.0786858
-0.00412993
0.0796952
-0.00190988
0.0807748
-0.0040522
0.080157
0.00930536
0.0132998
0.0853379
-0.0161548
0.0850423
-0.00868538
0.0841113
-0.00107621
0.0829569
0.00511815
0.0816309
0.0085605
0.0805549
0.00935341
0.0802454
0.00668163
0.0804646
0.00408473
0.0808963
0.00510579
0.0809669
0.00658335
0.080194
0.01252
0.0790705
0.0154734
0.0777809
0.0136946
0.0767999
0.0117446
0.0771832
0.000418639
0.0781249
-0.00507166
0.0792473
-0.00303223
0.0804829
-0.0052878
0.0799104
0.0098778
0.0144618
0.0863236
-0.0156839
0.0858808
-0.00824262
0.0846803
0.000124318
0.0832926
0.00650581
0.0816881
0.010165
0.0804019
0.0106396
0.0799593
0.00712424
0.080146
0.00389801
0.0806546
0.00459717
0.0807608
0.00647714
0.0799616
0.0133192
0.0787364
0.0166986
0.077269
0.015162
0.0760879
0.0129257
0.076209
0.000297528
0.0770268
-0.00588942
0.0782332
-0.00423864
0.0796664
-0.00672099
0.0792562
0.010288
0.0155915
0.0871779
-0.0147858
0.086442
-0.00750663
0.0848572
0.00170908
0.0831818
0.00818121
0.0812538
0.012093
0.0797122
0.0121813
0.0790549
0.00778149
0.079149
0.00380389
0.0797241
0.0040221
0.0799206
0.00628059
0.0791919
0.014048
0.0779378
0.0179527
0.0763363
0.0167635
0.0749026
0.0143594
0.0746249
0.000575214
0.0752267
-0.00649118
0.0764859
-0.00549783
0.0781867
-0.00842179
0.0780934
0.0103814
0.0166007
0.0875742
-0.013105
0.086277
-0.0062094
0.0841728
0.00381326
0.0821878
0.0101662
0.0799342
0.0143466
0.078108
0.0140075
0.0771488
0.00874077
0.0770909
0.00386172
0.0777416
0.00337139
0.0781427
0.00587957
0.0776498
0.0145409
0.0764953
0.0191072
0.0748302
0.0184286
0.0730825
0.016107
0.0722858
0.00137193
0.0726007
-0.00680608
0.0738945
-0.00679164
0.0759606
-0.0104878
0.076358
0.0099839
0.0173978
0.0867204
-0.0100187
0.0844986
-0.00398758
0.0818165
0.0064954
0.0796271
0.0123555
0.0771597
0.016814
0.0750832
0.0160839
0.073776
0.010048
0.073551
0.00408665
0.0743397
0.00258271
0.0751354
0.00508386
0.0751126
0.0145636
0.0742375
0.0199824
0.0725978
0.0200682
0.070486
0.0182188
0.0691131
0.00274488
0.0691239
-0.00681688
0.0704626
-0.0081304
0.0730039
-0.0130291
0.074047
0.00894084
0.0179075
0.0830518
-0.00477834
0.0796808
-0.000616667
0.0766682
0.00950804
0.0746465
0.0143772
0.0722814
0.0191791
0.0701136
0.0182517
0.0685273
0.0116344
0.0682248
0.00438915
0.0692949
0.00151261
0.0707371
0.00364161
0.0714494
0.0138514
0.07105
0.0203818
0.0695273
0.0215909
0.067049
0.0206971
0.0651548
0.00463906
0.0649244
-0.00658642
0.0663522
-0.00955818
0.0694539
-0.0161309
0.0712289
0.00716586
0.0180902
0.0742529
0.00272401
0.0701997
0.00343657
0.0677143
0.0119934
0.0665759
0.0155156
0.0648578
0.0208972
0.0629117
0.0201978
0.0612931
0.013253
0.0611466
0.00453569
0.062709
-4.98167e-05
0.0650409
0.00130973
0.0666989
0.0121933
0.0669261
0.0201546
0.0656018
0.0229153
0.0628493
0.0234495
0.0606343
0.00685409
0.0603054
-0.00625752
0.0618832
-0.011136
0.0655529
-0.0198006
0.0680342
0.00468455
0.017953
0.0585061
0.0104443
0.055496
0.00644671
0.0549767
0.0125127
0.0555494
0.0149429
0.0550696
0.021377
0.053752
0.0215154
0.0525186
0.0144864
0.0528585
0.00419575
0.0551155
-0.0023068
0.0584458
-0.00202055
0.0611027
0.00953649
0.0620035
0.0192538
0.0609544
0.0239644
0.058154
0.0262499
0.0559523
0.00905575
0.0557127
-0.00601796
0.0574787
-0.012902
0.0615959
-0.0239178
0.0646301
0.00165038
0.0175431
0.037623
0.0137228
0.0377599
0.00630979
0.0402465
0.0100261
0.0428594
0.01233
0.0439403
0.0202961
0.0436364
0.0218193
0.043267
0.0148558
0.0443968
0.00306595
0.0473888
-0.00529882
0.0515855
-0.00621725
0.0550773
0.00604469
0.0565822
0.0177489
0.0559041
0.0246424
0.0534163
0.0287377
0.0516294
0.0108426
0.0516527
-0.00604118
0.0535787
-0.0148281
0.057871
-0.0282101
0.0611988
-0.00167743
0.0169283
0.0181118
0.00922395
0.0212183
0.00320335
0.0262951
0.00494922
0.0304981
0.00812707
0.0331191
0.0176751
0.0341037
0.0208346
0.0349698
0.0139897
0.0369991
0.0010366
0.0405282
-0.00882784
0.0451935
-0.0108826
0.0491735
0.00206467
0.0511262
0.0157963
0.0509605
0.0248081
0.0492008
0.0304974
0.0481878
0.0118556
0.048604
-0.00645738
0.0505429
-0.0167669
0.0546275
-0.0322947
0.0579472
-0.00499718
0.0161933
0.00376979
0.00545416
0.00506016
0.00191298
0.00750878
0.0025006
0.00935935
0.0062765
0.010838
0.0161964
0.0115889
0.0200837
0.0123092
0.0132694
0.0133421
3.75058e-06
0.0147738
-0.0102595
0.0166157
-0.0127245
0.0182399
0.0004405
0.0190805
0.0149556
0.0192222
0.0246663
0.0188076
0.0309121
0.0186587
0.0120045
0.0189886
-0.00678724
0.0196604
-0.0174387
0.0211279
-0.0337622
0.0224076
-0.0062769
0.0159262
0.00219222
0.00326194
0.00348188
0.000623318
0.00604482
-6.23423e-05
0.0079784
0.00434292
0.00964104
0.0145338
0.0106171
0.0191076
0.0115567
0.0123299
0.0126969
-0.00113643
0.0141202
-0.0116829
0.0158926
-0.0144969
0.0174857
-0.00115258
0.0183637
0.0140777
0.0186099
0.0244201
0.0183961
0.031126
0.0184191
0.0119815
0.0188078
-0.00717598
0.0194475
-0.0180784
0.0207785
-0.0350932
0.0219796
-0.00747799
0.0156471
0.00102246
0.00223948
0.00229574
-0.00064996
0.00488598
-0.00265259
0.00686646
0.00236245
0.00867184
0.0127284
0.00987191
0.0179076
0.0110225
0.0111793
0.0122505
-0.00236446
0.0136375
-0.0130699
0.0152972
-0.0161566
0.0168219
-0.00267724
0.0177246
0.013175
0.0180759
0.0240687
0.0180781
0.0311238
0.0182833
0.0117763
0.0187207
-0.00761337
0.0193238
-0.0186816
0.0204914
-0.0362608
0.0215878
-0.00857434
0.0153557
0.000278441
0.00196104
0.00151044
-0.00188196
0.00407073
-0.00521288
0.00604938
0.000383797
0.0079648
0.010813
0.00937386
0.0164985
0.0107186
0.00983458
0.0120124
-0.00365832
0.0133341
-0.0143916
0.0148424
-0.0176649
0.0162658
-0.00410066
0.0171781
0.0122626
0.0176351
0.0236117
0.0178619
0.0308971
0.0182494
0.0113887
0.01873
-0.00809398
0.0192866
-0.0192381
0.0202685
-0.0372427
0.0212415
-0.00954733
0.0150557
-5.22522e-05
0.00201329
0.00114027
-0.00307449
0.00362167
-0.00769427
0.00555223
-0.00154677
0.00754166
0.00882354
0.0091365
0.0149037
0.0106511
0.00832001
0.0119862
-0.00499346
0.0132161
-0.0156214
0.0145394
-0.0189882
0.0158315
-0.00539279
0.0167382
0.0113559
0.0172985
0.0230514
0.0177519
0.0304437
0.0183169
0.0108238
0.0188337
-0.00861074
0.0193347
-0.0197391
0.0201128
-0.0380208
0.0209461
-0.0103807
0.0147505
2.1985e-05
0.00199131
0.00119405
-0.00424655
0.0035528
-0.010053
0.00539179
-0.00338575
0.00741598
0.00679934
0.00916535
0.0131543
0.0108192
0.00666614
0.0121698
-0.00634409
0.0132851
-0.0167367
0.0143964
-0.0200995
0.0155311
-0.00652749
0.0164171
0.0104699
0.017075
0.0223934
0.0177505
0.0297682
0.018483
0.0100913
0.0190275
-0.00915531
0.0194658
-0.0201774
0.0200265
-0.0385815
0.0207066
-0.0110608
0.0144439
0.000476042
0.00151526
0.00167112
-0.00544163
0.00386876
-0.0122507
0.00557577
-0.00509277
0.00759275
0.00478237
0.00945818
0.0112889
0.0112155
0.0049088
0.0125556
-0.00768418
0.0135381
-0.0177192
0.014418
-0.0209794
0.015374
-0.00748352
0.0162246
0.00961937
0.0169711
0.0216469
0.0178573
0.028882
0.018743
0.00920563
0.0193061
-0.00971848
0.019676
-0.0205472
0.020011
-0.0389165
0.0205272
-0.011577
0.0141397
0.00136184
0.000153423
0.00256208
-0.00664186
0.00456415
-0.0142527
0.0061024
-0.00663102
0.00806844
0.00281633
0.0100056
0.0093517
0.0118266
0.00308785
0.0131306
-0.00898823
0.0139669
-0.0185555
0.0146044
-0.0216168
0.0153664
-0.00824549
0.016168
0.00881769
0.0169911
0.0208238
0.0180703
0.0278028
0.0190907
0.00818525
0.0196626
-0.0102904
0.0199604
-0.020845
0.0200665
-0.0390226
0.0204116
-0.0119222
0.0138414
0.0026721
-0.00251868
0.0038509
-0.00782066
0.00562305
-0.0160249
0.00696003
-0.00796799
0.00883144
0.000944921
0.0107919
0.00739125
0.0126338
0.00124594
0.0138773
-0.0102317
0.0145591
-0.0192373
0.0149516
-0.0220092
0.0155106
-0.00880455
0.0162518
0.00807647
0.0171367
0.0199389
0.0183854
0.0265541
0.0195186
0.00705202
0.0200888
-0.0108605
0.0203126
-0.0210689
0.0201921
-0.038902
0.0203624
-0.0120925
0.0135529
0.00438146
-0.00690014
0.00552743
-0.00896663
0.00700648
-0.0175039
0.00813598
-0.0090975
0.00986133
-0.000780432
0.0117999
0.00545269
0.0136135
-0.00056769
0.0147732
-0.0113914
0.0152961
-0.0197602
0.0154497
-0.0221629
0.0158077
-0.00916257
0.0164756
0.00740855
0.0174099
0.0190047
0.0187986
0.0251654
0.0200153
0.00583537
0.0205765
-0.0114218
0.0207246
-0.021217
0.0203827
-0.03856
0.0203839
-0.0120937
0.0132797
0.0300631
-0.0127017
-0.0242615
0.0333469
-0.0122505
0.0356105
-0.0197675
0.0379819
-0.0114689
0.0423265
-0.005125
0.0483598
-0.000580607
0.0537404
-0.00594833
0.0568896
-0.0145406
0.0574519
-0.0203225
0.0564124
-0.0211234
0.0562674
-0.00901758
0.0577985
0.00587744
0.0613322
0.015471
0.0666409
0.0198567
0.0709785
0.00149781
0.0729591
-0.0134024
0.0726913
-0.0209492
0.0701322
-0.0360009
0.0690273
-0.0109888
0.0125804
0.0691985
-0.00398315
-0.077917
0.0655069
-0.00855892
0.0622999
-0.0165605
0.0612583
-0.0104273
0.06253
-0.00639668
0.0661702
-0.00422089
0.0696283
-0.00940638
0.0712547
-0.016167
0.0703842
-0.019452
0.06766
-0.0183992
0.0657614
-0.00711899
0.0661939
0.00544494
0.0693981
0.0122668
0.0746374
0.0146174
0.0787357
-0.0026005
0.0803474
-0.0150142
0.0793433
-0.0199451
0.0752199
-0.0318776
0.0725898
-0.00835861
0.0123081
0.0987683
0.00525971
-0.108011
0.0928165
-0.00260711
0.0870248
-0.0107688
0.0839574
-0.00735982
0.0829022
-0.00534153
0.0839592
-0.00527784
0.0850991
-0.0105463
0.0850336
-0.0161015
0.0831869
-0.0176053
0.0799149
-0.0151271
0.0772706
-0.00447469
0.076957
0.00575851
0.0794469
0.00977694
0.0837326
0.0103317
0.0868451
-0.00571297
0.0877262
-0.0158953
0.086248
-0.0184669
0.0814917
-0.0271212
0.07798
-0.0048469
0.0124111
0.112839
0.0109849
-0.118564
0.108129
0.00210258
0.102832
-0.00547142
0.0997787
-0.00430685
0.0981325
-0.0036954
0.0977118
-0.0048571
0.0971539
-0.00998843
0.0957862
-0.0147338
0.093405
-0.0152241
0.0904014
-0.0121235
0.0880543
-0.00212766
0.0876367
0.00617611
0.0895262
0.00788752
0.0925523
0.00730548
0.094292
-0.00745266
0.0942312
-0.0158345
0.092395
-0.0166306
0.0877973
-0.0225235
0.0842319
-0.0012815
0.0126945
0.117073
0.0138587
-0.119947
0.114104
0.00507106
0.110313
-0.00168012
0.108057
-0.00205104
0.106779
-0.00241731
0.105968
-0.00404573
0.104672
-0.00869213
0.102729
-0.0127917
0.10024
-0.0127349
0.0978291
-0.00971246
0.0963083
-0.000606789
0.0962825
0.00620186
0.0978696
0.00630048
0.0998465
0.00532858
0.10031
-0.00791574
0.099372
-0.014897
0.0972566
-0.0145152
0.09323
-0.0184969
0.0903002
0.00164837
0.0128573
0.117215
0.0151337
-0.11849
0.115435
0.00685091
0.112928
0.000826918
0.111369
-0.00049207
0.110549
-0.00159654
0.109809
-0.00330602
0.108403
-0.00728579
0.106446
-0.0108346
0.104161
-0.0104501
0.102331
-0.00788225
0.101645
7.90918e-05
0.102122
0.00572476
0.103593
0.00482966
0.104909
0.00401192
0.1045
-0.00750677
0.102986
-0.0133826
0.100724
-0.0122533
0.0973346
-0.0151075
0.0954129
0.00357006
0.0126558
0.116059
0.0155923
-0.116518
0.114929
0.00798035
0.113267
0.00248945
0.11215
0.000624776
0.111594
-0.00104071
0.111001
-0.0027128
0.109737
-0.00602196
0.108016
-0.00911294
0.106083
-0.00851762
0.104697
-0.00649585
0.104599
0.000176739
0.105428
0.00489617
0.106797
0.00345988
0.107767
0.00304252
0.106929
-0.00666942
0.105188
-0.0116413
0.102963
-0.0100279
0.100124
-0.0122688
0.0992048
0.00448919
0.0119961
0.1146
0.0156163
-0.114624
0.113848
0.0087322
0.112694
0.00364349
0.111841
0.00147796
0.111388
-0.000587694
0.110894
-0.00221942
0.109821
-0.00494916
0.10838
-0.00767174
0.106821
-0.00695884
0.105747
-0.005421
0.105958
-3.49114e-05
0.106929
0.00392491
0.108136
0.00225351
0.108927
0.00225091
0.107985
-0.00572733
0.106275
-0.00993124
0.104253
-0.00800584
0.101859
-0.0098748
0.101706
0.00464291
0.0109434
0.113132
0.0153872
-0.112903
0.11263
0.00923456
0.111795
0.00447834
0.111112
0.00216123
0.110687
-0.000163183
0.110246
-0.00177794
0.109344
-0.00404805
0.108147
-0.00647467
0.10692
-0.00573127
0.106065
-0.0045667
0.106387
-0.000356041
0.107341
0.00297049
0.108332
0.00126215
0.109012
0.00157151
0.10814
-0.00485542
0.106596
-0.0083869
0.104877
-0.00628757
0.102859
-0.00785636
0.10317
0.0043322
0.00965446
0.111728
0.0150099
-0.11135
0.111408
0.00955455
0.110789
0.0050969
0.110233
0.00271756
0.10982
0.000249747
0.109407
-0.00136509
0.108649
-0.00329022
0.107647
-0.0054725
0.106689
-0.004773
0.106
-0.00387849
0.10632
-0.000675746
0.107172
0.00211904
0.107938
0.000495685
0.10852