/*--------------------------------*- C++ -*----------------------------------*\
| =========                 |                                                 |
| \\      /  F ield         | OpenFOAM: The Open Source CFD Toolbox           |
|  \\    /   O peration     | Version:  v1806                                 |
|   \\  /    A nd           | Web:      www.OpenFOAM.com                      |
|    \\/     M anipulation  |                                                 |
\*---------------------------------------------------------------------------*/
FoamFile
{
    version     2.0;
    format      ascii;
    class       surfaceScalarField;
    location    "500";
    object      phi;
}
// * * * * * * * * * * * * * * * * * * * * * * * * * * * * * * * * * * * * * //

dimensions      [0 3 -1 0 0 0 0];
oriented        oriented;


internalField   nonuniform List<scalar> 
13938
(
4.33869e-08
-0.00542964
-0.0359399
0.031731
0.00963848
-7.23277e-13
-0.0054271
-0.0359356
0.0317251
0.00963763
-4.33882e-08
-0.0054271
-0.0359356
0.0317251
0.00963763
-0.00542964
-0.0359399
0.031731
0.00963848
5.16453e-08
-0.0399857
0.0080402
0.0265158
1.06402e-13
-0.0399791
0.00804182
0.0265102
-5.16459e-08
-0.0399791
0.00804182
0.0265102
-0.0399857
0.0080402
0.0265158
-2.1896e-08
-0.00413348
-0.00635183
0.00292324
0.0075621
7.981e-12
-0.00413136
-0.00635189
0.00292186
0.00756137
2.18875e-08
-0.00413136
-0.00635189
0.00292186
0.00756137
-0.00413348
-0.00635183
0.00292324
0.0075621
1.15828e-08
-0.00632263
-0.00101014
0.00319927
3.05513e-12
-0.00632201
-0.00100913
0.0031998
-1.157e-08
-0.00632201
-0.00100913
0.0031998
-0.00632263
-0.00101014
0.00319927
-9.83336e-09
0.00196737
-0.00802551
-0.000264467
1.15739e-12
0.00196732
-0.00802611
-0.000263222
9.83549e-09
0.00196732
-0.00802611
-0.000263222
0.00196737
-0.00802551
-0.000264467
-1.3543e-08
-0.00808846
0.00370401
1.20252e-12
-0.00808804
0.00370344
1.35384e-08
-0.00808804
0.00370344
-0.00808846
0.00370401
1.3428e-08
0.0295046
-0.0253701
-0.0279176
0.0237831
1.90809e-13
0.0295094
-0.0253746
-0.0279126
0.0237778
-1.3428e-08
0.0295094
-0.0253746
-0.0279126
0.0237778
0.0295046
-0.0253701
-0.0279176
0.0237831
-8.94969e-09
0.0429083
-0.0378229
0.0244191
5.94205e-13
0.0429075
-0.0378139
0.0244157
8.94979e-09
0.0429075
-0.0378139
0.0244157
0.0429083
-0.0378229
0.0244191
6.139e-08
-0.00715336
0.0186405
0.0314211
2.55281e-13
-0.00715683
0.0186461
0.0314183
-6.1391e-08
-0.00715683
0.0186461
0.0314183
-0.00715336
0.0186405
0.0314211
6.39171e-08
-0.00567559
0.00328086
0.000503622
0.00189104
4.34963e-12
-0.00567322
0.00327767
0.000513092
0.00188251
-6.39226e-08
-0.00567322
0.00327767
0.000513093
0.00188251
-0.00567559
0.00328086
0.000503622
0.00189104
-5.81905e-08
-0.00184935
-0.00482913
0.00100294
8.65961e-12
-0.00184918
-0.00482994
0.00100585
5.82307e-08
-0.00184918
-0.00482994
0.00100585
-0.00184935
-0.00482913
0.00100294
-1.3406e-09
0.0014997
-0.00254053
-0.00328946
0.00433029
-3.86983e-12
0.00149773
-0.00253926
-0.00328753
0.00432906
1.33486e-09
0.00149773
-0.00253926
-0.00328753
0.00432906
0.0014997
-0.00254053
-0.00328946
0.00433029
-2.57849e-08
-0.00319661
0.00387838
0.000817962
-1.28283e-12
-0.00319538
0.00387609
0.000816984
2.57772e-08
-0.00319538
0.00387609
0.000816984
-0.00319661
0.00387838
0.000817962
-9.53127e-09
-0.00480317
-0.000933964
-8.77157e-12
-0.00480176
-0.000932886
9.5431e-09
-0.00480176
-0.000932886
-0.00480317
-0.000933964
1.25606e-07
-0.020259
0.0321997
-0.0531839
0.0412431
6.16477e-12
-0.0202554
0.0322042
-0.0531812
0.0412325
-1.25605e-07
-0.0202554
0.0322042
-0.0531812
0.0412325
-0.020259
0.0321997
-0.0531839
0.0412431
4.10245e-08
0.045254
-0.0540548
-0.0114581
7.22639e-12
0.0452668
-0.0540657
-0.0114564
-4.10395e-08
0.0452668
-0.0540657
-0.0114564
0.045254
-0.0540548
-0.0114581
4.5891e-09
0.0668926
0.0105611
3.41957e-12
0.066923
0.0105479
-4.57818e-09
0.066923
0.0105479
0.0668926
0.0105611
-9.95638e-08
0.0227182
-0.0230032
-0.0432574
0.0435425
3.53743e-13
0.0227246
-0.0230005
-0.0432606
0.0435365
9.95644e-08
0.0227246
-0.0230005
-0.0432606
0.0435365
0.0227182
-0.0230032
-0.0432574
0.0435425
-3.80755e-08
0.0421847
-0.0266032
0.00713683
2.17568e-13
0.0421747
-0.0265914
0.00714122
3.80754e-08
0.0421747
-0.0265914
0.00714122
0.0421847
-0.0266032
0.00713683
1.65211e-07
-0.0655991
0.0235743
0.0638367
-0.021812
-2.30264e-12
-0.0656131
0.0235759
0.0638394
-0.021802
-1.65211e-07
-0.0656131
0.0235759
0.0638394
-0.021802
-0.0655991
0.0235743
0.0638367
-0.021812
-3.84565e-08
-0.0526899
-0.0049272
-0.00798195
-3.96164e-12
-0.0527045
-0.00492209
-0.00798653
3.84539e-08
-0.0527045
-0.00492209
-0.00798653
-0.0526899
-0.0049272
-0.00798195
-3.09722e-07
-0.0106508
0.0494382
-0.0387871
1.06238e-11
-0.0106317
0.0494174
-0.038786
3.09719e-07
-0.0106317
0.0494174
-0.038786
-0.0106508
0.0494382
-0.0387871
-8.11242e-09
-0.0571046
-0.0303676
0.0768215
2.4819e-12
-0.0570896
-0.0303547
0.0768126
8.12509e-09
-0.0570896
-0.0303547
0.0768126
-0.0571046
-0.0303676
0.0768215
-1.13905e-09
0.00156206
-0.000110832
-0.00947674
-1.6965e-12
0.00156163
-0.000110608
-0.00947713
1.13003e-09
0.00156163
-0.000110608
-0.00947713
0.00156206
-0.000110832
-0.00947674
-7.35596e-09
-0.00947649
0.00295009
8.0766e-13
-0.00947604
0.00294963
7.34431e-09
-0.00947604
0.00294963
-0.00947649
0.00295009
-3.478e-09
0.00101803
-0.00881954
0.00769068
-4.63605e-12
0.00101851
-0.00881934
0.00769022
3.47409e-09
0.00101851
-0.00881934
0.00769022
0.00101803
-0.00881954
0.00769068
-1.35254e-09
-0.00848981
0.00755046
0.00195737
-8.5194e-13
-0.0084894
0.00755008
0.00195783
1.34412e-09
-0.0084894
0.00755008
0.00195783
-0.00848981
0.00755046
0.00195737
-5.19445e-09
-0.00134654
-0.00933961
0.00219634
1.84568e-12
-0.00134657
-0.00933945
0.0021966
5.18928e-09
-0.00134657
-0.00933945
0.0021966
-0.00134654
-0.00933961
0.00219634
-4.70302e-09
-0.000157206
-0.0100089
-1.14354e-13
-0.000157095
-0.0100088
4.6958e-09
-0.000157095
-0.0100088
-0.000157206
-0.0100089
-3.54075e-09
0.000923832
-0.0105578
2.81448e-13
0.000923919
-0.0105581
3.53708e-09
0.000923919
-0.0105581
0.000923832
-0.0105578
-4.64143e-09
0.00212565
-0.0106783
1.62665e-12
0.00212611
-0.0106782
4.64538e-09
0.00212611
-0.0106782
0.00212565
-0.0106783
-8.15546e-09
0.000739822
0.0066864
-1.77122e-12
0.000741398
0.00668559
8.161e-09
0.000741398
0.00668559
0.000739822
0.0066864
-6.66086e-10
0.00220047
0.00608982
3.55432e-13
0.00220127
0.0060902
6.64693e-10
0.00220127
0.0060902
0.00220047
0.00608982
-7.5082e-08
-0.0347023
-0.0241555
0.0358546
3.71248e-13
-0.0347028
-0.0241412
0.0358434
7.50811e-08
-0.0347028
-0.0241412
0.0358434
-0.0347023
-0.0241555
0.0358546
-6.01255e-08
0.012169
-0.0495454
0.00267414
3.42092e-13
0.012175
-0.0495505
0.00267261
6.01257e-08
0.012175
-0.0495505
0.00267261
0.012169
-0.0495454
0.00267414
-3.5169e-08
-0.0427322
0.0307458
2.06972e-13
-0.0427172
0.030751
3.51686e-08
-0.0427172
0.030751
-0.0427322
0.0307458
-5.35378e-08
-0.00923835
-0.0544714
0.0141643
-5.0392e-15
-0.00923701
-0.054477
0.0141634
5.35379e-08
-0.00923701
-0.054477
0.0141634
-0.00923835
-0.0544714
0.0141643
-9.16712e-08
-0.0475746
0.00699145
1.12546e-13
-0.0475817
0.00699359
9.16718e-08
-0.0475817
0.00699359
-0.0475746
0.00699145
-7.37696e-08
-0.0539233
-0.0028896
-8.67165e-14
-0.0539288
-0.00288999
7.37691e-08
-0.0539288
-0.00288999
-0.0539233
-0.0028896
-5.36103e-08
0.0104063
-0.0584605
-0.00586906
-8.60059e-14
0.0104018
-0.0584665
-0.00586415
5.36103e-08
0.0104018
-0.0584665
-0.00586415
0.0104063
-0.0584605
-0.00586906
-3.75965e-08
-0.0584413
0.0143762
-4.628e-13
-0.0584474
0.0143722
3.75971e-08
-0.0584474
0.0143722
-0.0584413
0.0143762
-2.80677e-08
-0.0535954
0.0250276
-2.58066e-13
-0.0535813
0.0250275
2.80682e-08
-0.0535813
0.0250275
-0.0535954
0.0250276
-1.31521e-09
0.0108185
-0.00672937
-0.0625496
-1.70228e-13
0.0108136
-0.00672908
-0.062551
1.31481e-09
0.0108136
-0.00672908
-0.062551
0.0108185
-0.00672937
-0.0625496
-9.21423e-09
0.0159569
-0.0635796
-6.78192e-13
0.015949
-0.0635828
9.21388e-09
0.015949
-0.0635828
0.0159569
-0.0635796
-3.20488e-09
0.0406133
-0.00540212
0.00833129
2.9974e-13
0.0406076
-0.00540301
0.00833193
3.20489e-09
0.0406076
-0.00540301
0.00833193
0.0406133
-0.00540212
0.00833129
3.15843e-08
0.0113977
0.00384552
3.34413e-13
0.01139
0.00384304
-3.15846e-08
0.01139
0.00384304
0.0113977
0.00384552
-1.40488e-08
-0.0424956
0.0160705
7.33706e-13
-0.0424923
0.0160684
1.40492e-08
-0.0424923
0.0160684
-0.0424956
0.0160705
-4.98364e-08
-0.0524466
0.00454887
6.42233e-13
-0.0524403
0.00454489
4.98359e-08
-0.0524403
0.00454489
-0.0524466
0.00454887
-1.36011e-07
-0.0504645
0.00500951
2.70374e-13
-0.0504671
0.0050203
1.3601e-07
-0.0504671
0.0050203
-0.0504645
0.00500951
-1.15691e-07
-0.0542251
0.000871132
2.79014e-13
-0.054229
0.00087176
1.1569e-07
-0.054229
0.00087176
-0.0542251
0.000871132
-5.43434e-08
-0.057304
-0.00279011
3.41812e-13
-0.057309
-0.00278416
5.43432e-08
-0.057309
-0.00278416
-0.057304
-0.00279011
4.963e-10
-0.0626459
-0.00138743
2.38814e-13
-0.0626468
-0.00139126
-4.96465e-10
-0.0626468
-0.00139126
-0.0626459
-0.00138743
-3.34016e-09
0.0404274
0.0100886
2.64562e-13
0.0404226
0.010084
3.34051e-09
0.0404226
0.010084
0.0404274
0.0100886
2.58992e-08
0.0163553
2.63781e-13
0.0163531
-2.58993e-08
0.0163531
0.0163553
5.02883e-08
0.053174
-0.0476274
0.0105238
8.54359e-13
0.0531626
-0.047622
0.0105279
-5.02885e-08
0.0531626
-0.047622
0.0105279
0.053174
-0.0476274
0.0105238
4.94679e-08
0.00603481
5.87953e-13
0.00602666
-4.94694e-08
0.00602666
0.00603481
-2.43481e-09
0.00926811
-0.0103923
0.00324987
1.12814e-11
0.00926816
-0.0103922
0.00325014
2.43549e-09
0.00926816
-0.0103922
0.00325014
0.00926811
-0.0103923
0.00324987
-3.63476e-09
0.00794151
0.0042767
6.63332e-12
0.00794232
0.00427547
3.63351e-09
0.00794232
0.00427547
0.00794151
0.0042767
-8.45677e-09
0.00748736
0.00415817
-1.50134e-12
0.0074884
0.00415735
8.4656e-09
0.0074884
0.00415735
0.00748736
0.00415817
4.24864e-09
0.00641826
0.00399233
-2.40273e-12
0.00641862
0.00399164
-4.23704e-09
0.00641862
0.00399164
0.00641826
0.00399233
-2.75353e-09
-0.00130849
0.00218055
-0.0102117
-3.75172e-13
-0.00130869
0.00218078
-0.0102115
2.75044e-09
-0.00130869
0.00218078
-0.0102115
-0.00130849
0.00218055
-0.0102117
-3.09516e-09
-0.000395476
-0.0109219
1.0575e-12
-0.000395535
-0.010922
3.09327e-09
-0.000395535
-0.010922
-0.000395476
-0.0109219
-2.41543e-09
0.00050724
-0.0114605
3.86816e-12
0.00050723
-0.0114609
2.42595e-09
0.00050723
-0.0114609
0.00050724
-0.0114605
-3.24592e-09
0.00146172
-0.0116328
2.56784e-13
0.00146195
-0.011633
3.28145e-09
0.00146195
-0.011633
0.00146172
-0.0116328
-3.54713e-09
0.0024837
-0.0114143
-1.59549e-12
0.00248386
-0.0114141
3.58922e-09
0.00248386
-0.0114141
0.0024837
-0.0114143
-3.23773e-09
-0.00652716
0.00566799
0.00305964
4.58e-12
-0.00652639
0.0056672
0.00306047
3.23278e-09
-0.00652639
0.0056672
0.00306047
-0.00652716
0.00566799
0.00305964
-2.10269e-09
-0.00738739
0.00281761
6.52985e-12
-0.00738671
0.00281815
2.10822e-09
-0.00738671
0.00281815
-0.00738739
0.00281761
-6.07417e-09
-0.00840355
0.00321251
3.71013e-12
-0.00840314
0.00321303
6.08096e-09
-0.00840314
0.00321303
-0.00840355
0.00321251
-2.84366e-09
-0.00907711
0.00285412
-7.55454e-15
-0.00907674
0.00285438
2.84684e-09
-0.00907674
0.00285438
-0.00907711
0.00285412
1.88003e-10
0.00134801
0.00432825
2.22817e-13
0.00134838
0.00432808
-1.89208e-10
0.00134838
0.00432808
0.00134801
0.00432825
7.1548e-09
0.00243452
0.00500331
1.6642e-12
0.00243463
0.00500395
-7.15792e-09
0.00243463
0.00500395
0.00243452
0.00500331
-6.30561e-08
-0.021515
0.0307665
2.14285e-13
-0.0215075
0.0307594
6.30556e-08
-0.0215075
0.0307594
-0.021515
0.0307665
-5.20486e-08
-0.0290021
0.0382329
8.42721e-14
-0.0289901
0.0382336
5.20482e-08
-0.0289901
0.0382336
-0.0290021
0.0382329
-2.12666e-09
0.00336975
0.00473276
3.91236e-12
0.00337085
0.00473097
2.1204e-09
0.00337085
0.00473097
0.00336975
0.00473276
-1.22276e-09
-0.0570026
0.0177834
-1.02465e-12
-0.0569889
0.0177799
1.22343e-09
-0.0569889
0.0177799
-0.0570026
0.0177834
-9.27602e-09
-0.0550017
0.013956
-1.09898e-12
-0.0549937
0.0139537
9.27553e-09
-0.0549937
0.0139537
-0.0550017
0.013956
-4.69111e-08
-0.0512595
0.0472851
-5.85896e-13
-0.0512469
0.0472843
4.69116e-08
-0.0512469
0.0472843
-0.0512595
0.0472851
7.31302e-08
0.00399268
-0.00129516
-0.0653435
2.49519e-13
0.00399454
-0.00129801
-0.0653433
-7.31301e-08
0.00399454
-0.00129801
-0.0653433
0.00399268
-0.00129516
-0.0653435
7.42745e-08
0.00761745
-0.0661744
-6.30563e-14
0.00761613
-0.0661725
-7.42747e-08
0.00761613
-0.0661725
0.00761745
-0.0661744
4.21832e-08
0.0135476
-0.0695098
-3.12337e-13
0.0135399
-0.0695066
-4.21836e-08
0.0135399
-0.0695066
0.0135476
-0.0695098
6.06025e-08
0.0302742
-0.0717284
-4.86635e-13
0.0302711
-0.0717249
-6.06032e-08
0.0302711
-0.0717249
0.0302742
-0.0717284
-3.79785e-08
0.047004
-0.00910062
1.18303e-13
0.0470061
-0.00910553
3.7978e-08
0.0470061
-0.00910553
0.047004
-0.00910062
-1.37024e-07
-0.0531196
0.0100412
1.04233e-12
-0.0531166
0.0100393
1.37024e-07
-0.0531166
0.0100393
-0.0531196
0.0100412
-8.22917e-08
-0.0533211
0.00521109
7.12358e-13
-0.0533221
0.00522569
8.22914e-08
-0.0533221
0.00522569
-0.0533211
0.00521109
-9.01476e-08
-0.0549252
0.00247527
3.58814e-13
-0.0549289
0.00247846
9.01475e-08
-0.0549289
0.00247846
-0.0549252
0.00247527
-9.5493e-09
-0.0583785
0.00066325
5.17457e-13
-0.0583796
0.000666585
9.54914e-09
-0.0583796
0.000666585
-0.0583785
0.00066325
1.96811e-08
-0.0598868
0.000120865
4.70382e-13
-0.0598873
0.00011645
-1.96808e-08
-0.0598873
0.00011645
-0.0598868
0.000120865
-4.9715e-08
0.0367927
0.0202999
-1.36638e-13
0.0367901
0.0203
4.97143e-08
0.0367901
0.0203
0.0367927
0.0202999
-3.46077e-09
0.0330934
0.0200546
-7.14175e-14
0.0330912
0.020052
3.46005e-09
0.0330912
0.020052
0.0330934
0.0200546
3.39601e-08
0.0341257
0.0227507
1.23524e-13
0.0341226
0.0227464
-3.39607e-08
0.0341226
0.0227464
0.0341257
0.0227507
3.19589e-08
0.0340181
0.0245267
1.48526e-13
0.0340117
0.0245267
-3.19593e-08
0.0340117
0.0245267
0.0340181
0.0245267
1.92666e-08
0.0280013
0.0246573
8.57363e-14
0.0279986
0.0246592
-1.92666e-08
0.0279986
0.0246592
0.0280013
0.0246573
3.32878e-08
0.0177577
0.0217036
3.63192e-14
0.017753
0.0217072
-3.32874e-08
0.017753
0.0217072
0.0177577
0.0217036
-4.26984e-09
-0.0453318
0.0154267
1.57492e-14
-0.0453188
0.0154099
4.26886e-09
-0.0453188
0.0154099
-0.0453318
0.0154267
1.97987e-08
0.0301813
0.0140922
-4.4724e-14
0.030178
0.0140852
-1.97971e-08
0.030178
0.0140852
0.0301813
0.0140922
1.55847e-08
0.0201541
0.0295508
1.51365e-13
0.0201527
0.0295531
-1.55832e-08
0.0201527
0.0295531
0.0201541
0.0295508
4.87687e-08
0.0342773
0.016058
1.06355e-13
0.0342811
0.0160498
-4.87669e-08
0.0342811
0.0160498
0.0342773
0.016058
5.87352e-08
-0.0647028
0.00352079
3.64545e-13
-0.0647028
0.00351747
-5.8735e-08
-0.0647028
0.00351747
-0.0647028
0.00352079
-2.1449e-08
0.0114199
0.0344034
-1.62986e-13
0.0114149
0.0343954
2.14497e-08
0.0114149
0.0343954
0.0114199
0.0344034
6.38374e-08
0.0320957
-0.0329637
0.0105064
-7.85596e-13
0.0320987
-0.0329687
0.0105077
-6.38386e-08
0.0320987
-0.0329687
0.0105077
0.0320957
-0.0329637
0.0105064
-6.93545e-08
0.00840277
0.0351128
-2.47798e-13
0.00840308
0.0351105
6.93526e-08
0.00840308
0.0351105
0.00840277
0.0351128
-6.8335e-09
-0.00189383
0.00369861
0.00461349
-3.13248e-12
-0.00189154
0.00369784
0.00461231
6.82293e-09
-0.00189154
0.00369784
0.00461231
-0.00189383
0.00369861
0.00461349
2.07797e-09
0.00463079
0.00103748
1.14751e-12
0.00463143
0.0010384
-2.07779e-09
0.00463143
0.0010384
0.00463079
0.00103748
-6.01247e-08
0.0356141
-0.0344901
0.0191759
-3.26921e-13
0.0356094
-0.0344842
0.0191748
6.01238e-08
0.0356094
-0.0344842
0.0191748
0.0356141
-0.0344901
0.0191759
-1.2527e-08
0.0348016
0.0208672
-2.59603e-13
0.0347982
0.0208632
1.25265e-08
0.0347982
0.0208632
0.0348016
0.0208672
-1.14019e-08
0.0341959
0.0233564
2.22785e-14
0.0341917
0.0233528
1.14019e-08
0.0341917
0.0233528
0.0341959
0.0233564
-2.55632e-08
0.0327958
0.0259268
1.19298e-13
0.0327923
0.0259261
2.55634e-08
0.0327923
0.0259261
0.0327958
0.0259268
-2.68363e-08
0.027611
0.0298421
1.97678e-13
0.0276086
0.0298429
2.68366e-08
0.0276086
0.0298429
0.027611
0.0298421
-2.23061e-08
0.0229243
0.0342375
3.70673e-13
0.0229217
0.03424
2.23072e-08
0.0229217
0.03424
0.0229243
0.0342375
-2.39183e-08
0.0408868
0.0163149
4.01346e-13
0.0408831
0.0163196
2.39193e-08
0.0408831
0.0163196
0.0408868
0.0163149
-9.91353e-08
0.0405822
-0.0114498
-4.1751e-14
0.0405791
-0.0114512
9.91349e-08
0.0405791
-0.0114512
0.0405822
-0.0114498
-1.09977e-07
-0.0143611
0.0204533
-2.65972e-13
-0.0143557
0.0204505
1.09976e-07
-0.0143557
0.0204505
-0.0143611
0.0204533
5.18507e-08
-0.0520325
0.0172245
-3.67004e-14
-0.0520286
0.0172377
-5.18523e-08
-0.0520286
0.0172377
-0.0520325
0.0172245
-1.89273e-07
-0.0528134
0.0108224
2.80315e-13
-0.0528128
0.0108234
1.89272e-07
-0.0528128
0.0108234
-0.0528134
0.0108224
-5.84906e-08
-0.0542448
0.00664249
5.79642e-13
-0.0542434
0.00665618
5.84898e-08
-0.0542434
0.00665618
-0.0542448
0.00664249
-7.20032e-08
-0.0543462
0.00257677
-1.69396e-13
-0.0543458
0.00258085
7.2003e-08
-0.0543458
0.00258085
-0.0543462
0.00257677
2.02106e-08
-0.0568072
0.00312424
3.15861e-13
-0.056807
0.00312774
-2.02113e-08
-0.056807
0.00312774
-0.0568072
0.00312424
2.42785e-08
-0.0607435
0.00405715
4.09857e-13
-0.0607446
0.00405408
-2.42784e-08
-0.0607446
0.00405408
-0.0607435
0.00405715
-3.99642e-09
0.00964314
-0.0103629
0.00320346
2.12974e-11
0.0096431
-0.0103627
0.00320348
3.99605e-09
0.0096431
-0.0103627
0.00320348
0.00964314
-0.0103629
0.00320346
-3.83072e-09
0.00869789
0.00419512
9.65096e-12
0.00869843
0.0041948
3.80338e-09
0.00869843
0.0041948
0.00869789
0.00419512
-6.13784e-09
0.00801705
0.00495755
1.07827e-11
0.0080172
0.00495669
6.1296e-09
0.0080172
0.00495669
0.00801705
0.00495755
-9.52732e-09
0.00711458
0.00506064
-1.59744e-12
0.00711435
0.00506019
9.52911e-09
0.00711435
0.00506019
0.00711458
0.00506064
-1.24384e-08
0.00602081
0.00508612
-9.3967e-12
0.00602056
0.00508541
1.24377e-08
0.00602056
0.00508541
0.00602081
0.00508612
-1.44485e-08
0.00522075
0.00449868
-1.08203e-11
0.00522013
0.00449826
1.4434e-08
0.00522013
0.00449826
0.00522075
0.00449868
-3.38235e-09
-0.00193905
0.00266302
-0.00980107
-1.79936e-12
-0.00193904
0.00266308
-0.00980079
3.38285e-09
-0.00193904
0.00266308
-0.00980079
-0.00193905
0.00266302
-0.00980107
-2.36917e-09
-0.00130771
-0.010843
-1.75481e-12
-0.00130766
-0.0108429
2.36549e-09
-0.00130766
-0.0108429
-0.00130771
-0.010843
-2.48842e-09
-0.000450737
-0.0117788
7.27779e-12
-0.000450735
-0.0117789
2.49121e-09
-0.000450735
-0.0117789
-0.000450737
-0.0117788
-1.78365e-09
0.000401474
-0.0123127
1.64091e-11
0.000401278
-0.0123129
1.79403e-09
0.000401278
-0.0123129
0.000401474
-0.0123127
-2.60002e-09
0.00112395
-0.0123552
6.44698e-13
0.00112374
-0.0123554
2.61474e-09
0.00112374
-0.0123554
0.00112395
-0.0123552
-2.81773e-09
0.00167196
-0.0119623
-2.65962e-11
0.00167186
-0.0119622
2.81866e-09
0.00167186
-0.0119622
0.00167196
-0.0119623
-3.27513e-09
-0.0110772
0.00238629
2.59704e-11
-0.0110771
0.00238628
3.26534e-09
-0.0110771
0.00238628
-0.0110772
0.00238629
3.34478e-09
-0.00490179
0.00416214
0.0041094
5.81314e-12
-0.00490208
0.00416317
0.00410977
-3.35118e-09
-0.00490208
0.00416317
0.00410977
-0.00490179
0.00416214
0.0041094
-4.58434e-10
-0.00564071
0.00379856
8.90869e-12
-0.00564051
0.0037989
4.64133e-10
-0.00564051
0.0037989
-0.00564071
0.00379856
-1.67027e-09
-0.00657376
0.00375066
7.23023e-12
-0.00657344
0.00375108
1.6788e-09
-0.00657344
0.00375108
-0.00657376
0.00375066
-5.36482e-09
-0.0071164
0.00375515
4.77189e-12
-0.00711612
0.00375571
5.37027e-09
-0.00711612
0.00375571
-0.0071164
0.00375515
-3.37178e-09
-0.00793386
0.00367157
2.12556e-12
-0.00793357
0.00367183
3.37583e-09
-0.00793357
0.00367183
-0.00793386
0.00367157
-4.22503e-09
0.00333535
-0.00860619
5.14796e-14
0.00333556
-0.00860605
4.22563e-09
0.00333556
-0.00860605
0.00333535
-0.00860619
-1.68174e-08
0.00241385
0.00511369
1.31175e-12
0.00241471
0.00511315
1.6811e-08
0.00241471
0.00511315
0.00241385
0.00511369
1.06011e-08
0.00300371
0.00441344
2.60337e-12
0.00300428
0.0044144
-1.06044e-08
0.00300428
0.0044144
0.00300371
0.00441344
-9.02568e-09
0.00374013
0.00399635
3.52249e-12
0.00374026
0.00399497
9.01823e-09
0.00374026
0.00399497
0.00374013
0.00399635
8.14305e-09
0.00446123
0.00344103
4.67379e-12
0.00446095
0.00344248
-8.14641e-09
0.00446095
0.00344248
0.00446123
0.00344103
-8.00614e-08
-0.0342648
0.0167279
-1.03805e-12
-0.0342754
0.0167165
8.00593e-08
-0.0342754
0.0167165
-0.0342648
0.0167279
-5.84867e-08
-0.0521258
0.0186498
-1.27735e-12
-0.0521106
0.0186435
5.84871e-08
-0.0521106
0.0186435
-0.0521258
0.0186498
-8.99939e-08
0.0461464
-0.0103111
-6.73671e-13
0.0461491
-0.0103161
8.9994e-08
0.0461491
-0.0103161
0.0461464
-0.0103111
-2.85277e-08
-0.0509782
0.0128084
-9.04724e-13
-0.0509661
0.0128092
2.85271e-08
-0.0509661
0.0128092
-0.0509782
0.0128084
7.56917e-08
-0.00020803
0.00236451
-0.0675001
1.14897e-13
-0.000206333
0.00236169
-0.0674986
-7.56915e-08
-0.000206333
0.00236169
-0.0674986
-0.00020803
0.00236451
-0.0675001
8.87149e-08
0.00323896
-0.0696215
-3.6481e-14
0.0032394
-0.0696182
-8.8715e-08
0.0032394
-0.0696182
0.00323896
-0.0696215
-1.13526e-08
-0.0397905
0.0190864
-3.71193e-13
-0.0397854
0.0190904
1.13514e-08
-0.0397854
0.0190904
-0.0397905
0.0190864
9.57384e-08
0.0030271
-0.069298
-1.43692e-13
0.00302323
-0.0692903
-9.57385e-08
0.00302323
-0.0692903
0.0030271
-0.069298
5.18704e-08
-0.000372437
-0.0683289
-1.85587e-13
-0.000381512
-0.0683201
-5.18704e-08
-0.000381512
-0.0683201
-0.000372437
-0.0683289
5.46253e-08
0.00355331
-0.0658917
2.31089e-13
0.00355105
-0.0658921
-5.46251e-08
0.00355105
-0.0658921
0.00355331
-0.0658917
-6.03635e-08
-0.0535183
0.0364781
-3.09847e-12
-0.053532
0.0364943
6.03574e-08
-0.053532
0.0364943
-0.0535183
0.0364781
1.21784e-07
0.0328056
0.0080196
-0.0303188
-1.66134e-12
0.0328069
0.00801665
-0.0303157
-1.21787e-07
0.0328069
0.00801665
-0.0303157
0.0328056
0.0080196
-0.0303188
-6.53037e-08
0.00522027
0.0359881
-3.40127e-14
0.00521635
0.0359936
6.53019e-08
0.00521635
0.0359936
0.00522027
0.0359881
1.44631e-07
0.0318926
-0.0274795
0.0036063
-6.30103e-13
0.0318981
-0.0274843
0.00360304
-1.44631e-07
0.0318981
-0.0274843
0.00360304
0.0318926
-0.0274795
0.0036063
-1.00849e-07
0.0354804
0.0016326
1.06281e-12
0.035485
0.00162939
1.00851e-07
0.035485
0.00162939
0.0354804
0.0016326
-6.1009e-09
-0.00340671
0.00308408
0.00478387
4.16954e-12
-0.00340646
0.00308453
0.00478288
6.09906e-09
-0.00340646
0.00308453
0.00478288
-0.00340671
0.00308408
0.00478387
-2.21147e-09
-0.00399315
0.00469584
7.03323e-12
-0.00399307
0.00469638
2.21027e-09
-0.00399307
0.00469638
-0.00399315
0.00469584
-3.96228e-09
-0.00463174
0.00443716
8.98563e-12
-0.00463156
0.00443739
3.96796e-09
-0.00463156
0.00443739
-0.00463174
0.00443716
-4.36211e-09
-0.00539039
0.00450931
7.84381e-12
-0.00539029
0.0045098
4.36715e-09
-0.00539029
0.0045098
-0.00539039
0.00450931
-6.36339e-09
-0.00609808
0.00446286
5.49718e-12
-0.00609812
0.00446353
6.36664e-09
-0.00609812
0.00446353
-0.00609808
0.00446286
-5.94551e-09
-0.00664476
0.00421826
3.69149e-12
-0.00664466
0.00421836
5.9483e-09
-0.00664466
0.00421836
-0.00664476
0.00421826
-6.0646e-09
-0.00726429
0.00395489
3.14494e-12
-0.00726404
0.00395492
6.06716e-09
-0.00726404
0.00395492
-0.00726429
0.00395489
-5.2321e-09
-0.00289434
-0.00780699
0.00343705
4.2589e-12
-0.00289403
-0.00780683
0.00343683
5.23791e-09
-0.00289403
-0.00780683
0.00343683
-0.00289434
-0.00780699
0.00343705
-3.54847e-09
-0.00233937
-0.00916116
1.07669e-12
-0.00233915
-0.00916093
3.553e-09
-0.00233915
-0.00916093
-0.00233937
-0.00916116
-2.91052e-09
-0.00176154
-0.0103789
-4.17076e-12
-0.00176124
-0.0103787
2.90984e-09
-0.00176124
-0.0103787
-0.00176154
-0.0103789
-1.62406e-09
-0.0011555
-0.011449
-2.59741e-12
-0.00115526
-0.0114489
1.63128e-09
-0.00115526
-0.0114489
-0.0011555
-0.011449
-9.36952e-10
-0.000656869
-0.0122775
9.98533e-12
-0.000656737
-0.0122774
9.58762e-10
-0.000656737
-0.0122774
-0.000656869
-0.0122775
-5.71686e-10
-8.02525e-05
-0.0128893
2.25248e-11
-8.02046e-05
-0.0128895
5.77042e-10
-8.02046e-05
-0.0128895
-8.02526e-05
-0.0128893
-7.01135e-10
0.000546787
-0.0129823
1.23228e-11
0.000546728
-0.0129824
6.78809e-10
0.000546728
-0.0129824
0.000546787
-0.0129823
-7.89547e-10
0.0010576
-0.0124731
4.86545e-12
0.00105765
-0.0124732
7.67586e-10
0.00105765
-0.0124732
0.0010576
-0.0124731
-1.86063e-09
0.00136284
-0.0113825
-3.91955e-11
0.00136303
-0.0113825
1.83991e-09
0.00136303
-0.0113825
0.00136284
-0.0113825
3.89326e-10
0.00970791
0.00146422
-0.00980929
4.34329e-12
0.00970817
0.00146433
-0.00980947
-3.71364e-10
0.00970817
0.00146433
-0.00980947
0.00970791
0.00146422
-0.00980929
-2.33195e-09
0.0092116
0.00288259
2.52777e-11
0.00921185
0.0028826
2.37654e-09
0.00921185
0.0028826
0.0092116
0.00288259
-3.24382e-09
0.00846877
0.0039463
-2.20574e-11
0.00846916
0.00394617
3.25088e-09
0.00846916
0.00394617
0.00846877
0.0039463
-3.40082e-09
0.00789448
0.00476941
-8.86102e-12
0.00789485
0.0047691
3.38428e-09
0.00789485
0.0047691
0.00789448
0.00476941
-6.12364e-09
0.0073209
0.00553114
9.15091e-13
0.00732074
0.0055308
6.11942e-09
0.00732074
0.0055308
0.0073209
0.00553114
-9.80743e-09
0.0064789
0.00590266
-3.08493e-12
0.00647834
0.00590258
9.80739e-09
0.00647834
0.00590258
0.0064789
0.00590266
-1.05712e-08
0.00543425
0.00613078
-7.29332e-12
0.00543311
0.00613063
1.0573e-08
0.00543311
0.00613063
0.00543425
0.00613078
-1.16527e-08
0.00449951
0.0061555
-7.21155e-12
0.00449831
0.00615492
1.16538e-08
0.00449831
0.00615492
0.00449951
0.0061555
-1.0351e-08
0.00384575
-0.00529743
0.0059512
-5.12694e-12
0.0038448
-0.00529703
0.00595052
1.035e-08
0.0038448
-0.00529703
0.00595052
0.00384575
-0.00529743
0.0059512
-2.65495e-08
-0.00553082
0.00457342
-8.6398e-12
-0.00552901
0.00457203
2.6548e-08
-0.00552901
0.00457203
-0.00553082
0.00457342
3.65103e-08
0.00588348
-0.0631063
3.98648e-13
0.00588236
-0.0631094
-3.65103e-08
0.00588236
-0.0631094
0.00588348
-0.0631063
-1.1035e-07
0.0136573
-0.0272481
-2.4365e-12
0.0136503
-0.0272496
1.10347e-07
0.0136503
-0.0272496
0.0136573
-0.0272481
-1.57026e-08
-0.050972
0.00827598
-5.68068e-13
-0.0509792
0.00827063
1.57014e-08
-0.0509792
0.00827063
-0.050972
0.00827598
1.49112e-08
-0.0527302
0.00840071
1.82301e-12
-0.0527313
0.00840822
-1.49103e-08
-0.0527313
0.00840822
-0.0527302
0.00840071
-2.24927e-09
-0.0550169
0.00486344
4.214e-13
-0.0550152
0.00486481
2.25109e-09
-0.0550152
0.00486481
-0.0550169
0.00486344
4.35169e-08
-0.0578637
0.00597102
2.7538e-13
-0.0578622
0.00597474
-4.3517e-08
-0.0578622
0.00597474
-0.0578637
0.00597102
-7.34246e-08
0.0357348
-0.00394944
-5.03395e-13
0.035739
-0.00394569
7.34244e-08
0.035739
-0.00394569
0.0357348
-0.00394944
-4.81693e-08
0.0392429
0.0169453
-4.03255e-13
0.0392422
0.0169473
4.8169e-08
0.0392422
0.0169473
0.0392429
0.0169453
-8.99536e-08
0.0372606
0.0211583
-4.75704e-13
0.0372553
0.0211616
8.99531e-08
0.0372553
0.0211616
0.0372606
0.0211583
-3.41919e-08
0.0358954
0.0222325
-3.45384e-13
0.0358911
0.0222274
3.41912e-08
0.0358911
0.0222274
0.0358954
0.0222325
-1.43251e-08
0.0351922
0.0240596
-7.28939e-14
0.0351871
0.0240567
1.43252e-08
0.0351871
0.0240567
0.0351922
0.0240596
-2.59795e-08
0.0331859
0.0279332
1.138e-13
0.0331806
0.0279326
2.59801e-08
0.0331806
0.0279326
0.0331859
0.0279332
-3.14273e-08
0.030929
0.032099
4.42588e-13
0.0309271
0.0320964
3.14278e-08
0.0309271
0.0320964
0.030929
0.032099
-8.79302e-09
0.0270655
0.038101
3.92974e-13
0.0270699
0.0380971
8.79181e-09
0.0270699
0.0380971
0.0270655
0.038101
2.48311e-08
0.055218
0.0127342
-7.33678e-14
0.0552167
0.0127364
-2.48321e-08
0.0552167
0.0127364
0.055218
0.0127342
2.18401e-08
-0.0594842
0.00567769
3.11647e-13
-0.0594886
0.00568046
-2.18399e-08
-0.0594886
0.00568046
-0.0594842
0.00567769
-1.50156e-08
-0.00373591
0.00293718
-4.28919e-12
-0.00373535
0.00293657
1.5001e-08
-0.00373535
0.00293657
-0.00373591
0.00293718
-6.83849e-09
-0.00183963
0.00271722
-4.04222e-12
-0.00183944
0.00271641
6.83044e-09
-0.00183944
0.00271641
-0.00183963
0.00271722
-1.33448e-08
0.000260651
0.00253052
-3.10958e-12
0.000261584
0.00253039
1.33461e-08
0.000261584
0.00253039
0.000260651
0.00253052
-1.87059e-08
0.00833805
0.0118108
0.0350692
-8.35884e-13
0.00833625
0.0118077
0.0350727
1.87053e-08
0.00833625
0.0118077
0.0350727
0.00833805
0.0118108
0.0350692
-9.18402e-09
0.0132745
0.0371869
1.03796e-13
0.0132639
0.0371812
9.18474e-09
0.0132639
0.0371812
0.0132745
0.0371869
-7.53507e-09
0.00768774
0.0406996
1.6446e-13
0.0076785
0.0406959
7.53493e-09
0.0076785
0.0406959
0.00768774
0.0406996
2.48848e-09
0.00230525
0.00384591
2.42947e-12
0.00230524
0.00384632
-2.48026e-09
0.00230524
0.00384632
0.00230525
0.00384591
8.98026e-09
0.00337923
0.00333945
3.02626e-12
0.00337942
0.00334023
-8.97878e-09
0.00337942
0.00334023
0.00337923
0.00333945
-1.07072e-08
0.00425613
0.00311946
4.37216e-12
0.00425623
0.00311815
1.07032e-08
0.00425623
0.00311815
0.00425613
0.00311946
1.79542e-08
0.00486561
0.00283153
4.64716e-12
0.00486607
0.00283266
-1.79548e-08
0.00486607
0.00283266
0.00486561
0.00283153
-2.02201e-08
0.00250239
0.00544732
4.55016e-12
0.00250319
0.00544739
2.02298e-08
0.00250319
0.00544739
0.00250239
0.00544732
-1.12137e-09
0.0432962
0.0102055
4.18078e-13
0.0432949
0.0102059
1.12107e-09
0.0432949
0.0102059
0.0432962
0.0102055
1.9568e-08
-0.00519552
0.00584854
-2.41874e-12
-0.00519446
0.00584849
-1.95647e-08
-0.00519446
0.00584849
-0.00519552
0.00584854
2.05604e-08
-0.00463292
0.00226891
6.29394e-12
-0.00463442
0.00227264
-2.05564e-08
-0.00463442
0.00227264
-0.00463292
0.00226891
-1.0237e-08
-0.00320966
0.0016962
5.19301e-12
-0.00321129
0.00169502
1.02361e-08
-0.00321129
0.00169502
-0.00320966
0.0016962
7.53128e-09
-0.00184617
0.00197596
3.21289e-12
-0.00184753
0.00197647
-7.52865e-09
-0.00184753
0.00197647
-0.00184617
0.00197596
-1.70644e-08
0.00226041
-1.41637e-12
0.00226035
1.70776e-08
0.00226035
0.00226041
-4.61218e-09
-0.00373092
0.00113729
-2.86392e-12
-0.00372874
0.0011363
4.59897e-09
-0.00372874
0.0011363
-0.00373092
0.00113729
-6.81856e-09