x,y,z,U_0,U_1,U_2
0,0,0,0.3,-0.000302061,0
0,0.1,0,0.3,-0.000215758,0
0,0.2,0,0.3,-0.000129454,0
0,0.3,0,0.3,-4.31515e-05,0
0,0.4,0,0.3,0,0
0,0.5,0,0.3,0,0
0,0.6,0,0.3,0,0
0,0.7,0,0.3,0,0
0,0.8,0,0.3,0,0
0,0.9,0,0.3,0,0
0,1,0,0.3,0,0
0,1.1,0,0.3,0,0
0,1.2,0,0.3,0,0
0,1.3,0,0.3,0,0
0,1.4,0,0.3,0,0
0,1.5,0,0.3,0,0
0,1.6,0,0.3,0,0
0,1.7,0,0.3,0,0
0,1.8,0,0.3,0,0
0,1.9,0,0.3,0,0
0,2,0,0.3,0,0
0,2.1,0,0.3,0,0
0,2.2,0,0.3,0,0
0,2.3,0,0.3,0,0
0,2.4,0,0.3,0,0
0,2.5,0,0.3,0,0
0,2.6,0,0.3,0,0
0,2.7,0,0.3,0,0
0,2.8,0,0.3,0,0
0,2.9,0,0.3,0,0
0,3,0,0.3,0,0
0,3.1,0,0.3,0,0
0,3.2,0,0.3,0,0
0,3.3,0,0.3,0,0
0,3.4,0,0.3,0,0
0,3.5,0,0.3,2.53058e-19,0
0,3.6,0,0.3,0,0
0,3.7,0,0.3,0,0
0,3.8,0,0.3,0,0
0,3.9,0,0.3,0,0
0,4,0,0.3,0,0
0,4.1,0,0.3,0,0
0,4.2,0,0.3,0,0
0,4.3,0,0.3,0,0
0,4.4,0,0.3,0,0
0,4.5,0,0.3,0,0
0,4.6,0,0.3,0,0
0,4.7,0,0.3,0,0
0,4.8,0,0.3,0,0
0,4.9,0,0.3,1.98058e-19,0
0,5,0,0.3,0,0
0,5.1,0,0.3,0,0
0,5.2,0,0.3,0,0
0,5.3,0,0.3,0,0
0,5.4,0,0.3,0,0
0,5.5,0,0.3,0,0
0,5.6,0,0.3,0,0
0,5.7,0,0.3,0,0
0,5.8,0,0.3,0,0
0,5.9,0,0.3,0,0
0,6,0,0.3,0,0
0,6.1,0,0.3,0,0
0,6.2,0,0.3,0,0
0,6.3,0,0.3,0,0
0,6.4,0,0.3,0,0
0,6.5,0,0.3,0,0
0,6.6,0,0.3,0,0
0,6.7,0,0.3,0,0
0,6.8,0,0.3,0,0
0,6.9,0,0.3,0,0
0,7,0,0.3,0,0
0,7.1,0,0.3,-9.17764e-21,0
0,7.2,0,0.3,0,0
0,7.3,0,0.3,0,0
0,7.4,0,0.3,0,0
0,7.5,0,0.3,-5.78052e-20,0
0,7.6,0,0.3,0,0
0,7.7,0,0.3,-8.22017e-20,0
0,7.8,0,0.3,0,0
0,7.9,0,0.3,0,0
0,8,0,0.3,0,0
0,8.1,0,0.3,0,0
0,8.2,0,0.3,0,0
0,8.3,0,0.3,0,0
0,8.4,0,0.3,0,0
0,8.5,0,0.3,0,0
0,8.6,0,0.3,0,0
0,8.7,0,0.3,0,0
0,8.8,0,0.3,0,0
0,8.9,0,0.3,0,0
0,9,0,0.3,0,0
0,9.1,0,0.3,0,0
0,9.2,0,0.3,0,0
0,9.3,0,0.3,0,0
0,9.4,0,0.3,0,0
0,9.5,0,0.3,0,0
0,9.6,0,0.3,0,0
0,9.7,0,0.3,0,0
0,9.8,0,0.3,0,0
0,9.9,0,0.3,0,0
0,10,0,0.3,0,0
0,10.1,0,0.3,0,0
0,10.2,0,0.3,0,0
0,10.3,0,0.3,0,0
0,10.4,0,0.3,0,0
0,10.5,0,0.3,0,0
0,10.6,0,0.3,0,0
0,10.7,0,0.3,0,0
0,10.8,0,0.3,0,0
0,10.9,0,0.3,0,0
0,11,0,0.3,0,0
0,11.1,0,0.3,0,0
0,11.2,0,0.3,0,0
0,11.3,0,0.3,0,0
0,11.4,0,0.3,0,0
0,11.5,0,0.3,0,0
0,11.6,0,0.3,0,0
0,11.7,0,0.3,0,0
0,11.8,0,0.3,0,0
0,11.9,0,0.3,0,0
0,12,0,0.3,0,0
0,12.1,0,0.3,0,0
0,12.2,0,0.3,0,0
0,12.3,0,0.3,0,0
0,12.4,0,0.3,0,0
0,12.5,0,0.3,6.41098e-05,0
0,12.6,0,0.3,0.00024728,0
0,12.7,0,0.3,0.000430451,0
0.1,0,0,0.3,-0.000561348,0
0.1,0.1,0,0.3,-0.000474667,0
0.1,0.2,0,0.3,-0.000388364,0
0.1,0.3,0,0.3,-0.000345445,0
0.1,0.4,0,0.3,-0.000345527,0
0.1,0.5,0,0.3,-0.000345376,0
0.1,0.6,0,0.3,-0.000345376,0
0.1,0.7,0,0.3,-0.000345911,0
0.1,0.8,0,0.3,-0.000345637,0
0.1,0.9,0,0.3,-0.000345637,0
0.1,1,0,0.3,-0.00034591,0
0.1,1.1,0,0.3,-0.000346018,0
0.1,1.2,0,0.3,-0.000345854,0
0.1,1.3,0,0.3,-0.000345854,0
0.1,1.4,0,0.3,-0.000346317,0
0.1,1.5,0,0.3,-0.000345814,0
0.1,1.6,0,0.3,-0.000345814,0
0.1,1.7,0,0.3,-0.000345941,0
0.1,1.8,0,0.3,-0.000345651,0
0.1,1.9,0,0.3,-0.000345235,0
0.1,2,0,0.3,-0.000345235,0
0.1,2.1,0,0.299999,-0.000345118,0
0.1,2.2,0,0.3,-0.000343765,0
0.1,2.3,0,0.3,-0.000343765,0
0.1,2.4,0,0.299999,-0.000343423,0
0.1,2.5,0,0.299999,-0.000342031,0
0.1,2.6,0,0.3,-0.000340979,0
0.1,2.7,0,0.3,-0.000340979,0
0.1,2.8,0,0.299998,-0.000339504,0
0.1,2.9,0,0.299999,-0.000336387,0
0.1,3,0,0.299999,-0.000336387,0
0.1,3.1,0,0.299998,-0.000335129,0
0.1,3.2,0,0.299998,-0.000331656,0
0.1,3.3,0,0.299999,-0.00032944,0
0.1,3.4,0,0.299999,-0.00032944,0
0.1,3.5,0,0.299995,-0.00032562,0
0.1,3.6,0,0.299999,-0.000319546,0
0.1,3.7,0,0.299999,-0.000319546,0
0.1,3.8,0,0.299996,-0.000316854,0
0.1,3.9,0,0.299996,-0.00031013,0
0.1,4,0,0.299999,-0.000306099,0
0.1,4.1,0,0.299999,-0.000306099,0
0.1,4.2,0,0.299991,-0.000298903,0
0.1,4.3,0,0.299998,-0.000288522,0
0.1,4.4,0,0.299998,-0.000288522,0
0.1,4.5,0,0.299993,-0.000283906,0
0.1,4.6,0,0.299993,-0.000272806,0
0.1,4.7,0,0.299998,-0.000266323,0
0.1,4.8,0,0.299998,-0.000266323,0
0.1,4.9,0,0.299986,-0.00025485,0
0.1,5,0,0.299998,-0.000239162,0
0.1,5.1,0,0.299998,-0.000239162,0
0.1,5.2,0,0.29999,-0.000232199,0
0.1,5.3,0,0.29999,-0.00021607,0
0.1,5.4,0,0.299998,-0.000206903,0
0.1,5.5,0,0.299998,-0.000206903,0
0.1,5.6,0,0.29998,-0.000190288,0
0.1,5.7,0,0.299998,-0.000169642,0
0.1,5.8,0,0.299998,-0.000169642,0
0.1,5.9,0,0.299988,-0.000159865,0
0.1,6,0,0.299988,-0.0001389,0
0.1,6.1,0,0.299999,-0.000127711,0
0.1,6.2,0,0.299999,-0.000127711,0
0.1,6.3,0,0.299974,-0.000104996,0
0.1,6.4,0,0.300001,-8.16554e-05,0
0.1,6.5,0,0.300001,-8.16554e-05,0
0.1,6.6,0,0.299987,-6.86973e-05,0
0.1,6.7,0,0.299987,-4.44475e-05,0
0.1,6.8,0,0.300003,-3.31558e-05,0
0.1,6.9,0,0.300003,-3.31558e-05,0
0.1,7,0,0.299971,-1.26627e-05,0
0.1,7.1,0,0.299971,1.18093e-05,0
0.1,7.2,0,0.29997,2.73663e-05,0
0.1,7.3,0,0.29997,4.29944e-05,0
0.1,7.4,0,0.29997,5.86716e-05,0
0.1,7.5,0,0.29997,7.43804e-05,0
0.1,7.6,0,0.29997,9.00911e-05,0
0.1,7.7,0,0.29997,0.000105772,0
0.1,7.8,0,0.29997,0.000121401,0
0.1,7.9,0,0.299971,0.000136951,0
0.1,8,0,0.299971,0.000157394,0
0.1,8.1,0,0.300004,0.000172779,0
0.1,8.2,0,0.299988,0.000180009,0
0.1,8.3,0,0.300002,0.000206013,0
0.1,8.4,0,0.300003,0.00020661,0
0.1,8.5,0,0.299986,0.000229974,0
0.1,8.6,0,0.300002,0.000239442,0
0.1,8.7,0,0.299976,0.000254096,0
0.1,8.8,0,0.300001,0.000270769,0
0.1,8.9,0,0.299991,0.000277085,0
0.1,9,0,0.299997,0.00029875,0
0.1,9.1,0,0.299999,0.000300221,0
0.1,9.2,0,0.299985,0.000319996,0
0.1,9.3,0,0.299998,0.000327635,0
0.1,9.4,0,0.299982,0.000340137,0
0.1,9.5,0,0.299998,0.000352921,0
0.1,9.6,0,0.299992,0.000357523,0
0.1,9.7,0,0.299995,0.000374379,0
0.1,9.8,0,0.299998,0.000376036,0
0.1,9.9,0,0.299988,0.000391425,0
0.1,10,0,0.299998,0.000396966,0
0.1,10.1,0,0.299988,0.000406261,0
0.1,10.2,0,0.299998,0.000415719,0
0.1,10.3,0,0.299995,0.000418475,0
0.1,10.4,0,0.299995,0.000430842,0
0.1,10.5,0,0.299998,0.000432326,0
0.1,10.6,0,0.299991,0.000443004,0
0.1,10.7,0,0.299998,0.000446842,0
0.1,10.8,0,0.299993,0.000452716,0
0.1,10.9,0,0.299998,0.000459351,0
0.1,11,0,0.299997,0.000460655,0
0.1,11.1,0,0.299997,0.000468836,0
0.1,11.2,0,0.299999,0.000469955,0
0.1,11.3,0,0.299994,0.000476487,0
0.1,11.4,0,0.299999,0.000478769,0
0.1,11.5,0,0.299996,0.000481998,0
0.1,11.6,0,0.299999,0.000485911,0
0.1,11.7,0,0.299999,0.000486363,0
0.1,11.8,0,0.299998,0.000490954,0
0.1,11.9,0,0.299999,0.000491494,0
0.1,12,0,0.299997,0.000494973,0
0.1,12.1,0,0.299999,0.000495613,0
0.1,12.2,0,0.299999,0.00049709,0
0.1,12.3,0,0.3,0.000498322,0
0.1,12.4,0,0.3,0.000498385,0
0.1,12.5,0,0.299999,0.000499965,0
0.1,12.6,0,0.3,0.000623958,0
0.1,12.7,0,0.299999,0.000808431,0
0.2,0,0,0.3,-0.000820635,0
0.2,0.1,0,0.3,-0.000733954,0
0.2,0.2,0,0.3,-0.000690657,0
0.2,0.3,0,0.3,-0.000691124,0
0.2,0.4,0,0.3,-0.000691206,0
0.2,0.5,0,0.3,-0.000690903,0
0.2,0.6,0,0.3,-0.000691287,0
0.2,0.7,0,0.3,-0.000691822,0
0.2,0.8,0,0.3,-0.000691548,0
0.2,0.9,0,0.3,-0.000691547,0
0.2,1,0,0.3,-0.000692093,0
0.2,1.1,0,0.3,-0.000692201,0
0.2,1.2,0,0.3,-0.000691872,0
0.2,1.3,0,0.3,-0.000692171,0
0.2,1.4,0,0.3,-0.000692634,0
0.2,1.5,0,0.3,-0.000692131,0
0.2,1.6,0,0.3,-0.000691754,0
0.2,1.7,0,0.3,-0.000692008,0
0.2,1.8,0,0.3,-0.000691719,0
0.2,1.9,0,0.3,-0.000690886,0
0.2,2,0,0.299999,-0.000690353,0
0.2,2.1,0,0.299999,-0.000690236,0
0.2,2.2,0,0.299999,-0.000688882,0
0.2,2.3,0,0.299999,-0.000687188,0
0.2,2.4,0,0.299998,-0.000686505,0
0.2,2.5,0,0.299998,-0.000685112,0
0.2,2.6,0,0.299999,-0.00068301,0
0.2,2.7,0,0.299998,-0.000680484,0
0.2,2.8,0,0.299995,-0.000679009,0
0.2,2.9,0,0.299997,-0.000675892,0
0.2,3,0,0.299997,-0.000671517,0
0.2,3.1,0,0.299994,-0.000669001,0
0.2,3.2,0,0.299994,-0.000665527,0
0.2,3.3,0,0.299997,-0.000661096,0
0.2,3.4,0,0.299994,-0.00065506,0
0.2,3.5,0,0.29999,-0.000651241,0
0.2,3.6,0,0.299994,-0.000645166,0
0.2,3.7,0,0.299995,-0.000636399,0
0.2,3.8,0,0.299989,-0.000631015,0
0.2,3.9,0,0.299989,-0.000624291,0
0.2,4,0,0.299995,-0.000616229,0
0.2,4.1,0,0.29999,-0.000605001,0
0.2,4.2,0,0.299982,-0.000597805,0
0.2,4.3,0,0.299989,-0.000587424,0
0.2,4.4,0,0.299992,-0.000572428,0
0.2,4.5,0,0.299982,-0.000563196,0
0.2,4.6,0,0.299981,-0.000552096,0
0.2,4.7,0,0.299991,-0.000539129,0
0.2,4.8,0,0.299983,-0.000521173,0
0.2,4.9,0,0.299971,-0.0005097,0
0.2,5,0,0.299983,-0.000494012,0
0.2,5.1,0,0.299988,-0.000471361,0
0.2,5.2,0,0.299973,-0.000457436,0
0.2,5.3,0,0.299973,-0.000441306,0
0.2,5.4,0,0.299988,-0.000422973,0
0.2,5.5,0,0.299978,-0.000397191,0
0.2,5.6,0,0.29996,-0.000380576,0
0.2,5.7,0,0.299978,-0.00035993,0
0.2,5.8,0,0.299986,-0.000329507,0
0.2,5.9,0,0.299964,-0.000309953,0
0.2,6,0,0.299965,-0.000288988,0
0.2,6.1,0,0.299988,-0.000266611,0
0.2,6.2,0,0.299974,-0.000232708,0
0.2,6.3,0,0.299948,-0.000209992,0
0.2,6.4,0,0.299975,-0.000186652,0
0.2,6.5,0,0.299988,-0.000150353,0
0.2,6.6,0,0.299959,-0.000124437,0
0.2,6.7,0,0.29996,-0.000100187,0
0.2,6.8,0,0.29999,-7.76033e-05,0
0.2,6.9,0,0.299974,-4.58185e-05,0
0.2,7,0,0.299942,-2.53255e-05,0
0.2,7.1,0,0.299941,2.36185e-05,0
0.2,7.2,0,0.299941,5.47325e-05,0
0.2,7.3,0,0.29994,8.59887e-05,0
0.2,7.4,0,0.29994,0.000117343,0
0.2,7.5,0,0.29994,0.000148761,0
0.2,7.6,0,0.29994,0.000180182,0
0.2,7.7,0,0.29994,0.000211545,0
0.2,7.8,0,0.299941,0.000242801,0
0.2,7.9,0,0.299941,0.000273902,0
0.2,8,0,0.299942,0.000314788,0
0.2,8.1,0,0.299991,0.000337702,0
0.2,8.2,0,0.29996,0.000367891,0
0.2,8.3,0,0.299973,0.000393895,0
0.2,8.4,0,0.299977,0.000428269,0
0.2,8.5,0,0.299958,0.000452302,0
0.2,8.6,0,0.29999,0.000484698,0
0.2,8.7,0,0.299951,0.000509371,0
0.2,8.8,0,0.299986,0.000532472,0
0.2,8.9,0,0.299967,0.00056348,0
0.2,9,0,0.299973,0.000585145,0
0.2,9.1,0,0.29998,0.000613902,0
0.2,9.2,0,0.299963,0.00063546,0
0.2,9.3,0,0.299987,0.0006589,0
0.2,9.4,0,0.299962,0.000682462,0
0.2,9.5,0,0.299984,0.000698853,0
0.2,9.6,0,0.299974,0.000724399,0
0.2,9.7,0,0.299976,0.000741255,0
0.2,9.8,0,0.299984,0.000762614,0
0.2,9.9,0,0.299971,0.0007805,0
0.2,10,0,0.299989,0.000795691,0
0.2,10.1,0,0.299973,0.000815195,0
0.2,10.2,0,0.299986,0.000826458,0
0.2,10.3,0,0.299982,0.000844988,0
0.2,10.4,0,0.299982,0.000857354,0
0.2,10.5,0,0.299989,0.00087168,0
0.2,10.6,0,0.29998,0.000884905,0
0.2,10.7,0,0.299992,0.000894045,0
0.2,10.8,0,0.299983,0.000907925,0
0.2,10.9,0,0.29999,0.000915353,0
0.2,11,0,0.299989,0.000927217,0
0.2,11.1,0,0.299988,0.000935398,0
0.2,11.2,0,0.299994,0.000943955,0
0.2,11.3,0,0.299987,0.000952576,0
0.2,11.4,0,0.299995,0.000957279,0
0.2,11.5,0,0.299991,0.000965912,0
0.2,11.6,0,0.299995,0.000970059,0
0.2,11.7,0,0.299995,0.00097652,0
0.2,11.8,0,0.299994,0.000981111,0
0.2,11.9,0,0.299997,0.000984993,0
0.2,12,0,0.299994,0.000989895,0
0.2,12.1,0,0.299998,0.000991095,0
0.2,12.2,0,0.299996,0.000995374,0
0.2,12.3,0,0.299998,0.000996607,0
0.2,12.4,0,0.299999,0.000998678,0
0.2,12.5,0,0.299998,0.00100026,0
0.2,12.6,0,0.3,0.0010013,0
0.2,12.7,0,0.299999,0.00118641,0
0.3,0,0,0.3,-0.00107992,0
0.3,0.1,0,0.3,-0.00103663,0
0.3,0.2,0,0.3,-0.00103671,0
0.3,0.3,0,0.3,-0.0010368,0
0.3,0.4,0,0.3,-0.00103688,0
0.3,0.5,0,0.3,-0.00103712,0
0.3,0.6,0,0.3,-0.00103735,0
0.3,0.7,0,0.3,-0.00103773,0
0.3,0.8,0,0.3,-0.00103773,0
0.3,0.9,0,0.3,-0.001038,0
0.3,1,0,0.3,-0.00103828,0
0.3,1.1,0,0.3,-0.00103838,0
0.3,1.2,0,0.3,-0.00103852,0
0.3,1.3,0,0.3,-0.00103865,0
0.3,1.4,0,0.3,-0.00103895,0
0.3,1.5,0,0.3,-0.00103857,0
0.3,1.6,0,0.3,-0.00103833,0
0.3,1.7,0,0.3,-0.00103808,0
0.3,1.8,0,0.3,-0.00103779,0
0.3,1.9,0,0.299999,-0.00103684,0
0.3,2,0,0.299999,-0.00103589,0
0.3,2.1,0,0.299998,-0.00103535,0
0.3,2.2,0,0.299998,-0.00103366,0
0.3,2.3,0,0.299997,-0.00103162,0
0.3,2.4,0,0.299997,-0.00102959,0
0.3,2.5,0,0.299997,-0.00102819,0
0.3,2.6,0,0.299996,-0.00102462,0
0.3,2.7,0,0.299995,-0.00102104,0
0.3,2.8,0,0.299993,-0.00101851,0
0.3,2.9,0,0.299993,-0.00101414,0
0.3,3,0,0.299992,-0.00100851,0
0.3,3.1,0,0.299991,-0.00100287,0
0.3,3.2,0,0.299991,-0.000999398,0
0.3,3.3,0,0.299989,-0.000991147,0
0.3,3.4,0,0.299988,-0.000982896,0
0.3,3.5,0,0.299985,-0.000976861,0
0.3,3.6,0,0.299986,-0.000968094,0
0.3,3.7,0,0.299984,-0.000956635,0
0.3,3.8,0,0.299982,-0.000945176,0
0.3,3.9,0,0.299982,-0.000938453,0
0.3,4,0,0.29998,-0.000923194,0
0.3,4.1,0,0.299978,-0.000907935,0
0.3,4.2,0,0.299972,-0.000896708,0
0.3,4.3,0,0.299975,-0.000881711,0
0.3,4.4,0,0.299972,-0.000862098,0
0.3,4.5,0,0.29997,-0.000842485,0
0.3,4.6,0,0.29997,-0.000831386,0
0.3,4.7,0,0.299967,-0.000806946,0
0.3,4.8,0,0.299964,-0.000782506,0
0.3,4.9,0,0.299957,-0.00076455,0
0.3,5,0,0.299961,-0.000741899,0
0.3,5.1,0,0.299959,-0.000712286,0
0.3,5.2,0,0.299956,-0.000682672,0
0.3,5.3,0,0.299956,-0.000666543,0
0.3,5.4,0,0.299953,-0.000631594,0
0.3,5.5,0,0.29995,-0.000596646,0
0.3,5.6,0,0.299939,-0.000570864,0
0.3,5.7,0,0.299947,-0.000540441,0
0.3,5.8,0,0.299944,-0.000500241,0
0.3,5.9,0,0.299941,-0.000460041,0
0.3,6,0,0.299942,-0.000439076,0
0.3,6.1,0,0.299939,-0.000393984,0
0.3,6.2,0,0.299937,-0.000348892,0
0.3,6.3,0,0.299923,-0.000314989,0
0.3,6.4,0,0.299935,-0.00027869,0
0.3,6.5,0,0.299933,-0.000229433,0
0.3,6.6,0,0.299931,-0.000180176,0
0.3,6.7,0,0.299932,-0.000155926,0
0.3,6.8,0,0.29993,-0.00011285,0
0.3,6.9,0,0.299929,-6.9773e-05,0
0.3,7,0,0.299913,-3.79882e-05,0
0.3,7.1,0,0.299911,3.54278e-05,0
0.3,7.2,0,0.299911,8.20988e-05,0
0.3,7.3,0,0.299911,0.000128983,0
0.3,7.4,0,0.29991,0.000176015,0
0.3,7.5,0,0.29991,0.000223141,0
0.3,7.6,0,0.299911,0.000270273,0
0.3,7.7,0,0.299911,0.000317317,0
0.3,7.8,0,0.299911,0.000364202,0
0.3,7.9,0,0.299912,0.000410853,0
0.3,8,0,0.299912,0.000472183,0
0.3,8.1,0,0.29993,0.000510039,0
0.3,8.2,0,0.299931,0.000555446,0
0.3,8.3,0,0.299931,0.000589134,0
0.3,8.4,0,0.299933,0.000640435,0
0.3,8.5,0,0.299931,0.000674629,0
0.3,8.6,0,0.299935,0.000722858,0
0.3,8.7,0,0.299925,0.000764646,0
0.3,8.8,0,0.299938,0.000802043,0
0.3,8.9,0,0.29994,0.000848391,0
0.3,9,0,0.299941,0.000877539,0
0.3,9.1,0,0.299943,0.000920834,0
0.3,9.2,0,0.299941,0.000950924,0
0.3,9.3,0,0.299946,0.000989054,0
0.3,9.4,0,0.299942,0.00102479,0
0.3,9.5,0,0.29995,0.00105291,0
0.3,9.6,0,0.299953,0.00108947,0
0.3,9.7,0,0.299954,0.00111229,0
0.3,9.8,0,0.299956,0.00114535,0
0.3,9.9,0,0.299955,0.00116957,0
0.3,10,0,0.29996,0.00119673,0
0.3,10.1,0,0.299959,0.00122413,0
0.3,10.2,0,0.299964,0.00124366,0
0.3,10.3,0,0.299966,0.00126984,0
0.3,10.4,0,0.299967,0.00128621,0
0.3,10.5,0,0.299969,0.00130913,0
0.3,10.6,0,0.299968,0.0013268,0
0.3,10.7,0,0.299973,0.00134431,0
0.3,10.8,0,0.299973,0.00136313,0
0.3,10.9,0,0.299976,0.00137555,0
0.3,11,0,0.299978,0.00139246,0
0.3,11.1,0,0.299979,0.001403,0
0.3,11.2,0,0.299981,0.00141719,0
0.3,11.3,0,0.29998,0.00142866,0
0.3,11.4,0,0.299984,0.00143851,0
0.3,11.5,0,0.299985,0.00144983,0
0.3,11.6,0,0.299987,0.00145659,0
0.3,11.7,0,0.299989,0.00146589,0
0.3,11.8,0,0.299989,0.0014716,0
0.3,11.9,0,0.299991,0.00147869,0
0.3,12,0,0.299991,0.00148482,0
0.3,12.1,0,0.299993,0.00148869,0
0.3,12.2,0,0.299994,0.00149366,0
0.3,12.3,0,0.299995,0.00149596,0
0.3,12.4,0,0.299997,0.00149895,0
0.3,12.5,0,0.299997,0.00150058,0
0.3,12.6,0,0.299998,0.00150158,0
0.3,12.7,0,0.299998,0.00156439,0
0.4,0,0,0.3,-0.00138261,0
0.4,0.1,0,0.3,-0.00138259,0
0.4,0.2,0,0.3,-0.00138268,0
0.4,0.3,0,0.3,-0.00138277,0
0.4,0.4,0,0.3,-0.00138304,0
0.4,0.5,0,0.300001,-0.00138327,0
0.4,0.6,0,0.300001,-0.00138351,0
0.4,0.7,0,0.300001,-0.00138396,0
0.4,0.8,0,0.300001,-0.0013842,0
0.4,0.9,0,0.300001,-0.00138448,0
0.4,1,0,0.300001,-0.00138475,0
0.4,1.1,0,0.300001,-0.00138515,0
0.4,1.2,0,0.300001,-0.00138529,0
0.4,1.3,0,0.300001,-0.00138542,0
0.4,1.4,0,0.3,-0.00138577,0
0.4,1.5,0,0.3,-0.00138541,0
0.4,1.6,0,0.3,-0.00138516,0
0.4,1.7,0,0.3,-0.00138491,0
0.4,1.8,0,0.299999,-0.00138417,0
0.4,1.9,0,0.299999,-0.00138322,0
0.4,2,0,0.299998,-0.00138228,0
0.4,2.1,0,0.299997,-0.00138128,0
0.4,2.2,0,0.299997,-0.00137874,0
0.4,2.3,0,0.299996,-0.00137671,0
0.4,2.4,0,0.299995,-0.00137467,0
0.4,2.5,0,0.299993,-0.00137069,0
0.4,2.6,0,0.299992,-0.00136712,0
0.4,2.7,0,0.299991,-0.00136354,0
0.4,2.8,0,0.299989,-0.00135924,0
0.4,2.9,0,0.299988,-0.00135229,0
0.4,3,0,0.299987,-0.00134666,0
0.4,3.1,0,0.299986,-0.00134102,0
0.4,3.2,0,0.299983,-0.0013309,0
0.4,3.3,0,0.299982,-0.00132265,0
0.4,3.4,0,0.29998,-0.0013144,0
0.4,3.5,0,0.299975,-0.00130418,0
0.4,3.6,0,0.299975,-0.00129008,0
0.4,3.7,0,0.299973,-0.00127863,0
0.4,3.8,0,0.299971,-0.00126717,0
0.4,3.9,0,0.299967,-0.00124746,0
0.4,4,0,0.299965,-0.0012322,0
0.4,4.1,0,0.299963,-0.00121695,0
0.4,4.2,0,0.299955,-0.00119774,0
0.4,4.3,0,0.299956,-0.00117369,0
0.4,4.4,0,0.299953,-0.00115408,0
0.4,4.5,0,0.299951,-0.00113446,0
0.4,4.6,0,0.299946,-0.00110172,0
0.4,4.7,0,0.299943,-0.00107728,0
0.4,4.8,0,0.29994,-0.00105284,0
0.4,4.9,0,0.29993,-0.00102171,0
0.4,5,0,0.299932,-0.000985478,0
0.4,5.1,0,0.299929,-0.000955865,0
0.4,5.2,0,0.299926,-0.000926252,0
0.4,5.3,0,0.299921,-0.000877846,0
0.4,5.4,0,0.299918,-0.000842897,0
0.4,5.5,0,0.299915,-0.000807949,0
0.4,5.6,0,0.299901,-0.000763314,0
0.4,5.7,0,0.299905,-0.000713745,0
0.4,5.8,0,0.299903,-0.000673545,0
0.4,5.9,0,0.2999,-0.000633345,0
0.4,6,0,0.299893,-0.00056877,0
0.4,6.1,0,0.299891,-0.000523679,0
0.4,6.2,0,0.299888,-0.000478587,0
0.4,6.3,0,0.299875,-0.000421818,0
0.4,6.4,0,0.29988,-0.000359613,0
0.4,6.5,0,0.299878,-0.000310356,0
0.4,6.6,0,0.299876,-0.000261099,0
0.4,6.7,0,0.299871,-0.000183148,0
0.4,6.8,0,0.29987,-0.000140072,0
0.4,6.9,0,0.299869,-9.69954e-05,0
0.4,7,0,0.299859,-5.19821e-05,0
0.4,7.1,0,0.299858,4.62185e-05,0
0.4,7.2,0,0.299857,0.000108653,0
0.4,7.3,0,0.299856,0.000171404,0
0.4,7.4,0,0.299856,0.000234365,0
0.4,7.5,0,0.299856,0.000297458,0
0.4,7.6,0,0.299856,0.000360559,0
0.4,7.7,0,0.299856,0.000423543,0
0.4,7.8,0,0.299857,0.000486308,0
0.4,7.9,0,0.299858,0.000548742,0
0.4,8,0,0.299859,0.000630789,0
0.4,8.1,0,0.299868,0.000677932,0
0.4,8.2,0,0.299869,0.00072334,0
0.4,8.3,0,0.299872,0.00079338,0
0.4,8.4,0,0.299874,0.000844681,0
0.4,8.5,0,0.299877,0.000912044,0
0.4,8.6,0,0.29988,0.000961868,0
0.4,8.7,0,0.299876,0.00101906,0
0.4,8.8,0,0.299887,0.00107392,0
0.4,8.9,0,0.29989,0.00112027,0
0.4,9,0,0.299895,0.00118025,0
0.4,9.1,0,0.299898,0.00122354,0
0.4,9.2,0,0.2999,0.00127869,0
0.4,9.3,0,0.299905,0.00132035,0
0.4,9.4,0,0.299903,0.0013653,0
0.4,9.5,0,0.299913,0.00141036,0
0.4,9.6,0,0.299916,0.00144693,0
0.4,9.7,0,0.299921,0.00149339,0
0.4,9.8,0,0.299924,0.00152645,0
0.4,9.9,0,0.299925,0.00156736,0
0.4,10,0,0.299931,0.00159894,0
0.4,10.1,0,0.29993,0.00163129,0
0.4,10.2,0,0.299938,0.00166451,0
0.4,10.3,0,0.299941,0.00169069,0
0.4,10.4,0,0.299945,0.00172337,0
0.4,10.5,0,0.299947,0.00174628,0
0.4,10.6,0,0.299948,0.00177413,0
0.4,10.7,0,0.299954,0.00179559,0
0.4,10.8,0,0.299954,0.00181689,0
0.4,10.9,0,0.29996,0.00183891,0
0.4,11,0,0.299962,0.00185582,0
0.4,11.1,0,0.299965,0.00187658,0
0.4,11.2,0,0.299968,0.00189077,0
0.4,11.3,0,0.299968,0.00190801,0
0.4,11.4,0,0.299973,0.00192057,0
0.4,11.5,0,0.299974,0.00193288,0
0.4,11.6,0,0.299978,0.00194552,0
0.4,11.7,0,0.299979,0.00195482,0
0.4,11.8,0,0.299982,0.0019659,0
0.4,11.9,0,0.299984,0.00197299,0
0.4,12,0,0.299985,0.00198188,0
0.4,12.1,0,0.299988,0.00198697,0
0.4,12.2,0,0.29999,0.00199214,0
0.4,12.3,0,0.299992,0.00199688,0
0.4,12.4,0,0.299994,0.00199987,0
0.4,12.5,0,0.299996,0.00200285,0
0.4,12.6,0,0.299997,0.00200385,0
0.4,12.7,0,0.299997,0.00200579,0
0.5,0,0,0.3,-0.00172871,0
0.5,0.1,0,0.3,-0.00172858,0
0.5,0.2,0,0.3,-0.00172856,0
0.5,0.3,0,0.3,-0.00172899,0
0.5,0.4,0,0.300001,-0.00172926,0
0.5,0.5,0,0.300001,-0.00172938,0
0.5,0.6,0,0.300001,-0.00172983,0
0.5,0.7,0,0.300001,-0.0017305,0
0.5,0.8,0,0.300001,-0.00173072,0
0.5,0.9,0,0.300001,-0.00173097,0
0.5,1,0,0.300001,-0.00173172,0
0.5,1.1,0,0.300001,-0.00173212,0
0.5,1.2,0,0.300001,-0.00173217,0
0.5,1.3,0,0.300001,-0.00173252,0
0.5,1.4,0,0.300001,-0.00173308,0
0.5,1.5,0,0.3,-0.00173261,0
0.5,1.6,0,0.3,-0.00173225,0
0.5,1.7,0,0.299999,-0.00173225,0
0.5,1.8,0,0.299999,-0.00173152,0
0.5,1.9,0,0.299998,-0.00173005,0
0.5,2,0,0.299997,-0.00172905,0
0.5,2.1,0,0.299995,-0.001728,0
0.5,2.2,0,0.299995,-0.00172497,0
0.5,2.3,0,0.299994,-0.00172244,0
0.5,2.4,0,0.299991,-0.00171975,0
0.5,2.5,0,0.29999,-0.00171577,0
0.5,2.6,0,0.299989,-0.00171051,0
0.5,2.7,0,0.299987,-0.00170621,0
0.5,2.8,0,0.299983,-0.00170118,0
0.5,2.9,0,0.299983,-0.00169292,0
0.5,3,0,0.299982,-0.00168597,0
0.5,3.1,0,0.299976,-0.00167781,0
0.5,3.2,0,0.299974,-0.00166769,0
0.5,3.3,0,0.299974,-0.00165561,0
0.5,3.4,0,0.299969,-0.00164539,0
0.5,3.5,0,0.299961,-0.00163321,0
0.5,3.6,0,0.299963,-0.00161647,0
0.5,3.7,0,0.299962,-0.00160237,0
0.5,3.8,0,0.299952,-0.00158519,0
0.5,3.9,0,0.299948,-0.00156549,0
0.5,4,0,0.29995,-0.00154326,0
0.5,4.1,0,0.299943,-0.00152405,0
0.5,4.2,0,0.29993,-0.00150089,0
0.5,4.3,0,0.299934,-0.00147241,0
0.5,4.4,0,0.299934,-0.00144836,0
0.5,4.5,0,0.299918,-0.00141827,0
0.5,4.6,0,0.299914,-0.00138553,0
0.5,4.7,0,0.29992,-0.00135014,0
0.5,4.8,0,0.299909,-0.001319,0
0.5,4.9,0,0.29989,-0.00128118,0
0.5,5,0,0.299897,-0.00123833,0
0.5,5.1,0,0.2999,-0.0012021,0
0.5,5.2,0,0.299878,-0.00115603,0
0.5,5.3,0,0.299873,-0.00110763,0
0.5,5.4,0,0.299882,-0.00105688,0
0.5,5.5,0,0.299869,-0.00101225,0
0.5,5.6,0,0.299846,-0.000957926,0
0.5,5.7,0,0.299857,-0.000898988,0
0.5,5.8,0,0.299861,-0.000849419,0
0.5,5.9,0,0.299837,-0.000787441,0
0.5,6,0,0.29983,-0.000722866,0
0.5,6.1,0,0.299842,-0.000655695,0
0.5,6.2,0,0.299829,-0.000598926,0
0.5,6.3,0,0.299806,-0.000530479,0
0.5,6.4,0,0.299818,-0.000455327,0
0.5,6.5,0,0.299822,-0.000393123,0
0.5,6.6,0,0.299801,-0.00032015,0
0.5,6.7,0,0.299797,-0.000242199,0
0.5,6.8,0,0.299809,-0.00015927,0
0.5,6.9,0,0.299799,-0.000114257,0
0.5,7,0,0.299782,-6.7307e-05,0
0.5,7.1,0,0.29978,5.59906e-05,0
0.5,7.2,0,0.299778,0.000134394,0
0.5,7.3,0,0.299777,0.00021325,0
0.5,7.4,0,0.299777,0.000292394,0
0.5,7.5,0,0.299776,0.00037171,0
0.5,7.6,0,0.299777,0.00045104,0
0.5,7.7,0,0.299777,0.000530222,0
0.5,7.8,0,0.299778,0.000609119,0
0.5,7.9,0,0.299779,0.000687568,0
0.5,8,0,0.299782,0.000790608,0
0.5,8.1,0,0.299805,0.000841184,0
0.5,8.2,0,0.299794,0.000913623,0
0.5,8.3,0,0.299805,0.000990814,0
0.5,8.4,0,0.299809,0.00105909,0
0.5,8.5,0,0.299804,0.00113774,0
0.5,8.6,0,0.299825,0.00120173,0
0.5,8.7,0,0.299807,0.001278,0
0.5,8.8,0,0.299835,0.00134559,0
0.5,8.9,0,0.299826,0.00140889,0
0.5,9,0,0.299838,0.00147585,0
0.5,9.1,0,0.299846,0.00153336,0
0.5,9.2,0,0.299839,0.00159823,0
0.5,9.3,0,0.299864,0.00165277,0
0.5,9.4,0,0.299846,0.00171182,0
0.5,9.5,0,0.299874,0.00176706,0
0.5,9.6,0,0.299867,0.00181597,0
0.5,9.7,0,0.299876,0.0018681,0
0.5,9.8,0,0.299887,0.00191217,0
0.5,9.9,0,0.299878,0.00196082,0
0.5,10,0,0.299902,0.0020023,0
0.5,10.1,0,0.299889,0.00204468,0
0.5,10.2,0,0.29991,0.00208447,0
0.5,10.3,0,0.299908,0.00211948,0
0.5,10.4,0,0.299912,0.00215614,0
0.5,10.5,0,0.299923,0.00218642,0
0.5,10.6,0,0.299916,0.00222052,0
0.5,10.7,0,0.299935,0.00224787,0
0.5,10.8,0,0.299928,0.00227653,0
0.5,10.9,0,0.29994,0.00230178,0
0.5,11,0,0.299941,0.00232462,0
0.5,11.1,0,0.299944,0.00234809,0
0.5,11.2,0,0.299953,0.00236616,0
0.5,11.3,0,0.299949,0.00238832,0
0.5,11.4,0,0.299962,0.00240344,0
0.5,11.5,0,0.299959,0.00242089,0
0.5,11.6,0,0.299966,0.00243456,0
0.5,11.7,0,0.299969,0.0024472,0
0.5,11.8,0,0.299971,0.00246011,0
0.5,11.9,0,0.299977,0.00246833,0
0.5,12,0,0.299976,0.00248066,0
0.5,12.1,0,0.299983,0.00248593,0
0.5,12.2,0,0.299984,0.00249422,0
0.5,12.3,0,0.299988,0.00249869,0
0.5,12.4,0,0.299991,0.0025028,0
0.5,12.5,0,0.299993,0.00250694,0
0.5,12.6,0,0.299996,0.00250681,0
0.5,12.7,0,0.299995,0.00251061,0
0.6,0,0,0.3,-0.0020748,0
0.6,0.1,0,0.3,-0.00207467,0
0.6,0.2,0,0.3,-0.00207488,0
0.6,0.3,0,0.300001,-0.0020752,0
0.6,0.4,0,0.300001,-0.00207547,0
0.6,0.5,0,0.300001,-0.00207581,0
0.6,0.6,0,0.300002,-0.00207637,0
0.6,0.7,0,0.300002,-0.00207704,0
0.6,0.8,0,0.300002,-0.00207726,0
0.6,0.9,0,0.300002,-0.00207796,0
0.6,1,0,0.300002,-0.00207868,0
0.6,1.1,0,0.300002,-0.00207909,0
0.6,1.2,0,0.300002,-0.00207936,0
0.6,1.3,0,0.300001,-0.00207984,0
0.6,1.4,0,0.300001,-0.0020804,0
0.6,1.5,0,0.300001,-0.00207993,0
0.6,1.6,0,0.3,-0.00207971,0
0.6,1.7,0,0.299999,-0.00207959,0
0.6,1.8,0,0.299998,-0.00207886,0
0.6,1.9,0,0.299997,-0.00207734,0
0.6,2,0,0.299995,-0.00207578,0
0.6,2.1,0,0.299994,-0.00207473,0
0.6,2.2,0,0.299993,-0.0020717,0
0.6,2.3,0,0.299991,-0.00206802,0
0.6,2.4,0,0.299988,-0.00206483,0
0.6,2.5,0,0.299986,-0.00206086,0
0.6,2.6,0,0.299984,-0.00205486,0
0.6,2.7,0,0.29998,-0.00204815,0
0.6,2.8,0,0.299977,-0.00204313,0
0.6,2.9,0,0.299976,-0.00203487,0
0.6,3,0,0.299972,-0.00202408,0
0.6,3.1,0,0.299967,-0.0020146,0
0.6,3.2,0,0.299964,-0.00200448,0
0.6,3.3,0,0.299961,-0.00199043,0
0.6,3.4,0,0.299955,-0.00197442,0
0.6,3.5,0,0.299947,-0.00196223,0
0.6,3.6,0,0.299949,-0.00194549,0
0.6,3.7,0,0.299941,-0.00192304,0
0.6,3.8,0,0.299933,-0.00190322,0
0.6,3.9,0,0.299929,-0.00188351,0
0.6,4,0,0.299926,-0.00185734,0
0.6,4.1,0,0.299917,-0.00182721,0
0.6,4.2,0,0.299905,-0.00180405,0
0.6,4.3,0,0.299908,-0.00177557,0
0.6,4.4,0,0.299899,-0.00173661,0
0.6,4.5,0,0.299886,-0.00170208,0
0.6,4.6,0,0.299881,-0.00166934,0
0.6,4.7,0,0.299879,-0.00162725,0
0.6,4.8,0,0.299869,-0.00157847,0
0.6,4.9,0,0.29985,-0.00154064,0
0.6,5,0,0.299858,-0.0014978,0
0.6,5.1,0,0.299847,-0.0014385,0
0.6,5.2,0,0.299831,-0.00138581,0
0.6,5.3,0,0.299825,-0.00133741,0
0.6,5.4,0,0.299825,-0.00127697,0
0.6,5.5,0,0.299814,-0.00120686,0
0.6,5.6,0,0.29979,-0.00115254,0
0.6,5.7,0,0.299801,-0.0010936,0
0.6,5.8,0,0.299791,-0.00101288,0
0.6,5.9,0,0.299774,-0.000941537,0
0.6,6,0,0.299767,-0.000876962,0
0.6,6.1,0,0.299769,-0.000798113,0
0.6,6.2,0,0.29976,-0.000707587,0
0.6,6.3,0,0.299737,-0.000639141,0
0.6,6.4,0,0.299748,-0.000563989,0
0.6,6.5,0,0.299741,-0.000465121,0
0.6,6.6,0,0.299727,-0.0003792,0
0.6,6.7,0,0.299722,-0.00030125,0
0.6,6.8,0,0.299726,-0.000216384,0
0.6,6.9,0,0.299722,-0.000129582,0
0.6,7,0,0.299705,-8.2632e-05,0
0.6,7.1,0,0.299701,6.57627e-05,0
0.6,7.2,0,0.299699,0.000160135,0
0.6,7.3,0,0.299698,0.000255097,0
0.6,7.4,0,0.299697,0.000350424,0
0.6,7.5,0,0.299697,0.000445962,0
0.6,7.6,0,0.299697,0.000541521,0
0.6,7.7,0,0.299698,0.000636902,0
0.6,7.8,0,0.299699,0.000731931,0
0.6,7.9,0,0.299701,0.000826394,0
0.6,8,0,0.299705,0.000950427,0
0.6,8.1,0,0.299722,0.0010145,0
0.6,8.2,0,0.299718,0.00110449,0
0.6,8.3,0,0.299729,0.00118168,0
0.6,8.4,0,0.299736,0.00128419,0
0.6,8.5,0,0.299731,0.00136344,0
0.6,8.6,0,0.299747,0.00145146,0
0.6,8.7,0,0.299737,0.00153693,0
0.6,8.8,0,0.29976,0.00161177,0
0.6,8.9,0,0.29976,0.00169919,0
0.6,9,0,0.299772,0.00176614,0
0.6,9.1,0,0.299783,0.00185131,0
0.6,9.2,0,0.299778,0.00191776,0
0.6,9.3,0,0.299797,0.00198912,0
0.6,9.4,0,0.29979,0.00205834,0
0.6,9.5,0,0.299812,0.00211785,0
0.6,9.6,0,0.299816,0.00218714,0
0.6,9.7,0,0.299824,0.00223928,0
0.6,9.8,0,0.299837,0.00230351,0
0.6,9.9,0,0.299832,0.00235429,0
0.6,10,0,0.299851,0.0024065,0
0.6,10.1,0,0.299848,0.00245807,0
0.6,10.2,0,0.299865,0.00250027,0
0.6,10.3,0,0.299871,0.00255049,0
0.6,10.4,0,0.299876,0.00258714,0
0.6,10.5,0,0.299888,0.00263088,0
0.6,10.6,0,0.299885,0.0026669,0
0.6,10.7,0,0.2999,0.00270076,0
0.6,10.8,0,0.299901,0.00273618,0
0.6,10.9,0,0.299912,0.00276268,0
0.6,11,0,0.299918,0.00279552,0
0.6,11.1,0,0.299921,0.00281899,0
0.6,11.2,0,0.299931,0.00284526,0
0.6,11.3,0,0.29993,0.00286864,0
0.6,11.4,0,0.299941,0.00288738,0
0.6,11.5,0,0.299944,0.0029089,0
0.6,11.6,0,0.29995,0.00292309,0
0.6,11.7,0,0.299957,0.00294132,0
0.6,11.8,0,0.299959,0.00295424,0
0.6,11.9,0,0.299966,0.00296674,0
0.6,12,0,0.299967,0.00297944,0
0.6,12.1,0,0.299974,0.00298648,0
0.6,12.2,0,0.299978,0.0029963,0
0.6,12.3,0,0.299982,0.00300088,0
0.6,12.4,0,0.299987,0.00300691,0
0.6,12.5,0,0.29999,0.00301105,0
0.6,12.6,0,0.299993,0.0030122,0
0.6,12.7,0,0.299993,0.00301543,0
0.7,0,0,0.300001,-0.0024209,0
0.7,0.1,0,0.300001,-0.0024211,0
0.7,0.2,0,0.300001,-0.00242131,0
0.7,0.3,0,0.300001,-0.00242152,0
0.7,0.4,0,0.300001,-0.00242191,0
0.7,0.5,0,0.300002,-0.00242247,0
0.7,0.6,0,0.300002,-0.00242303,0
0.7,0.7,0,0.300003,-0.00242358,0
0.7,0.8,0,0.300003,-0.00242428,0
0.7,0.9,0,0.300003,-0.00242498,0
0.7,1,0,0.300003,-0.00242568,0
0.7,1.1,0,0.300003,-0.00242627,0
0.7,1.2,0,0.300002,-0.00242675,0
0.7,1.3,0,0.300002,-0.00242723,0
0.7,1.4,0,0.300001,-0.00242772,0
0.7,1.5,0,0.3,-0.00242749,0
0.7,1.6,0,0.299999,-0.00242727,0
0.7,1.7,0,0.299998,-0.00242704,0
0.7,1.8,0,0.299997,-0.00242615,0
0.7,1.9,0,0.299995,-0.00242459,0
0.7,2,0,0.299994,-0.00242302,0
0.7,2.1,0,0.299992,-0.00242145,0
0.7,2.2,0,0.299989,-0.00241777,0
0.7,2.3,0,0.299987,-0.00241409,0
0.7,2.4,0,0.299984,-0.00241041,0
0.7,2.5,0,0.299981,-0.00240521,0
0.7,2.6,0,0.299978,-0.0023985,0
0.7,2.7,0,0.299974,-0.00239179,0
0.7,2.8,0,0.299971,-0.00238507,0
0.7,2.9,0,0.299966,-0.00237428,0
0.7,3,0,0.299961,-0.00236349,0
0.7,3.1,0,0.299957,-0.0023527,0
0.7,3.2,0,0.299951,-0.0023393,0
0.7,3.3,0,0.299945,-0.00232329,0
0.7,3.4,0,0.299939,-0.00230727,0
0.7,3.5,0,0.299933,-0.00229125,0
0.7,3.6,0,0.299926,-0.0022688,0
0.7,3.7,0,0.299919,-0.00224634,0
0.7,3.8,0,0.299912,-0.00222388,0
0.7,3.9,0,0.299904,-0.00219759,0
0.7,4,0,0.299896,-0.00216746,0
0.7,4.1,0,0.299888,-0.00213733,0
0.7,4.2,0,0.299879,-0.0021072,0
0.7,4.3,0,0.29987,-0.00206824,0
0.7,4.4,0,0.29986,-0.00202928,0
0.7,4.5,0,0.299851,-0.00199032,0
0.7,4.6,0,0.299841,-0.00194645,0
0.7,4.7,0,0.299831,-0.00189767,0
0.7,4.8,0,0.299821,-0.00184889,0
0.7,4.9,0,0.29981,-0.00180011,0
0.7,5,0,0.299799,-0.00174081,0
0.7,5.1,0,0.299789,-0.00168151,0
0.7,5.2,0,0.299778,-0.00162221,0
0.7,5.3,0,0.299767,-0.0015575,0
0.7,5.4,0,0.299756,-0.00148738,0
0.7,5.5,0,0.299746,-0.00141727,0
0.7,5.6,0,0.299735,-0.00134715,0
0.7,5.7,0,0.299724,-0.00126643,0
0.7,5.8,0,0.299714,-0.00118572,0
0.7,5.9,0,0.299704,-0.001105,0
0.7,6,0,0.299694,-0.00101938,0
0.7,6.1,0,0.299685,-0.000928854,0
0.7,6.2,0,0.299676,-0.000838328,0
0.7,6.3,0,0.299667,-0.000747802,0
0.7,6.4,0,0.29966,-0.000648934,0
0.7,6.5,0,0.299653,-0.000550066,0
0.7,6.6,0,0.299646,-0.000451198,0
0.7,6.7,0,0.29964,-0.000358363,0
0.7,6.8,0,0.299636,-0.000271561,0
0.7,6.9,0,0.299632,-0.000184759,0
0.7,7,0,0.299628,-9.79569e-05,0
0.7,7.1,0,0.299623,7.55349e-05,0
0.7,7.2,0,0.299621,0.000185877,0
0.7,7.3,0,0.299619,0.000296943,0
0.7,7.4,0,0.299618,0.000408453,0
0.7,7.5,0,0.299617,0.000520215,0
0.7,7.6,0,0.299618,0.000632002,0
0.7,7.7,0,0.299619,0.000743581,0
0.7,7.8,0,0.299621,0.000854742,0
0.7,7.9,0,0.299623,0.00096522,0
0.7,8,0,0.299627,0.00111025,0
0.7,8.1,0,0.299631,0.0012019,0
0.7,8.2,0,0.299635,0.00129355,0
0.7,8.3,0,0.29964,0.00139269,0
0.7,8.4,0,0.299646,0.00149587,0
0.7,8.5,0,0.299652,0.00159766,0
0.7,8.6,0,0.299659,0.00169624,0
0.7,8.7,0,0.299667,0.00179482,0
0.7,8.8,0,0.299675,0.00188814,0
0.7,8.9,0,0.299683,0.00198119,0
0.7,9,0,0.299692,0.00207051,0