x,y,z,p
0,0,0,0.0151811
0,0.1,0,0.0334057
0,0.2,0,0.0516303
0,0.3,0,0.0729035
0,0.4,0,0.0972255
0,0.5,0,0.121547
0,0.6,0,0.145913
0,0.7,0,0.170279
0,0.8,0,0.194671
0,0.9,0,0.219089
0,1,0,0.243507
0,1.1,0,0.267976
0,1.2,0,0.292444
0,1.3,0,0.316939
0,1.4,0,0.341462
0,1.5,0,0.365984
0,1.6,0,0.390555
0,1.7,0,0.415126
0,1.8,0,0.439691
0,1.9,0,0.464251
0,2,0,0.488811
0,2.1,0,0.5133
0,2.2,0,0.537789
0,2.3,0,0.562205
0,2.4,0,0.58655
0,2.5,0,0.610895
0,2.6,0,0.634977
0,2.7,0,0.659059
0,2.8,0,0.682948
0,2.9,0,0.706644
0,3,0,0.730339
0,3.1,0,0.753453
0,3.2,0,0.776567
0,3.3,0,0.799242
0,3.4,0,0.821478
0,3.5,0,0.843714
0,3.6,0,0.864814
0,3.7,0,0.885914
0,3.8,0,0.906446
0,3.9,0,0.926409
0,4,0,0.946372
0,4.1,0,0.9655
0,4.2,0,0.984627
0,4.3,0,1.00361
0,4.4,0,1.02245
0,4.5,0,1.04129
0,4.6,0,1.06014
0,4.7,0,1.07899
0,4.8,0,1.09572
0,4.9,0,1.11032
0,5,0,1.12493
0,5.1,0,1.1494
0,5.2,0,1.16417
0,5.3,0,1.17776
0,5.4,0,1.18995
0,5.5,0,1.20052
0,5.6,0,1.20942
0,5.7,0,1.21682
0,5.8,0,1.22305
0,5.9,0,1.22842
0,6,0,1.23303
0,6.1,0,1.23673
0,6.2,0,1.2393
0,6.3,0,1.24045
0,6.4,0,1.24005
0,6.5,0,1.23801
0,6.6,0,1.23433
0,6.7,0,1.22911
0,6.8,0,1.22253
0,6.9,0,1.21501
0,7,0,1.202
0,7.1,0,1.1935
0,7.2,0,1.185
0,7.3,0,1.17555
0,7.4,0,1.1607
0,7.5,0,1.14585
0,7.6,0,1.1295
0,7.7,0,1.10966
0,7.8,0,1.08983
0,7.9,0,1.0691
0,8,0,1.04729
0,8.1,0,1.02547
0,8.2,0,1.00386
0,8.3,0,0.982394
0,8.4,0,0.960926
0,8.5,0,0.93982
0,8.6,0,0.918834
0,8.7,0,0.897849
0,8.8,0,0.876933
0,8.9,0,0.856025
0,9,0,0.835104
0,9.1,0,0.813949
0,9.2,0,0.792794
0,9.3,0,0.771536
0,9.4,0,0.749866
0,9.5,0,0.728196
0,9.6,0,0.70627
0,9.7,0,0.683868
0,9.8,0,0.661467
0,9.9,0,0.638727
0,10,0,0.615649
0,10.1,0,0.592572
0,10.2,0,0.569262
0,10.3,0,0.545827
0,10.4,0,0.522393
0,10.5,0,0.498937
0,10.6,0,0.475476
0,10.7,0,0.452015
0,10.8,0,0.42871
0,10.9,0,0.405413
0,11,0,0.382142
0,11.1,0,0.359094
0,11.2,0,0.336046
0,11.3,0,0.313065
0,11.4,0,0.290286
0,11.5,0,0.267506
0,11.6,0,0.244829
0,11.7,0,0.222305
0,11.8,0,0.199781
0,11.9,0,0.177376
0,12,0,0.155067
0,12.1,0,0.132759
0,12.2,0,0.110556
0,12.3,0,0.0883985
0,12.4,0,0.0662411
0,12.5,0,0.0488184
0,12.6,0,0.0322313
0,12.7,0,0.0156441
0.1,0,0,0.00910866
0.1,0.1,0,0.027326
0.1,0.2,0,0.0485845
0.1,0.3,0,0.0728888
0.1,0.4,0,0.0972078
0.1,0.5,0,0.121522
0.1,0.6,0,0.145887
0.1,0.7,0,0.170246
0.1,0.8,0,0.194638
0.1,0.9,0,0.219062
0.1,1,0,0.243461
0.1,1.1,0,0.267953
0.1,1.2,0,0.292411
0.1,1.3,0,0.316903
0.1,1.4,0,0.34143
0.1,1.5,0,0.365958
0.1,1.6,0,0.390539
0.1,1.7,0,0.415116
0.1,1.8,0,0.439703
0.1,1.9,0,0.464278
0.1,2,0,0.488856
0.1,2.1,0,0.513344
0.1,2.2,0,0.537877
0.1,2.3,0,0.562322
0.1,2.4,0,0.58665
0.1,2.5,0,0.611163
0.1,2.6,0,0.63514
0.1,2.7,0,0.659381
0.1,2.8,0,0.683301
0.1,2.9,0,0.706868
0.1,3,0,0.731141
0.1,3.1,0,0.75381
0.1,3.2,0,0.77739
0.1,3.3,0,0.800146
0.1,3.4,0,0.821999
0.1,3.5,0,0.845769
0.1,3.6,0,0.865428
0.1,3.7,0,0.887814
0.1,3.8,0,0.9083
0.1,3.9,0,0.926932
0.1,4,0,0.950857
0.1,4.1,0,0.965812
0.1,4.2,0,0.987442
0.1,4.3,0,1.00626
0.1,4.4,0,1.02243
0.1,4.5,0,1.04612
0.1,4.6,0,1.06015
0.1,4.7,0,1.08031
0.1,4.8,0,1.09915
0.1,4.9,0,1.11455
0.1,5,0,1.12485
0.1,5.1,0,1.14715
0.1,5.2,0,1.16068
0.1,5.3,0,1.17314
0.1,5.4,0,1.18433
0.1,5.5,0,1.19407
0.1,5.6,0,1.20229
0.1,5.7,0,1.20911
0.1,5.8,0,1.21482
0.1,5.9,0,1.21969
0.1,6,0,1.22381
0.1,6.1,0,1.22705
0.1,6.2,0,1.22921
0.1,6.3,0,1.23004
0.1,6.4,0,1.2294
0.1,6.5,0,1.22721
0.1,6.6,0,1.22347
0.1,6.7,0,1.21825
0.1,6.8,0,1.21168
0.1,6.9,0,1.20407
0.1,7,0,1.19086
0.1,7.1,0,1.19549
0.1,7.2,0,1.1852
0.1,7.3,0,1.16691
0.1,7.4,0,1.16411
0.1,7.5,0,1.14515
0.1,7.6,0,1.12476
0.1,7.7,0,1.11193
0.1,7.8,0,1.08998
0.1,7.9,0,1.06799
0.1,8,0,1.04728
0.1,8.1,0,1.02756
0.1,8.2,0,1.00519
0.1,8.3,0,0.982007
0.1,8.4,0,0.965789
0.1,8.5,0,0.941881
0.1,8.6,0,0.918929
0.1,8.7,0,0.904375
0.1,8.8,0,0.878501
0.1,8.9,0,0.857116
0.1,9,0,0.84102
0.1,9.1,0,0.814628
0.1,9.2,0,0.794205
0.1,9.3,0,0.775102
0.1,9.4,0,0.750247
0.1,9.5,0,0.729414
0.1,9.6,0,0.708023
0.1,9.7,0,0.684322
0.1,9.8,0,0.662236
0.1,9.9,0,0.639436
0.1,10,0,0.615967
0.1,10.1,0,0.592897
0.1,10.2,0,0.569455
0.1,10.3,0,0.545917
0.1,10.4,0,0.522438
0.1,10.5,0,0.498906
0.1,10.6,0,0.475415
0.1,10.7,0,0.451938
0.1,10.8,0,0.42859
0.1,10.9,0,0.405288
0.1,11,0,0.382023
0.1,11.1,0,0.35894
0.1,11.2,0,0.335903
0.1,11.3,0,0.312939
0.1,11.4,0,0.290134
0.1,11.5,0,0.267378
0.1,11.6,0,0.244713
0.1,11.7,0,0.222166
0.1,11.8,0,0.199678
0.1,11.9,0,0.177283
0.1,12,0,0.154961
0.1,12.1,0,0.132692
0.1,12.2,0,0.110495
0.1,12.3,0,0.0883326
0.1,12.4,0,0.0662114
0.1,12.5,0,0.0441266
0.1,12.6,0,0.0259503
0.1,12.7,0,0.00938647
0.2,0,0,0.00303622
0.2,0.1,0,0.0242875
0.2,0.2,0,0.0485728
0.2,0.3,0,0.072877
0.2,0.4,0,0.0971858
0.2,0.5,0,0.121497
0.2,0.6,0,0.145856
0.2,0.7,0,0.170208
0.2,0.8,0,0.1946
0.2,0.9,0,0.21901
0.2,1,0,0.243414
0.2,1.1,0,0.267896
0.2,1.2,0,0.292369
0.2,1.3,0,0.316861
0.2,1.4,0,0.341399
0.2,1.5,0,0.365932
0.2,1.6,0,0.390519
0.2,1.7,0,0.415112
0.2,1.8,0,0.439699
0.2,1.9,0,0.464308
0.2,2,0,0.488902
0.2,2.1,0,0.513434
0.2,2.2,0,0.53801
0.2,2.3,0,0.562455
0.2,2.4,0,0.586935
0.2,2.5,0,0.611431
0.2,2.6,0,0.635567
0.2,2.7,0,0.659863
0.2,2.8,0,0.683782
0.2,2.9,0,0.707798
0.2,3,0,0.731942
0.2,3.1,0,0.755077
0.2,3.2,0,0.778677
0.2,3.3,0,0.801434
0.2,3.4,0,0.824438
0.2,3.5,0,0.847825
0.2,3.6,0,0.868769
0.2,3.7,0,0.890999
0.2,3.8,0,0.911485
0.2,3.9,0,0.932748
0.2,4,0,0.955341
0.2,4.1,0,0.972798
0.2,4.2,0,0.992758
0.2,4.3,0,1.01157
0.2,4.4,0,1.02992
0.2,4.5,0,1.05095
0.2,4.6,0,1.06629
0.2,4.7,0,1.08293
0.2,4.8,0,1.10177
0.2,4.9,0,1.11367
0.2,5,0,1.12477
0.2,5.1,0,1.1449
0.2,5.2,0,1.15719
0.2,5.3,0,1.16851
0.2,5.4,0,1.17872
0.2,5.5,0,1.18763
0.2,5.6,0,1.19516
0.2,5.7,0,1.2014
0.2,5.8,0,1.20658
0.2,5.9,0,1.21095
0.2,6,0,1.21458
0.2,6.1,0,1.21737
0.2,6.2,0,1.21912
0.2,6.3,0,1.21963
0.2,6.4,0,1.21875
0.2,6.5,0,1.21642
0.2,6.6,0,1.21261
0.2,6.7,0,1.20738
0.2,6.8,0,1.20082
0.2,6.9,0,1.19313
0.2,7,0,1.17973
0.2,7.1,0,1.17896
0.2,7.2,0,1.17105
0.2,7.3,0,1.15644
0.2,7.4,0,1.14834
0.2,7.5,0,1.13632
0.2,7.6,0,1.11751
0.2,7.7,0,1.1034
0.2,7.8,0,1.08815
0.2,7.9,0,1.06616
0.2,8,0,1.04844
0.2,8.1,0,1.03079
0.2,8.2,0,1.00859
0.2,8.3,0,0.989852
0.2,8.4,0,0.972127
0.2,8.5,0,0.949377
0.2,8.6,0,0.92912
0.2,8.7,0,0.911544
0.2,8.8,0,0.887437
0.2,8.9,0,0.865659
0.2,9,0,0.847199
0.2,9.1,0,0.822505
0.2,9.2,0,0.799652
0.2,9.3,0,0.779344
0.2,9.4,0,0.755363
0.2,9.5,0,0.732014
0.2,9.6,0,0.710352
0.2,9.7,0,0.68669
0.2,9.8,0,0.663251
0.2,9.9,0,0.640452
0.2,10,0,0.616772
0.2,10.1,0,0.593227
0.2,10.2,0,0.56978
0.2,10.3,0,0.546088
0.2,10.4,0,0.522474
0.2,10.5,0,0.498939
0.2,10.6,0,0.475378
0.2,10.7,0,0.45186
0.2,10.8,0,0.428517
0.2,10.9,0,0.405187
0.2,11,0,0.381908
0.2,11.1,0,0.358842
0.2,11.2,0,0.335791
0.2,11.3,0,0.31282
0.2,11.4,0,0.290041
0.2,11.5,0,0.267274
0.2,11.6,0,0.244609
0.2,11.7,0,0.222097
0.2,11.8,0,0.199598
0.2,11.9,0,0.177203
0.2,12,0,0.154918
0.2,12.1,0,0.13264
0.2,12.2,0,0.110448
0.2,12.3,0,0.088315
0.2,12.4,0,0.0661873
0.2,12.5,0,0.044109
0.2,12.6,0,0.0220539
0.2,12.7,0,0.00312882
0.3,0,0,0
0.3,0.1,0,0.0242764
0.3,0.2,0,0.0485616
0.3,0.3,0,0.0728411
0.3,0.4,0,0.0971498
0.3,0.5,0,0.121446
0.3,0.6,0,0.145792
0.3,0.7,0,0.170144
0.3,0.8,0,0.19451
0.3,0.9,0,0.21892
0.3,1,0,0.243326
0.3,1.1,0,0.267799
0.3,1.2,0,0.292272
0.3,1.3,0,0.31679
0.3,1.4,0,0.341328
0.3,1.5,0,0.365869
0.3,1.6,0,0.390484
0.3,1.7,0,0.415077
0.3,1.8,0,0.439719
0.3,1.9,0,0.464328
0.3,2,0,0.488952
0.3,2.1,0,0.513595
0.3,2.2,0,0.538172
0.3,2.3,0,0.562825
0.3,2.4,0,0.587305
0.3,2.5,0,0.611814
0.3,2.6,0,0.636268
0.3,2.7,0,0.660564
0.3,2.8,0,0.685007
0.3,2.9,0,0.709022
0.3,3,0,0.733063
0.3,3.1,0,0.75706
0.3,3.2,0,0.78066
0.3,3.3,0,0.804603
0.3,3.4,0,0.827607
0.3,3.5,0,0.850427
0.3,3.6,0,0.873824
0.3,3.7,0,0.896053
0.3,3.8,0,0.919171
0.3,3.9,0,0.940433
0.3,4,0,0.960344
0.3,4.1,0,0.983051
0.3,4.2,0,1.00301
0.3,4.3,0,1.02258
0.3,4.4,0,1.04094
0.3,4.5,0,1.05624
0.3,4.6,0,1.07459
0.3,4.7,0,1.09123
0.3,4.8,0,1.10397
0.3,4.9,0,1.11587
0.3,5,0,1.12608
0.3,5.1,0,1.14484
0.3,5.2,0,1.1564
0.3,5.3,0,1.16708
0.3,5.4,0,1.17675
0.3,5.5,0,1.18524
0.3,5.6,0,1.19245
0.3,5.7,0,1.19846
0.3,5.8,0,1.20344
0.3,5.9,0,1.2076
0.3,6,0,1.21101
0.3,6.1,0,1.21355
0.3,6.2,0,1.21505
0.3,6.3,0,1.21534
0.3,6.4,0,1.21427
0.3,6.5,0,1.21178
0.3,6.6,0,1.20784
0.3,6.7,0,1.20247
0.3,6.8,0,1.19573
0.3,6.9,0,1.18773
0.3,7,0,1.17343
0.3,7.1,0,1.1566
0.3,7.2,0,1.14868
0.3,7.3,0,1.14628
0.3,7.4,0,1.12882
0.3,7.5,0,1.1168
0.3,7.6,0,1.11009
0.3,7.7,0,1.09393
0.3,7.8,0,1.07898
0.3,7.9,0,1.06766
0.3,8,0,1.0506
0.3,8.1,0,1.03333
0.3,8.2,0,1.01934
0.3,8.3,0,1.0006
0.3,8.4,0,0.980306
0.3,8.5,0,0.963979
0.3,8.6,0,0.943723
0.3,8.7,0,0.919819
0.3,8.8,0,0.901512
0.3,8.9,0,0.879734
0.3,9,0,0.85372
0.3,9.1,0,0.833143
0.3,9.2,0,0.81029
0.3,9.3,0,0.784442
0.3,9.4,0,0.761696
0.3,9.5,0,0.738347
0.3,9.6,0,0.713181
0.3,9.7,0,0.689672
0.3,9.8,0,0.666011
0.3,9.9,0,0.641542
0.3,10,0,0.617851
0.3,10.1,0,0.594024
0.3,10.2,0,0.570019
0.3,10.3,0,0.546327
0.3,10.4,0,0.522532
0.3,10.5,0,0.498844
0.3,10.6,0,0.475283
0.3,10.7,0,0.451666
0.3,10.8,0,0.4283
0.3,10.9,0,0.404971
0.3,11,0,0.38165
0.3,11.1,0,0.358598
0.3,11.2,0,0.335547
0.3,11.3,0,0.312571
0.3,11.4,0,0.28981
0.3,11.5,0,0.267044
0.3,11.6,0,0.244408
0.3,11.7,0,0.221912
0.3,11.8,0,0.199412
0.3,11.9,0,0.177067
0.3,12,0,0.154784
0.3,12.1,0,0.132507
0.3,12.2,0,0.110373
0.3,12.3,0,0.0882405
0.3,12.4,0,0.0661186
0.3,12.5,0,0.0440869
0.3,12.6,0,0.0220318
0.3,12.7,0,0
0.4,0,0,0
0.4,0.1,0,0.0242675
0.4,0.2,0,0.0485216
0.4,0.3,0,0.0728011
0.4,0.4,0,0.097084
0.4,0.5,0,0.121367
0.4,0.6,0,0.145707
0.4,0.7,0,0.170033
0.4,0.8,0,0.194399
0.4,0.9,0,0.218795
0.4,1,0,0.243196
0.4,1.1,0,0.26767
0.4,1.2,0,0.292147
0.4,1.3,0,0.316664
0.4,1.4,0,0.341227
0.4,1.5,0,0.365771
0.4,1.6,0,0.390407
0.4,1.7,0,0.415031
0.4,1.8,0,0.439673
0.4,1.9,0,0.464368
0.4,2,0,0.489007
0.4,2.1,0,0.513717
0.4,2.2,0,0.538401
0.4,2.3,0,0.563054
0.4,2.4,0,0.587774
0.4,2.5,0,0.612313
0.4,2.6,0,0.636926
0.4,2.7,0,0.661462
0.4,2.8,0,0.685904
0.4,2.9,0,0.710438
0.4,3,0,0.734504
0.4,3.1,0,0.758896
0.4,3.2,0,0.782827
0.4,3.3,0,0.80677
0.4,3.4,0,0.830939
0.4,3.5,0,0.853576
0.4,3.6,0,0.878139
0.4,3.7,0,0.900412
0.4,3.8,0,0.923529
0.4,3.9,0,0.947306
0.4,4,0,0.965866
0.4,4.1,0,0.991321
0.4,4.2,0,1.00917
0.4,4.3,0,1.02874
0.4,4.4,0,1.04975
0.4,4.5,0,1.062
0.4,4.6,0,1.08205
0.4,4.7,0,1.09538
0.4,4.8,0,1.10812
0.4,4.9,0,1.12026
0.4,5,0,1.12876
0.4,5.1,0,1.14695
0.4,5.2,0,1.1583
0.4,5.3,0,1.16884
0.4,5.4,0,1.17843
0.4,5.5,0,1.18691
0.4,5.6,0,1.19418
0.4,5.7,0,1.20029
0.4,5.8,0,1.20539
0.4,5.9,0,1.20964
0.4,6,0,1.21307
0.4,6.1,0,1.21559
0.4,6.2,0,1.21701
0.4,6.3,0,1.21717
0.4,6.4,0,1.21596
0.4,6.5,0,1.21331
0.4,6.6,0,1.20916
0.4,6.7,0,1.20353
0.4,6.8,0,1.19643
0.4,6.9,0,1.18788
0.4,7,0,1.17197
0.4,7.1,0,1.14841
0.4,7.2,0,1.14155
0.4,7.3,0,1.14311
0.4,7.4,0,1.11829
0.4,7.5,0,1.11205
0.4,7.6,0,1.10703
0.4,7.7,0,1.08902
0.4,7.8,0,1.07887
0.4,7.9,0,1.06755
0.4,8,0,1.05302
0.4,8.1,0,1.03698
0.4,8.2,0,1.0232
0.4,8.3,0,1.00915
0.4,8.4,0,0.986311
0.4,8.5,0,0.971489
0.4,8.6,0,0.954524
0.4,8.7,0,0.926506
0.4,8.8,0,0.91057
0.4,8.9,0,0.888741
0.4,9,0,0.859792
0.4,9.1,0,0.841316
0.4,9.2,0,0.816207
0.4,9.3,0,0.789059
0.4,9.4,0,0.767149
0.4,9.5,0,0.741442
0.4,9.6,0,0.716021
0.4,9.7,0,0.692349
0.4,9.8,0,0.667333
0.4,9.9,0,0.642864
0.4,10,0,0.618775
0.4,10.1,0,0.59439
0.4,10.2,0,0.570373
0.4,10.3,0,0.546394
0.4,10.4,0,0.522415
0.4,10.5,0,0.498709
0.4,10.6,0,0.475005
0.4,10.7,0,0.451335
0.4,10.8,0,0.427957
0.4,10.9,0,0.404575
0.4,11,0,0.381244
0.4,11.1,0,0.35819
0.4,11.2,0,0.335137
0.4,11.3,0,0.312161
0.4,11.4,0,0.289415
0.4,11.5,0,0.266675
0.4,11.6,0,0.24404
0.4,11.7,0,0.22158
0.4,11.8,0,0.199114
0.4,11.9,0,0.176769
0.4,12,0,0.154545
0.4,12.1,0,0.132297
0.4,12.2,0,0.110171
0.4,12.3,0,0.0881158
0.4,12.4,0,0.0660096
0.4,12.5,0,0.0439932
0.4,12.6,0,0.0220142
0.4,12.7,0,0
0.5,0,0,0
0.5,0.1,0,0.0242453
0.5,0.2,0,0.0484905
0.5,0.3,0,0.0727481
0.5,0.4,0,0.0970181
0.5,0.5,0,0.121288
0.5,0.6,0,0.145608
0.5,0.7,0,0.169927
0.5,0.8,0,0.194283
0.5,0.9,0,0.218674
0.5,1,0,0.243066
0.5,1.1,0,0.267543
0.5,1.2,0,0.29202
0.5,1.3,0,0.316542
0.5,1.4,0,0.341107
0.5,1.5,0,0.365673
0.5,1.6,0,0.390318
0.5,1.7,0,0.414963
0.5,1.8,0,0.439641
0.5,1.9,0,0.464352
0.5,2,0,0.489063
0.5,2.1,0,0.513813
0.5,2.2,0,0.538563
0.5,2.3,0,0.563313
0.5,2.4,0,0.588062
0.5,2.5,0,0.612812
0.5,2.6,0,0.637506
0.5,2.7,0,0.662201
0.5,2.8,0,0.686827
0.5,2.9,0,0.711386
0.5,3,0,0.735944
0.5,3.1,0,0.760271
0.5,3.2,0,0.784598
0.5,3.3,0,0.808754
0.5,3.4,0,0.832739
0.5,3.5,0,0.856724
0.5,3.6,0,0.880164
0.5,3.7,0,0.903604
0.5,3.8,0,0.926537
0.5,3.9,0,0.948963
0.5,4,0,0.971388
0.5,4.1,0,0.991985
0.5,4.2,0,1.01258
0.5,4.3,0,1.03186
0.5,4.4,0,1.04981
0.5,4.5,0,1.06777
0.5,4.6,0,1.0828
0.5,4.7,0,1.09783
0.5,4.8,0,1.11057
0.5,4.9,0,1.12101
0.5,5,0,1.13145
0.5,5.1,0,1.14907
0.5,5.2,0,1.16021
0.5,5.3,0,1.1706
0.5,5.4,0,1.18011
0.5,5.5,0,1.18858
0.5,5.6,0,1.1959
0.5,5.7,0,1.20212
0.5,5.8,0,1.20734
0.5,5.9,0,1.21168
0.5,6,0,1.21514
0.5,6.1,0,1.21762
0.5,6.2,0,1.21896
0.5,6.3,0,1.219
0.5,6.4,0,1.21765
0.5,6.5,0,1.21483
0.5,6.6,0,1.21049
0.5,6.7,0,1.20459
0.5,6.8,0,1.19712
0.5,6.9,0,1.18803
0.5,7,0,1.17051
0.5,7.1,0,1.1611
0.5,7.2,0,1.15169
0.5,7.3,0,1.1419
0.5,7.4,0,1.12997
0.5,7.5,0,1.11804
0.5,7.6,0,1.10594
0.5,7.7,0,1.09344
0.5,7.8,0,1.08094
0.5,7.9,0,1.06773
0.5,8,0,1.05365
0.5,8.1,0,1.03957
0.5,8.2,0,1.02394
0.5,8.3,0,1.00726
0.5,8.4,0,0.990585
0.5,8.5,0,0.971673
0.5,8.6,0,0.952015
0.5,8.7,0,0.932357
0.5,8.8,0,0.910306
0.5,8.9,0,0.887989
0.5,9,0,0.865581
0.5,9.1,0,0.841452
0.5,9.2,0,0.817323
0.5,9.3,0,0.793038
0.5,9.4,0,0.76813
0.5,9.5,0,0.743222
0.5,9.6,0,0.718322
0.5,9.7,0,0.693437
0.5,9.8,0,0.668552
0.5,9.9,0,0.643851
0.5,10,0,0.619333
0.5,10.1,0,0.594815
0.5,10.2,0,0.570558
0.5,10.3,0,0.546442
0.5,10.4,0,0.522326
0.5,10.5,0,0.498505
0.5,10.6,0,0.474757
0.5,10.7,0,0.451009
0.5,10.8,0,0.427595
0.5,10.9,0,0.404199
0.5,11,0,0.380838
0.5,11.1,0,0.357783
0.5,11.2,0,0.334729
0.5,11.3,0,0.311756
0.5,11.4,0,0.289026
0.5,11.5,0,0.266296
0.5,11.6,0,0.243682
0.5,11.7,0,0.221241
0.5,11.8,0,0.1988
0.5,11.9,0,0.176487
0.5,12,0,0.154279
0.5,12.1,0,0.132072
0.5,12.2,0,0.109979
0.5,12.3,0,0.0879348
0.5,12.4,0,0.0658911
0.5,12.5,0,0.0439189
0.5,12.6,0,0.0219595
0.5,12.7,0,0
0.6,0,0,0
0.6,0.1,0,0.024211
0.6,0.2,0,0.0484379
0.6,0.3,0,0.0726611
0.6,0.4,0,0.0969148
0.6,0.5,0,0.121154
0.6,0.6,0,0.145446
0.6,0.7,0,0.169755
0.6,0.8,0,0.19409
0.6,0.9,0,0.218472
0.6,1,0,0.24285
0.6,1.1,0,0.267326
0.6,1.2,0,0.291798
0.6,1.3,0,0.316326
0.6,1.4,0,0.340902
0.6,1.5,0,0.365464
0.6,1.6,0,0.390156
0.6,1.7,0,0.414807
0.6,1.8,0,0.439529
0.6,1.9,0,0.464278
0.6,2,0,0.489026
0.6,2.1,0,0.513886
0.6,2.2,0,0.538674
0.6,2.3,0,0.563543
0.6,2.4,0,0.588373
0.6,2.5,0,0.613231
0.6,2.6,0,0.638175
0.6,2.7,0,0.662916
0.6,2.8,0,0.687773
0.6,2.9,0,0.712517
0.6,3,0,0.737106
0.6,3.1,0,0.761926
0.6,3.2,0,0.786225
0.6,3.3,0,0.810655
0.6,3.4,0,0.834942
0.6,3.5,0,0.858755
0.6,3.6,0,0.882876
0.6,3.7,0,0.906143
0.6,3.8,0,0.929219
0.6,3.9,0,0.951961
0.6,4,0,0.973958
0.6,4.1,0,0.994966
0.6,4.2,0,1.01548
0.6,4.3,0,1.03479
0.6,4.4,0,1.05285
0.6,4.5,0,1.07115
0.6,4.6,0,1.08643
0.6,4.7,0,1.10183
0.6,4.8,0,1.11628
0.6,4.9,0,1.12807
0.6,5,0,1.13695
0.6,5.1,0,1.15559
0.6,5.2,0,1.16736
0.6,5.3,0,1.17836
0.6,5.4,0,1.18847
0.6,5.5,0,1.19752
0.6,5.6,0,1.20537
0.6,5.7,0,1.21205
0.6,5.8,0,1.2177
0.6,5.9,0,1.22241
0.6,6,0,1.2262
0.6,6.1,0,1.22894
0.6,6.2,0,1.23047
0.6,6.3,0,1.23063
0.6,6.4,0,1.22932
0.6,6.5,0,1.22646
0.6,6.6,0,1.22202
0.6,6.7,0,1.21597
0.6,6.8,0,1.20834
0.6,6.9,0,1.19917
0.6,7,0,1.18159
0.6,7.1,0,1.18018
0.6,7.2,0,1.16927
0.6,7.3,0,1.15207
0.6,7.4,0,1.14187
0.6,7.5,0,1.12809
0.6,7.6,0,1.11263
0.6,7.7,0,1.09893
0.6,7.8,0,1.08581
0.6,7.9,0,1.07158
0.6,8,0,1.05682
0.6,8.1,0,1.04227
0.6,8.2,0,1.02588
0.6,8.3,0,1.00877
0.6,8.4,0,0.991947
0.6,8.5,0,0.972494
0.6,8.6,0,0.952583
0.6,8.7,0,0.933089
0.6,8.8,0,0.910891
0.6,8.9,0,0.888547
0.6,9,0,0.866238
0.6,9.1,0,0.842516
0.6,9.2,0,0.818308
0.6,9.3,0,0.793851
0.6,9.4,0,0.769413
0.6,9.5,0,0.744216
0.6,9.6,0,0.71897
0.6,9.7,0,0.694172
0.6,9.8,0,0.669006
0.6,9.9,0,0.644015
0.6,10,0,0.619407
0.6,10.1,0,0.594699
0.6,10.2,0,0.570252
0.6,10.3,0,0.546057
0.6,10.4,0,0.521826
0.6,10.5,0,0.497894
0.6,10.6,0,0.474105
0.6,10.7,0,0.450303
0.6,10.8,0,0.42684
0.6,10.9,0,0.403432
0.6,11,0,0.380062
0.6,11.1,0,0.356995
0.6,11.2,0,0.333953
0.6,11.3,0,0.311005
0.6,11.4,0,0.288281
0.6,11.5,0,0.265588
0.6,11.6,0,0.243023
0.6,11.7,0,0.220599
0.6,11.8,0,0.19822
0.6,11.9,0,0.175969
0.6,12,0,0.153784
0.6,12.1,0,0.13166
0.6,12.2,0,0.109632
0.6,12.3,0,0.0876099
0.6,12.4,0,0.0656768
0.6,12.5,0,0.0437862
0.6,12.6,0,0.0218624
0.6,12.7,0,0
0.7,0,0,0
0.7,0.1,0,0.0241927
0.7,0.2,0,0.0483671
0.7,0.3,0,0.0725902
0.7,0.4,0,0.096797
0.7,0.5,0,0.12102
0.7,0.6,0,0.145301
0.7,0.7,0,0.169571
0.7,0.8,0,0.193907
0.7,0.9,0,0.218265
0.7,1,0,0.242634
0.7,1.1,0,0.267105
0.7,1.2,0,0.291572
0.7,1.3,0,0.316099
0.7,1.4,0,0.340683
0.7,1.5,0,0.365256
0.7,1.6,0,0.389953
0.7,1.7,0,0.414656
0.7,1.8,0,0.439379
0.7,1.9,0,0.464203
0.7,2,0,0.488988
0.7,2.1,0,0.513887
0.7,2.2,0,0.538824
0.7,2.3,0,0.563692
0.7,2.4,0,0.588711
0.7,2.5,0,0.613649
0.7,2.6,0,0.63864
0.7,2.7,0,0.663677
0.7,2.8,0,0.688535
0.7,2.9,0,0.713494
0.7,3,0,0.738268
0.7,3.1,0,0.76306
0.7,3.2,0,0.787825
0.7,3.3,0,0.812255
0.7,3.4,0,0.836672
0.7,3.5,0,0.860786
0.7,3.6,0,0.884734
0.7,3.7,0,0.908509
0.7,3.8,0,0.931585
0.7,3.9,0,0.954215
0.7,4,0,0.976528
0.7,4.1,0,0.997457
0.7,4.2,0,1.01831
0.7,4.3,0,1.03761
0.7,4.4,0,1.05613
0.7,4.5,0,1.07454
0.7,4.6,0,1.09019
0.7,4.7,0,1.10621
0.7,4.8,0,1.12066
0.7,4.9,0,1.13223
0.7,5,0,1.14246
0.7,5.1,0,1.16211
0.7,5.2,0,1.17451
0.7,5.3,0,1.18613
0.7,5.4,0,1.19684
0.7,5.5,0,1.20645
0.7,5.6,0,1.21483
0.7,5.7,0,1.22199
0.7,5.8,0,1.22805
0.7,5.9,0,1.23314
0.7,6,0,1.23725
0.7,6.1,0,1.24025
0.7,6.2,0,1.24198
0.7,6.3,0,1.24226
0.7,6.4,0,1.24098
0.7,6.5,0,1.23809
0.7,6.6,0,1.23354
0.7,6.7,0,1.22735
0.7,6.8,0,1.21957
0.7,6.9,0,1.21031
0.7,7,0,1.19267
0.7,7.1,0,1.18738
0.7,7.2,0,1.17693
0.7,7.3,0,1.16197
0.7,7.4,0,1.14936
0.7,7.5,0,1.135
0.7,7.6,0,1.11976
0.7,7.7,0,1.10507
0.7,7.8,0,1.09011
0.7,7.9,0,1.07588
0.7,8,0,1.06025
0.7,8.1,0,1.0447
0.7,8.2,0,1.02831
0.7,8.3,0,1.01066
0.7,8.4,0,0.993268
0.7,8.5,0,0.973845
0.7,8.6,0,0.953684
0.7,8.7,0,0.933837
0.7,8.8,0,0.911667
0.7,8.9,0,0.889252
0.7,9,0,0.866875
0.7,9.1,0,0.842989
0.7,9.2,0,0.818928
0.7,9.3,0,0.794565
0.7,9.4,0,0.769784
0.7,9.5,0,0.744785
0.7,9.6,0,0.71958
0.7,9.7,0,0.694462
0.7,9.8,0,0.66924
0.7,9.9,0,0.644249
0.7,10,0,0.619366
0.7,10.1,0,0.594498
0.7,10.2,0,0.570042
0.7,10.3,0,0.545641
0.7,10.4,0,0.521301
0.7,10.5,0,0.497357
0.7,10.6,0,0.473448
0.7,10.7,0,0.449595
0.7,10.8,0,0.426128
0.7,10.9,0,0.402674
0.7,11,0,0.379287
0.7,11.1,0,0.356237
0.7,11.2,0,0.333202
0.7,11.3,0,0.310252
0.7,11.4,0,0.287575
0.7,11.5,0,0.264919
0.7,11.6,0,0.242355
0.7,11.7,0,0.220011
0.7,11.8,0,0.19768
0.7,11.9,0,0.175429
0.7,12,0,0.153358
0.7,12.1,0,0.131279
0.7,12.2,0,0.109265
0.7,12.3,0,0.0873826
0.7,12.4,0,0.0654792
0.7,12.5,0,0.0436158
0.7,12.6,0,0.0218296
0.7,12.7,0,0
0.8,0,0,0
0.8,0.1,0,0.0241484
0.8,0.2,0,0.0483228
0.8,0.3,0,0.0724638
0.8,0.4,0,0.0966706
0.8,0.5,0,0.120858
0.8,0.6,0,0.145106
0.8,0.7,0,0.169377
0.8,0.8,0,0.193659
0.8,0.9,0,0.218017
0.8,1,0,0.242362
0.8,1.1,0,0.266822
0.8,1.2,0,0.291289
0.8,1.3,0,0.31581
0.8,1.4,0,0.340394
0.8,1.5,0,0.364977
0.8,1.6,0,0.389696
0.8,1.7,0,0.414399
0.8,1.8,0,0.439204
0.8,1.9,0,0.464028
0.8,2,0,0.488891
0.8,2.1,0,0.513875
0.8,2.2,0,0.538812
0.8,2.3,0,0.56392
0.8,2.4,0,0.588939
0.8,2.5,0,0.613999
0.8,2.6,0,0.639162
0.8,2.7,0,0.6642
0.8,2.8,0,0.689395
0.8,2.9,0,0.714353
0.8,3,0,0.739297
0.8,3.1,0,0.764294
0.8,3.2,0,0.789058
0.8,3.3,0,0.813903
0.8,3.4,0,0.83832
0.8,3.5,0,0.86258
0.8,3.6,0,0.88684
0.8,3.7,0,0.910615
0.8,3.8,0,0.934246
0.8,3.9,0,0.956876
0.8,4,0,0.978893
0.8,4.1,0,1.00093
0.8,4.2,0,1.02178
0.8,4.3,0,1.04206
0.8,4.4,0,1.06058
0.8,4.5,0,1.07821
0.8,4.6,0,1.09554
0.8,4.7,0,1.11156
0.8,4.8,0,1.12671
0.8,4.9,0,1.13828
0.8,5,0,1.14893
0.8,5.1,0,1.16967
0.8,5.2,0,1.18276
0.8,5.3,0,1.19506
0.8,5.4,0,1.20642
0.8,5.5,0,1.21663
0.8,5.6,0,1.22555
0.8,5.7,0,1.23318
0.8,5.8,0,1.23966
0.8,5.9,0,1.24514
0.8,6,0,1.24958
0.8,6.1,0,1.25287
0.8,6.2,0,1.25481
0.8,6.3,0,1.25524
0.8,6.4,0,1.25405
0.8,6.5,0,1.25117
0.8,6.6,0,1.24659
0.8,6.7,0,1.24032
0.8,6.8,0,1.23243
0.8,6.9,0,1.22307
0.8,7,0,1.20532
0.8,7.1,0,1.19198
0.8,7.2,0,1.18153
0.8,7.3,0,1.172
0.8,7.4,0,1.15515
0.8,7.5,0,1.14078
0.8,7.6,0,1.12707
0.8,7.7,0,1.11105
0.8,7.8,0,1.09608
0.8,7.9,0,1.08049
0.8,8,0,1.06461
0.8,8.1,0,1.04865
0.8,8.2,0,1.03199
0.8,8.3,0,1.01434
0.8,8.4,0,0.995604
0.8,8.5,0,0.976789
0.8,8.6,0,0.956628
0.8,8.7,0,0.934637
0.8,8.8,0,0.913645
0.8,8.9,0,0.89123
0.8,9,0,0.866966
0.8,9.1,0,0.843981
0.8,9.2,0,0.819919
0.8,9.3,0,0.794699
0.8,9.4,0,0.77015
0.8,9.5,0,0.745151
0.8,9.6,0,0.719604
0.8,9.7,0,0.69449
0.8,9.8,0,0.669245
0.8,9.9,0,0.64395
0.8,10,0,0.619048
0.8,10.1,0,0.594126
0.8,10.2,0,0.569411
0.8,10.3,0,0.54501
0.8,10.4,0,0.520611
0.8,10.5,0,0.4965
0.8,10.6,0,0.472591
0.8,10.7,0,0.448712
0.8,10.8,0,0.425162
0.8,10.9,0,0.401708
0.8,11,0,0.37834
0.8,11.1,0,0.355269
0.8,11.2,0,0.332234
0.8,11.3,0,0.309358
0.8,11.4,0,0.286696
0.8,11.5,0,0.26404
0.8,11.6,0,0.241601
0.8,11.7,0,0.219275
0.8,11.8,0,0.196964
0.8,11.9,0,0.174873
0.8,12,0,0.152806
0.8,12.1,0,0.130777
0.8,12.2,0,0.108926
0.8,12.3,0,0.0870433
0.8,12.4,0,0.0652207
0.8,12.5,0,0.0435045
0.8,12.6,0,0.0217183
0.8,12.7,0,0
0.9,0,0,0
0.9,0.1,0,0.0241224
0.9,0.2,0,0.0482236
0.9,0.3,0,0.0723646
0.9,0.4,0,0.0965
0.9,0.5,0,0.120668
0.9,0.6,0,0.144895
0.9,0.7,0,0.169109
0.9,0.8,0,0.193391
0.9,0.9,0,0.217705
0.9,1,0,0.242036
0.9,1.1,0,0.266488
0.9,1.2,0,0.290931
0.9,1.3,0,0.315452
0.9,1.4,0,0.340045
0.9,1.5,0,0.364628
0.9,1.6,0,0.389363
0.9,1.7,0,0.414114
0.9,1.8,0,0.438918
0.9,1.9,0,0.463831
0.9,2,0,0.488732
0.9,2.1,0,0.513763
0.9,2.2,0,0.538845
0.9,2.3,0,0.563953
0.9,2.4,0,0.589178
0.9,2.5,0,0.61428
0.9,2.6,0,0.63957
0.9,2.7,0,0.664772
0.9,2.8,0,0.689967
0.9,2.9,0,0.715265
0.9,3,0,0.740194
0.9,3.1,0,0.765422
0.9,3.2,0,0.790297
0.9,3.3,0,0.815142
0.9,3.4,0,0.840033
0.9,3.5,0,0.864137
0.9,3.6,0,0.888882
0.9,3.7,0,0.912444
0.9,3.8,0,0.936076
0.9,3.9,0,0.959649
0.9,4,0,0.981052
0.9,4.1,0,1.00427
0.9,4.2,0,1.02456
0.9,4.3,0,1.04485
0.9,4.4,0,1.06542
0.9,4.5,0,1.08215
0.9,4.6,0,1.1008
0.9,4.7,0,1.11732
0.9,4.8,0,1.13246
0.9,4.9,0,1.14663
0.9,5,0,1.15637
0.9,5.1,0,1.17828
0.9,5.2,0,1.19213
0.9,5.3,0,1.20517
0.9,5.4,0,1.21722
0.9,5.5,0,1.22806
0.9,5.6,0,1.23752
0.9,5.7,0,1.24563
0.9,5.8,0,1.25253
0.9,5.9,0,1.25839
0.9,6,0,1.26319
0.9,6.1,0,1.26678
0.9,6.2,0,1.26897
0.9,6.3,0,1.26958
0.9,6.4,0,1.26852
0.9,6.5,0,1.26571
0.9,6.6,0,1.26115
0.9,6.7,0,1.25486
0.9,6.8,0,1.24691
0.9,6.9,0,1.23747
0.9,7,0,1.21955
0.9,7.1,0,1.20401
0.9,7.2,0,1.19354
0.9,7.3,0,1.18518
0.9,7.4,0,1.16494
0.9,7.5,0,1.15076
0.9,7.6,0,1.1375
0.9,7.7,0,1.11876
0.9,7.8,0,1.10285
0.9,7.9,0,1.08725
0.9,8,0,1.06968
0.9,8.1,0,1.05217
0.9,8.2,0,1.03556
0.9,8.3,0,1.01773
0.9,8.4,0,0.99686
0.9,8.5,0,0.978537
0.9,8.6,0,0.95863
0.9,8.7,0,0.934575
0.9,8.8,0,0.914502
0.9,8.9,0,0.891849
0.9,9,0,0.866338
0.9,9.1,0,0.844347
0.9,9.2,0,0.819715
0.9,9.3,0,0.794005
0.9,9.4,0,0.770156
0.9,9.5,0,0.744668
0.9,9.6,0,0.719031
0.9,9.7,0,0.694179
0.9,9.8,0,0.668684
0.9,9.9,0,0.643389
0.9,10,0,0.618421
0.9,10.1,0,0.59341
0.9,10.2,0,0.56868
0.9,10.3,0,0.544101
0.9,10.4,0,0.519694
0.9,10.5,0,0.495541
0.9,10.6,0,0.471502
0.9,10.7,0,0.44765
0.9,10.8,0,0.42405
0.9,10.9,0,0.400568
0.9,11,0,0.377231
0.9,11.1,0,0.354118
0.9,11.2,0,0.331153
0.9,11.3,0,0.308299
0.9,11.4,0,0.285638
0.9,11.5,0,0.263109
0.9,11.6,0,0.240674
0.9,11.7,0,0.218402
0.9,11.8,0,0.196226
0.9,11.9,0,0.174135
0.9,12,0,0.152179
0.9,12.1,0,0.130266
0.9,12.2,0,0.108425
0.9,12.3,0,0.0866979
0.9,12.4,0,0.0649589
0.9,12.5,0,0.0432736
0.9,12.6,0,0.0216671
0.9,12.7,0,0
1,0,0,0
1,0.1,0,0.0240752
1,0.2,0,0.0481504
1,0.3,0,0.0722459
1,0.4,0,0.0963617
1,0.5,0,0.120478
1,0.6,0,0.14467
1,0.7,0,0.168862
1,0.8,0,0.193108
1,0.9,0,0.217409
1,1,0,0.241709
1,1.1,0,0.266145
1,1.2,0,0.29058
1,1.3,0,0.315094
1,1.4,0,0.339687
1,1.5,0,0.364279
1,1.6,0,0.389046
1,1.7,0,0.413812
1,1.8,0,0.438671
1,1.9,0,0.463622
1,2,0,0.488573
1,2.1,0,0.513702
1,2.2,0,0.53883
1,2.3,0,0.564028
1,2.4,0,0.589295
1,2.5,0,0.614561
1,2.6,0,0.63989
1,2.7,0,0.665218
1,2.8,0,0.690524
1,2.9,0,0.715808
1,3,0,0.741091
1,3.1,0,0.766197
1,3.2,0,0.791304
1,3.3,0,0.816224
1,3.4,0,0.840959
1,3.5,0,0.865693
1,3.6,0,0.889741
1,3.7,0,0.913788
1,3.8,0,0.937292
1,3.9,0,0.960252
1,4,0,0.983212
1,4.1,0,1.00469
1,4.2,0,1.02617
1,4.3,0,1.04675
1,4.4,0,1.06642
1,4.5,0,1.0861
1,4.6,0,1.10392
1,4.7,0,1.12175
1,4.8,0,1.13729
1,4.9,0,1.15055
1,5,0,1.1638
1,5.1,0,1.18688
1,5.2,0,1.20149
1,5.3,0,1.21527
1,5.4,0,1.22802
1,5.5,0,1.23948
1,5.6,0,1.24949
1,5.7,0,1.25807
1,5.8,0,1.2654
1,5.9,0,1.27165
1,6,0,1.2768
1,6.1,0,1.28069
1,6.2,0,1.28313
1,6.3,0,1.28392
1,6.4,0,1.28298
1,6.5,0,1.28025
1,6.6,0,1.27571
1,6.7,0,1.2694
1,6.8,0,1.2614
1,6.9,0,1.25186
1,7,0,1.23377
1,7.1,0,1.22241
1,7.2,0,1.21106
1,7.3,0,1.19889
1,7.4,0,1.1821
1,7.5,0,1.16532
1,7.6,0,1.14811
1,7.7,0,1.12992
1,7.8,0,1.11173
1,7.9,0,1.09337
1,8,0,1.07482
1,8.1,0,1.05626
1,8.2,0,1.03706
1,8.3,0,1.01741
1,8.4,0,0.99777
1,8.5,0,0.976872
1,8.6,0,0.955555
1,8.7,0,0.934239
1,8.8,0,0.911487
1,8.9,0,0.888575
1,9,0,0.865604
1,9.1,0,0.841484
1,9.2,0,0.817364
1,9.3,0,0.79309
1,9.4,0,0.768197
1,9.5,0,0.743305
1,9.6,0,0.718303
1,9.7,0,0.6931
1,9.8,0,0.667896
1,9.9,0,0.642776
1,10,0,0.61774
1,10.1,0,0.592705
1,10.2,0,0.567967
1,10.3,0,0.54339
1,10.4,0,0.518813
1,10.5,0,0.494669
1,10.6,0,0.470633
1,10.7,0,0.446598
1,10.8,0,0.423075
1,10.9,0,0.399579
1,11,0,0.376133
1,11.1,0,0.353143
1,11.2,0,0.330153
1,11.3,0,0.307275
1,11.4,0,0.284735
1,11.5,0,0.262195
1,11.6,0,0.239806
1,11.7,0,0.217643
1,11.8,0,0.19548
1,11.9,0,0.173478
1,12,0,0.151609
1,12.1,0,0.129739
1,12.2,0,0.108013
1,12.3,0,0.0863496
1,12.4,0,0.0646857
1,12.5,0,0.0431131
1,12.6,0,0.0215565
1,12.7,0,0
1.1,0,0,0
1.1,0.1,0,0.0240065
1.1,0.2,0,0.0480507
1.1,0.3,0,0.0720816
1.1,0.4,0,0.0961638
1.1,0.5,0,0.120222
1.1,0.6,0,0.144352
1.1,0.7,0,0.16852
1.1,0.8,0,0.192716
1.1,0.9,0,0.21699
1.1,1,0,0.241255
1.1,1.1,0,0.265653
1.1,1.2,0,0.290082
1.1,1.3,0,0.31458
1.1,1.4,0,0.339162
1.1,1.5,0,0.363773
1.1,1.6,0,0.388546
1.1,1.7,0,0.413338
1.1,1.8,0,0.438248
1.1,1.9,0,0.463225
1.1,2,0,0.488242
1.1,2.1,0,0.513473
1.1,2.2,0,0.538639
1.1,2.3,0,0.563955
1.1,2.4,0,0.589303
1.1,2.5,0,0.614641
1.1,2.6,0,0.640196
1.1,2.7,0,0.66556
1.1,2.8,0,0.691036
1.1,2.9,0,0.716453
1.1,3,0,0.741848
1.1,3.1,0,0.767225
1.1,3.2,0,0.792433
1.1,3.3,0,0.817548
1.1,3.4,0,0.842375
1.1,3.5,0,0.867519
1.1,3.6,0,0.891483
1.1,3.7,0,0.915967
1.1,3.8,0,0.939547
1.1,3.9,0,0.962146
1.1,4,0,0.986923
1.1,4.1,0,1.00679
1.1,4.2,0,1.02978
1.1,4.3,0,1.05078
1.1,4.4,0,1.06937
1.1,4.5,0,1.09277
1.1,4.6,0,1.10879
1.1,4.7,0,1.1283
1.1,4.8,0,1.14708
1.1,4.9,0,1.16187
1.1,5,0,1.17322
1.1,5.1,0,1.19708
1.1,5.2,0,1.21218
1.1,5.3,0,1.22646
1.1,5.4,0,1.23973
1.1,5.5,0,1.2517
1.1,5.6,0,1.26218
1.1,5.7,0,1.27118
1.1,5.8,0,1.27888
1.1,5.9,0,1.28548
1.1,6,0,1.29095
1.1,6.1,0,1.29514
1.1,6.2,0,1.2978
1.1,6.3,0,1.29874
1.1,6.4,0,1.29786
1.1,6.5,0,1.29507
1.1,6.6,0,1.29038
1.1,6.7,0,1.28382
1.1,6.8,0,1.27546
1.1,6.9,0,1.2655
1.1,7,0,1.24663
1.1,7.1,0,1.24882
1.1,7.2,0,1.23518
1.1,7.3,0,1.21184
1.1,7.4,0,1.20232
1.1,7.5,0,1.18174
1.1,7.6,0,1.15874
1.1,7.7,0,1.14124
1.1,7.8,0,1.12149
1.1,7.9,0,1.10069
1.1,8,0,1.08062
1.1,8.1,0,1.06231
1.1,8.2,0,1.04078
1.1,8.3,0,1.01892
1.1,8.4,0,1.00151
1.1,8.5,0,0.97758
1.1,8.6,0,0.954498
1.1,8.7,0,0.936564
1.1,8.8,0,0.910345
1.1,8.9,0,0.886958
1.1,9,0,0.86655
1.1,9.1,0,0.839776
1.1,9.2,0,0.815958
1.1,9.3,0,0.792749
1.1,9.4,0,0.76689
1.1,9.5,0,0.742214
1.1,9.6,0,0.717433
1.1,9.7,0,0.692077
1.1,9.8,0,0.666831
1.1,9.9,0,0.641669
1.1,10,0,0.61662
1.1,10.1,0,0.591471
1.1,10.2,0,0.566663
1.1,10.3,0,0.542072
1.1,10.4,0,0.517392
1.1,10.5,0,0.4932
1.1,10.6,0,0.469149
1.1,10.7,0,0.445067
1.1,10.8,0,0.42152
1.1,10.9,0,0.398026
1.1,11,0,0.374606
1.1,11.1,0,0.351622
1.1,11.2,0,0.328665
1.1,11.3,0,0.30586
1.1,11.4,0,0.283356
1.1,11.5,0,0.260884
1.1,11.6,0,0.238603
1.1,11.7,0,0.216501
1.1,11.8,0,0.194434
1.1,11.9,0,0.172556
1.1,12,0,0.150752
1.1,12.1,0,0.129012
1.1,12.2,0,0.107425
1.1,12.3,0,0.0858191
1.1,12.4,0,0.0643118
1.1,12.5,0,0.0428833
1.1,12.6,0,0.021391
1.1,12.7,0,0
1.2,0,0,0
1.2,0.1,0,0.0239755
1.2,0.2,0,0.0479201
1.2,0.3,0,0.071951
1.2,0.4,0,0.0959423
1.2,0.5,0,0.119967
1.2,0.6,0,0.144072
1.2,0.7,0,0.168153
1.2,0.8,0,0.192349
1.2,0.9,0,0.216562
1.2,1,0,0.240801
1.2,1.1,0,0.265193
1.2,1.2,0,0.289578
1.2,1.3,0,0.314075
1.2,1.4,0,0.338666
1.2,1.5,0,0.363267
1.2,1.6,0,0.388065
1.2,1.7,0,0.412889
1.2,1.8,0,0.437799
1.2,1.9,0,0.462868
1.2,2,0,0.487911
1.2,2.1,0,0.51318
1.2,2.2,0,0.538485
1.2,2.3,0,0.563801
1.2,2.4,0,0.589301
1.2,2.5,0,0.614721
1.2,2.6,0,0.640311
1.2,2.7,0,0.665937
1.2,2.8,0,0.691413
1.2,2.9,0,0.717076
1.2,3,0,0.742604
1.2,3.1,0,0.768083
1.2,3.2,0,0.793665
1.2,3.3,0,0.81878
1.2,3.4,0,0.844109
1.2,3.5,0,0.869346
1.2,3.6,0,0.893746
1.2,3.7,0,0.918583
1.2,3.8,0,0.942163
1.2,3.9,0,0.966218
1.2,4,0,0.990634
1.2,4.1,0,1.01201
1.2,4.2,0,1.0349
1.2,4.3,0,1.0559
1.2,4.4,0,1.07713
1.2,4.5,0,1.09945
1.2,4.6,0,1.11715
1.2,4.7,0,1.13654
1.2,4.8,0,1.15531
1.2,4.9,0,1.16975
1.2,5,0,1.18264
1.2,5.1,0,1.20727
1.2,5.2,0,1.22286
1.2,5.3,0,1.23765
1.2,5.4,0,1.25143
1.2,5.5,0,1.26391
1.2,5.6,0,1.27486
1.2,5.7,0,1.28428
1.2,5.8,0,1.29236
1.2,5.9,0,1.29931
1.2,6,0,1.30511
1.2,6.1,0,1.30958
1.2,6.2,0,1.31247
1.2,6.3,0,1.31356
1.2,6.4,0,1.31273
1.2,6.5,0,1.3099
1.2,6.6,0,1.30506
1.2,6.7,0,1.29824
1.2,6.8,0,1.28953
1.2,6.9,0,1.27913
1.2,7,0,1.25949
1.2,7.1,0,1.25548
1.2,7.2,0,1.24323
1.2,7.3,0,1.22369
1.2,7.4,0,1.20924
1.2,7.5,0,1.19116
1.2,7.6,0,1.16912
1.2,7.7,0,1.14983
1.2,7.8,0,1.12981
1.2,7.9,0,1.10901
1.2,8,0,1.08854
1.2,8.1,0,1.0685
1.2,8.2,0,1.04704
1.2,8.3,0,1.0258
1.2,8.4,0,1.00587
1.2,8.5,0,0.982555
1.2,8.6,0,0.959745
1.2,8.7,0,0.939227
1.2,8.8,0,0.913944
1.2,8.9,0,0.889643
1.2,9,0,0.867629
1.2,9.1,0,0.841618
1.2,9.2,0,0.816434
1.2,9.3,0,0.792615
1.2,9.4,0,0.766972
1.2,9.5,0,0.741494
1.2,9.6,0,0.71663
1.2,9.7,0,0.691182
1.2,9.8,0,0.665733
1.2,9.9,0,0.64057
1.2,10,0,0.615381
1.2,10.1,0,0.590186
1.2,10.2,0,0.56537
1.2,10.3,0,0.540654
1.2,10.4,0,0.51595
1.2,10.5,0,0.491747
1.2,10.6,0,0.467632
1.2,10.7,0,0.443535