/*--------------------------------*- C++ -*----------------------------------*\
| =========                 |                                                 |
| \\      /  F ield         | OpenFOAM: The Open Source CFD Toolbox           |
|  \\    /   O peration     | Version:  v1806                                 |
|   \\  /    A nd           | Web:      www.OpenFOAM.com                      |
|    \\/     M anipulation  |                                                 |
\*---------------------------------------------------------------------------*/
FoamFile
{
    version     2.0;
    format      ascii;
    class       volScalarField;
    location    "360";
    object      p;
}
// * * * * * * * * * * * * * * * * * * * * * * * * * * * * * * * * * * * * * //

dimensions      [0 2 -2 0 0 0 0];


internalField   nonuniform List<scalar> 
5228
(
-0.00744147
-0.00744304
-0.00744304
-0.00744147
-0.00730724
-0.00730398
-0.00730398
-0.00730724
-0.00788705
-0.00788599
-0.00788599
-0.00788705
-0.00861472
-0.00861375
-0.00861375
-0.00861472
-0.0103284
-0.0103232
-0.0103232
-0.0103284
-0.0103957
-0.0103913
-0.0103913
-0.0103957
-0.00962101
-0.0096198
-0.0096198
-0.00962101
-0.00956465
-0.00956307
-0.00956307
-0.00956465
-0.0113707
-0.0113533
-0.0113533
-0.0113707
-0.013983
-0.0139782
-0.0139782
-0.013983
-0.0134307
-0.0134378
-0.0134378
-0.0134307
-0.0176679
-0.0176856
-0.0176856
-0.0176679
-0.0194753
-0.0194891
-0.0194891
-0.0194753
-0.0143868
-0.0143707
-0.0143707
-0.0143868
-0.0144475
-0.0144515
-0.0144515
-0.0144475
-0.0156417
-0.0156434
-0.0156434
-0.0156417
-0.0108078
-0.0108072
-0.0108072
-0.0108078
-0.00988349
-0.00988335
-0.00988335
-0.00988348
-0.0101536
-0.0101426
-0.0101426
-0.0101536
-0.0167588
-0.0167746
-0.0167746
-0.0167588
-0.013856
-0.0138459
-0.0138459
-0.013856
-0.0148065
-0.0148063
-0.0148063
-0.0148065
-0.014683
-0.0146951
-0.0146951
-0.014683
0.0227119
0.0227319
0.0227319
0.0227119
0.0293839
0.0294295
0.0294295
0.0293839
-0.00971037
-0.00970757
-0.00970758
-0.00971037
-0.00971541
-0.00971295
-0.00971295
-0.00971543
-0.00901179
-0.00900904
-0.00900904
-0.0090118
0.0088658
0.00886084
0.00886084
0.0088658
0.00793179
0.00793436
0.00793436
0.00793179
0.0181286
0.0181423
0.0181423
0.0181286
0.0148594
0.014868
0.014868
0.0148594
0.0124173
0.0124262
0.0124262
0.0124173
0.0105491
0.0105596
0.0105596
0.0105491
0.00910356
0.00911116
0.00911116
0.00910356
0.00801721
0.0080218
0.0080218
0.00801721
0.00709689
0.00710083
0.00710083
0.00709689
0.00704462
0.00704611
0.00704611
0.00704462
0.0379738
0.0380139
0.0380139
0.0379738
0.0228362
0.0228485
0.0228485
0.0228362
0.0206372
0.0206373
0.0206373
0.0206372
0.0182121
0.0182107
0.0182107
0.0182121
0.0158104
0.0158097
0.0158097
0.0158104
0.013694
0.0136957
0.0136957
0.013694
0.0118042
0.0118092
0.0118092
0.0118042
0.0102526
0.0102568
0.0102568
0.0102526
0.00898115
0.00898764
0.00898764
0.00898115
0.00789787
0.00790171
0.00790171
0.00789787
0.00700365
0.0070091
0.0070091
0.00700365
0.00619149
0.0061962
0.0061962
0.00619149
0.00631574
0.00632005
0.00632005
0.00631574
0.00630512
0.00630912
0.00630912
0.00630512
0.00616677
0.00617076
0.00617076
0.00616677
0.00691231
0.00691537
0.00691537
0.00691231
0.00778341
0.0077856
0.0077856
0.00778341
0.00881668
0.00881716
0.00881716
0.00881668
0.0102824
0.0102872
0.0102872
0.0102824
0.0117994
0.0117972
0.0117972
0.0117994
0.0134565
0.013453
0.013453
0.0134565
0.0155211
0.015524
0.015524
0.0155211
0.0180075
0.0180119
0.0180119
0.0180075
0.0210067
0.0210155
0.0210155
0.0210067
0.0251269
0.0251384
0.0251384
0.0251269
0.0205366
0.0205383
0.0205383
0.0205366
0.0135442
0.0135475
0.0135475
0.0135442
0.0171102
0.0171313
0.0171313
0.0171102
0.0172543
0.0172683
0.0172683
0.0172543
0.0158589
0.0158685
0.0158685
0.0158589
0.0141303
0.014141
0.014141
0.0141303
0.0123969
0.0124072
0.0124072
0.0123969
0.010839
0.010847
0.010847
0.010839
0.00955118
0.00955488
0.00955488
0.00955118
0.00849059
0.00849467
0.00849467
0.00849059
0.00754881
0.00755302
0.00755302
0.00754881
0.00669787
0.00670297
0.00670297
0.00669787
0.00595803
0.00596165
0.00596165
0.00595803
0.00531851
0.00532196
0.00532196
0.00531851
0.00551471
0.00551895
0.00551895
0.00551471
0.00563528
0.00563899
0.00563899
0.00563528
0.00563994
0.00564199
0.00564199
0.00563994
0.00553926
0.00554184
0.00554184
0.00553926
0.00536361
0.00536682
0.00536682
0.00536361
0.00595762
0.00596142
0.00596142
0.00595762
0.00668881
0.00669215
0.00669215
0.00668881
0.00753971
0.00753909
0.00753909
0.00753971
0.00857104
0.00857174
0.00857174
0.00857104
0.00968297
0.00968139
0.00968139
0.00968297
0.0110152
0.0110187
0.0110187
0.0110152
0.0126723
0.01268
0.01268
0.0126723
0.0146228
0.0146359
0.0146359
0.0146228
0.0168981
0.0169167
0.0169167
0.0168981
0.0193247
0.0193491
0.0193491
0.0193247
0.0210886
0.0211111
0.0211111
0.0210886
0.028634
0.028653
0.028653
0.028634
0.0208539
0.0208649
0.0208649
0.0208539
0.0118357
0.0117912
0.0117912
0.0118357
-0.000195415
-0.000258533
-0.000258532
-0.000195414
-0.00643523
-0.00643217
-0.00643217
-0.00643523
-0.00618756
-0.00618481
-0.00618481
-0.00618756
-0.00901609
-0.0090142
-0.0090142
-0.00901609
-0.00940262
-0.00940169
-0.00940168
-0.00940261
-0.00840634
-0.00840643
-0.00840643
-0.00840634
-0.00881074
-0.00880735
-0.00880735
-0.00881075
-0.00893901
-0.00893701
-0.00893701
-0.00893901
-0.00842458
-0.00842574
-0.00842574
-0.00842458
-0.00751077
-0.0075108
-0.0075108
-0.00751077
-0.00662128
-0.00661984
-0.00661984
-0.00662128
-0.00600401
-0.00600646
-0.00600646
-0.00600401
-0.00591911
-0.0059202
-0.0059202
-0.0059191
-0.00609491
-0.00609947
-0.00609947
-0.0060949
-0.00709629
-0.0070947
-0.0070947
-0.00709629
-0.00652544
-0.00652482
-0.00652482
-0.00652544
-0.00582982
-0.00583004
-0.00583004
-0.00582982
-0.0116113
-0.0116112
-0.0116112
-0.0116113
-0.0124853
-0.0124793
-0.0124793
-0.0124853
-0.0136952
-0.0136906
-0.0136906
-0.0136952
-0.0138856
-0.0138836
-0.0138836
-0.0138856
-0.0125467
-0.0125432
-0.0125432
-0.0125467
-0.0116778
-0.0116825
-0.0116825
-0.0116778
-0.0102987
-0.0102917
-0.0102917
-0.0102987
-0.00957292
-0.0095727
-0.0095727
-0.00957292
-0.00890769
-0.00890698
-0.00890698
-0.00890769
-0.00821473
-0.00821645
-0.00821645
-0.00821473
-0.00729572
-0.00729227
-0.00729227
-0.00729572
-0.00646835
-0.00646427
-0.00646427
-0.00646835
-0.00585509
-0.00585828
-0.00585828
-0.00585509
-0.00504057
-0.00503936
-0.00503936
-0.00504057
-0.00499696
-0.00499511
-0.00499511
-0.00499696
-0.00498011
-0.00497788
-0.00497788
-0.00498011
-0.00503364
-0.00503031
-0.00503031
-0.00503364
-0.0050658
-0.00506275
-0.00506275
-0.0050658
-0.00984667
-0.00984251
-0.00984251
-0.00984667
-0.00908853
-0.00908438
-0.00908438
-0.00908853
-0.00856286
-0.00856285
-0.00856284
-0.00856286
-0.00781004
-0.00780799
-0.00780799
-0.00781003
-0.00708651
-0.00708418
-0.00708418
-0.00708651
-0.00650152
-0.00650094
-0.00650094
-0.00650152
-0.00585594
-0.00585785
-0.00585785
-0.00585594
-0.00504063
-0.00503914
-0.00503914
-0.00504063
-0.0165376
-0.0165436
-0.0165436
-0.0165376
-0.015787
-0.0158061
-0.0158061
-0.015787
-0.0124004
-0.0124181
-0.0124181
-0.0124004
-0.00683424
-0.00684464
-0.00684464
-0.00683424
-2.76899e-05
1.46864e-05
1.46863e-05
-2.76902e-05
0.00539696
0.00538518
0.00538518
0.00539696
0.0122125
0.012218
0.012218
0.0122125
0.0141198
0.0141256
0.0141256
0.0141198
0.0141972
0.0142047
0.0142047
0.0141972
0.0134743
0.0134773
0.0134773
0.0134743
0.0124205
0.0124239
0.0124239
0.0124205
0.011193
0.0111955
0.0111955
0.011193
0.0100098
0.0100109
0.0100109
0.0100098
0.00894562
0.00894294
0.00894294
0.00894562
0.00800076
0.00799999
0.00799999
0.00800076
0.00712006
0.00711972
0.00711972
0.00712006
0.00634335
0.00634583
0.00634583
0.00634335
0.00566563
0.00566862
0.00566862
0.00566563
0.00510172
0.00510477
0.00510477
0.00510172
-0.0108841
-0.0108794
-0.0108794
-0.0108841
-0.0100681
-0.0100698
-0.0100698
-0.0100681
-0.00916403
-0.00915868
-0.00915868
-0.00916403
-0.00843471
-0.00843418
-0.00843418
-0.00843471
-0.0077223
-0.00772185
-0.00772185
-0.0077223
-0.00704048
-0.00703901
-0.00703901
-0.00704048
-0.00639985
-0.00639999
-0.00639999
-0.00639985
-0.00575288
-0.00575509
-0.00575509
-0.00575288
-0.00492352
-0.00492068
-0.00492068
-0.00492352
-0.00426484
-0.0042661
-0.0042661
-0.00426483
-0.00433601
-0.00433609
-0.00433609
-0.00433601
-0.00438147
-0.00438198
-0.00438198
-0.00438146
-0.00443458
-0.00443546
-0.00443546
-0.00443458
-0.00436328
-0.00436347
-0.00436347
-0.00436328
-0.00440826
-0.00440933
-0.00440933
-0.00440826
-0.0044604
-0.0044638
-0.0044638
-0.0044604
-0.00433172
-0.00433373
-0.00433373
-0.00433172
-0.00495098
-0.00494891
-0.00494891
-0.00495098
-0.00564461
-0.00564776
-0.00564776
-0.00564461
-0.00629426
-0.0062904
-0.0062904
-0.00629427
-0.0070812
-0.00708041
-0.00708041
-0.0070812
-0.00784907
-0.00785178
-0.00785178
-0.00784907
-0.00853639
-0.00853831
-0.00853831
-0.00853639
-0.00917632
-0.00917407
-0.00917407
-0.00917632
-0.00988482
-0.00987475
-0.00987475
-0.00988481
-0.0108324
-0.0108334
-0.0108334
-0.0108324
-0.0116881
-0.0116852
-0.0116852
-0.0116881
-0.0126969
-0.0126881
-0.0126881
-0.0126969
-0.0139544
-0.0139622
-0.0139622
-0.0139544
-0.0145549
-0.0145538
-0.0145538
-0.0145549
-0.0157763
-0.0157577
-0.0157577
-0.0157763
-0.0176876
-0.0177201
-0.0177201
-0.0176876
-0.0157578
-0.0157617
-0.0157617
-0.0157578
-0.0118233
-0.0118158
-0.0118158
-0.0118233
-0.00515454
-0.00518984
-0.00518984
-0.00515454
0.00579263
0.0057679
0.0057679
0.00579263
0.0102037
0.0101996
0.0101996
0.0102037
0.011756
0.0117609
0.0117609
0.011756
0.0120795
0.0120843
0.0120843
0.0120795
0.0115264
0.0115329
0.0115329
0.0115264
0.0106191
0.0106259
0.0106259
0.0106191
0.00960864
0.00961314
0.00961314
0.00960864
0.00865847
0.00865984
0.00865984
0.00865847
0.007788
0.00779065
0.00779065
0.007788
0.00697174
0.00697571
0.00697571
0.00697174
0.00625054
0.00625392
0.00625392
0.00625054
0.00560848
0.00561097
0.00561097
0.00560848
0.00502802
0.00503077
0.00503077
0.00502802
0.00451597
0.00451797
0.00451797
0.00451597
0.00476866
0.00477122
0.00477122
0.00476866
0.00495273
0.00495595
0.00495595
0.00495273
0.0050635
0.00506656
0.00506656
0.0050635
0.00508932
0.00509201
0.00509201
0.00508932
0.0050087
0.00501152
0.00501152
0.0050087
0.00484991
0.00485226
0.00485226
0.00484991
0.00461154
0.00461381
0.00461381
0.00461154
-0.00363807
-0.00363879
-0.00363879
-0.00363807
-0.00371147
-0.00371239
-0.00371239
-0.00371147
-0.00375078
-0.003751
-0.003751
-0.00375078
-0.00378756
-0.00378742
-0.00378742
-0.00378756
-0.00384478
-0.00384562
-0.00384563
-0.00384478
-0.00383048
-0.00383139
-0.00383139
-0.00383048
-0.00378176
-0.00378099
-0.00378099
-0.00378176
-0.0036874
-0.00368613
-0.00368613
-0.0036874
-0.0034867
-0.00348562
-0.00348562
-0.0034867
-0.00405088
-0.00405
-0.00405
-0.00405088
-0.00464887
-0.00464842
-0.00464842
-0.00464887
-0.00526339
-0.00526321
-0.00526321
-0.00526339
-0.00589535
-0.00589145
-0.00589145
-0.00589535
-0.00657419
-0.00657489
-0.00657489
-0.00657419
-0.00724734
-0.00725347
-0.00725347
-0.00724734
-0.00787069
-0.00787005
-0.00787005
-0.00787069
-0.00855303
-0.00854506
-0.00854506
-0.00855303
-0.00930334
-0.00929822
-0.00929822
-0.00930334
-0.0100067
-0.0100129
-0.0100129
-0.0100067
-0.0107384
-0.0107465
-0.0107465
-0.0107384
-0.011546
-0.0115508
-0.0115508
-0.011546
-0.0125331
-0.0125357
-0.0125357
-0.0125331
-0.0134321
-0.0134314
-0.0134314
-0.0134321
-0.0138007
-0.0137957
-0.0137957
-0.0138007
-0.0136004
-0.0136097
-0.0136097
-0.0136004
-0.0121906
-0.0122416
-0.0122416
-0.0121906
-0.0075873
-0.00762962
-0.00762962
-0.0075873
-0.00152334
-0.00153539
-0.00153539
-0.00152334
0.00329875
0.00329079
0.00329079
0.00329875
0.0069171
0.00692601
0.00692601
0.0069171
0.00859939
0.00860743
0.00860743
0.00859939
0.00931842
0.00933055
0.00933055
0.00931842
0.00928109
0.00928756
0.00928756
0.00928109
0.00889144
0.00889727
0.00889727
0.00889144
0.00826684
0.00827044
0.00827044
0.00826684
0.0075992
0.00760178
0.00760178
0.0075992
0.00694374
0.00694538
0.00694538
0.00694374
0.0063057
0.00630795
0.00630795
0.0063057
0.00570125
0.00570356
0.00570356
0.00570125
0.00515677
0.00515897
0.00515897
0.00515677
0.00466299
0.00466535
0.00466535
0.00466299
0.00419857
0.00420037
0.00420037
0.00419857
0.00380911
0.00381038
0.00381038
0.00380911
0.0040893
0.00409082
0.00409082
0.0040893
0.00431802
0.00432
0.00432
0.00431802
0.00448498
0.00448732
0.00448732
0.00448498
0.00458158
0.00458388
0.00458388
0.00458158
0.0046014
0.00460323
0.00460323
0.0046014
0.00453617
0.00453794
0.00453794
0.00453617
0.00439822
0.00440005
0.00440005
0.00439822
0.00418762
0.00418955
0.00418955
0.00418762
0.00390876
0.0039107
0.0039107
0.00390876
0.00429824
0.0042999
0.0042999
0.00429824
0.00474914
0.00475122
0.00475122
0.00474914
0.00526531
0.00526721
0.00526721
0.00526531
0.00587236
0.00587441
0.00587441
0.00587236
0.0065461
0.00654633
0.00654633
0.0065461
0.00727433
0.00727348
0.00727348
0.00727433
0.00805099
0.00804946
0.00804946
0.00805099
0.00886722
0.00886755
0.00886755
0.00886722
0.00969355
0.00969755
0.00969755
0.00969355
0.0104738
0.0104827
0.0104827
0.0104738
0.0110939
0.0111047
0.0111047
0.0110939
0.0112992
0.0113119
0.0113119
0.0112992
0.0107982
0.0108132
0.0108132
0.0107982
0.00901172
0.00902954
0.00902954
0.00901172
0.00548388
0.00549586
0.00549586
0.00548388
0.000456811
0.000438654
0.000438654
0.00045681
-0.00507287
-0.00510137
-0.00510137
-0.00507287
-0.00917045
-0.0091705
-0.0091705
-0.00917045
-0.0125694
-0.0126021
-0.0126021
-0.0125694
-0.0135823
-0.0135839
-0.0135839
-0.0135823
-0.0104544
-0.0104605
-0.0104605
-0.0104544
-0.009642
-0.0096455
-0.0096455
-0.009642
-0.00878338
-0.0087788
-0.0087788
-0.00878338
-0.00805948
-0.00806078
-0.00806078
-0.00805948
-0.00735328
-0.00735393
-0.00735393
-0.00735328
-0.00669605
-0.00669308
-0.00669308
-0.00669605
-0.00610165
-0.00610297
-0.00610297
-0.00610165
-0.00545573
-0.00545766
-0.00545766
-0.00545573
-0.00471829
-0.00471467
-0.00471467
-0.00471829
-0.00408362
-0.00408455
-0.00408455
-0.00408362
-0.00347208
-0.0034713
-0.0034713
-0.00347208
-0.00319023
-0.00318885
-0.00318885
-0.00319023
-0.00368916
-0.00368798
-0.00368798
-0.00368916
-0.0042077
-0.00420697
-0.00420697
-0.0042077
-0.00474361
-0.00474251
-0.00474251
-0.00474361
-0.00529407
-0.00529188
-0.00529188
-0.00529407
-0.0058479
-0.00584912
-0.00584912
-0.0058479
-0.00639065
-0.00639426
-0.00639426
-0.00639065
-0.00692623
-0.00692561
-0.00692561
-0.00692623
-0.00746286
-0.00745731
-0.00745731
-0.00746286
-0.00799627
-0.00799325
-0.00799325
-0.00799627
-0.00855062
-0.00855295
-0.00855295
-0.00855062
-0.00904903
-0.00905289
-0.00905289
-0.00904903
-0.00956314
-0.00956245
-0.00956245
-0.00956314
-0.0099803
-0.0099748
-0.0099748
-0.0099803
-0.0101921
-0.0101796
-0.0101796
-0.0101921
-0.0101286
-0.0101119
-0.0101119
-0.0101286
-0.00961765
-0.00960697
-0.00960697
-0.00961765
-0.0081095
-0.00812862
-0.00812862
-0.00810949
-0.00502259
-0.00505641
-0.00505641
-0.00502259
-0.00104386
-0.0010665
-0.0010665
-0.00104386
0.00221439
0.00220014
0.00220014
0.00221439
0.00477301
0.00477659
0.00477659
0.00477301
0.00632576
0.00633332
0.00633332
0.00632576
0.00717924
0.00719034
0.00719034
0.00717924
0.00739748
0.00740432
0.00740432
0.00739748
0.00730467
0.00731046
0.00731046
0.00730467
0.0069686
0.00697144
0.00697144
0.0069686
0.00653943
0.00654162
0.00654162
0.00653943
0.00605584
0.00605681
0.00605681
0.00605584
0.00556284
0.0055643
0.0055643
0.00556284
0.0050814
0.00508303
0.00508303
0.0050814
0.00463122
0.00463332
0.00463332
0.00463122
0.0042077
0.00420956
0.00420956
0.0042077
0.0038339
0.00383542
0.00383542
0.0038339
0.0034822
0.00348357
0.00348357
0.0034822
0.00317699
0.00317779
0.00317779
0.00317699
0.00347676
0.0034775
0.0034775
0.00347676
0.00373455
0.00373531
0.00373531
0.00373455
0.00393996
0.00394091
0.00394091
0.00393996
0.00408677
0.00408831
0.00408831
0.00408677
0.00416935
0.00417116
0.00417116
0.00416935
0.00418645
0.00418814
0.00418814
0.00418645
0.00413377
0.00413527
0.00413527
0.00413377
0.0040091
0.00401042
0.00401042
0.0040091
0.00381841
0.00381978
0.00381978
0.00381841
0.00356376
0.00356535
0.00356535
0.00356376
0.00326722
0.00326856
0.00326856
0.00326722
0.00357435
0.00357597
0.00357597
0.00357435
0.00392845
0.00392974
0.00392974
0.00392845
0.0043311
0.00433242
0.00433242
0.0043311
0.00478159
0.00478273
0.00478273
0.00478159
0.00529522
0.00529639
0.00529639
0.00529522
0.00585696
0.00585672
0.00585672
0.00585696
0.00645308
0.00645202
0.00645202
0.00645308
0.00706905
0.00706779
0.00706779
0.00706905
0.00768171
0.0076821
0.0076821
0.00768171
0.00823441
0.00823784
0.00823784
0.00823441
0.0086943
0.00870234
0.00870234
0.0086943
0.00894033
0.0089499
0.0089499
0.00894033
0.00881526
0.00882404
0.00882404
0.00881526
0.00802474
0.00803275
0.00803275
0.00802474
0.00654328
0.00655434
0.00655434
0.00654328
0.00398108
0.00397816
0.00397816
0.00398108
0.000473991
0.000455961
0.000455961
0.000473991
-0.00345308
-0.0034706
-0.0034706
-0.00345308
-0.00664216
-0.00664048
-0.00664048
-0.00664216
-0.00904983
-0.00905283
-0.00905283
-0.00904983
-0.0104863
-0.0104809
-0.0104809
-0.0104863
-0.0110475
-0.0110451
-0.0110451
-0.0110475
-0.0110859
-0.011093
-0.011093
-0.0110859
-0.0106428
-0.0106348
-0.0106348
-0.0106428
-0.010018
-0.0100057
-0.0100057
-0.010018
-0.00940795
-0.00940039
-0.00940039
-0.00940796
-0.00862502
-0.00861919
-0.00861919
-0.00862502
-0.007939
-0.0079395
-0.0079395
-0.007939
-0.00731926
-0.00732229
-0.00732229
-0.00731926
-0.00674027
-0.00674278
-0.00674278
-0.00674027
-0.00613786
-0.00613898
-0.00613898
-0.00613786
-0.00558538
-0.00558825
-0.00558825
-0.00558538
-0.00499488
-0.00499468
-0.00499468
-0.00499488
-0.00439712
-0.00439699
-0.00439699
-0.00439712
-0.00378594
-0.00378422
-0.00378422
-0.00378594
-0.00322595
-0.00322421
-0.00322421
-0.00322595
-0.00270392
-0.00270214
-0.00270214
-0.00270391
-0.00290025
-0.00289843
-0.00289843
-0.00290024
-0.00301777
-0.00301582
-0.00301582
-0.00301777
-0.00308961
-0.00308855
-0.00308855
-0.00308961
-0.00313953
-0.00313894
-0.00313894
-0.00313953
-0.00318082
-0.00318023
-0.00318023
-0.00318082
-0.00320539
-0.00320407
-0.00320407
-0.00320539
-0.00321369
-0.00321173
-0.00321173
-0.0032137
-0.00318852
-0.00318718
-0.00318718
-0.00318852
-0.00311209
-0.00311071
-0.00311071
-0.00311209
-0.00295421
-0.00295321
-0.00295321
-0.00295421
-0.00270831
-0.00270678
-0.00270678
-0.00270831
0.00292581
0.00292562
0.00292562
0.00292581
0.00320305
0.00320285
0.00320285
0.00320305
0.00343771
0.0034378
0.0034378
0.00343771
0.00362195
0.00362247
0.00362247
0.00362195
0.00375053
0.00375143
0.00375143
0.00375053
0.00382221
0.00382329
0.00382329
0.00382221
0.00383522
0.00383617
0.00383617
0.00383522
0.00378677
0.00378753
0.00378753
0.00378677
0.00367838
0.00367913
0.00367913
0.00367838
0.00350603
0.00350693
0.00350693
0.00350603
0.00327776
0.00327871
0.00327871
0.00327776
0.00300669
0.00300756
0.00300756
0.00300669
0.0026939
0.00269498
0.00269498
0.0026939
0.00292644
0.00292798
0.00292798
0.00292644
0.00320071
0.00320215
0.00320215
0.00320071
0.003512
0.00351264
0.00351264
0.003512
0.00385445
0.00385479
0.00385479
0.00385445
0.00423664
0.00423695
0.00423695
0.00423664
0.00466245
0.00466266
0.00466266
0.00466245
0.00511847
0.0051179
0.0051179
0.00511847
0.00558927
0.00558832
0.00558832
0.00558927
0.00605553
0.00605468
0.00605468
0.00605553
0.00649567
0.0064964
0.0064964
0.00649567
0.00685882
0.00686119
0.00686119
0.00685882
0.00709162
0.00709716
0.00709716
0.00709162
0.0071038
0.00711073
0.00711073
0.0071038
0.0067695
0.00677763
0.00677763
0.0067695
0.00595052
0.00596002
0.00596002
0.00595052
0.00473434
0.00474507
0.00474507
0.00473434
0.00287478
0.00287381
0.00287381
0.00287478
0.000452111
0.000441557
0.000441557
0.000452111
-0.00231926
-0.00233289
-0.00233289
-0.00231926
-0.00468038
-0.00468815
-0.00468814
-0.00468038
-0.00657543
-0.00658207
-0.00658207
-0.00657543
-0.00785115
-0.00785251
-0.00785251
-0.00785115
-0.00849327
-0.00849402
-0.00849402
-0.00849327
-0.00874731
-0.00875315
-0.00875315
-0.00874731
-0.00878582
-0.00879053
-0.00879053
-0.00878582
-0.00852627
-0.00851682
-0.00851682
-0.00852627
-0.00797311
-0.00796079
-0.00796079
-0.00797311
-0.00737725
-0.00737199
-0.00737199
-0.00737725
-0.00683365
-0.00683794
-0.00683794
-0.00683365
-0.00635677
-0.00636348
-0.00636348
-0.00635677
-0.00590106
-0.00590499
-0.00590499
-0.00590106
-0.00540408
-0.00540401
-0.00540401
-0.00540408
-0.00490472
-0.00490611
-0.00490611
-0.00490471
-0.00440098
-0.00440234
-0.00440234
-0.00440098
-0.00390091
-0.00390003
-0.00390003
-0.00390091
-0.00338646
-0.00338359
-0.00338359
-0.00338646
-0.00290578
-0.00290391
-0.00290391
-0.00290578
-0.00244152
-0.00243947
-0.00243947
-0.00244152
-0.00201827
-0.00201707
-0.00201707
-0.00201827
-0.00223038
-0.00222952
-0.00222951
-0.00223038
-0.00238619
-0.00238622
-0.00238622
-0.00238619
-0.00247515
-0.00247538
-0.00247538
-0.00247515
-0.00252799
-0.00252778
-0.00252778
-0.00252799
-0.00257511
-0.00257484
-0.00257484
-0.00257511
-0.00262013
-0.00261984
-0.00261984
-0.00262013
-0.00266452
-0.00266478
-0.00266478
-0.00266452
-0.00267039
-0.00266997
-0.00266997
-0.00267039
-0.00265656
-0.0026558
-0.0026558
-0.00265656
-0.00260389
-0.00260426
-0.00260426
-0.00260389
-0.00247108
-0.00247094
-0.00247094
-0.00247108
-0.00225999
-0.0022589
-0.0022589
-0.00225998
-0.00200699
-0.00200528
-0.00200528
-0.00200699
-0.00240703
-0.00240478
-0.00240478
-0.00240702
-0.00282102
-0.00281924
-0.00281924
-0.00282102
-0.00324543
-0.00324428
-0.00324428
-0.00324544
-0.00368224
-0.0036812
-0.00368121
-0.00368224
-0.00413433
-0.00413319
-0.00413319
-0.00413433
-0.00459859
-0.00459867
-0.00459867
-0.00459859
-0.00505612
-0.00505999
-0.00505999
-0.00505612
-0.00549251
-0.00549677
-0.00549677
-0.00549251
-0.0059442
-0.00594408
-0.00594408
-0.0059442
-0.00642516
-0.00642183
-0.00642183
-0.00642516
-0.00689487
-0.00689281
-0.00689281
-0.00689487
-0.00733627
-0.007336
-0.007336
-0.00733627
-0.00773754
-0.00774024
-0.00774024
-0.00773754
-0.00801418
-0.00802031
-0.00802031
-0.00801418
-0.00819496
-0.00819926
-0.00819926
-0.00819496
-0.00817837
-0.00817614
-0.00817614
-0.00817837
-0.00789237
-0.0078866
-0.0078866
-0.00789237
-0.00716067
-0.00716235
-0.00716235
-0.00716067
-0.00571032
-0.00573018
-0.00573018
-0.00571032
-0.00345666
-0.00348055
-0.00348055
-0.00345666
-0.000902177
-0.000922669
-0.000922669
-0.000902177
0.00146268
0.00144861
0.00144861
0.00146268
0.00338585
0.00338584
0.00338584
0.00338585
0.0046719
0.00467708
0.00467708
0.0046719
0.0054515
0.00546081
0.00546081
0.0054515
0.00580494
0.00581134
0.00581134
0.00580494
0.00589252
0.00589844
0.00589844
0.00589252
0.00573988
0.00574315
0.00574315
0.00573988
0.00548478
0.00548712
0.00548712
0.00548478
0.00515502
0.00515552
0.00515552
0.00515502
0.00479394
0.00479464
0.00479464
0.00479394
0.00441608
0.00441687
0.00441687
0.00441608
0.0040529
0.00405425
0.00405425
0.0040529
0.00370895
0.00371016
0.00371016
0.00370895
0.00339222
0.00339373
0.00339373
0.00339222
0.00310313
0.00310468
0.00310468
0.00310313
0.00284098
0.0028419
0.0028419
0.00284098
0.00261703
0.00261695
0.00261695
0.00261703
0.00234074
0.00234232
0.00234232
0.00234074
0.00254514
0.00254671
0.00254671
0.00254514
0.00278469
0.00278573
0.00278573
0.00278469
0.00304641
0.00304659
0.00304659
0.00304641
0.00333336
0.00333308
0.00333308
0.00333336
0.00364675
0.00364624
0.00364624
0.00364675
0.00398861
0.00398817
0.00398817
0.00398861
0.00434643
0.00434577
0.00434577
0.00434643
0.00470808
0.00470756
0.00470756
0.00470808
0.00505022
0.00504992
0.00504992
0.00505022
0.00535311
0.00535428
0.00535428
0.00535311
0.00557057
0.00557311
0.00557311
0.00557057
0.00566573
0.00567111
0.00567111
0.00566573
0.00556827
0.00557526
0.00557526
0.00556827
0.0052023
0.00521179
0.00521179
0.0052023
0.00451047
0.00451929
0.00451929
0.00451047
0.00349968
0.00350738
0.00350738
0.00349968
0.00212049
0.00211936
0.00211936
0.00212049
0.000382715
0.000373375
0.000373374
0.000382714
-0.00157346
-0.00158783
-0.00158783
-0.00157346
-0.00336863
-0.00337898
-0.00337898
-0.00336863
-0.00483425
-0.00484
-0.00484
-0.00483425
-0.00587162
-0.00587302
-0.00587302
-0.00587162
-0.00650068
-0.00649931
-0.00649931
-0.00650068
-0.00681022
-0.00680923
-0.00680923
-0.00681022
-0.00689629
-0.00689267
-0.00689267
-0.00689629
-0.00674123
-0.00673081
-0.00673081
-0.00674123
-0.0064255
-0.0064149
-0.00641489
-0.0064255
-0.00603318
-0.00602912
-0.00602912
-0.00603318
-0.00565695
-0.00565975
-0.00565975
-0.00565695
-0.00529023
-0.00529517
-0.00529517
-0.00529023
-0.00492234
-0.00492613
-0.00492613
-0.00492234
-0.00453649
-0.00453702
-0.00453702
-0.00453649
-0.00413056
-0.00413059
-0.00413059
-0.00413056
-0.00371072
-0.00371093
-0.00371093
-0.00371072
-0.00329803
-0.00329812
-0.00329812
-0.00329803
-0.00289799
-0.00289664
-0.00289664
-0.00289799
-0.00250259
-0.00250035
-0.00250035
-0.00250259
-0.00211733
-0.00211476
-0.00211476
-0.00211733
-0.00175375
-0.00175208
-0.00175208
-0.00175375
-0.001415
-0.00141345
-0.00141345
-0.00141499
-0.00162166
-0.0016201
-0.0016201
-0.00162166
-0.00178732
-0.00178605
-0.00178605
-0.00178732
-0.00189685
-0.00189587
-0.00189587
-0.00189685
-0.00196318
-0.00196246
-0.00196246
-0.00196318
-0.00200734
-0.00200679
-0.00200679
-0.00200734
-0.00205247
-0.0020522
-0.0020522
-0.00205247
-0.00209855
-0.00209808
-0.00209808
-0.00209855
-0.00214948
-0.00214921
-0.00214921
-0.00214948
-0.0021786
-0.00217892
-0.00217892
-0.0021786
-0.00217831
-0.002179
-0.002179
-0.00217831
-0.00212866
-0.00212914
-0.00212914
-0.00212866
-0.00201777
-0.00201757
-0.00201757
-0.00201777
-0.00185019
-0.00184982
-0.00184982
-0.00185019
-0.00163857
-0.00163771
-0.00163771
-0.00163857
-0.00141235
-0.00141101
-0.00141101
-0.00141235
-0.00172682
-0.00172497
-0.00172497
-0.00172682
-0.00205732
-0.00205515
-0.00205515
-0.00205732
-0.00240046
-0.00239889
-0.00239889
-0.00240046
-0.00274612
-0.00274486
-0.00274486
-0.00274612
-0.00310377
-0.00310234
-0.00310234
-0.00310377
-0.00347218
-0.00347112
-0.00347112
-0.00347219
-0.00383922
-0.00384038
-0.00384038
-0.00383922
-0.00419168
-0.00419523
-0.00419523
-0.00419168
-0.00454141
-0.00454452
-0.00454452
-0.00454141
-0.00491264
-0.00491161
-0.00491161
-0.00491264
-0.00529002
-0.00528625
-0.00528625
-0.00529002
-0.00563993
-0.00563617
-0.00563617
-0.00563993
-0.00594952
-0.00594644
-0.00594644
-0.00594952
-0.00622221
-0.00621987
-0.00621987
-0.00622221
-0.00640597
-0.00640449
-0.00640449
-0.00640597
-0.00647544
-0.00647224
-0.00647224
-0.00647544
-0.00638632
-0.00638036
-0.00638036
-0.00638632
-0.00604632
-0.00604267
-0.00604267
-0.00604632
-0.00533936
-0.00534597
-0.00534597
-0.00533936
-0.00412118
-0.0041378
-0.0041378
-0.00412118
-0.00247208
-0.00248905
-0.00248905
-0.00247208
-0.000709738
-0.000723842
-0.000723842
-0.000709738
0.000972055
0.000962121
0.000962121
0.000972055
0.00238809
0.00238732
0.00238732
0.00238809
0.00341769
0.00342125
0.00342125
0.00341769
0.00410861
0.00411596
0.00411596
0.00410861
0.004483
0.00448901
0.00448901
0.004483
0.0046375
0.00464323
0.00464323
0.0046375
0.00460642
0.00460962
0.00460962
0.00460642
0.00447285
0.00447501
0.00447501
0.00447285
0.00425961
0.0042602
0.0042602
0.00425961
0.00400546
0.00400598
0.00400598
0.00400547
0.0037239
0.00372399
0.00372399
0.0037239
0.00344401
0.0034443
0.0034443
0.00344401
0.00317309
0.00317362
0.00317362
0.00317309
0.0029141
0.00291519
0.00291519
0.0029141
0.00267782
0.00267907
0.00267907
0.00267782
0.00246416
0.00246551
0.00246551
0.00246416
0.00227085
0.00227147
0.00227147
0.00227085
0.00211337
0.00211269
0.00211269
0.00211337
0.00243444
0.00243346
0.00243346
0.00243444
0.0027245
0.00272356
0.00272356
0.0027245
0.00297929
0.00297851
0.00297851
0.00297929
0.00319043
0.00319
0.00319
0.00319043
0.00335605
0.00335616
0.00335616
0.00335605
0.00347252
0.00347303
0.00347303
0.00347252
0.00353661
0.00353733
0.00353733
0.00353661
0.00354678
0.00354744
0.00354744
0.00354678
0.00350132
0.0035018
0.0035018
0.00350132
0.00340038
0.00340065
0.00340065
0.00340038
0.00324509
0.00324515
0.00324515
0.00324509
0.0030397
0.00303962
0.00303962
0.0030397
0.00279366
0.00279357
0.00279357
0.00279366
0.00250675
0.0025071
0.0025071
0.00250675
0.00217039
0.00217144
0.00217144
0.00217039
-0.00111094
-0.00111056
-0.00111056
-0.00111094
-0.00127388
-0.001274
-0.001274
-0.00127388
-0.00139225
-0.00139296
-0.00139296
-0.00139226
-0.00146075
-0.00146068
-0.00146068
-0.00146076
-0.00150292
-0.00150262
-0.00150263
-0.00150293
-0.00153309
-0.00153257
-0.00153257
-0.00153309
-0.00157016
-0.00156953
-0.00156953
-0.00157016
-0.00161874
-0.00161814
-0.00161814
-0.00161874
-0.00167019
-0.00166958
-0.00166958
-0.00167019
-0.00170662
-0.00170607
-0.00170607
-0.00170662
-0.0017159
-0.00171561
-0.00171562
-0.0017159
-0.00168359
-0.00168378
-0.00168379
-0.00168359
-0.00159673
-0.0015967
-0.0015967
-0.00159673
-0.00146648
-0.00146639
-0.00146639
-0.00146648
-0.00130197
-0.0013019
-0.0013019
-0.00130197
-0.00112246
-0.00112209
-0.00112209
-0.00112247
-0.000933932
-0.000933267
-0.000933269
-0.000933935
-0.00117531
-0.00117385
-0.00117385
-0.00117531
-0.00143154
-0.00143008
-0.00143008
-0.00143153
-0.00169355
-0.0016922
-0.0016922
-0.00169354
-0.0019623
-0.00196143
-0.00196143
-0.0019623
-0.00223791
-0.00223692
-0.00223693
-0.00223791
-0.00252342
-0.00252237
-0.00252237
-0.00252342
-0.00281536
-0.00281489
-0.00281489
-0.00281536
-0.00310837
-0.00310951
-0.00310951
-0.00310837
-0.00339356
-0.00339585
-0.00339585
-0.00339356
-0.00367348
-0.00367538
-0.00367538
-0.00367348
-0.00395636
-0.00395663
-0.00395663
-0.00395635
-0.00423645
-0.00423602
-0.00423602
-0.00423645
-0.0044847
-0.00448424
-0.00448424
-0.0044847
-0.00469896
-0.00469846
-0.00469846
-0.00469896
-0.00486797
-0.00486715
-0.00486715
-0.00486797
-0.00497059
-0.00496838
-0.00496838
-0.00497059
-0.00497101
-0.0049665
-0.0049665
-0.00497102
-0.00484073
-0.00483474
-0.00483474
-0.00484073
-0.00451742
-0.00451551
-0.00451551
-0.00451742
-0.0039094
-0.00391633
-0.00391633
-0.0039094
-0.00298196
-0.00299518
-0.00299518
-0.00298196
-0.00180472
-0.00181815
-0.00181815
-0.00180472
-0.000553384
-0.000564568