/*--------------------------------*- C++ -*----------------------------------*\
| =========                 |                                                 |
| \\      /  F ield         | OpenFOAM: The Open Source CFD Toolbox           |
|  \\    /   O peration     | Version:  v1806                                 |
|   \\  /    A nd           | Web:      www.OpenFOAM.com                      |
|    \\/     M anipulation  |                                                 |
\*---------------------------------------------------------------------------*/
FoamFile
{
    version     2.0;
    format      ascii;
    class       volVectorField;
    location    "300";
    object      U;
}
// * * * * * * * * * * * * * * * * * * * * * * * * * * * * * * * * * * * * * //

dimensions      [0 1 -1 0 0 0 0];


internalField   nonuniform List<vector> 
2400
(
(0.300032 -0.000259371 0)
(0.29995 -0.00208104 0)
(0.300022 -0.00238941 0)
(0.299868 -0.00468935 0)
(0.299947 -0.00486576 0)
(0.299689 -0.00794215 0)
(0.299778 -0.00803046 0)
(0.299363 -0.0122494 0)
(0.299463 -0.0123203 0)
(0.29882 -0.0181085 0)
(0.29893 -0.0182833 0)
(0.297971 -0.026041 0)
(0.298082 -0.0265368 0)
(0.29672 -0.0363733 0)
(0.296823 -0.0375537 0)
(0.295074 -0.0486706 0)
(0.295167 -0.0510246 0)
(0.293438 -0.0608415 0)
(0.293518 -0.0644676 0)
(0.292908 -0.0691604 0)
(0.300032 -0.000256884 0)
(0.299943 -0.00207493 0)
(0.29999 -0.00237483 0)
(0.299813 -0.00467192 0)
(0.299849 -0.00483113 0)
(0.299554 -0.00790894 0)
(0.299578 -0.00796325 0)
(0.299104 -0.0121954 0)
(0.299115 -0.0121998 0)
(0.298379 -0.0180292 0)
(0.298376 -0.0180762 0)
(0.29727 -0.0259373 0)
(0.297264 -0.0261968 0)
(0.29568 -0.036262 0)
(0.295744 -0.0370437 0)
(0.293683 -0.0485965 0)
(0.294024 -0.0504185 0)
(0.291949 -0.0608586 0)
(0.292796 -0.064135 0)
(0.292205 -0.0692735 0)
(0.300031 -0.000254057 0)
(0.299938 -0.00206101 0)
(0.299951 -0.00235103 0)
(0.299746 -0.00463917 0)
(0.299721 -0.00477801 0)
(0.299378 -0.00785338 0)
(0.299309 -0.00786437 0)
(0.298758 -0.012113 0)
(0.29864 -0.0120278 0)
(0.297784 -0.0179197 0)
(0.297622 -0.0177887 0)
(0.296329 -0.0258144 0)
(0.296169 -0.0257393 0)
(0.294311 -0.0361748 0)
(0.294326 -0.0363843 0)
(0.291903 -0.0486525 0)
(0.292538 -0.0496762 0)
(0.290076 -0.0611717 0)
(0.291832 -0.0638098 0)
(0.291205 -0.0697013 0)
(0.30003 -0.000251397 0)
(0.299933 -0.00203822 0)
(0.299911 -0.00231906 0)
(0.299678 -0.00458967 0)
(0.299585 -0.00470819 0)
(0.299192 -0.00777387 0)
(0.299018 -0.00773698 0)
(0.298387 -0.0120005 0)
(0.298122 -0.0118096 0)
(0.29714 -0.0177781 0)
(0.296798 -0.0174285 0)
(0.295311 -0.0256695 0)
(0.294976 -0.0251744 0)
(0.292833 -0.0361048 0)
(0.292789 -0.035582 0)
(0.289984 -0.0488242 0)
(0.29092 -0.0487832 0)
(0.288022 -0.0617634 0)
(0.290778 -0.0634448 0)
(0.289975 -0.0704548 0)
(0.30003 -0.000249134 0)
(0.299928 -0.00200623 0)
(0.299873 -0.00227937 0)
(0.299611 -0.00452188 0)
(0.299449 -0.00462139 0)
(0.299007 -0.00766638 0)
(0.298722 -0.00757995 0)
(0.298015 -0.0118503 0)
(0.29759 -0.0115432 0)
(0.296493 -0.0175916 0)
(0.295948 -0.0169939 0)
(0.294282 -0.025482 0)
(0.293743 -0.0245008 0)
(0.291326 -0.0360221 0)
(0.291196 -0.0346361 0)
(0.287996 -0.0490749 0)
(0.289226 -0.0477318 0)
(0.285825 -0.0626187 0)
(0.289665 -0.0630097 0)
(0.288502 -0.0715844 0)
(0.300033 -0.000247597 0)
(0.299921 -0.00196458 0)
(0.299838 -0.00223287 0)
(0.299542 -0.00443447 0)
(0.299317 -0.00451913 0)
(0.298825 -0.0075278 0)
(0.298428 -0.00739601 0)
(0.29765 -0.0116564 0)
(0.297055 -0.0112336 0)
(0.29586 -0.0173495 0)
(0.295082 -0.0164927 0)
(0.293273 -0.025236 0)
(0.292477 -0.0237298 0)
(0.289828 -0.0359053 0)
(0.289553 -0.0335575 0)
(0.285965 -0.0493807 0)
(0.287465 -0.0465227 0)
(0.283473 -0.0637341 0)
(0.288494 -0.0624758 0)
(0.286756 -0.0731593 0)
(0.300041 -0.000247082 0)
(0.299909 -0.00191279 0)
(0.299809 -0.00218068 0)
(0.299469 -0.00432634 0)
(0.299193 -0.00440376 0)
(0.298641 -0.00735551 0)
(0.298142 -0.00718983 0)
(0.297293 -0.011413 0)
(0.296522 -0.010889 0)
(0.295248 -0.0170419 0)
(0.294204 -0.0159375 0)
(0.292302 -0.0249157 0)
(0.291171 -0.0228762 0)
(0.288373 -0.0357339 0)
(0.287836 -0.0323563 0)
(0.283917 -0.0497215 0)
(0.28562 -0.0451494 0)
(0.280943 -0.0651046 0)
(0.287269 -0.0618102 0)
(0.2847 -0.0752621 0)
(0.300056 -0.000247734 0)
(0.299889 -0.00185058 0)
(0.299792 -0.00212377 0)
(0.299387 -0.00419669 0)
(0.299084 -0.0042776 0)
(0.298451 -0.00714726 0)
(0.297873 -0.00696634 0)
(0.296936 -0.0111148 0)
(0.296002 -0.0105188 0)
(0.294652 -0.0166573 0)
(0.293319 -0.0153431 0)
(0.291375 -0.0245015 0)
(0.289809 -0.0219586 0)
(0.286989 -0.0354822 0)
(0.285993 -0.0310444 0)
(0.281905 -0.0500769 0)
(0.283632 -0.0435973 0)
(0.278229 -0.0667285 0)
(0.28601 -0.0609776 0)
(0.282269 -0.077984 0)
(0.300082 -0.000249447 0)
(0.299856 -0.00177806 0)
(0.299789 -0.0020627 0)
(0.299289 -0.00404532 0)
(0.298997 -0.00414236 0)
(0.298244 -0.00690162 0)
(0.297635 -0.00672966 0)
(0.296565 -0.0107569 0)
(0.295515 -0.0101323 0)
(0.294054 -0.0161829 0)
(0.29245 -0.0147267 0)
(0.290476 -0.0239677 0)
(0.288398 -0.0210017 0)
(0.285688 -0.035113 0)
(0.283968 -0.0296434 0)
(0.280006 -0.0504195 0)
(0.281379 -0.0418485 0)
(0.275387 -0.0686183 0)
(0.284733 -0.0599295 0)
(0.279332 -0.0814051 0)
(0.30012 -0.000251787 0)
(0.299805 -0.00169587 0)
(0.299808 -0.00199742 0)
(0.299168 -0.00387295 0)
(0.298944 -0.0039987 0)
(0.298007 -0.00661871 0)
(0.297446 -0.00648224 0)
(0.296158 -0.0103367 0)
(0.295092 -0.00973665 0)
(0.293421 -0.0156077 0)
(0.29164 -0.0141066 0)
(0.289562 -0.0232841 0)
(0.286979 -0.0200377 0)
(0.284439 -0.0345711 0)
(0.281733 -0.0281932 0)
(0.278286 -0.0506996 0)
(0.278663 -0.0398971 0)
(0.272598 -0.0708123 0)
(0.283365 -0.0585755 0)
(0.275662 -0.0855894 0)
(0.300173 -0.000253967 0)
(0.299733 -0.00160524 0)
(0.299852 -0.00192718 0)
(0.299018 -0.00368143 0)
(0.298933 -0.0038459 0)
(0.297728 -0.00630072 0)
(0.297325 -0.00622399 0)
(0.295692 -0.00985558 0)
(0.29477 -0.00933421 0)
(0.292708 -0.0149269 0)
(0.290957 -0.0134958 0)
(0.288556 -0.0224217 0)
(0.285649 -0.019104 0)
(0.283139 -0.0337792 0)
(0.279351 -0.0267579 0)
(0.276724 -0.0508188 0)
(0.275272 -0.0377799 0)
(0.270171 -0.0733638 0)
(0.28158 -0.0567549 0)
(0.271039 -0.0906502 0)
(0.30024 -0.000254913 0)
(0.299641 -0.00150795 0)
(0.299922 -0.00185056 0)
(0.298835 -0.00347373 0)
(0.29897 -0.00368186 0)
(0.297401 -0.00595217 0)
(0.297285 -0.00595183 0)
(0.295149 -0.00931943 0)
(0.294582 -0.00892145 0)
(0.291872 -0.0141449 0)
(0.290475 -0.012895 0)
(0.287364 -0.0213669 0)
(0.284557 -0.0182319 0)
(0.28161 -0.0326491 0)
(0.277021 -0.0254231 0)
(0.27511 -0.0506011 0)
(0.271131 -0.0356166 0)
(0.268398 -0.0762709 0)
(0.278646 -0.0542525 0)
(0.265608 -0.0969058 0)
(0.30032 -0.000253442 0)
(0.299529 -0.00140604 0)
(0.300016 -0.00176576 0)
(0.298624 -0.00325354 0)
(0.299052 -0.00350347 0)
(0.297027 -0.00557937 0)
(0.297329 -0.00566021 0)
(0.294525 -0.00873862 0)
(0.294544 -0.00848862 0)
(0.290888 -0.0132767 0)
(0.290254 -0.0122897 0)
(0.285903 -0.0201316 0)
(0.283867 -0.0174204 0)
(0.279636 -0.0311275 0)
(0.275091 -0.0242767 0)
(0.273005 -0.0497803 0)
(0.266525 -0.0336327 0)
(0.267209 -0.0793302 0)
(0.273487 -0.0509156 0)
(0.260398 -0.105081 0)
(0.300407 -0.000248506 0)
(0.299405 -0.00130147 0)
(0.300126 -0.00167108 0)
(0.298395 -0.00302465 0)
(0.299168 -0.00330745 0)
(0.296621 -0.00518938 0)
(0.297442 -0.00534238 0)
(0.293838 -0.00812619 0)
(0.294643 -0.00802179 0)
(0.289771 -0.012346 0)
(0.290301 -0.0116522 0)
(0.28415 -0.0187535 0)
(0.283687 -0.0166248 0)
(0.277049 -0.0292329 0)
(0.273963 -0.0233522 0)
(0.269827 -0.0480762 0)
(0.262252 -0.0321251 0)
(0.265752 -0.0819882 0)
(0.265225 -0.0469047 0)
(0.25754 -0.116429 0)
(0.300494 -0.000239456 0)
(0.29928 -0.00119571 0)
(0.30024 -0.0015655 0)
(0.298164 -0.00279012 0)
(0.299299 -0.00309146 0)
(0.296211 -0.00478837 0)
(0.297594 -0.00499265 0)
(0.293133 -0.00749479 0)
(0.294831 -0.00750693 0)
(0.288585 -0.0113791 0)
(0.290553 -0.0109486 0)
(0.282181 -0.0172874 0)
(0.283988 -0.0157678 0)
(0.273839 -0.02706 0)
(0.273893 -0.0225441 0)
(0.265119 -0.0454253 0)
(0.259468 -0.0313405 0)
(0.262292 -0.0832944 0)
(0.254236 -0.0430045 0)
(0.259299 -0.132533 0)
(0.300575 -0.000226233 0)
(0.299165 -0.00108938 0)
(0.300345 -0.00144906 0)
(0.297951 -0.00255161 0)
(0.299421 -0.00285506 0)
(0.295829 -0.00438015 0)
(0.29774 -0.00460856 0)
(0.292468 -0.00685323 0)
(0.295031 -0.00693506 0)
(0.287438 -0.0103977 0)
(0.290877 -0.0101503 0)
(0.280178 -0.0157879 0)
(0.284559 -0.0147639 0)
(0.270262 -0.0247469 0)
(0.274737 -0.0216211 0)
(0.258876 -0.0420361 0)
(0.259069 -0.0312579 0)
(0.254807 -0.0821507 0)
(0.243183 -0.0407094 0)
(0.265563 -0.154108 0)
(0.300641 -0.000209389 0)
(0.29907 -0.000982172 0)
(0.300428 -0.00132317 0)
(0.297775 -0.002309 0)
(0.299511 -0.00260032 0)
(0.29551 -0.00396518 0)
(0.297838 -0.00419252 0)
(0.291905 -0.00620386 0)
(0.29516 -0.00630664 0)
(0.286451 -0.00941071 0)
(0.291106 -0.00924615 0)
(0.278391 -0.0142891 0)
(0.28506 -0.0135526 0)
(0.266816 -0.0224161 0)
(0.275877 -0.0203383 0)
(0.25181 -0.0382838 0)
(0.260821 -0.0313481 0)
(0.242307 -0.078159 0)
(0.236642 -0.0418666 0)
(0.271431 -0.178874 0)
(0.300689 -0.000190041 0)
(0.299003 -0.000872665 0)
(0.30048 -0.00119068 0)
(0.297648 -0.00206027 0)
(0.299552 -0.00233209 0)
(0.295278 -0.0035402 0)
(0.297858 -0.0037524 0)
(0.291493 -0.00554146 0)
(0.295155 -0.00563371 0)
(0.285725 -0.00841105 0)
(0.291097 -0.00825107 0)
(0.277056 -0.0127884 0)
(0.285145 -0.0121308 0)
(0.264087 -0.0201173 0)
(0.276419 -0.0185369 0)
(0.245335 -0.0345358 0)
(0.262907 -0.0305942 0)
(0.226179 -0.0722525 0)
(0.237611 -0.0474335 0)
(0.267688 -0.20177 0)
(0.300716 -0.000169905 0)
(0.298966 -0.000758636 0)
(0.300498 -0.0010554 0)
(0.297574 -0.00180215 0)
(0.299541 -0.00205704 0)
(0.295138 -0.00309954 0)
(0.297788 -0.00329984 0)
(0.291248 -0.00485556 0)
(0.294991 -0.00493696 0)
(0.285303 -0.00737862 0)
(0.290786 -0.00720231 0)
(0.276294 -0.0112477 0)
(0.284615 -0.0105605 0)
(0.26249 -0.0177942 0)
(0.27564 -0.0162507 0)
(0.240985 -0.0308709 0)
(0.262575 -0.0282983 0)
(0.210731 -0.0656433 0)
(0.241233 -0.0556015 0)
(0.243931 -0.216336 0)
(0.300726 -0.000149772 0)
(0.298955 -0.000640707 0)
(0.300488 -0.000917905 0)
(0.297547 -0.001535 0)
(0.299484 -0.00177756 0)
(0.295082 -0.00264278 0)
(0.297644 -0.00284065 0)
(0.291152 -0.00414254 0)
(0.294694 -0.00423024 0)
(0.285156 -0.00630066 0)
(0.290214 -0.00613355 0)
(0.276069 -0.00962848 0)
(0.28351 -0.00892681 0)
(0.262047 -0.0153349 0)
(0.273411 -0.0136807 0)
(0.23946 -0.0270291 0)
(0.257989 -0.0244967 0)
(0.201391 -0.0587605 0)
(0.234156 -0.0606827 0)
(0.191922 -0.209528 0)
(0.293088 -0.071314 0)
(0.293597 -0.0715742 0)
(0.294194 -0.0708341 0)
(0.294778 -0.0696653 0)
(0.29537 -0.0682494 0)
(0.295963 -0.0666572 0)
(0.296515 -0.065007 0)
(0.297005 -0.0634326 0)
(0.297437 -0.0620014 0)
(0.297818 -0.0607419 0)
(0.293043 -0.0716007 0)
(0.294118 -0.0719066 0)
(0.29503 -0.0712078 0)
(0.295754 -0.0700624 0)
(0.296427 -0.0686345 0)
(0.297053 -0.0670098 0)
(0.297574 -0.0653209 0)
(0.29799 -0.0637093 0)
(0.298332 -0.0622438 0)
(0.29863 -0.0609554 0)
(0.292858 -0.0721679 0)
(0.294577 -0.0724054 0)
(0.295841 -0.0716657 0)
(0.296743 -0.0704867 0)
(0.297529 -0.0689946 0)
(0.29821 -0.0672945 0)
(0.298715 -0.065542 0)
(0.299073 -0.0638858 0)
(0.299342 -0.0623886 0)
(0.299576 -0.0610872 0)
(0.292641 -0.0730151 0)
(0.295057 -0.0730888 0)
(0.296664 -0.0722536 0)
(0.297747 -0.0709973 0)
(0.298656 -0.0693949 0)
(0.299391 -0.0675805 0)
(0.299882 -0.0657414 0)
(0.300196 -0.0640315 0)
(0.300414 -0.0625031 0)
(0.300612 -0.0611933 0)
(0.292459 -0.0741601 0)
(0.295616 -0.0739699 0)
(0.297531 -0.0729891 0)
(0.298787 -0.0716034 0)
(0.299825 -0.0698382 0)
(0.30062 -0.0678727 0)
(0.301113 -0.0659307 0)
(0.301413 -0.0641632 0)
(0.301613 -0.0626056 0)
(0.301798 -0.0612895 0)
(0.292373 -0.0756205 0)
(0.296288 -0.0750541 0)
(0.29845 -0.0738762 0)
(0.299878 -0.0723021 0)
(0.301071 -0.0703228 0)
(0.301958 -0.0681792 0)
(0.302497 -0.0661272 0)
(0.302826 -0.0642991 0)
(0.303031 -0.0627075 0)
(0.303179 -0.0613717 0)
(0.292429 -0.0774017 0)
(0.29708 -0.0763478 0)
(0.299419 -0.074921 0)
(0.301057 -0.0730999 0)
(0.302485 -0.0708654 0)
(0.303538 -0.0685286 0)
(0.304185 -0.0663599 0)
(0.304559 -0.0644534 0)
(0.304717 -0.0627957 0)
(0.304677 -0.0613887 0)
(0.292645 -0.0794816 0)
(0.297975 -0.0778727 0)
(0.300476 -0.0761524 0)
(0.302461 -0.0740327 0)
(0.304271 -0.0715121 0)
(0.305583 -0.0689641 0)
(0.306347 -0.0666444 0)
(0.30665 -0.0645943 0)
(0.306511 -0.0627812 0)
(0.305888 -0.061192 0)
(0.293005 -0.0818377 0)
(0.298991 -0.0796891 0)
(0.30181 -0.077652 0)
(0.304408 -0.0751819 0)
(0.30676 -0.0723256 0)
(0.308314 -0.0694993 0)
(0.308979 -0.0669172 0)
(0.308793 -0.064572 0)
(0.30777 -0.0624324 0)
(0.305833 -0.0604847 0)
(0.293567 -0.0845207 0)
(0.30036 -0.0819398 0)
(0.303894 -0.0795748 0)
(0.307394 -0.0766466 0)
(0.310237 -0.0733104 0)
(0.311645 -0.0700165 0)
(0.311534 -0.0669327 0)
(0.309973 -0.0640338 0)
(0.307052 -0.0613226 0)
(0.302752 -0.0588063 0)
(0.294698 -0.0877415 0)
(0.302725 -0.0849 0)
(0.307454 -0.0821021 0)
(0.311794 -0.0784197 0)
(0.314459 -0.0742564 0)
(0.314642 -0.070122 0)
(0.312435 -0.0661628 0)
(0.308114 -0.062382 0)
(0.301955 -0.0588461 0)
(0.294132 -0.0555963 0)
(0.297354 -0.0919327 0)
(0.307085 -0.0889093 0)
(0.312973 -0.0852282 0)
(0.317115 -0.0801418 0)
(0.317895 -0.0745416 0)
(0.314924 -0.0690363 0)
(0.308737 -0.0637851 0)
(0.30003 -0.0588461 0)
(0.289344 -0.0543531 0)
(0.277163 -0.0503644 0)
(0.303012 -0.0976272 0)
(0.314056 -0.094034 0)
(0.319587 -0.0883689 0)
(0.320967 -0.0808258 0)
(0.317049 -0.0730249 0)
(0.308424 -0.0656457 0)
(0.296327 -0.0588523 0)
(0.281985 -0.0527234 0)
(0.266176 -0.0474204 0)
(0.249699 -0.0429523 0)
(0.312718 -0.104989 0)
(0.322279 -0.0995173 0)
(0.32375 -0.0899804 0)
(0.318382 -0.0787833 0)
(0.306471 -0.068218 0)
(0.290017 -0.0588272 0)
(0.271002 -0.0506843 0)
(0.251037 -0.0437741 0)
(0.230923 -0.0381971 0)
(0.211553 -0.0337938 0)
(0.325165 -0.113137 0)
(0.326709 -0.103337 0)
(0.318716 -0.0875307 0)
(0.302296 -0.0720218 0)
(0.280057 -0.0588508 0)
(0.255359 -0.0480527 0)
(0.230511 -0.0394167 0)
(0.20697 -0.0326476 0)
(0.185123 -0.0276564 0)
(0.1655 -0.0239888 0)
(0.33484 -0.119427 0)
(0.318276 -0.102116 0)
(0.295826 -0.0781857 0)
(0.265755 -0.0591901 0)
(0.233908 -0.0447607 0)
(0.20381 -0.0341219 0)
(0.177001 -0.0264732 0)
(0.153896 -0.0210393 0)
(0.133977 -0.0174562 0)
(0.117011 -0.0149932 0)
(0.331807 -0.118615 0)
(0.285889 -0.0917706 0)
(0.247867 -0.0603167 0)
(0.206018 -0.0408794 0)
(0.170345 -0.0278465 0)
(0.141243 -0.0196132 0)
(0.118134 -0.0144394 0)
(0.0997798 -0.0111329 0)
(0.0848176 -0.00922747 0)
(0.0723432 -0.00799295 0)
(0.303402 -0.103575 0)
(0.220582 -0.0690795 0)
(0.174485 -0.0352434 0)
(0.129862 -0.0207979 0)
(0.100689 -0.0122705 0)
(0.0796586 -0.00807167 0)
(0.0645167 -0.00575076 0)
(0.0530986 -0.00437814 0)
(0.0440835 -0.00375647 0)
(0.0363138 -0.00341997 0)
(0.237103 -0.0682869 0)
(0.122706 -0.0352721 0)
(0.0885437 -0.0092236 0)
(0.0558502 -0.00525159 0)
(0.041612 -0.00231116 0)
(0.0313092 -0.00159636 0)
(0.0245003 -0.00111773 0)
(0.0194251 -0.000837784 0)
(0.015536 -0.000867055 0)
(0.0115671 -0.000858884 0)
(0.118385 -0.035947 0)
(0.0152929 -0.0088758 0)
(0.0170568 0.00132728 0)
(0.00578195 4.15824e-05 0)
(0.00500822 0.000390109 0)
(0.00296098 0.00014093 0)
(0.00196064 0.000115844 0)
(0.0011138 9.92299e-05 0)
(0.000681438 -1.77033e-05 0)
(-0.000667325 -0.000352576 0)
(0.298091 -0.059895 0)
(0.298276 -0.0593421 0)
(0.298453 -0.0588357 0)
(0.298625 -0.0583713 0)
(0.298795 -0.0579459 0)
(0.298962 -0.0575535 0)
(0.29913 -0.0571931 0)
(0.299292 -0.0568565 0)
(0.299458 -0.056547 0)
(0.299612 -0.0562512 0)
(0.299773 -0.0559816 0)
(0.299908 -0.0557132 0)
(0.30006 -0.0554775 0)
(0.300161 -0.055224 0)
(0.300296 -0.0550218 0)
(0.300338 -0.0547696 0)
(0.300448 -0.0546089 0)
(0.300406 -0.0543408 0)
(0.300478 -0.0542416 0)
(0.30033 -0.0539313 0)
(0.298846 -0.0600956 0)
(0.298995 -0.059539 0)
(0.299147 -0.0590302 0)
(0.299298 -0.0585639 0)
(0.299452 -0.0581369 0)
(0.299605 -0.0577435 0)
(0.299761 -0.0573816 0)
(0.29991 -0.0570429 0)
(0.300063 -0.0567296 0)
(0.300194 -0.0564279 0)
(0.300333 -0.0561499 0)
(0.300426 -0.0558689 0)
(0.300539 -0.0556184 0)
(0.300564 -0.0553417 0)
(0.300643 -0.0551182 0)
(0.300557 -0.0548271 0)
(0.300601 -0.0546412 0)
(0.300348 -0.0543104 0)
(0.300369 -0.05419 0)
(0.29988 -0.0537815 0)
(0.299751 -0.0602247 0)
(0.299877 -0.0596668 0)
(0.300009 -0.0591588 0)
(0.300144 -0.0586947 0)
(0.300282 -0.0582698 0)
(0.300417 -0.0578772 0)
(0.300553 -0.0575138 0)
(0.300671 -0.0571704 0)
(0.300786 -0.0568484 0)
(0.300862 -0.0565331 0)
(0.300936 -0.0562369 0)
(0.300933 -0.0559305 0)
(0.300946 -0.0556513 0)
(0.300816 -0.0553341 0)
(0.300762 -0.0550731 0)
(0.300437 -0.0547209 0)
(0.300332 -0.0544947 0)
(0.299715 -0.0540724 0)
(0.299619 -0.0539217 0)
(0.298558 -0.0533756 0)
(0.300762 -0.0603319 0)
(0.30087 -0.059777 0)
(0.300984 -0.0592725 0)
(0.301095 -0.0588106 0)
(0.301203 -0.0583849 0)
(0.301295 -0.0579873 0)
(0.301373 -0.0576129 0)
(0.301413 -0.0572523 0)
(0.301428 -0.0569055 0)
(0.301373 -0.0565579 0)
(0.301294 -0.0562212 0)
(0.301093 -0.0558654 0)
(0.300894 -0.0555302 0)
(0.300482 -0.0551448 0)
(0.300163 -0.0548158 0)
(0.299447 -0.0543719 0)
(0.299059 -0.0540751 0)
(0.297887 -0.0535254 0)
(0.297573 -0.0533221 0)
(0.295673 -0.0525874 0)
(0.301915 -0.0604272 0)
(0.301991 -0.0598716 0)
(0.302058 -0.0593636 0)
(0.302105 -0.0588933 0)
(0.302125 -0.0584519 0)
(0.302101 -0.0580304 0)
(0.302029 -0.0576223 0)
(0.301884 -0.0572182 0)
(0.301675 -0.0568166 0)
(0.301353 -0.0564046 0)
(0.300965 -0.0559917 0)
(0.300403 -0.0555512 0)
(0.299813 -0.0551207 0)
(0.298937 -0.0546314 0)
(0.298163 -0.0541935 0)
(0.296861 -0.0536244 0)
(0.296002 -0.0532176 0)
(0.294061 -0.0525086 0)
(0.293389 -0.0522223 0)
(0.29037 -0.0512574 0)
(0.303197 -0.0604882 0)
(0.303173 -0.0599133 0)
(0.303104 -0.0593786 0)
(0.302976 -0.0588721 0)
(0.302777 -0.0583829 0)
(0.302485 -0.0579012 0)
(0.302094 -0.0574194 0)
(0.301575 -0.0569292 0)
(0.300939 -0.0564279 0)
(0.300134 -0.0559059 0)
(0.29921 -0.0553701 0)
(0.29806 -0.0548007 0)
(0.29684 -0.054229 0)
(0.295275 -0.0535975 0)
(0.293806 -0.0530071 0)
(0.291708 -0.0522849 0)
(0.290156 -0.0517276 0)
(0.287254 -0.0508432 0)
(0.286059 -0.0504419 0)
(0.281694 -0.049232 0)
(0.304403 -0.060432 0)
(0.304113 -0.0597962 0)
(0.30372 -0.0591892 0)
(0.303204 -0.058597 0)
(0.30255 -0.0580073 0)
(0.301739 -0.0574105 0)
(0.300761 -0.0567991 0)
(0.299595 -0.056167 0)
(0.298247 -0.0555112 0)
(0.296679 -0.0548271 0)
(0.294939 -0.0541191 0)
(0.292933 -0.053377 0)
(0.290816 -0.052623 0)
(0.28833 -0.0518188 0)
(0.285925 -0.0510431 0)
(0.282855 -0.0501561 0)
(0.280401 -0.0494207 0)
(0.276428 -0.0483728 0)
(0.27455 -0.0478321 0)
(0.268754 -0.0464054 0)
(0.304938 -0.0600691 0)
(0.304084 -0.059305 0)
(0.303046 -0.0585574 0)
(0.301809 -0.0578109 0)
(0.300359 -0.0570531 0)
(0.298682 -0.056276 0)
(0.296774 -0.0554734 0)
(0.294624 -0.0546424 0)
(0.292244 -0.0537815 0)
(0.289611 -0.0528914 0)
(0.286772 -0.0519754 0)
(0.283664 -0.0510335 0)
(0.280425 -0.0500781 0)
(0.276845 -0.0490933 0)
(0.273335 -0.0481279 0)
(0.269214 -0.0470918 0)
(0.265732 -0.0461803 0)
(0.260727 -0.0450164 0)
(0.258068 -0.044332 0)
(0.250976 -0.0427689 0)
(0.303602 -0.0590701 0)
(0.301748 -0.0580938 0)
(0.299632 -0.0571276 0)
(0.297249 -0.056155 0)
(0.294595 -0.0551649 0)
(0.291669 -0.0541515 0)
(0.288477 -0.0531115 0)
(0.285026 -0.0520457 0)
(0.281335 -0.0509552 0)
(0.277405 -0.0498457 0)
(0.273282 -0.0487206 0)
(0.268937 -0.0475878 0)
(0.264484 -0.0464524 0)
(0.259781 -0.0453169 0)
(0.255157 -0.0442009 0)
(0.25007 -0.0430664 0)
(0.245597 -0.0420235 0)
(0.239784 -0.0408238 0)
(0.236364 -0.0400223 0)
(0.228361 -0.0384475 0)
(0.298481 -0.0569764 0)
(0.295121 -0.0557161 0)
(0.291462 -0.0544732 0)
(0.287517 -0.0532298 0)
(0.283297 -0.0519767 0)
(0.278818 -0.0507109 0)
(0.274103 -0.0494321 0)
(0.269174 -0.048144 0)
(0.264064 -0.0468509 0)
(0.258792 -0.0455614 0)
(0.253405 -0.0442799 0)
(0.247902 -0.0430174 0)
(0.242368 -0.0417746 0)
(0.236726 -0.0405638 0)
(0.231206 -0.0393827 0)
(0.22543 -0.0382328 0)
(0.220214 -0.0371455 0)
(0.213983 -0.0360064 0)
(0.209974 -0.0351469 0)
(0.201632 -0.0337 0)
(0.28711 -0.0532932 0)
(0.281822 -0.0517328 0)
(0.27629 -0.0502166 0)
(0.270544 -0.0487239 0)
(0.264609 -0.0472469 0)
(0.258517 -0.0457842 0)
(0.252304 -0.0443373 0)
(0.246008 -0.0429109 0)
(0.239663 -0.0415109 0)
(0.233301 -0.0401454 0)
(0.226959 -0.0388187 0)
(0.220651 -0.0375395 0)
(0.214431 -0.036306 0)
(0.208263 -0.0351299 0)
(0.202281 -0.0339981 0)
(0.196253 -0.0329301 0)
(0.190714 -0.0319047 0)
(0.184535 -0.0309121 0)
(0.180235 -0.0300721 0)
(0.172171 -0.0288659 0)
(0.267049 -0.0476718 0)
(0.259723 -0.0458983 0)
(0.252337 -0.0442138 0)
(0.244926 -0.0425926 0)
(0.237517 -0.0410266 0)
(0.230148 -0.0395126 0)
(0.222857 -0.03805 0)
(0.215677 -0.0366419 0)
(0.208633 -0.0352917 0)
(0.201747 -0.0340035 0)
(0.195038 -0.0327784 0)
(0.188511 -0.0316193 0)
(0.182188 -0.0305218 0)
(0.176045 -0.0294919 0)
(0.170142 -0.0285141 0)
(0.164347 -0.0276084 0)
(0.158956 -0.0267336 0)
(0.153255 -0.0259361 0)
(0.148998 -0.0251863 0)
(0.141708 -0.0242735 0)
(0.236873 -0.0401513 0)
(0.227928 -0.0383807 0)
(0.219237 -0.0367497 0)
(0.210808 -0.0352256 0)
(0.202649 -0.0337949 0)
(0.194781 -0.0324466 0)
(0.187216 -0.0311738 0)
(0.179959 -0.0299736 0)
(0.173006 -0.028844 0)
(0.166349 -0.0277832 0)
(0.159978 -0.0267876 0)
(0.153878 -0.0258555 0)
(0.14804 -0.024981 0)
(0.142438 -0.0241654 0)
(0.137084 -0.0233966 0)
(0.131907 -0.0226886 0)
(0.127039 -0.0220043 0)
(0.122086 -0.0214041 0)
(0.118146 -0.0207875 0)
(0.111898 -0.0201547 0)
(0.197288 -0.0313512 0)
(0.187742 -0.029905 0)
(0.178833 -0.0286317 0)
(0.170493 -0.0274883 0)
(0.162677 -0.026446 0)
(0.155355 -0.0254802 0)
(0.148488 -0.0245758 0)
(0.142032 -0.0237247 0)
(0.135945 -0.0229216 0)
(0.130186 -0.0221631 0)
(0.124722 -0.021446 0)
(0.119522 -0.020769 0)
(0.114563 -0.0201294 0)
(0.109818 -0.0195282 0)
(0.105279 -0.0189604 0)
(0.100909 -0.0184348 0)
(0.0967546 -0.0179298 0)
(0.0926316 -0.0174949 0)
(0.0891651 -0.0170242 0)
(0.0840005 -0.016612 0)
(0.151716 -0.0224481 0)
(0.142968 -0.0216686 0)
(0.135192 -0.021048 0)
(0.128179 -0.0205214 0)
(0.121798 -0.020035 0)
(0.11595 -0.0195552 0)
(0.110537 -0.0190695 0)
(0.105479 -0.0185768 0)
(0.100711 -0.0180808 0)
(0.0961875 -0.0175865 0)
(0.0918728 -0.0170992 0)
(0.0877404 -0.016624 0)
(0.0837706 -0.0161646 0)
(0.079947 -0.0157254 0)
(0.0762613 -0.0153079 0)
(0.0726989 -0.0149192 0)
(0.0692724 -0.0145525 0)
(0.0659208 -0.0142413 0)
(0.062973 -0.0139089 0)
(0.0587763 -0.0136383 0)
(0.105581 -0.0148243 0)
(0.0989395 -0.014963 0)
(0.0934127 -0.0151575 0)
(0.0886014 -0.0153044 0)
(0.0842913 -0.0153401 0)
(0.0803319 -0.0152536 0)
(0.0766105 -0.0150641 0)
(0.073054 -0.0147982 0)
(0.0696201 -0.0144809 0)
(0.0662853 -0.0141331 0)
(0.0630366 -0.0137707 0)
(0.059867 -0.0134058 0)
(0.056773 -0.0130472 0)
(0.0537529 -0.0127019 0)
(0.0508074 -0.0123751 0)
(0.047936 -0.0120738 0)
(0.0451434 -0.0118005 0)
(0.042431 -0.0115784 0)
(0.039977 -0.0113692 0)
(0.0365578 -0.0111634 0)
(0.0643963 -0.00953673 0)
(0.0606202 -0.0106721 0)
(0.0577816 -0.0116076 0)
(0.0553273 -0.012227 0)
(0.0530252 -0.0125276 0)
(0.0507475 -0.0125781 0)
(0.0484338 -0.0124557 0)
(0.046069 -0.0122239 0)
(0.0436603 -0.0119288 0)
(0.0412228 -0.0116021 0)
(0.0387729 -0.0112645 0)
(0.036325 -0.0109294 0)
(0.0338913 -0.0106059 0)
(0.031482 -0.0103008 0)
(0.0291061 -0.0100197 0)
(0.0267707 -0.009769 0)
(0.0244792 -0.00955553 0)
(0.0222561 -0.00939687 0)
(0.0202411 -0.00928815 0)
(0.0173892 -0.00912389 0)
(0.03201 -0.00693258 0)
(0.0310776 -0.00894324 0)
(0.0305333 -0.0102884 0)
(0.0298686 -0.0109741 0)
(0.0289398 -0.0111741 0)
(0.0277229 -0.0110735 0)
(0.026255 -0.0108047 0)
(0.0245927 -0.0104533 0)
(0.0227913 -0.0100705 0)
(0.0208972 -0.00968562 0)
(0.0189459 -0.00931423 0)
(0.0169644 -0.00896462 0)
(0.0149726 -0.00864154 0)
(0.0129856 -0.00834869 0)
(0.0110156 -0.00808987 0)
(0.00907156 -0.0078705 0)
(0.00715529 -0.00769873 0)
(0.00529021 -0.00758277 0)
(0.00363207 -0.00751859 0)
(0.00116439 -0.00756151 0)
(0.0101157 -0.00659905 0)
(0.0111573 -0.0092077 0)
(0.0118425 -0.0104582 0)
(0.0119639 -0.0107637 0)
(0.0115293 -0.010557 0)
(0.0106488 -0.0101181 0)
(0.00944727 -0.00959424 0)
(0.00802595 -0.00906273 0)
(0.00646245 -0.00855954 0)
(0.00481227 -0.00809857 0)
(0.00311388 -0.00768315 0)
(0.00139376 -0.00731247 0)
(-0.000329676 -0.006985 0)
(-0.00204316 -0.00670016 0)
(-0.00373692 -0.00645901 0)
(-0.00540562 -0.00626547 0)
(-0.00704579 -0.00612643 0)
(-0.00862713 -0.00604032 0)
(-0.0101261 -0.00600261 0)
(-0.0122064 -0.00623134 0)
(-0.00114829 -0.00814778 0)
(0.00012466 -0.0105124 0)
(0.000616139 -0.0110331 0)
(0.00040955 -0.0106618 0)
(-0.000368606 -0.00994684 0)
(-0.00152188 -0.00915408 0)
(-0.00290147 -0.00839957 0)
(-0.00441423 -0.00772528 0)
(-0.00599565 -0.00713897 0)
(-0.00760458 -0.00663445 0)
(-0.00921556 -0.00620152 0)
(-0.0108129 -0.00583057 0)
(-0.0123867 -0.00551448 0)
(-0.0139307 -0.00524903 0)
(-0.0154414 -0.00503285 0)
(-0.0169193 -0.00486766 0)
(-0.0183608 -0.00475729 0)
(-0.019742 -0.00469818 0)
(-0.0211415 -0.00469676 0)
(-0.0229306 -0.00488511 0)
(-0.00124038 -0.00696111 0)
(-0.00275425 -0.0102646 0)
(-0.00415101 -0.0105379 0)
(-0.00563066 -0.00982932 0)
(-0.0072738 -0.00886772 0)
(-0.00901296 -0.00792327 0)
(-0.0107814 -0.00709111 0)
(-0.0125381 -0.0063876 0)
(-0.0142579 -0.00580146 0)
(-0.0159278 -0.00531405 0)
(-0.0175429 -0.00490752 0)
(-0.0191021 -0.00456782 0)
(-0.0206068 -0.00428524 0)
(-0.022059 -0.00405395 0)
(-0.0234625 -0.00387122 0)
(-0.0248239 -0.00373711 0)
(-0.0261428 -0.0036528 0)
(-0.0274067 -0.00361503 0)
(-0.028731 -0.00363211 0)
(-0.0303458 -0.00375729 0)
(-0.00109202 -0.00545036 0)
(-0.00357299 -0.00865656 0)
(-0.00640994 -0.00900744 0)
(-0.00901063 -0.00832008 0)
(-0.0114644 -0.00737705 0)
(-0.0137665 -0.00647154 0)
(-0.0159139 -0.00569332 0)
(-0.0179157 -0.00505141 0)
(-0.0197842 -0.00452841 0)
(-0.0215334 -0.0041019 0)
(-0.0231772 -0.00375226 0)
(-0.0247285 -0.00346487 0)
(-0.0261983 -0.00322997 0)
(-0.0275964 -0.00304167 0)
(-0.0289331 -0.00289685 0)
(-0.03022 -0.0027946 0)
(-0.0314605 -0.00273437 0)
(-0.0326514 -0.00271218 0)
(-0.0339234 -0.0027345 0)
(-0.0354258 -0.00282389 0)
(-0.000939115 -0.00374199 0)
(-0.00382984 -0.00630485 0)
(-0.00761789 -0.00667789 0)
(-0.0110683 -0.00616099 0)
(-0.0141871 -0.00541096 0)
(-0.0169688 -0.00468889 0)
(-0.0194451 -0.00407395 0)
(-0.0216632 -0.00357339 0)
(-0.0236663 -0.00317103 0)
(-0.025491 -0.00284692 0)
(-0.0271679 -0.00258427 0)
(-0.0287212 -0.00237106 0)
(-0.0301707 -0.00219955 0)
(-0.031533 -0.00206507 0)
(-0.0328237 -0.00196493 0)
(-0.0340589 -0.00189771 0)
(-0.0352449 -0.00186173 0)
(-0.036386 -0.00185282 0)
(-0.0376204 -0.00187468 0)
(-0.0390437 -0.00193594 0)
(-0.000838965 -0.00205235 0)
(-0.00390137 -0.00359359 0)
(-0.00821802 -0.00384825 0)
(-0.0121951 -0.0035465 0)
(-0.0157519 -0.00309198 0)
(-0.0188588 -0.00265335 0)
(-0.0215612 -0.00228262 0)
(-0.0239288 -0.00198413 0)
(-0.0260249 -0.00174664 0)
(-0.0279019 -0.0015569 0)
(-0.0296014 -0.00140433 0)
(-0.0311562 -0.00128192 0)
(-0.0325921 -0.00118553 0)
(-0.0339305 -0.00111278 0)
(-0.0351908 -0.001062 0)
(-0.0363923 -0.00103176 0)
(-0.0375432 -0.00101991 0)
(-0.0386527 -0.00102288 0)
(-0.0398619 -0.00104142 0)
(-0.0412353 -0.00107662 0)
(-0.00079275 -0.000392208 0)
(-0.00389828 -0.000721515 0)
(-0.00840626 -0.000764125 0)
(-0.0125946 -0.000684172 0)
(-0.0163338 -0.000573785 0)
(-0.0195775 -0.00047279 0)
(-0.022374 -0.000392502 0)
(-0.0248018 -0.000331558 0)
(-0.026933 -0.000285029 0)
(-0.0288269 -0.000248536 0)
(-0.0305302 -0.000219609 0)
(-0.0320795 -0.00019761 0)
(-0.0335037 -0.000182954 0)
(-0.0348262 -0.000176158 0)
(-0.0360687 -0.00017707 0)
(-0.0372515 -0.000184524 0)
(-0.0383839 -0.00019642 0)
(-0.0394769 -0.000210277 0)
(-0.0406719 -0.000224036 0)
(-0.0420221 -0.000234317 0)
(-0.000792847 0.00124892 0)
(-0.00384448 0.00216201 0)
(-0.00824713 0.00235591 0)
(-0.0123424 0.00221797 0)
(-0.0160018 0.0019768 0)
(-0.0191817 0.00172984 0)
(-0.0219287 0.00151033 0)
(-0.0243181 0.00132642 0)
(-0.0264193 0.00117665 0)
(-0.0282895 0.00105611 0)
(-0.029974 0.000958819 0)
(-0.0315082 0.000878786 0)
(-0.0329204 0.000810874 0)
(-0.0342338 0.000751504 0)
(-0.0354694 0.000699174 0)
(-0.0366473 0.000654593 0)
(-0.0377766 0.000619657 0)
(-0.038867 0.000595608 0)
(-0.0400583 0.00058724 0)
(-0.0414105 0.000602217 0)
(-0.00083009 0.00287289 0)
(-0.00372027 0.00491179 0)
(-0.00771291 0.0052999 0)
(-0.0114119 0.00495346 0)
(-0.0147325 0.00439084 0)
(-0.0176514 0.0038284 0)
(-0.0202078 0.00333675 0)
(-0.022462 0.00292943 0)
(-0.0244696 0.00259938 0)
(-0.0262767 0.00233364 0)
(-0.0279205 0.00211893 0)
(-0.0294308 0.00194351 0)
(-0.0308315 0.00179813 0)
(-0.0321428 0.00167651 0)
(-0.033383 0.00157564 0)
(-0.0345703 0.00149583 0)
(-0.0357122 0.00143894 0)
(-0.0368142 0.00140507 0)
(-0.0380123 0.00140194 0)
(-0.0393926 0.00144452 0)
(-0.000877395 0.00447774 0)
(-0.00344489 0.00736147 0)
(-0.00667171 0.00784541 0)
(-0.00966677 0.00731743 0)
(-0.0124058 0.0065064 0)
(-0.0148865 0.00570436 0)
(-0.0171292 0.00500406 0)
(-0.0191654 0.0044221 0)
(-0.021026 0.0039479 0)
(-0.0227382 0.00356348 0)
(-0.0243253 0.00325084 0)
(-0.025807 0.00299446 0)
(-0.0272 0.00278232 0)
(-0.0285188 0.00260627 0)
(-0.0297775 0.00246225 0)
(-0.0309903 0.00235041 0)
(-0.0321627 0.00227297 0)
(-0.0332932 0.00222933 0)
(-0.0345089 0.00222989 0)
(-0.0359457 0.00230394 0)
(-0.000831027 0.00598426 0)
(-0.00279169 0.00927168 0)
(-0.00482176 0.00974767 0)
(-0.00682188 0.00911605 0)
(-0.00878331 0.00818391 0)
(-0.0106954 0.00726109 0)
(-0.0125388 0.00644735 0)
(-0.0143025 0.00576247 0)
(-0.0159837 0.00519692 0)
(-0.0175845 0.00473244 0)
(-0.0191101 0.00435021 0)
(-0.0205669 0.00403379 0)
(-0.0219622 0.0037703 0)
(-0.0233034 0.00355098 0)
(-0.0245984 0.00337144 0)
(-0.025857 0.00323196 0)
(-0.0270815 0.00313568 0)
(-0.0282614 0.00308179 0)
(-0.0295068 0.00308185 0)
(-0.0310321 0.00319327 0)
(-0.000290793 0.00681669 0)
(-0.0011212 0.010239 0)