/*--------------------------------*- C++ -*----------------------------------*\
| =========                 |                                                 |
| \\      /  F ield         | OpenFOAM: The Open Source CFD Toolbox           |
|  \\    /   O peration     | Version:  v1806                                 |
|   \\  /    A nd           | Web:      www.OpenFOAM.com                      |
|    \\/     M anipulation  |                                                 |
\*---------------------------------------------------------------------------*/
FoamFile
{
    version     2.0;
    format      ascii;
    class       surfaceScalarField;
    location    "5";
    object      phi;
}
// * * * * * * * * * * * * * * * * * * * * * * * * * * * * * * * * * * * * * //

dimensions      [0 3 -1 0 0 0 0];
oriented        oriented;


internalField   nonuniform List<scalar> 
4680
(
0.750007
-0.00243755
0.749964
-0.00911316
0.74991
-0.0149505
0.750031
-0.020528
0.750055
-0.0263408
0.750018
-0.031097
0.749823
-0.0428887
0.750104
-0.0421148
0.750057
-0.0490536
0.750194
-0.0570041
0.750118
-0.0616115
0.75004
-0.0736101
0.750488
-0.0699635
0.750751
-0.0755824
0.750778
-0.0873478
0.750721
-0.0940377
0.751083
-0.0959487
0.751815
-0.0981401
0.752654
-0.0979659
-0.110475
0.752344
0.749984
-0.00242131
0.749915
-0.00904406
0.749936
-0.0149718
0.75006
-0.0206519
0.750019
-0.0263002
0.750046
-0.031124
0.74971
-0.0425529
0.750084
-0.0424884
0.75013
-0.0490993
0.750418
-0.0572926
0.750339
-0.061532
0.750283
-0.0735542
0.75105
-0.0707311
0.751704
-0.0762361
0.751984
-0.087628
0.752206
-0.094259
0.752843
-0.0965864
0.754087
-0.0993839
0.755521
-0.0994001
-0.110853
0.755899
0.74993
-0.00235141
0.749954
-0.00906756
0.750064
-0.0150826
0.749916
-0.0205038
0.749922
-0.0263063
0.750018
-0.0312195
0.7496
-0.0421348
0.750106
-0.0429949
0.750132
-0.0491253
0.750542
-0.0577021
0.750429
-0.0614195
0.750562
-0.0736864
0.751552
-0.0717217
0.752259
-0.0769434
0.75281
-0.0881789
0.753535
-0.0949833
0.754424
-0.0974757
0.755765
-0.100725
0.757692
-0.101327
-0.112004
0.758843
0.749948
-0.00229949
0.750081
-0.00920015
0.749961
-0.0149633
0.749663
-0.0202057
0.749894
-0.0265374
0.749881
-0.0312059
0.749551
-0.0418052
0.750109
-0.0435531
0.75
-0.0490163
0.750433
-0.0581345
0.750495
-0.0614818
0.750809
-0.0740008
0.751836
-0.072748
0.752623
-0.0777308
0.753524
-0.0890796
0.754694
-0.0961534
0.755735
-0.098517
0.757453
-0.102443
0.759977
-0.103851
-0.113645
0.761618
0.749991
-0.00229013
0.750012
-0.00922146
0.749738
-0.0146893
0.749638
-0.0201062
0.749799
-0.0266977
0.749747
-0.0311545
0.749549
-0.0416066
0.749908
-0.0439128
0.74969
-0.0487979
0.750181
-0.0586259
0.750504
-0.0618045
0.750805
-0.0743017
0.751806
-0.0737491
0.752858
-0.0787824
0.754118
-0.0903395
0.755554
-0.0975892
0.75691
-0.0998738
0.758924
-0.104457
0.761839
-0.106766
-0.115845
0.764039
0.74993
-0.00221986
0.749889
-0.00918111
0.749695
-0.0144951
0.749648
-0.0200591
0.749544
-0.0265934
0.749629
-0.0312393
0.749299
-0.0412769
0.749451
-0.0440653
0.749408
-0.0487543
0.749849
-0.0590673
0.750165
-0.06212
0.750522
-0.0746593
0.751605
-0.0748316
0.752902
-0.0800798
0.754355
-0.0917925
0.755941
-0.0991756
0.757705
-0.101638
0.760178
-0.10693
0.763443
-0.110031
-0.118592
0.766189
0.749857
-0.00207733
0.749895
-0.00921903
0.749651
-0.0142505
0.749496
-0.0199039
0.749242
-0.0263402
0.749399
-0.0313957
0.748796
-0.0406744
0.749
-0.0442686
0.749046
-0.0488002
0.749181
-0.0592029
0.749455
-0.0623939
0.749946
-0.07515
0.751058
-0.0759438
0.752516
-0.0815375
0.754126
-0.0934031
0.755807
-0.100856
0.75815
-0.103981
0.761043
-0.109823
0.764739
-0.113726
-0.122087
0.768234
0.74985
-0.00192697
0.749883
-0.00925234
0.749464
-0.0138313
0.749268
-0.0197078
0.748917
-0.0259901
0.749025
-0.0315031
0.748338
-0.0399878
0.748438
-0.0443678
0.748137
-0.0484995
0.748166
-0.0592318
0.748512
-0.0627397
0.748925
-0.075563
0.749877
-0.0768961
0.751605
-0.083266
0.753324
-0.0951216
0.755221
-0.102753
0.758043
-0.106803
0.761234
-0.113014
0.765698
-0.11819
-0.126335
0.769947
0.749836
-0.0017633
0.749762
-0.00917767
0.749187
-0.0132572
0.74908
-0.0196
0.748573
-0.0254837
0.748554
-0.0314836
0.74764
-0.0390737
0.747389
-0.0441174
0.746823
-0.0479333
0.746949
-0.0593581
0.747125
-0.0629149
0.747252
-0.0756907
0.748149
-0.0777933
0.749988
-0.0851047
0.751877
-0.0970103
0.753945
-0.10482
0.757105
-0.109964
0.760715
-0.116624
0.766218
-0.123694
-0.131374
0.771257
0.749594
-0.00135737
0.749561
-0.00914493
0.748923
-0.0126191
0.749026
-0.0197028
0.74799
-0.0244472
0.747785
-0.0312786
0.746587
-0.0378759
0.746053
-0.0435835
0.745346
-0.0472265
0.745155
-0.0591669
0.744948
-0.0627075
0.745088
-0.0758311
0.745635
-0.0783404
0.747493
-0.0869628
0.749528
-0.0990447
0.751737
-0.10703
0.755247
-0.113474
0.75945
-0.120827
0.76613
-0.130374
-0.137181
0.771937
0.749064
-0.000421195
0.749593
-0.00967438
0.748519
-0.011545
0.748859
-0.0200427
0.746872
-0.0224606
0.747054
-0.0314599
0.745108
-0.0359297
0.744613
-0.043089
0.743339
-0.0459526
0.742877
-0.0587046
0.742208
-0.0620385
0.742201
-0.0758244
0.742132
-0.0782713
0.744156
-0.0889865
0.74603
-0.100919
0.748326
-0.109325
0.752429
-0.117577
0.757264
-0.125663
0.764976
-0.138086
-0.143918
0.771713
0.748266
0.00131231
0.749769
-0.0111773
0.747554
-0.00932974
0.748675
-0.0211632
0.745566
-0.0193519
0.74637
-0.0322639
0.742995
-0.032555
0.743377
-0.0434708
0.740547
-0.0431223
0.740621
-0.0587784
0.738592
-0.0600099
0.738895
-0.0761277
0.737393
-0.0767691
0.739989
-0.0915824
0.740803
-0.101733
0.743573
-0.112095
0.748099
-0.122103
0.753666
-0.131229
0.762507
-0.146927
-0.151637
0.770226
0.747276
0.00403675
0.749944
-0.0138458
0.746395
-0.00578043
0.748587
-0.0233557
0.743918
-0.0146822
0.745638
-0.0339848
0.740396
-0.0273128
0.742159
-0.0452337
0.736822
-0.0377851
0.738384
-0.0603406
0.733795
-0.0554208
0.735148
-0.0774805
0.731053
-0.0726748
0.735291
-0.0958203
0.733068
-0.0995098
0.737847
-0.116874
0.741056
-0.125313
0.748131
-0.138304
0.757981
-0.156777
-0.160609
0.766953
0.746411
0.00762542
0.750189
-0.017623
0.745236
-0.000827571
0.748324
-0.0264442
0.742129
-0.00848739
0.7448
-0.0366556
0.737612
-0.020125
0.740472
-0.048093
0.732737
-0.0300504
0.735698
-0.063302
0.727719
-0.0474417
0.730737
-0.0804987
0.72302
-0.064957
0.729085
-0.101885
0.722291
-0.0927157
0.730858
-0.125442
0.729753
-0.124207
0.741394
-0.149945
0.749192
-0.164575
-0.172299
0.760883
0.746155
0.0114706
0.750229
-0.0216969
0.744337
0.00506419
0.747912
-0.0300198
0.740573
-0.00114767
0.743725
-0.0398077
0.735112
-0.011512
0.738463
-0.0514442
0.72868
-0.0202678
0.732292
-0.0669136
0.721217
-0.0363664
0.72528
-0.0845615
0.71366
-0.053337
0.720849
-0.109075
0.709271
-0.0811382
0.720655
-0.136825
0.713693
-0.117245
0.731901
-0.168153
0.733385
-0.166059
-0.192095
0.753181
0.746736
0.0147349
0.75001
-0.0249709
0.744363
0.0107111
0.747212
-0.0328689
0.739762
0.00630225
0.74264
-0.0426853
0.733435
-0.00230709
0.736246
-0.0542555
0.725423
-0.00944511
0.728434
-0.069924
0.715151
-0.0230841
0.718986
-0.0883962
0.704028
-0.0383789
0.710822
-0.115868
0.694513
-0.0648293
0.706659
-0.148972
0.693638
-0.104223
0.716574
-0.19109
0.713533
-0.163018
-0.222721
0.744159
0.74872
0.0160154
0.748948
-0.0251991
0.745611
0.0140475
0.745744
-0.0330016
0.740662
0.0113839
0.741144
-0.0431665
0.733396
0.00544098
0.733788
-0.0546483
0.723523
0.000820075
0.724214
-0.0706149
0.710259
-0.00912941
0.71211
-0.0902467
0.695097
-0.0213661
0.699453
-0.120224
0.679233
-0.0446099
0.690558
-0.160297
0.670045
-0.08371
0.696077
-0.217121
0.686749
-0.15369
-0.273776
0.737804
0.751126
0.0148897
0.747849
-0.0219226
0.748385
0.0135115
0.744473
-0.0290894
0.743862
0.0119945
0.738829
-0.038133
0.736309
0.00796026
0.730274
-0.0486133
0.725463
0.00563186
0.718805
-0.0639572
0.710278
-0.0006019
0.703403
-0.083372
0.690631
-0.00859378
0.686858
-0.116452
0.667459
-0.02521
0.674244
-0.167083
0.648805
-0.0582713
0.677785
-0.246101
0.650983
-0.126888
-0.367563
0.74477
0.752533
0.0123568
0.748081
-0.0174704
0.750394
0.0111983
0.744612
-0.0233074
0.746309
0.0102969
0.738714
-0.0305378
0.739239
0.0074356
0.729594
-0.0389683
0.728912
0.00631387
0.717072
-0.0521171
0.714309
0.00216147
0.699784
-0.0688476
0.695392
-0.0042015
0.677607
-0.0986674
0.67076
-0.0183623
0.655771
-0.152094
0.647187
-0.0496873
0.661671
-0.260585
0.647226
-0.112443
-0.455928
0.735591
0.753739
0.00861816
0.748503
-0.0122348
0.752067
0.00763442
0.745398
-0.0166388
0.748454
0.00724133
0.739895
-0.0219784
0.742087
0.00524328
0.731067
-0.0279489
0.732817
0.00456415
0.718191
-0.0374905
0.719172
0.00117959
0.699701
-0.0493763
0.700291
-0.00479186
0.673027
-0.0714033
0.674617
-0.0199517
0.635532
-0.11301
0.648834
-0.062989
0.60178
-0.213531
0.696063
-0.206726
0.800967
-0.560832
0.752456
-0.0958072
0.753069
-0.0943814
0.753697
-0.0960028
0.754534
-0.0916926
0.755468
-0.0914205
0.755946
-0.0974868
0.756338
-0.100818
0.756397
-0.105706
0.75646
-0.112613
-0.105902
0.757088
0.75646
-0.0963684
0.75738
-0.0953008
0.758424
-0.0970467
0.759818
-0.0930867
0.761201
-0.0928042
0.761987
-0.0982727
0.762902
-0.101732
0.763213
-0.106017
0.763459
-0.112859
-0.106515
0.764072
0.759625
-0.0971504
0.760552
-0.096228
0.761921
-0.0984156
0.763727
-0.094892
0.76519
-0.0942675
0.766089
-0.0991722
0.767311
-0.102954
0.767721
-0.106427
0.767864
-0.113002
-0.107025
0.768374
0.762572
-0.0981037
0.763759
-0.0974155
0.765672
-0.100329
0.767831
-0.0970505
0.769732
-0.0961684
0.771036
-0.100476
0.772472
-0.10439
0.772887
-0.106842
0.773212
-0.113327
-0.107608
0.773795
0.765532
-0.0995968
0.767284
-0.099168
0.769475
-0.10252
0.771801
-0.0993758
0.774178
-0.0985458
0.775792
-0.10209
0.777335
-0.105933
0.778232
-0.107739
0.779077
-0.114171
-0.108159
0.779627
0.768481
-0.101888
0.770752
-0.10144
0.773132
-0.1049
0.775723
-0.101967
0.778809
-0.101631
0.780726
-0.104008
0.78267
-0.107877
0.78397
-0.109039
0.785115
-0.115316
-0.108635
0.785591
0.771326
-0.10498
0.774049
-0.104163
0.776733
-0.107584
0.77962
-0.104854
0.783311
-0.105323
0.785874
-0.106571
0.788567
-0.11057
0.790178
-0.11065
0.791492
-0.11663
-0.109067
0.791924
0.773718
-0.108751
0.776901
-0.107345
0.780337
-0.11102
0.783607
-0.108124
0.788061
-0.109776
0.791341
-0.109852
0.794902
-0.11413
0.796659
-0.112407
0.798222
-0.118194
-0.109542
0.798698
0.77552
-0.113014
0.779345
-0.111171
0.783879
-0.115553
0.787847
-0.112092
0.793175
-0.115104
0.797064
-0.11374
0.801427
-0.118493
0.80353
-0.11451
0.805542
-0.120205
-0.110101
0.8061
0.776896
-0.117973
0.781524
-0.115799
0.787304
-0.121334
0.792176
-0.116963
0.798656
-0.121584
0.803032
-0.118116
0.808285
-0.123747
0.810789
-0.117014
0.813509
-0.122926
-0.11075
0.814158
0.7778
-0.12406
0.783471
-0.12147
0.790565
-0.128428
0.796441
-0.12284
0.804244
-0.129387
0.809265
-0.123137
0.815461
-0.129943
0.818313
-0.119866
0.821994
-0.126606
-0.111558
0.822801
0.777887
-0.131721
0.784918
-0.1285
0.793662
-0.137172
0.800604
-0.129782
0.809699
-0.138482
0.815545
-0.128984
0.822759
-0.137157
0.825957
-0.123063
0.830639
-0.131288
-0.112703
0.831783
0.776745
-0.141513
0.785822
-0.137578
0.796302
-0.147653
0.80441
-0.13789
0.814731
-0.148802
0.821453
-0.135706
0.829712
-0.145416
0.833449
-0.1268
0.839185
-0.137024
-0.114332
0.840814
0.773808
-0.154438
0.786097
-0.149866
0.797854
-0.15941
0.807596
-0.147632
0.81916
-0.160366
0.827225
-0.143771
0.836392
-0.154583
0.840701
-0.131109
0.847596
-0.143919
-0.116814
0.850077
0.76856
-0.169817
0.784879
-0.166186
0.797037
-0.171568
0.811512
-0.162106
0.825545
-0.174399
0.835239
-0.153465
0.843081
-0.162425
0.84846
-0.136488
0.855575
-0.151033
-0.120646
0.859407
0.761355
-0.187014
0.779877
-0.184707
0.794133
-0.185824
0.82
-0.187973
0.836518
-0.190918
0.847554
-0.164501
0.851386
-0.166257
0.855772
-0.140874
0.857502
-0.152763
-0.122787
0.859642
0.755409
-0.204619
0.77395
-0.203248
0.794624
-0.206498
0.829479
-0.222829
0.844316
-0.205755
0.851709
-0.171894
0.84436
-0.158908
0.839485
-0.135998
0.821788
-0.135066
-0.111477
0.810477
0.770085
-0.229935
0.775467
-0.208629
0.808763
-0.239794
0.817747
-0.231813
0.796591
-0.184599
0.772698
-0.148001
0.73932
-0.125529
0.710833
-0.107512
0.665824
-0.0900573
-0.054586
0.608934
0.726445
-0.220789
0.701859
-0.184043
0.726134
-0.264069
0.719687
-0.225366
0.62219
-0.0871015
0.505718
-0.031529
0.377666
0.00252284
0.253259
0.0168955
0.142831
0.0203701
0.0237371
0.0645082
0.580179
0.396135
0.132067
-0.0932996
-0.180401
-0.21193
-0.209407
-0.192512
-0.172142
-0.148405
0.757694
-0.515309
0.759026
-0.556861
0.75314
-0.602714
0.716087
-0.84749
0.633717
-1.21828
0.513225
-1.49609
0.38075
-1.5863
0.263667
-1.52106
0.174798
-1.36503
0.113402
-1.17211
0.0730591
-0.97757
0.047086
-0.799717
0.030512
-0.644963
0.0200199
-0.513337
0.0134162
-0.402255
0.00926592
-0.308348
0.0066563
-0.228132
0.00503952
-0.158037
0.00409654
-0.0947598
-0.0333949
0.766378
-0.517615
0.759484
-0.549968
0.738477
-0.581707
0.694781
-0.803794
0.618274
-1.14177
0.512026
-1.38984
0.395305
-1.46958
0.289143
-1.4149
0.204299
-1.28019
0.141747
-1.10956
0.0977979
-0.933621
0.0675641
-0.769483
0.0468566
-0.624255
0.0327348
-0.499215
0.0231856
-0.392706
0.0167915
-0.301954
0.0125582
-0.223899
0.00983905
-0.155318
0.0082411
-0.0931618
-0.0328386
0.770037
-0.519277
0.757411
-0.537342
0.735276
-0.559572
0.694752
-0.76327
0.618235
-1.06525
0.508983
-1.28059
0.38987
-1.35046
0.283631
-1.30866
0.200965
-1.19752
0.141414
-1.05
0.100056
-0.892263
0.071741
-0.741168
0.0522496
-0.604764
0.0386229
-0.485589
0.0290037
-0.383087
0.0222292
-0.295179
0.0175317
-0.219201
0.014423
-0.152209
0.0126194
-0.0913582
-0.0322372
0.776602
-0.522085
0.760599
-0.521339
0.729205
-0.528178
0.678689
-0.712753
0.603179
-0.989741
0.506909
-1.18432
0.403463
-1.24702
0.307004
-1.2122
0.226343
-1.11686
0.16406
-0.987722
0.118272
-0.846475
0.0856045
-0.708501
0.062738
-0.581897
0.0468105
-0.469661
0.0356728
-0.371949
0.0278732
-0.28738
0.0224763
-0.213804
0.0189231
-0.148656
0.0169203
-0.0893554
-0.0315982
0.782788
-0.525246
0.761767
-0.500317
0.727049
-0.49346
0.678403
-0.664108
0.603734
-0.915072
0.502745
-1.08333
0.394072
-1.13834
0.297599
-1.11573
0.221535
-1.0408
0.164827
-0.931014
0.123261
-0.804908
0.0927111
-0.677951
0.0702287
-0.559415
0.0537788
-0.453211
0.0418432
-0.360014
0.0332809
-0.278818
0.0272742
-0.207798
0.0233024
-0.144684
0.0210915
-0.0871445
-0.0309081
0.790717
-0.530372
0.766993
-0.476593
0.724357
-0.450825
0.666225
-0.605975
0.590939
-0.839786
0.501845
-0.994236
0.407772
-1.04427
0.318555
-1.02651
0.241888
-0.96413
0.181088
-0.870214
0.135529
-0.759348
0.10234
-0.644762
0.0782429
-0.535318
0.0606588
-0.435627
0.0478131
-0.347168
0.0385054
-0.26951
0.0319209
-0.201213
0.0275472
-0.14031
0.0251194
-0.0847168
-0.0301527
0.799554
-0.538002
0.771031
-0.448069
0.723607
-0.403401
0.665963
-0.548331
0.590171
-0.763994
0.494225
-0.89829
0.394129
-0.944175
0.306816
-0.939202
0.237576
-0.89489
0.183804
-0.816442
0.142017
-0.717562
0.109838
-0.612583
0.0854288
-0.510909
0.0671207
-0.417319
0.0535097
-0.333557
0.0435256
-0.259526
0.0364028
-0.19409
0.0316455
-0.135553
0.0289958
-0.0820671
-0.029321
0.810295
-0.549599
0.778499
-0.416274
0.721823
-0.346725
0.656379
-0.482887
0.582987
-0.690602
0.498831
-0.814133
0.409548
-0.854892
0.324659
-0.854313
0.2519
-0.822131
0.194327
-0.758869
0.150529
-0.673763
0.117404
-0.579458
0.0922807
-0.485786
0.0732517
-0.39829
0.058939
-0.319244
0.0483333
-0.24892
0.0407087
-0.186466
0.0355865
-0.130431
0.0327134
-0.0791939
-0.0284049
0.822365
-0.565863
0.78337
-0.377279
0.721355
-0.28471
0.657796
-0.419328
0.581434
-0.61424
0.486729
-0.719429
0.39191
-0.760073
0.312603
-0.775007
0.249324
-0.758852
0.198109
-0.707654
0.1568
-0.632455
0.124106
-0.546764
0.0986423
-0.460322
0.0790289
-0.378677
0.0640933
-0.304309
0.0529197
-0.237746
0.0448289
-0.178375
0.039361
-0.124963
0.0362659
-0.0760987
-0.0274
0.836773
-0.588477
0.791874
-0.33238
0.718511
-0.211347
0.648453
-0.34927
0.576559
-0.542347
0.493244
-0.636113
0.405324
-0.672153
0.324536
-0.694218
0.257632
-0.691948
0.204774
-0.654796
0.163209
-0.59089
0.1304
-0.513954
0.104589
-0.434511
0.0844627
-0.358551
0.0689697
-0.288816
0.0572778
-0.226054
0.0487548
-0.169852
0.0429606
-0.119169
0.0396473
-0.0727855
-0.0263056
0.851934
-0.61761
0.797333
-0.277779
0.71909
-0.133104
0.649115
-0.279295
0.566694
-0.459926
0.470162
-0.539581
0.382587
-0.584578
0.312924
-0.624555
0.256078
-0.635102
0.20832
-0.607038
0.168561
-0.55113
0.136124
-0.481518
0.110112
-0.408499
0.0895547
-0.337994
0.0735656
-0.272827
0.0614016
-0.21389
0.0524789
-0.160929
0.0463777
-0.113067
0.0428523
-0.0692601
-0.0251225
0.869256
-0.655082
0.807299
-0.215822
0.714856
-0.0406612
0.636384
-0.200822
0.557803
-0.381345
0.471009
-0.452787
0.387697
-0.501266
0.317167
-0.554025
0.259763
-0.577698
0.212662
-0.559937
0.17361
-0.512078
0.14141
-0.449318
0.115239
-0.382328
0.0943116
-0.317066
0.0778799
-0.256395
0.0652864
-0.201297
0.0559946
-0.151638
0.0496057
-0.106678
0.0458757
-0.0655301
-0.0238522
0.884269
-0.698537
0.815953
-0.147506
0.720471
0.05482
0.628313
-0.108663
0.526014
-0.279046
0.431269
-0.358042
0.360458
-0.430455
0.305913
-0.49948
0.258292
-0.530077
0.215489
-0.517135
0.178016
-0.474605
0.146242
-0.417543
0.119982
-0.356068
0.0987389
-0.295823
0.0819121
-0.239568
0.0689279
-0.188313
0.0592961
-0.142006
0.0526387
-0.100021
0.048713
-0.0616045
-0.0224971
0.8985
-0.74696
0.825183
-0.0741889
0.712374
0.167629
0.609017
-0.00530651
0.510447
-0.180477
0.423708
-0.271303
0.357058
-0.363805
0.304784
-0.447206
0.259452
-0.484746
0.218515
-0.476197
0.182095
-0.438185
0.150684
-0.386133
0.124362
-0.329746
0.102843
-0.274305
0.0856623
-0.222387
0.0723228
-0.174973
0.0623786
-0.132062
0.0554714
-0.0931137
0.0513598
-0.0574929
-0.0210601
0.894969
-0.782522
0.829006
-0.00822572
0.708738
0.287897
0.575898
0.127533
0.457733
-0.0623116
0.379403
-0.192973
0.332809
-0.31721
0.295732
-0.410129
0.258323
-0.447337
0.220825
-0.438699
0.185752
-0.403112
0.15475
-0.355131
0.128392
-0.303388
0.106631
-0.252544
0.089131
-0.204887
0.0754683
-0.16131
0.0652374
-0.121831
0.0580991
-0.0859754
0.0538125
-0.0532063
-0.0195448
0.85253
-0.775411
0.796488
0.0478165
0.680188
0.404198
0.562907
0.244814
0.452155
0.0484397
0.372048
-0.112865
0.326451
-0.271614
0.292909
-0.376587
0.258747
-0.413175
0.223253
-0.403205
0.18916
-0.369019
0.158486
-0.324457
0.132091
-0.276992
0.110109
-0.230562
0.0923189
-0.187097
0.078362
-0.147354
0.0678689
-0.111338
0.0605176
-0.078624
0.0560674
-0.0487561
-0.0179554
0.715468
-0.680401
0.705954
0.0573303
0.600912
0.509239
0.479858
0.365869
0.373034
0.155263
0.320749
-0.0605797
0.303595
-0.25446
0.285716
-0.358707
0.258264
-0.385723
0.225407
-0.370348
0.192303
-0.335914
0.161913
-0.294067
0.135469
-0.250548
0.113281
-0.208375
0.0952265
-0.169042
0.0810018
-0.133129
0.0702696
-0.100605
0.0627231
-0.0710776
0.0581215
-0.0441544
-0.0162967
0.41845
-0.489917
0.52049
-0.0447097
0.499778
0.529952
0.396341
0.469305
0.303958
0.247647
0.289428
-0.0460504
0.294139
-0.259171
0.284071
-0.34864
0.25944
-0.361092
0.227845
-0.338754
0.195299
-0.303368
0.165062
-0.26383
0.13854
-0.224026
0.116153
-0.185988
0.0978544
-0.150743
0.0833856
-0.11866
0.0724363
-0.0896561
0.0647123
-0.0633537
0.0599718
-0.0394139
-0.0145737
0.057619
-0.483028
0.296544
-0.283634
0.298144
0.528352
0.22712
0.540328
0.221936
0.252831
0.267011
-0.0911258
0.289942
-0.282102
0.28457
-0.343267
0.261396
-0.337918
0.230431
-0.307789
0.198152
-0.271088
0.167949
-0.233628
0.141312
-0.197389
0.118728
-0.163404
0.100202
-0.132217
0.0855116
-0.103969
0.0743662
-0.0785107
0.0664821
-0.0554697
0.0616159
-0.0345477
-0.0127922
-0.062176
-0.569257
0.0013012
-0.347112
0.0537894
0.475863
0.0868075
0.50731
0.189954
0.149685
0.267522
-0.168693
0.295254
-0.309834
0.288909
-0.336922
0.264652
-0.313662
0.23327
-0.276407
0.200867
-0.238685
0.170569
-0.20333
0.143788
-0.170608
0.121014
-0.14063
0.102277
-0.113481
0.0873847
-0.0890769
0.0760622
-0.0671882
0.0680344
-0.0474418
0.0630549
-0.0295683
-0.010958
-0.0697276
-0.499529
-0.0691513
-0.347688
-0.0269682
0.43368
0.0183981
0.461944
0.0779114
0.0901713
0.110587
-0.201368
0.120902
-0.320149
0.117358
-0.333379
0.106978
-0.303281
0.094114
-0.263543
0.0810353
-0.225606
0.0688651
-0.19116
0.0581162
-0.159859
0.0489674
-0.131481
0.0414255
-0.105939
0.0354204
-0.0830717
0.0308476
-0.0626154
0.0276018
-0.044196
0.0255797
-0.0275462
-0.0102123
-0.0849566
-0.414572
-0.0986733
-0.333971
-0.0473918
0.382399
0.0160387
0.398514
0.080556
0.025654
0.112605
-0.233418
0.122327
-0.329871
0.118329
-0.32938
0.107641
-0.292593
0.0946091
-0.250511
0.0814488
-0.212446
0.0692322
-0.178944
0.0584476
-0.149074
0.0492666
-0.1223
0.0416949
-0.0983671
0.0356627
-0.0770396
0.0310667
-0.0580194
0.0278025
-0.0409318
0.0257653
-0.0255089
-0.0094605
-0.0943004
-0.320272
-0.12071
-0.307562
-0.058352
0.320041
0.0205474
0.319614
0.0838915
-0.0376901
0.114839
-0.264366
0.123857
-0.338889
0.119348
-0.324871
0.10832
-0.281566
0.0951027
-0.237294
0.0818513
-0.199195
0.0695838
-0.166676
0.0587614
-0.138252
0.0495471
-0.113086
0.0419451
-0.0907651
0.0358861
-0.0709806
0.0312675
-0.0534008
0.0279853
-0.0376497
0.0259341
-0.0234577
-0.00870225
-0.0980163
-0.222256
-0.131153
-0.274425
-0.0598052
0.248694
0.0289578
0.230851
0.0881209
-0.0968532
0.117572
-0.293817
0.125559
-0.346876
0.120414
-0.319726
0.109013
-0.270166
0.0955956
-0.223876
0.082243
-0.185842
0.0699191
-0.154352
0.0590568
-0.127389
0.0498089
-0.103838
0.0421774
-0.0831335
0.0360927
-0.0648959
0.0314527
-0.0487608
0.0281536
-0.0343506
0.0260893
-0.0213934
-0.00793804
-0.0941921
-0.128064
-0.126473
-0.242144
-0.0517941
0.174014
0.0383929
0.140664
0.0939782
-0.152439
0.121154
-0.320993
0.127557
-0.353278
0.121557
-0.313726
0.109723
-0.258332
0.0960866
-0.210239
0.0826236
-0.172379
0.070238
-0.141967
0.0593337
-0.116485
0.0500521
-0.0945562
0.0423916
-0.0754731
0.0362823
-0.0587866
0.0316221
-0.0441006
0.0283072
-0.0310357
0.0262308
-0.019317
-0.00716832
-0.0834576
-0.044606
-0.10926
-0.216342
-0.0364107
0.101165
0.0496168
0.0546369
0.10199
-0.204812
0.125776
-0.344778
0.129917
-0.35742
0.122797
-0.306605
0.110452
-0.245987
0.0965751
-0.196362
0.0829924
-0.158796
0.0705404
-0.129515
0.059592
-0.105537
0.0502764
-0.0852405
0.0425878
-0.0677844
0.036455
-0.0526539
0.0317758
-0.0394214
0.0284462
-0.027706
0.0263585
-0.0172294
-0.00639355
-0.0665982
0.0219922
-0.0857242
-0.197216
-0.017911
0.0333521
0.0643617
-0.0276358
0.11217
-0.25262
0.1314
-0.364009
0.132634
-0.358654
0.12413
-0.298101
0.111199
-0.233056
0.0970602
-0.182223
0.0833491
-0.145085
0.0708261
-0.116991
0.0598318
-0.0945426
0.050482
-0.0758907
0.0427659
-0.0600683
0.0366108
-0.0464988
0.0319138
-0.0347243
0.0285705
-0.0243627
0.0264725
-0.0151315
-0.00561419
-0.0460039
0.0679961
-0.0579145
-0.185306
0.00335942
-0.0279218
0.0823702
-0.106647
0.124074
-0.294324
0.137822
-0.377756
0.135646
-0.356478
0.125543
-0.287999
0.111958
-0.219471
0.0975403
-0.167805
0.0836935
-0.131238
0.0710952
-0.104393
0.0600532
-0.0835005
0.0506689
-0.0665065
0.042926
-0.0523253
0.0367496
-0.0403224
0.0320359
-0.0300107
0.02868
-0.0210068
0.0265727
-0.0130241
-0.00483072
-0.0219075
0.0899036
-0.024396
-0.182817
0.0299958
-0.0823137
0.1024
-0.179051
0.137029
-0.328953
0.144739
-0.385466
0.138852
-0.350591
0.127008
-0.276156
0.112724
-0.205186
0.0980138
-0.153095
0.0840255
-0.11725
0.0713482
-0.0917159
0.0602563
-0.0724087
0.0508373
-0.0570875
0.0430681
-0.044556
0.0368714
-0.0341257
0.0321422
-0.0252815
0.0287749
-0.0176395
0.0266591
-0.0109083
-0.00404362
0.00606603
0.0838376
0.0132007
-0.189952
0.0612951
-0.130408
0.123628
-0.241384
0.150521
-0.355846
0.151986
-0.386931
0.142254
-0.340859
0.128562
-0.262464
0.113531
-0.190154
0.0985102
-0.138075
0.0843667
-0.103107
0.0715986
-0.0789478
0.0604477
-0.0612579
0.0509872
-0.047627
0.0431884
-0.0367572
0.0369709
-0.0279083
0.0322272
-0.0205378
0.028849
-0.0142612
0.0267268
-0.00878615
-0.00325248
0.336645
0.181115
-0.433922
0.346296
-0.199603
0.454454
-0.238566
0.571364
-0.358294
0.598893
-0.383375
0.559347
-0.347386
0.500296
-0.281807
0.441667
-0.203836
0.386041
-0.134528
0.333504
-0.0855373
0.285004
-0.0546067
0.241553
-0.0354974
0.203739
-0.0234429
0.171728
-0.0156167
0.145398
-0.0104268
0.12443
-0.00694018
0.108442
-0.00455027
0.0970552
-0.00287422
0.0899051
-0.00163602
-0.000577037
0.945281
0.23607
-1.00024
0.868275
-0.122597
0.843618
-0.213909
0.791345
-0.306021
0.709363
-0.301392
0.614356
-0.252379
0.528405
-0.195856
0.45615
-0.131581
0.393741
-0.0721191
0.33785
-0.0296467
0.287619
-0.00437546
0.243195
0.00892634
0.2048
0.0149527
0.17243
0.0167528
0.145869
0.0161344
0.124752
0.0141773
0.108668
0.0115338
0.0972204
0.00857292
0.0900344
0.00554994
0.00211047
1.05136
0.268739
-1.08403
0.97655
-0.0477897
0.897234
-0.134593
0.769422
-0.178209
0.657609
-0.189579
0.582023
-0.176793
0.519392
-0.133225
0.457962
-0.0701514
0.397562
-0.0117186
0.340873
0.0270419
0.289408
0.04709
0.244053
0.054281
0.205078
0.0539282
0.172374
0.0494563
0.145628
0.0428806
0.124414
0.0353914
0.108284
0.027663
0.0968221
0.0200353
0.0896388
0.0127333
0.00479127
1.10643
0.26716
-1.10486
1.02987
0.0287772
0.948568
-0.0532925
0.876752
-0.106394
0.799669
-0.112495
0.699314
-0.0764386
0.58927
-0.023181
0.490752
0.0283666
0.410824
0.0682093
0.345592
0.0922736
0.290834
0.101847
0.244135
0.10098
0.204539
0.0935242
0.171537
0.0824583
0.14466
0.0697576
0.123407
0.0566442
0.107287
0.043783
0.0958556
0.0314666
0.0887141
0.0198749
0.00744665
1.09699
0.276966
-1.10679
1.02791
0.0978605
0.960344
0.0142698
0.871046
-0.0170955
0.758447
0.000103806
0.650703
0.0313053
0.558824
0.0686978
0.479373
0.107818
0.408646
0.138937
0.345727
0.155192
0.290604
0.15697
0.243195
0.148389
0.203124
0.133595
0.169895
0.115688
0.142953
0.0966997
0.121725
0.077872
0.105672
0.0598364
0.0943198
0.0428188
0.0872595
0.0269351
0.0100579
1.08584
0.28128
-1.09016
1.02856
0.155137
0.955671
0.0871632
0.873928
0.0646471
0.78249
0.0915422
0.680509
0.133286
0.58043
0.168777
0.490534
0.197714
0.413023
0.216448
0.346547
0.221669
0.289659
0.213858
0.241333
0.196715
0.200817
0.174112
0.167428
0.149076
0.140495
0.123633
0.119362
0.0990045
0.103437
0.0757614
0.0922146
0.0540415
0.0852757
0.0338741
0.0126067
1.07443
0.290519
-1.08367
1.01592
0.213648
0.95657
0.146509
0.898298
0.122919
0.818976
0.170864
0.714022
0.23824
0.60149
0.281309
0.500376
0.298827
0.416018
0.300805
0.346139
0.291548
0.287595
0.272403
0.238447
0.245863
0.197573
0.214985
0.164114
0.182535
0.137274
0.150473
0.116314
0.119965
0.100583
0.0914923
0.0895418
0.0650825
0.0827641
0.0406518
0.0150749
1.05153
0.307796
-1.06881
1.02084
0.244335
0.962455
0.204894
0.845326
0.240049
0.713918
0.302272
0.615075
0.337082
0.543898
0.352487
0.476596
0.366129
0.407785
0.369617
0.342172
0.357161
0.283933
0.330642
0.23442
0.295376
0.193349
0.256056
0.159928
0.215956
0.133278
0.177123
0.112576
0.140667
0.0971092
0.106959
0.0863044
0.0758874
0.0797279
0.0472283
0.0174454
1.04521
0.319638
-1.05705
0.996085
0.293458
0.935812
0.265168
0.882015
0.293846
0.819367
0.36492
0.72948
0.42697
0.616501
0.465465
0.507295
0.475335
0.41543
0.461482
0.340856
0.431735
0.279751
0.391747
0.229372
0.345755
0.188131
0.297298
0.154853
0.249233
0.128499
0.203477
0.108147
0.16102
0.0930199
0.122086
0.0825078
0.0863994
0.0761716
0.0535645
0.019702
1.03001
0.336405
-1.04677
0.987445
0.336019
0.94032
0.312292
0.884751
0.349416
0.79843
0.451241
0.685434
0.539965
0.57727
0.573628
0.484823
0.567782
0.404527
0.541779
0.334013
0.502248
0.273496
0.452264
0.22303
0.396221
0.181854
0.338473
0.148866
0.282222
0.122929
0.229414
0.103028
0.180921
0.0883203
0.136793
0.0781594
0.0965604
0.0721016
0.0596222
0.0218302
1.02332
0.350655
-1.03757
0.992047
0.367287
0.927028
0.377311
0.852839
0.423605
0.785525
0.518556
0.707594
0.617896
0.607627
0.673596
0.501443
0.673965
0.407143
0.63608
0.329575
0.579816
0.266618
0.515221
0.21557
0.44727
0.174514
0.379529
0.141951
0.314785
0.116562
0.254802
0.097222
0.200261
0.083019
0.150996
0.0732691
0.10631
0.0675261
0.0653652
0.0238168
1.0118
0.368051
-1.02919
0.983326
0.395759
0.936101
0.424537
0.857874
0.501832
0.754918
0.621511
0.644885
0.727929
0.546507
0.771973
0.463154
0.757319
0.38747
0.711763
0.317966
0.64932
0.257161
0.576025
0.206642
0.497789
0.166037
0.420133
0.134087
0.346736
0.109396
0.279493
0.0907363
0.218921
0.0771273
0.164605
0.06785
0.115588
0.0624555
0.0707596
0.025651
1.00521
0.385524
-1.02268
0.975429
0.425536
0.929486
0.47048
0.854471
0.576846
0.765485
0.710497
0.679717
0.813697
0.59023
0.861461
0.491054
0.856496
0.394725
0.808092
0.313131
0.730914
0.248007
0.641149
0.19668
0.549116
0.156459
0.460354
0.12527
0.377925
0.101432
0.303332
0.0835809
0.236772
0.0706607
0.177525
0.061918
0.12433
0.0569026
0.0757751
0.0273245
0.999758
0.403212
-1.01745
0.965719
0.459575
0.930907
0.505292
0.877997
0.629756
0.786528
0.801966
0.668252
0.931973
0.549142
0.980571
0.447776
0.957862
0.365098
0.89077
0.294604
0.801408
0.23432
0.701433
0.184766
0.59867
0.145617
0.499503
0.115472
0.40807
0.0926732
0.32613
0.0757706
0.253675
0.0636385
0.189657
0.0554931
0.132476
0.0508823
0.0803858
0.0288319
0.999754
0.416628
-1.01317
0.96849
0.49084
0.922625
0.551157
0.864597
0.687784
0.786277
0.880286
0.689664
1.02859
0.585428
1.08481
0.47982
1.06347
0.379073
0.991517
0.292403
0.888078
0.224179
0.769658
0.17255
0.650299
0.133777
0.538276
0.10473
0.437116
0.0831361
0.347724
0.0673258
0.269485
0.0560854
0.200898
0.0485992
0.139962
0.0444124
0.0845726
0.0301707
0.996181
0.430045
-1.0096
0.96964
0.51738
0.932296
0.588501
0.879688
0.740393
0.794163
0.96581
0.675814
1.14694
0.547253
1.21337
0.430539
1.18018
0.335737
1.08632
0.261642
0.962172
0.202878
0.828423
0.156245
0.696932
0.12012
0.574401
0.0928981
0.464338
0.072812
0.367811
0.0582686
0.284028
0.0480305
0.211136
0.0412651
0.146727
0.0375131
0.0883246
0.0313467
0.995902
0.441146
-1.007
0.97482
0.538462
0.931576
0.631745
0.866936
0.805034
0.782001
1.05074
0.677783
1.25115
0.564222
1.32693
0.453028
1.29138
0.351825
1.18752
0.26505
1.04895
0.195699
0.897774
0.143952
0.748679
0.106836
0.611516
0.0805051
0.49067
0.0618334
0.386482
0.0486508
0.297211
0.039513
0.220274