x,y,z,U_0,U_1,U_2
0,0,0,0.3,-0.000283581,0
0,0.1,0,0.3,-0.000170149,0
0,0.2,0,0.3,-5.67162e-05,0
0,0.3,0,0.3,0,0
0,0.4,0,0.3,0,0
0,0.5,0,0.3,0,0
0,0.6,0,0.3,0,0
0,0.7,0,0.3,0,0
0,0.8,0,0.3,0,0
0,0.9,0,0.3,0,0
0,1,0,0.3,0,0
0,1.1,0,0.3,0,0
0,1.2,0,0.3,0,0
0,1.3,0,0.3,0,0
0,1.4,0,0.3,0,0
0,1.5,0,0.3,0,0
0,1.6,0,0.3,0,0
0,1.7,0,0.3,0,0
0,1.8,0,0.3,0,0
0,1.9,0,0.3,0,0
0,2,0,0.3,0,0
0,2.1,0,0.3,0,0
0,2.2,0,0.3,0,0
0,2.3,0,0.3,0,0
0,2.4,0,0.3,0,0
0,2.5,0,0.3,0,0
0,2.6,0,0.3,0,0
0,2.7,0,0.3,0,0
0,2.8,0,0.3,0,0
0,2.9,0,0.3,0,0
0,3,0,0.3,0,0
0,3.1,0,0.3,0,0
0,3.2,0,0.3,0,0
0,3.3,0,0.3,0,0
0,3.4,0,0.3,0,0
0,3.5,0,0.3,0,0
0,3.6,0,0.3,0,0
0,3.7,0,0.3,0,0
0,3.8,0,0.3,0,0
0,3.9,0,0.3,0,0
0,4,0,0.3,0,0
0,4.1,0,0.3,0,0
0,4.2,0,0.3,0,0
0,4.3,0,0.3,0,0
0,4.4,0,0.3,0,0
0,4.5,0,0.3,0,0
0,4.6,0,0.3,0,0
0,4.7,0,0.3,0,0
0,4.8,0,0.3,0,0
0,4.9,0,0.3,0,0
0,5,0,0.3,0,0
0,5.1,0,0.3,0,0
0,5.2,0,0.3,0,0
0,5.3,0,0.3,0,0
0,5.4,0,0.3,0,0
0,5.5,0,0.3,0,0
0,5.6,0,0.3,0,0
0,5.7,0,0.3,0,0
0,5.8,0,0.3,0,0
0,5.9,0,0.3,0,0
0,6,0,0.3,0,0
0,6.1,0,0.3,0,0
0,6.2,0,0.3,0,0
0,6.3,0,0.3,0,0
0,6.4,0,0.3,0,0
0,6.5,0,0.3,0,0
0,6.6,0,0.3,0,0
0,6.7,0,0.3,0,0
0,6.8,0,0.3,0,0
0,6.9,0,0.3,0,0
0,7,0,0.3,0,0
0,7.1,0,0.3,0,0
0,7.2,0,0.3,0,0
0,7.3,0,0.3,0,0
0,7.4,0,0.3,0,0
0,7.5,0,0.3,0,0
0,7.6,0,0.3,0,0
0,7.7,0,0.3,0,0
0,7.8,0,0.3,0,0
0,7.9,0,0.3,0,0
0,8,0,0.3,0,0
0,8.1,0,0.3,0,0
0,8.2,0,0.3,0,0
0,8.3,0,0.3,0,0
0,8.4,0,0.3,0,0
0,8.5,0,0.3,0,0
0,8.6,0,0.3,0,0
0,8.7,0,0.3,0,0
0,8.8,0,0.3,0,0
0,8.9,0,0.3,0,0
0,9,0,0.3,0,0
0,9.1,0,0.3,0,0
0,9.2,0,0.3,0,0
0,9.3,0,0.3,0,0
0,9.4,0,0.3,0,0
0,9.5,0,0.3,0,0
0,9.6,0,0.3,0,0
0,9.7,0,0.3,0,0
0,9.8,0,0.3,0,0
0,9.9,0,0.3,0,0
0,10,0,0.3,0,0
0,10.1,0,0.3,0,0
0,10.2,0,0.3,0,0
0,10.3,0,0.3,0,0
0,10.4,0,0.3,0,0
0,10.5,0,0.3,0,0
0,10.6,0,0.3,0,0
0,10.7,0,0.3,0,0
0,10.8,0,0.3,0,0
0,10.9,0,0.3,0,0
0,11,0,0.3,0,0
0,11.1,0,0.3,0,0
0,11.2,0,0.3,0,0
0,11.3,0,0.3,0,0
0,11.4,0,0.3,0,0
0,11.5,0,0.3,0,0
0,11.6,0,0.3,0,0
0,11.7,0,0.3,0,0
0,11.8,0,0.3,0,0
0,11.9,0,0.3,0,0
0,12,0,0.3,0,0
0,12.1,0,0.3,0,0
0,12.2,0,0.3,0,0
0,12.3,0,0.3,0,0
0,12.4,0,0.3,0,0
0,12.5,0,0.3,8.4675e-05,0
0,12.6,0,0.3,0.000184293,0
0,12.7,0,0.3,0.00028391,0
0.1,0,0,0.299999,-0.000453569,0
0.1,0.1,0,0.3,-0.000335883,0
0.1,0.2,0,0.3,-0.000222451,0
0.1,0.3,0,0.3,-0.000216283,0
0.1,0.4,0,0.3,-0.000216283,0
0.1,0.5,0,0.299998,-0.00022002,0
0.1,0.6,0,0.299999,-0.0002143,0
0.1,0.7,0,0.299999,-0.0002143,0
0.1,0.8,0,0.299999,-0.000211349,0
0.1,0.9,0,0.299999,-0.000211349,0
0.1,1,0,0.299996,-0.000215505,0
0.1,1.1,0,0.299999,-0.000207468,0
0.1,1.2,0,0.299999,-0.000207468,0
0.1,1.3,0,0.299998,-0.0002027,0
0.1,1.4,0,0.299998,-0.0002027,0
0.1,1.5,0,0.299994,-0.000208061,0
0.1,1.6,0,0.299997,-0.0001971,0
0.1,1.7,0,0.299997,-0.0001971,0
0.1,1.8,0,0.299997,-0.000190745,0
0.1,1.9,0,0.299997,-0.000190745,0
0.1,2,0,0.299993,-0.000197706,0
0.1,2.1,0,0.299997,-0.000183734,0
0.1,2.2,0,0.299997,-0.000183734,0
0.1,2.3,0,0.299996,-0.000176195,0
0.1,2.4,0,0.299996,-0.000176195,0
0.1,2.5,0,0.299991,-0.000184425,0
0.1,2.6,0,0.299996,-0.000168282,0
0.1,2.7,0,0.299996,-0.000168282,0
0.1,2.8,0,0.299996,-0.000160176,0
0.1,2.9,0,0.299996,-0.000160176,0
0.1,3,0,0.29999,-0.000168152,0
0.1,3.1,0,0.299996,-0.000152074,0
0.1,3.2,0,0.299996,-0.000152074,0
0.1,3.3,0,0.299996,-0.000144172,0
0.1,3.4,0,0.299996,-0.000144172,0
0.1,3.5,0,0.29999,-0.000148764,0
0.1,3.6,0,0.299997,-0.000136642,0
0.1,3.7,0,0.299997,-0.000136642,0
0.1,3.8,0,0.299999,-0.000129585,0
0.1,3.9,0,0.299999,-0.000129585,0
0.1,4,0,0.299989,-0.00012615,0
0.1,4.1,0,0.300003,-0.000122957,0
0.1,4.2,0,0.300003,-0.000122957,0
0.1,4.3,0,0.300008,-0.000116509,0
0.1,4.4,0,0.300008,-0.000116509,0
0.1,4.5,0,0.299988,-0.000100295,0
0.1,4.6,0,0.300017,-0.000110062,0
0.1,4.7,0,0.300017,-0.000110062,0
0.1,4.8,0,0.300028,-0.000103281,0
0.1,4.9,0,0.300028,-0.000103281,0
0.1,5,0,0.299984,-7.50081e-05,0
0.1,5.1,0,0.299983,-6.7202e-05,0
0.1,5.2,0,0.299982,-6.20232e-05,0
0.1,5.3,0,0.299981,-5.68071e-05,0
0.1,5.4,0,0.29998,-5.15659e-05,0
0.1,5.5,0,0.299979,-4.63046e-05,0
0.1,5.6,0,0.299978,-4.10285e-05,0
0.1,5.7,0,0.299978,-3.57422e-05,0
0.1,5.8,0,0.299977,-3.04501e-05,0
0.1,5.9,0,0.299976,-2.5156e-05,0
0.1,6,0,0.299976,-1.98636e-05,0
0.1,6.1,0,0.299975,-1.45765e-05,0
0.1,6.2,0,0.299975,-9.29812e-06,0
0.1,6.3,0,0.299975,-4.03186e-06,0
0.1,6.4,0,0.299975,1.21865e-06,0
0.1,6.5,0,0.299975,6.4497e-06,0
0.1,6.6,0,0.299975,1.16575e-05,0
0.1,6.7,0,0.299976,1.68379e-05,0
0.1,6.8,0,0.299976,2.19879e-05,0
0.1,6.9,0,0.299977,2.70921e-05,0
0.1,7,0,0.299978,3.53322e-05,0
0.1,7.1,0,0.300078,7.33909e-05,0
0.1,7.2,0,0.300078,7.33909e-05,0
0.1,7.3,0,0.300005,5.88346e-05,0
0.1,7.4,0,0.300067,8.34967e-05,0
0.1,7.5,0,0.300067,8.34967e-05,0
0.1,7.6,0,0.300023,8.16884e-05,0
0.1,7.7,0,0.300053,9.29418e-05,0
0.1,7.8,0,0.300053,9.29418e-05,0
0.1,7.9,0,0.300032,9.88621e-05,0
0.1,8,0,0.300039,0.000101287,0
0.1,8.1,0,0.300027,0.000100703,0
0.1,8.2,0,0.300027,0.000108925,0
0.1,8.3,0,0.300027,0.000108925,0
0.1,8.4,0,0.300006,0.000111435,0
0.1,8.5,0,0.300017,0.000116491,0
0.1,8.6,0,0.300017,0.000116491,0
0.1,8.7,0,0.299994,0.000125702,0
0.1,8.8,0,0.300009,0.000124418,0
0.1,8.9,0,0.300009,0.000124418,0
0.1,9,0,0.29999,0.000140243,0
0.1,9.1,0,0.300004,0.000132931,0
0.1,9.2,0,0.300004,0.000132931,0
0.1,9.3,0,0.299994,0.000148834,0
0.1,9.4,0,0.3,0.000142051,0
0.1,9.5,0,0.3,0.000142051,0
0.1,9.6,0,0.299995,0.00015568,0
0.1,9.7,0,0.299998,0.000151623,0
0.1,9.8,0,0.299998,0.000152412,0
0.1,9.9,0,0.299997,0.000161826,0
0.1,10,0,0.299997,0.000161379,0
0.1,10.1,0,0.299995,0.000168432,0
0.1,10.2,0,0.299997,0.000171011,0
0.1,10.3,0,0.299997,0.000171011,0
0.1,10.4,0,0.299994,0.000183364,0
0.1,10.5,0,0.299997,0.000180219,0
0.1,10.6,0,0.299997,0.000180219,0
0.1,10.7,0,0.299993,0.000196462,0
0.1,10.8,0,0.299997,0.000188739,0
0.1,10.9,0,0.299997,0.000188739,0
0.1,11,0,0.299994,0.000202788,0
0.1,11.1,0,0.299997,0.000196356,0
0.1,11.2,0,0.299997,0.000196356,0
0.1,11.3,0,0.299996,0.000206331,0
0.1,11.4,0,0.299998,0.000202907,0
0.1,11.5,0,0.299998,0.000202907,0
0.1,11.6,0,0.299998,0.000209532,0
0.1,11.7,0,0.299999,0.000208273,0
0.1,11.8,0,0.299998,0.000209439,0
0.1,11.9,0,0.299999,0.00021237,0
0.1,12,0,0.299999,0.00021237,0
0.1,12.1,0,0.299998,0.000215387,0
0.1,12.2,0,0.299999,0.000215132,0
0.1,12.3,0,0.299999,0.000215132,0
0.1,12.4,0,0.299999,0.00021929,0
0.1,12.5,0,0.3,0.000249608,0
0.1,12.6,0,0.3,0.000349226,0
0.1,12.7,0,0.299999,0.00045376,0
0.2,0,0,0.299999,-0.000623557,0
0.2,0.1,0,0.3,-0.000501618,0
0.2,0.2,0,0.299999,-0.000438071,0
0.2,0.3,0,0.299999,-0.000436958,0
0.2,0.4,0,0.299999,-0.000432567,0
0.2,0.5,0,0.299996,-0.000440039,0
0.2,0.6,0,0.299999,-0.0004286,0
0.2,0.7,0,0.299997,-0.000432049,0
0.2,0.8,0,0.299996,-0.000428802,0
0.2,0.9,0,0.299998,-0.000422697,0
0.2,1,0,0.299992,-0.00043101,0
0.2,1.1,0,0.299997,-0.000414935,0
0.2,1.2,0,0.299994,-0.000419147,0
0.2,1.3,0,0.299994,-0.000413903,0
0.2,1.4,0,0.299996,-0.0004054,0
0.2,1.5,0,0.299989,-0.000416122,0
0.2,1.6,0,0.299995,-0.000394201,0
0.2,1.7,0,0.299991,-0.000399733,0
0.2,1.8,0,0.299991,-0.000392742,0
0.2,1.9,0,0.299994,-0.00038149,0
0.2,2,0,0.299986,-0.000395412,0
0.2,2.1,0,0.299993,-0.000367468,0
0.2,2.2,0,0.299989,-0.000374397,0
0.2,2.3,0,0.299989,-0.000366104,0
0.2,2.4,0,0.299993,-0.000352389,0
0.2,2.5,0,0.299983,-0.000368849,0
0.2,2.6,0,0.299992,-0.000336564,0
0.2,2.7,0,0.299987,-0.000344112,0
0.2,2.8,0,0.299987,-0.000335195,0
0.2,2.9,0,0.299991,-0.000320352,0
0.2,3,0,0.299981,-0.000336303,0
0.2,3.1,0,0.299991,-0.000304148,0
0.2,3.2,0,0.299986,-0.000310252,0
0.2,3.3,0,0.299987,-0.000301561,0
0.2,3.4,0,0.299992,-0.000288345,0
0.2,3.5,0,0.29998,-0.000297529,0
0.2,3.6,0,0.299994,-0.000273284,0
0.2,3.7,0,0.299987,-0.000274382,0
0.2,3.8,0,0.299989,-0.000266619,0
0.2,3.9,0,0.299998,-0.00025917,0
0.2,4,0,0.299978,-0.0002523,0
0.2,4.1,0,0.300006,-0.000245913,0
0.2,4.2,0,0.299993,-0.000237522,0
0.2,4.3,0,0.299999,-0.000230429,0
0.2,4.4,0,0.300017,-0.000233017,0
0.2,4.5,0,0.299975,-0.00020059,0
0.2,4.6,0,0.300033,-0.000220124,0
0.2,4.7,0,0.300006,-0.000198668,0
0.2,4.8,0,0.300018,-0.000191208,0
0.2,4.9,0,0.300056,-0.000206561,0
0.2,5,0,0.299969,-0.000150016,0
0.2,5.1,0,0.299966,-0.000134404,0
0.2,5.2,0,0.299964,-0.000124046,0
0.2,5.3,0,0.299962,-0.000113614,0
0.2,5.4,0,0.29996,-0.000103132,0
0.2,5.5,0,0.299958,-9.26092e-05,0
0.2,5.6,0,0.299957,-8.20569e-05,0
0.2,5.7,0,0.299955,-7.14844e-05,0
0.2,5.8,0,0.299954,-6.09002e-05,0
0.2,5.9,0,0.299953,-5.0312e-05,0
0.2,6,0,0.299952,-3.97272e-05,0
0.2,6.1,0,0.299951,-2.91531e-05,0
0.2,6.2,0,0.29995,-1.85962e-05,0
0.2,6.3,0,0.29995,-8.06373e-06,0
0.2,6.4,0,0.29995,2.43729e-06,0
0.2,6.5,0,0.29995,1.28994e-05,0
0.2,6.6,0,0.299951,2.33149e-05,0
0.2,6.7,0,0.299951,3.36758e-05,0
0.2,6.8,0,0.299952,4.39757e-05,0
0.2,6.9,0,0.299953,5.41842e-05,0
0.2,7,0,0.299955,7.06644e-05,0
0.2,7.1,0,0.300149,0.000144111,0
0.2,7.2,0,0.300121,0.000137933,0
0.2,7.3,0,0.299984,0.000107622,0
0.2,7.4,0,0.300133,0.000166993,0
0.2,7.5,0,0.300078,0.000155775,0
0.2,7.6,0,0.300005,0.000147903,0
0.2,7.7,0,0.300106,0.000185884,0
0.2,7.8,0,0.300041,0.000176417,0
0.2,7.9,0,0.300016,0.000181718,0
0.2,8,0,0.300079,0.000202575,0
0.2,8.1,0,0.300013,0.000199426,0
0.2,8.2,0,0.300019,0.000209259,0
0.2,8.3,0,0.300054,0.00021785,0
0.2,8.4,0,0.299993,0.000225211,0
0.2,8.5,0,0.300017,0.000231481,0
0.2,8.6,0,0.300033,0.000232982,0
0.2,8.7,0,0.299981,0.000253606,0
0.2,8.8,0,0.300012,0.000249753,0
0.2,8.9,0,0.300014,0.000251603,0
0.2,9,0,0.299979,0.000281267,0
0.2,9.1,0,0.300007,0.000265863,0
0.2,9.2,0,0.300001,0.000275061,0
0.2,9.3,0,0.299983,0.000301932,0
0.2,9.4,0,0.300001,0.000284103,0
0.2,9.5,0,0.299993,0.000300559,0
0.2,9.6,0,0.299985,0.000319802,0
0.2,9.7,0,0.299996,0.000303245,0
0.2,9.8,0,0.299988,0.000326529,0
0.2,9.9,0,0.299987,0.000335942,0
0.2,10,0,0.299994,0.000322757,0
0.2,10.1,0,0.299986,0.000351542,0
0.2,10.2,0,0.29999,0.000351043,0
0.2,10.3,0,0.299994,0.000342022,0
0.2,10.4,0,0.299986,0.000374494,0
0.2,10.5,0,0.299992,0.000365414,0
0.2,10.6,0,0.299994,0.000360437,0
0.2,10.7,0,0.299986,0.000394659,0
0.2,10.8,0,0.299993,0.000379053,0
0.2,10.9,0,0.299993,0.000381579,0
0.2,11,0,0.299988,0.000407114,0
0.2,11.1,0,0.299995,0.000392712,0
0.2,11.2,0,0.299993,0.000399989,0
0.2,11.3,0,0.299991,0.000415856,0
0.2,11.4,0,0.299996,0.000405813,0
0.2,11.5,0,0.299994,0.000414982,0
0.2,11.6,0,0.299993,0.000423327,0
0.2,11.7,0,0.299997,0.000416546,0
0.2,11.8,0,0.299995,0.000426574,0
0.2,11.9,0,0.299996,0.000429212,0
0.2,12,0,0.299998,0.00042474,0
0.2,12.1,0,0.299996,0.000434921,0
0.2,12.2,0,0.299998,0.000433122,0
0.2,12.3,0,0.299999,0.000430265,0
0.2,12.4,0,0.299998,0.000440273,0
0.2,12.5,0,0.3,0.0004347,0
0.2,12.6,0,0.3,0.000514504,0
0.2,12.7,0,0.299999,0.00062361,0
0.3,0,0,0.299998,-0.000793545,0
0.3,0.1,0,0.3,-0.000670755,0
0.3,0.2,0,0.299998,-0.000659234,0
0.3,0.3,0,0.299998,-0.000658121,0
0.3,0.4,0,0.299998,-0.000651839,0
0.3,0.5,0,0.299994,-0.000660059,0
0.3,0.6,0,0.299997,-0.000647476,0
0.3,0.7,0,0.299994,-0.000650181,0
0.3,0.8,0,0.299993,-0.000646934,0
0.3,0.9,0,0.299995,-0.000637371,0
0.3,1,0,0.299989,-0.000646516,0
0.3,1.1,0,0.299994,-0.000628833,0
0.3,1.2,0,0.299989,-0.000631294,0
0.3,1.3,0,0.299989,-0.00062605,0
0.3,1.4,0,0.299991,-0.000612389,0
0.3,1.5,0,0.299983,-0.000624183,0
0.3,1.6,0,0.29999,-0.00060007,0
0.3,1.7,0,0.299985,-0.000602981,0
0.3,1.8,0,0.299985,-0.00059599,0
0.3,1.9,0,0.299988,-0.000577804,0
0.3,2,0,0.299978,-0.000593117,0
0.3,2.1,0,0.299987,-0.000562379,0
0.3,2.2,0,0.299981,-0.000565831,0
0.3,2.3,0,0.299981,-0.000557537,0
0.3,2.4,0,0.299985,-0.000535168,0
0.3,2.5,0,0.299975,-0.000553274,0
0.3,2.6,0,0.299984,-0.00051776,0
0.3,2.7,0,0.299978,-0.00052078,0
0.3,2.8,0,0.299978,-0.000511864,0
0.3,2.9,0,0.299983,-0.000486909,0
0.3,3,0,0.299972,-0.000504455,0
0.3,3.1,0,0.299983,-0.000469084,0
0.3,3.2,0,0.299976,-0.000469109,0
0.3,3.3,0,0.299977,-0.000460417,0
0.3,3.4,0,0.299983,-0.000436191,0
0.3,3.5,0,0.29997,-0.000446293,0
0.3,3.6,0,0.299985,-0.000419624,0
0.3,3.7,0,0.299977,-0.000412244,0
0.3,3.8,0,0.299979,-0.000404481,0
0.3,3.9,0,0.299989,-0.000386007,0
0.3,4,0,0.299968,-0.00037845,0
0.3,4.1,0,0.299998,-0.000371425,0
0.3,4.2,0,0.299982,-0.000351154,0
0.3,4.3,0,0.299988,-0.000344062,0
0.3,4.4,0,0.300008,-0.000336555,0
0.3,4.5,0,0.299963,-0.000300885,0
0.3,4.6,0,0.300027,-0.000322373,0
0.3,4.7,0,0.299992,-0.000284889,0
0.3,4.8,0,0.300004,-0.00027743,0
0.3,4.9,0,0.300049,-0.000287224,0
0.3,5,0,0.299953,-0.000225024,0
0.3,5.1,0,0.299949,-0.000201606,0
0.3,5.2,0,0.299946,-0.00018607,0
0.3,5.3,0,0.299943,-0.000170421,0
0.3,5.4,0,0.29994,-0.000154698,0
0.3,5.5,0,0.299938,-0.000138914,0
0.3,5.6,0,0.299935,-0.000123085,0
0.3,5.7,0,0.299933,-0.000107227,0
0.3,5.8,0,0.299931,-9.13503e-05,0
0.3,5.9,0,0.299929,-7.5468e-05,0
0.3,6,0,0.299928,-5.95908e-05,0
0.3,6.1,0,0.299927,-4.37296e-05,0
0.3,6.2,0,0.299926,-2.78944e-05,0
0.3,6.3,0,0.299925,-1.20956e-05,0
0.3,6.4,0,0.299925,3.65594e-06,0
0.3,6.5,0,0.299925,1.93491e-05,0
0.3,6.6,0,0.299926,3.49724e-05,0
0.3,6.7,0,0.299927,5.05138e-05,0
0.3,6.8,0,0.299928,6.59636e-05,0
0.3,6.9,0,0.29993,8.12763e-05,0
0.3,7,0,0.299933,0.000105997,0
0.3,7.1,0,0.300127,0.000179443,0
0.3,7.2,0,0.3001,0.00018672,0
0.3,7.3,0,0.299963,0.000156409,0
0.3,7.4,0,0.300132,0.000223392,0
0.3,7.5,0,0.30006,0.00022199,0
0.3,7.6,0,0.299986,0.000214118,0
0.3,7.7,0,0.300124,0.000265608,0
0.3,7.8,0,0.300025,0.000259273,0
0.3,7.9,0,0.3,0.000264574,0
0.3,8,0,0.300091,0.000299379,0
0.3,8.1,0,0.299998,0.000298149,0
0.3,8.2,0,0.300005,0.000307983,0
0.3,8.3,0,0.300057,0.000329626,0
0.3,8.4,0,0.29998,0.000338987,0
0.3,8.5,0,0.300004,0.000345257,0
0.3,8.6,0,0.300025,0.000359484,0
0.3,8.7,0,0.299969,0.00038151,0
0.3,8.8,0,0.3,0.000377657,0
0.3,8.9,0,0.300003,0.000392627,0
0.3,9,0,0.299968,0.000422291,0
0.3,9.1,0,0.299996,0.000406674,0
0.3,9.2,0,0.29999,0.000428159,0
0.3,9.3,0,0.299972,0.00045503,0
0.3,9.4,0,0.299994,0.000433712,0
0.3,9.5,0,0.299983,0.000464682,0
0.3,9.6,0,0.299975,0.000483924,0
0.3,9.7,0,0.29999,0.00046217,0
0.3,9.8,0,0.299979,0.000500646,0
0.3,9.9,0,0.299978,0.000510059,0
0.3,10,0,0.299988,0.000494055,0
0.3,10.1,0,0.299977,0.000534652,0
0.3,10.2,0,0.299981,0.000534153,0
0.3,10.3,0,0.299988,0.000526798,0
0.3,10.4,0,0.299977,0.000565624,0
0.3,10.5,0,0.299984,0.000556544,0
0.3,10.6,0,0.299987,0.000558161,0
0.3,10.7,0,0.299978,0.000592856,0
0.3,10.8,0,0.299986,0.00057725,0
0.3,10.9,0,0.299987,0.000585905,0
0.3,11,0,0.299981,0.00061144,0
0.3,11.1,0,0.299989,0.000596059,0
0.3,11.2,0,0.299988,0.000609513,0
0.3,11.3,0,0.299985,0.00062538,0
0.3,11.4,0,0.299992,0.000612609,0
0.3,11.5,0,0.29999,0.000628776,0
0.3,11.6,0,0.299989,0.000637121,0
0.3,11.7,0,0.299994,0.000628254,0
0.3,11.8,0,0.299991,0.000643708,0
0.3,11.9,0,0.299992,0.000646347,0
0.3,12,0,0.299996,0.000640671,0
0.3,12.1,0,0.299994,0.000654455,0
0.3,12.2,0,0.299995,0.000652656,0
0.3,12.3,0,0.299997,0.000649965,0
0.3,12.4,0,0.299997,0.000661257,0
0.3,12.5,0,0.299998,0.000655683,0
0.3,12.6,0,0.299999,0.000684354,0
0.3,12.7,0,0.299998,0.00079346,0
0.4,0,0,0.299998,-0.000963533,0
0.4,0.1,0,0.299998,-0.000879543,0
0.4,0.2,0,0.299997,-0.000880396,0
0.4,0.3,0,0.299997,-0.000879284,0
0.4,0.4,0,0.299995,-0.000875274,0
0.4,0.5,0,0.299992,-0.000880079,0
0.4,0.6,0,0.299993,-0.000870178,0
0.4,0.7,0,0.299991,-0.000868313,0
0.4,0.8,0,0.29999,-0.000865066,0
0.4,0.9,0,0.299989,-0.000857625,0
0.4,1,0,0.299985,-0.000862021,0
0.4,1.1,0,0.299988,-0.000847614,0
0.4,1.2,0,0.299985,-0.000843442,0
0.4,1.3,0,0.299984,-0.000838197,0
0.4,1.4,0,0.299984,-0.000827063,0
0.4,1.5,0,0.299977,-0.000832244,0
0.4,1.6,0,0.299982,-0.000812434,0
0.4,1.7,0,0.299978,-0.000806228,0
0.4,1.8,0,0.299978,-0.000799237,0
0.4,1.9,0,0.299978,-0.000784261,0
0.4,2,0,0.299971,-0.000790823,0
0.4,2.1,0,0.299977,-0.000765474,0
0.4,2.2,0,0.299974,-0.000757264,0
0.4,2.3,0,0.299973,-0.000748971,0
0.4,2.4,0,0.299974,-0.000730259,0
0.4,2.5,0,0.299966,-0.000737698,0
0.4,2.6,0,0.299972,-0.000708055,0
0.4,2.7,0,0.299969,-0.000697449,0
0.4,2.8,0,0.299969,-0.000688533,0
0.4,2.9,0,0.29997,-0.000666605,0
0.4,3,0,0.299962,-0.000672607,0
0.4,3.1,0,0.299969,-0.000641983,0
0.4,3.2,0,0.299967,-0.000627966,0
0.4,3.3,0,0.299967,-0.000619274,0
0.4,3.4,0,0.299969,-0.000595234,0
0.4,3.5,0,0.299959,-0.000595058,0
0.4,3.6,0,0.29997,-0.000569242,0
0.4,3.7,0,0.299966,-0.000550106,0
0.4,3.8,0,0.299968,-0.000542343,0
0.4,3.9,0,0.299972,-0.000517951,0
0.4,4,0,0.299957,-0.000504599,0
0.4,4.1,0,0.299977,-0.000491048,0
0.4,4.2,0,0.29997,-0.000464787,0
0.4,4.3,0,0.299976,-0.000457694,0
0.4,4.4,0,0.299982,-0.000434837,0
0.4,4.5,0,0.29995,-0.00040118,0
0.4,4.6,0,0.299993,-0.00040598,0
0.4,4.7,0,0.299978,-0.000371111,0
0.4,4.8,0,0.29999,-0.000363651,0
0.4,4.9,0,0.300004,-0.000350291,0
0.4,5,0,0.299937,-0.000300032,0
0.4,5.1,0,0.299932,-0.000268808,0
0.4,5.2,0,0.299928,-0.000248093,0
0.4,5.3,0,0.299924,-0.000227229,0
0.4,5.4,0,0.299921,-0.000206263,0
0.4,5.5,0,0.299917,-0.000185218,0
0.4,5.6,0,0.299914,-0.000164114,0
0.4,5.7,0,0.299911,-0.000142969,0
0.4,5.8,0,0.299908,-0.0001218,0
0.4,5.9,0,0.299906,-0.000100624,0
0.4,6,0,0.299904,-7.94545e-05,0
0.4,6.1,0,0.299902,-5.83061e-05,0
0.4,6.2,0,0.299901,-3.71925e-05,0
0.4,6.3,0,0.2999,-1.61275e-05,0
0.4,6.4,0,0.2999,4.87458e-06,0
0.4,6.5,0,0.2999,2.57988e-05,0
0.4,6.6,0,0.299901,4.66298e-05,0
0.4,6.7,0,0.299903,6.73517e-05,0
0.4,6.8,0,0.299904,8.79515e-05,0
0.4,6.9,0,0.299906,0.000108368,0
0.4,7,0,0.29991,0.000141329,0
0.4,7.1,0,0.300062,0.0002042,0
0.4,7.2,0,0.300066,0.000230166,0
0.4,7.3,0,0.299943,0.000205196,0
0.4,7.4,0,0.30005,0.000259749,0
0.4,7.5,0,0.300041,0.000288205,0
0.4,7.6,0,0.299968,0.000280333,0
0.4,7.7,0,0.300036,0.000321737,0
0.4,7.8,0,0.300009,0.000342129,0
0.4,7.9,0,0.299983,0.00034743,0
0.4,8,0,0.300021,0.00037967,0
0.4,8.1,0,0.299984,0.000396872,0
0.4,8.2,0,0.29999,0.000406706,0
0.4,8.3,0,0.300006,0.000434095,0
0.4,8.4,0,0.299967,0.000452763,0
0.4,8.5,0,0.299991,0.000459033,0
0.4,8.6,0,0.299994,0.000485697,0
0.4,8.7,0,0.299957,0.000509414,0
0.4,8.8,0,0.299983,0.000509494,0
0.4,8.9,0,0.299985,0.000534814,0
0.4,9,0,0.299956,0.000563315,0
0.4,9.1,0,0.299978,0.000558312,0
0.4,9.2,0,0.299979,0.000581612,0
0.4,9.3,0,0.299962,0.000608128,0
0.4,9.4,0,0.299974,0.000604815,0
0.4,9.5,0,0.299973,0.000628804,0
0.4,9.6,0,0.299965,0.000648047,0
0.4,9.7,0,0.299972,0.000648786,0
0.4,9.8,0,0.299969,0.000674763,0
0.4,9.9,0,0.299968,0.000684176,0
0.4,10,0,0.299972,0.000689903,0
0.4,10.1,0,0.299968,0.000717762,0
0.4,10.2,0,0.299972,0.000717263,0
0.4,10.3,0,0.299975,0.000727798,0
0.4,10.4,0,0.299969,0.000756753,0
0.4,10.5,0,0.299975,0.000748462,0
0.4,10.6,0,0.299977,0.0007621,0
0.4,10.7,0,0.299971,0.000791053,0
0.4,10.8,0,0.299977,0.000780643,0
0.4,10.9,0,0.299979,0.000792471,0
0.4,11,0,0.299975,0.000815766,0
0.4,11.1,0,0.29998,0.000808586,0
0.4,11.2,0,0.299982,0.000819038,0
0.4,11.3,0,0.29998,0.000834904,0
0.4,11.4,0,0.299984,0.000832066,0
0.4,11.5,0,0.299985,0.00084257,0
0.4,11.6,0,0.299984,0.000850915,0
0.4,11.7,0,0.299988,0.000850909,0
0.4,11.8,0,0.299988,0.000860843,0
0.4,11.9,0,0.299989,0.000863481,0
0.4,12,0,0.299991,0.00086497,0
0.4,12.1,0,0.299991,0.000873989,0
0.4,12.2,0,0.299993,0.00087219,0
0.4,12.3,0,0.299995,0.000874115,0
0.4,12.4,0,0.299995,0.00088224,0
0.4,12.5,0,0.299997,0.000877356,0
0.4,12.6,0,0.299998,0.000878296,0
0.4,12.7,0,0.299997,0.00096331,0
0.5,0,0,0.299997,-0.00113352,0
0.5,0.1,0,0.299997,-0.00110496,0
0.5,0.2,0,0.299996,-0.00110411,0
0.5,0.3,0,0.299995,-0.00110269,0
0.5,0.4,0,0.299993,-0.00110017,0
0.5,0.5,0,0.29999,-0.0011001,0
0.5,0.6,0,0.299989,-0.00109403,0
0.5,0.7,0,0.299987,-0.00108988,0
0.5,0.8,0,0.299986,-0.00108569,0
0.5,0.9,0,0.299984,-0.00107991,0
0.5,1,0,0.299981,-0.00107753,0
0.5,1.1,0,0.299981,-0.0010678,0
0.5,1.2,0,0.299979,-0.00106041,0
0.5,1.3,0,0.299977,-0.00105356,0
0.5,1.4,0,0.299975,-0.00104457,0
0.5,1.5,0,0.299972,-0.0010403,0
0.5,1.6,0,0.299972,-0.00102664,0
0.5,1.7,0,0.29997,-0.00101605,0
0.5,1.8,0,0.299969,-0.00100666,0
0.5,1.9,0,0.299967,-0.000994469,0
0.5,2,0,0.299964,-0.000988529,0
0.5,2.1,0,0.299965,-0.00097088,0
0.5,2.2,0,0.299963,-0.00095708,0
0.5,2.3,0,0.299962,-0.000945342,0
0.5,2.4,0,0.299961,-0.000929923,0
0.5,2.5,0,0.299957,-0.000922123,0
0.5,2.6,0,0.299959,-0.000900866,0
0.5,2.7,0,0.299958,-0.000883803,0
0.5,2.8,0,0.299957,-0.000869987,0
0.5,2.9,0,0.299956,-0.000851249,0
0.5,3,0,0.299952,-0.000840758,0
0.5,3.1,0,0.299954,-0.000816918,0
0.5,3.2,0,0.299954,-0.000796469,0
0.5,3.3,0,0.299953,-0.000780886,0
0.5,3.4,0,0.299953,-0.000758683,0
0.5,3.5,0,0.299949,-0.000743822,0
0.5,3.6,0,0.299952,-0.000719227,0
0.5,3.7,0,0.299952,-0.000695241,0
0.5,3.8,0,0.299952,-0.000678144,0
0.5,3.9,0,0.299951,-0.000652378,0
0.5,4,0,0.299946,-0.000630749,0
0.5,4.1,0,0.299952,-0.000607874,0
0.5,4.2,0,0.29995,-0.000580336,0
0.5,4.3,0,0.299952,-0.000561599,0
0.5,4.4,0,0.29995,-0.000532256,0
0.5,4.5,0,0.299938,-0.000501475,0
0.5,4.6,0,0.29995,-0.000482434,0
0.5,4.7,0,0.299946,-0.000451472,0
0.5,4.8,0,0.29995,-0.000432909,0
0.5,4.9,0,0.299946,-0.00040824,0
0.5,5,0,0.299922,-0.00037504,0
0.5,5.1,0,0.299915,-0.00033601,0
0.5,5.2,0,0.29991,-0.000310116,0
0.5,5.3,0,0.299905,-0.000284036,0
0.5,5.4,0,0.299901,-0.000257829,0
0.5,5.5,0,0.299896,-0.000231523,0
0.5,5.6,0,0.299892,-0.000205142,0
0.5,5.7,0,0.299889,-0.000178711,0
0.5,5.8,0,0.299885,-0.00015225,0
0.5,5.9,0,0.299882,-0.00012578,0
0.5,6,0,0.29988,-9.93181e-05,0
0.5,6.1,0,0.299877,-7.28826e-05,0
0.5,6.2,0,0.299876,-4.64906e-05,0
0.5,6.3,0,0.299875,-2.01593e-05,0
0.5,6.4,0,0.299875,6.09323e-06,0
0.5,6.5,0,0.299875,3.22485e-05,0
0.5,6.6,0,0.299876,5.82873e-05,0
0.5,6.7,0,0.299878,8.41896e-05,0
0.5,6.8,0,0.29988,0.000109939,0
0.5,6.9,0,0.299883,0.00013546,0
0.5,7,0,0.299888,0.000176661,0
0.5,7.1,0,0.299941,0.000214928,0
0.5,7.2,0,0.299944,0.000240894,0
0.5,7.3,0,0.299922,0.000253983,0
0.5,7.4,0,0.299945,0.000291254,0
0.5,7.5,0,0.299949,0.000324887,0
0.5,7.6,0,0.299944,0.000345752,0
0.5,7.7,0,0.299948,0.000377866,0
0.5,7.8,0,0.299952,0.00040998,0
0.5,7.9,0,0.299947,0.000429341,0
0.5,8,0,0.299951,0.000459962,0
0.5,8.1,0,0.299954,0.000490584,0
0.5,8.2,0,0.299949,0.00050862,0
0.5,8.3,0,0.299952,0.000537669,0
0.5,8.4,0,0.299954,0.000566538,0
0.5,8.5,0,0.299951,0.000583621,0
0.5,8.6,0,0.299953,0.000610886,0
0.5,8.7,0,0.299945,0.000637318,0
0.5,8.8,0,0.299951,0.000654005,0
0.5,8.9,0,0.299953,0.000679324,0
0.5,9,0,0.299945,0.00070434,0
0.5,9.1,0,0.299952,0.000719502,0
0.5,9.2,0,0.299953,0.000742803,0
0.5,9.3,0,0.299951,0.000761226,0
0.5,9.4,0,0.299953,0.000779984,0
0.5,9.5,0,0.299954,0.00080126,0
0.5,9.6,0,0.299954,0.000816116,0
0.5,9.7,0,0.299955,0.000835403,0
0.5,9.8,0,0.299955,0.000854691,0
0.5,9.9,0,0.299955,0.000868397,0
0.5,10,0,0.299957,0.000885752,0
0.5,10.1,0,0.299958,0.000903107,0
0.5,10.2,0,0.299959,0.00091555,0
0.5,10.3,0,0.29996,0.000931027,0
0.5,10.4,0,0.299961,0.000947883,0
0.5,10.5,0,0.299963,0.00095757,0
0.5,10.6,0,0.299964,0.000971208,0
0.5,10.7,0,0.299963,0.00098925,0
0.5,10.8,0,0.299966,0.000994427,0
0.5,10.9,0,0.299968,0.00100626,0
0.5,11,0,0.299968,0.00102009,0
0.5,11.1,0,0.299971,0.00102608,0
0.5,11.2,0,0.299973,0.00103611,0
0.5,11.3,0,0.299974,0.00104443,0
0.5,11.4,0,0.299976,0.00105248,0
0.5,11.5,0,0.299978,0.00106072,0
0.5,11.6,0,0.29998,0.00106712,0
0.5,11.7,0,0.299982,0.00107357,0
0.5,11.8,0,0.299984,0.00108001,0
0.5,11.9,0,0.299985,0.00108464,0
0.5,12,0,0.299987,0.00108927,0
0.5,12.1,0,0.299989,0.0010939,0
0.5,12.2,0,0.29999,0.0010967,0
0.5,12.3,0,0.299992,0.0010995,0
0.5,12.4,0,0.299994,0.00110322,0
0.5,12.5,0,0.299995,0.00110326,0
0.5,12.6,0,0.299996,0.0011042,0
0.5,12.7,0,0.299997,0.00113316,0
0.6,0,0,0.299996,-0.00133093,0
0.6,0.1,0,0.299996,-0.00133076,0
0.6,0.2,0,0.299995,-0.00132991,0
0.6,0.3,0,0.299992,-0.00132796,0
0.6,0.4,0,0.29999,-0.00132544,0
0.6,0.5,0,0.299987,-0.00132161,0
0.6,0.6,0,0.299985,-0.00131825,0
0.6,0.7,0,0.299983,-0.0013141,0
0.6,0.8,0,0.29998,-0.00130835,0
0.6,0.9,0,0.299978,-0.00130257,0
0.6,1,0,0.299974,-0.00129424,0
0.6,1.1,0,0.299973,-0.00128835,0
0.6,1.2,0,0.299971,-0.00128096,0
0.6,1.3,0,0.299969,-0.00127143,0
0.6,1.4,0,0.299967,-0.00126244,0
0.6,1.5,0,0.299961,-0.00124913,0
0.6,1.6,0,0.299962,-0.00124121,0
0.6,1.7,0,0.299961,-0.00123062,0
0.6,1.8,0,0.299958,-0.00121723,0
0.6,1.9,0,0.299957,-0.00120504,0
0.6,2,0,0.29995,-0.0011864,0
0.6,2.1,0,0.299953,-0.00117665,0
0.6,2.2,0,0.299952,-0.00116285,0
0.6,2.3,0,0.29995,-0.00114538,0
0.6,2.4,0,0.299948,-0.00112996,0
0.6,2.5,0,0.299941,-0.00110605,0
0.6,2.6,0,0.299945,-0.00109405,0
0.6,2.7,0,0.299944,-0.00107699,0
0.6,2.8,0,0.299943,-0.00105501,0
0.6,2.9,0,0.299942,-0.00103628,0
0.6,3,0,0.299933,-0.00100787,0
0.6,3.1,0,0.299939,-0.000992247,0
0.6,3.2,0,0.299939,-0.000971798,0
0.6,3.3,0,0.299937,-0.000944738,0
0.6,3.4,0,0.299937,-0.000922535,0
0.6,3.5,0,0.299927,-0.000891496,0
0.6,3.6,0,0.299935,-0.000869619,0
0.6,3.7,0,0.299934,-0.000845633,0
0.6,3.8,0,0.299932,-0.000812974,0
0.6,3.9,0,0.299931,-0.000787207,0
0.6,4,0,0.299921,-0.000756687,0
0.6,4.1,0,0.299927,-0.000725102,0
0.6,4.2,0,0.299926,-0.000697564,0
0.6,4.3,0,0.29992,-0.000659436,0
0.6,4.4,0,0.299918,-0.000630093,0
0.6,4.5,0,0.299911,-0.000603808,0
0.6,4.6,0,0.299907,-0.000559207,0
0.6,4.7,0,0.299903,-0.000528245,0
0.6,4.8,0,0.299892,-0.00048768,0
0.6,4.9,0,0.299888,-0.00046301,0
0.6,5,0,0.299894,-0.000454718,0
0.6,5.1,0,0.299886,-0.000407665,0
0.6,5.2,0,0.299882,-0.000376276,0
0.6,5.3,0,0.299877,-0.000344644,0
0.6,5.4,0,0.299872,-0.000312828,0
0.6,5.5,0,0.299867,-0.00028086,0
0.6,5.6,0,0.299864,-0.000248768,0
0.6,5.7,0,0.29986,-0.000216581,0
0.6,5.8,0,0.299856,-0.000184325,0
0.6,5.9,0,0.299853,-0.000152025,0
0.6,6,0,0.299851,-0.000119704,0
0.6,6.1,0,0.299849,-8.73859e-05,0
0.6,6.2,0,0.299848,-5.50933e-05,0
0.6,6.3,0,0.299847,-2.28492e-05,0
0.6,6.4,0,0.299847,9.32262e-06,0
0.6,6.5,0,0.299847,4.1398e-05,0
0.6,6.6,0,0.299848,7.33519e-05,0
0.6,6.7,0,0.29985,0.000105159,0
0.6,6.8,0,0.299852,0.000136797,0
0.6,6.9,0,0.299855,0.000168188,0
0.6,7,0,0.299861,0.00021849,0
0.6,7.1,0,0.299819,0.00022129,0
0.6,7.2,0,0.299823,0.000247255,0
0.6,7.3,0,0.29985,0.000295357,0
0.6,7.4,0,0.299839,0.000323153,0
0.6,7.5,0,0.299844,0.000356786,0
0.6,7.6,0,0.299857,0.000402274,0
0.6,7.7,0,0.299861,0.000434388,0
0.6,7.8,0,0.299865,0.000466502,0
0.6,7.9,0,0.299877,0.000510013,0
0.6,8,0,0.299881,0.000540635,0
0.6,8.1,0,0.299884,0.000571256,0
0.6,8.2,0,0.299895,0.000612629,0
0.6,8.3,0,0.299898,0.000641677,0
0.6,8.4,0,0.299901,0.000670858,0
0.6,8.5,0,0.299909,0.000709299,0
0.6,8.6,0,0.299911,0.000736564,0
0.6,8.7,0,0.299915,0.000763321,0
0.6,8.8,0,0.299919,0.000799034,0
0.6,8.9,0,0.299921,0.000824353,0
0.6,9,0,0.299922,0.000847623,0
0.6,9.1,0,0.299927,0.00088122,0
0.6,9.2,0,0.299928,0.000904521,0
0.6,9.3,0,0.29993,0.000931246,0
0.6,9.4,0,0.299932,0.000955675,0
0.6,9.5,0,0.299933,0.00097695,0
0.6,9.6,0,0.299936,0.00100324,0
0.6,9.7,0,0.299937,0.00102253,0
0.6,9.8,0,0.299937,0.00104182,0
0.6,9.9,0,0.29994,0.00106474,0
0.6,10,0,0.299941,0.00108209,0
0.6,10.1,0,0.299942,0.00109945,0
0.6,10.2,0,0.299945,0.00111926,0
0.6,10.3,0,0.299946,0.00113474,0
0.6,10.4,0,0.299947,0.00114854,0
0.6,10.5,0,0.29995,0.00116715,0
0.6,10.6,0,0.299951,0.00118079,0
0.6,10.7,0,0.29995,0.00118943,0
0.6,10.8,0,0.299955,0.00120868,0
0.6,10.9,0,0.299957,0.00122051,0
0.6,11,0,0.299957,0.0012298,0
0.6,11.1,0,0.299961,0.00124404,0
0.6,11.2,0,0.299963,0.00125407,0
0.6,11.3,0,0.299966,0.00126493,0
0.6,11.4,0,0.299968,0.00127335,0
0.6,11.5,0,0.29997,0.00128159,0
0.6,11.6,0,0.299973,0.00129024,0
0.6,11.7,0,0.299975,0.00129669,0
0.6,11.8,0,0.299977,0.00130313,0
0.6,11.9,0,0.29998,0.00130941,0
0.6,12,0,0.299982,0.00131404,0
0.6,12.1,0,0.299984,0.00131867,0
0.6,12.2,0,0.299987,0.00132256,0
0.6,12.3,0,0.29999,0.00132536,0
0.6,12.4,0,0.299992,0.00132769,0
0.6,12.5,0,0.299994,0.00132964,0
0.6,12.6,0,0.299995,0.00133058,0
0.6,12.7,0,0.299995,0.00133044,0
0.7,0,0,0.299994,-0.00155575,0
0.7,0.1,0,0.299995,-0.00155695,0
0.7,0.2,0,0.299993,-0.00155536,0
0.7,0.3,0,0.29999,-0.00155308,0
0.7,0.4,0,0.299988,-0.00155109,0
0.7,0.5,0,0.299981,-0.0015446,0
0.7,0.6,0,0.299981,-0.00154285,0
0.7,0.7,0,0.299977,-0.0015372,0
0.7,0.8,0,0.299974,-0.0015305,0
0.7,0.9,0,0.299973,-0.00152559,0
0.7,1,0,0.299964,-0.00151216,0
0.7,1.1,0,0.299966,-0.00150926,0
0.7,1.2,0,0.299962,-0.00149918,0
0.7,1.3,0,0.299958,-0.00148804,0
0.7,1.4,0,0.299958,-0.00148068,0
0.7,1.5,0,0.299946,-0.00145873,0
0.7,1.6,0,0.299953,-0.00145615,0
0.7,1.7,0,0.299948,-0.00144127,0
0.7,1.8,0,0.299945,-0.00142548,0
0.7,1.9,0,0.299946,-0.00141598,0
0.7,2,0,0.29993,-0.00138445,0
0.7,2.1,0,0.299941,-0.00138279,0
0.7,2.2,0,0.299935,-0.00136297,0
0.7,2.3,0,0.299933,-0.00134206,0
0.7,2.4,0,0.299936,-0.00133036,0
0.7,2.5,0,0.299915,-0.00128947,0
0.7,2.6,0,0.299931,-0.00128762,0
0.7,2.7,0,0.299925,-0.00126315,0
0.7,2.8,0,0.299923,-0.00123629,0
0.7,2.9,0,0.299927,-0.00122169,0
0.7,3,0,0.299903,-0.00117395,0
0.7,3.1,0,0.299924,-0.00116797,0
0.7,3.2,0,0.299917,-0.00113985,0
0.7,3.3,0,0.299915,-0.00110591,0
0.7,3.4,0,0.299921,-0.00108679,0
0.7,3.5,0,0.299893,-0.00103808,0
0.7,3.6,0,0.299917,-0.00102042,0
0.7,3.7,0,0.299909,-0.000990623,0
0.7,3.8,0,0.299905,-0.000948623,0
0.7,3.9,0,0.299911,-0.000922439,0
0.7,4,0,0.299883,-0.000882413,0
0.7,4.1,0,0.299902,-0.000842733,0
0.7,4.2,0,0.299895,-0.000814159,0
0.7,4.3,0,0.299885,-0.000764405,0
0.7,4.4,0,0.299886,-0.000728348,0
0.7,4.5,0,0.299871,-0.000708178,0
0.7,4.6,0,0.299864,-0.000636297,0
0.7,4.7,0,0.299862,-0.00061199,0
0.7,4.8,0,0.299841,-0.000556127,0
0.7,4.9,0,0.29983,-0.000514603,0
0.7,5,0,0.299854,-0.000539065,0
0.7,5.1,0,0.299847,-0.000483774,0
0.7,5.2,0,0.299843,-0.000446573,0
0.7,5.3,0,0.299839,-0.000409053,0
0.7,5.4,0,0.299835,-0.000371261,0
0.7,5.5,0,0.299831,-0.000333229,0
0.7,5.6,0,0.299828,-0.000294991,0
0.7,5.7,0,0.299825,-0.000256579,0
0.7,5.8,0,0.299822,-0.000218025,0
0.7,5.9,0,0.299819,-0.000179359,0
0.7,6,0,0.299817,-0.000140612,0
0.7,6.1,0,0.299816,-0.000101816,0
0.7,6.2,0,0.299815,-6.30006e-05,0
0.7,6.3,0,0.299815,-2.41971e-05,0
0.7,6.4,0,0.299815,1.45628e-05,0
0.7,6.5,0,0.299815,5.32471e-05,0
0.7,6.6,0,0.299817,9.18236e-05,0
0.7,6.7,0,0.299819,0.000130259,0
0.7,6.8,0,0.29982,0.000168523,0
0.7,6.9,0,0.299823,0.000206551,0
0.7,7,0,0.299829,0.000266815,0
0.7,7.1,0,0.299697,0.000223283,0
0.7,7.2,0,0.2997,0.000249249,0
0.7,7.3,0,0.299817,0.000355376,0