/*--------------------------------*- C++ -*----------------------------------*\
| =========                 |                                                 |
| \\      /  F ield         | OpenFOAM: The Open Source CFD Toolbox           |
|  \\    /   O peration     | Version:  v1806                                 |
|   \\  /    A nd           | Web:      www.OpenFOAM.com                      |
|    \\/     M anipulation  |                                                 |
\*---------------------------------------------------------------------------*/
FoamFile
{
    version     2.0;
    format      ascii;
    class       surfaceScalarField;
    location    "370";
    object      phi;
}
// * * * * * * * * * * * * * * * * * * * * * * * * * * * * * * * * * * * * * //

dimensions      [0 3 -1 0 0 0 0];
oriented        oriented;


internalField   nonuniform List<scalar> 
4680
(
0.0749994
-5.00775e-05
0.0749987
-0.000594673
0.0749945
-0.00063714
0.0749917
-0.00131437
0.0749821
-0.00132324
0.0749762
-0.00221195
0.0749582
-0.002218
0.0749484
-0.00340546
0.0749177
-0.0034606
0.074903
-0.00504226
0.0748541
-0.00523499
0.0748345
-0.00728996
0.0747636
-0.00775491
0.0747422
-0.0102775
0.0746557
-0.0111624
0.0746449
-0.0139065
0.0745805
-0.0152034
0.0746109
-0.0174528
0.074645
-0.0185666
-0.0191472
0.0747647
0.0749986
-4.8665e-05
0.074997
-0.00059313
0.0749898
-0.000629927
0.0749852
-0.0013097
0.0749701
-0.00130816
0.074962
-0.00220387
0.0749347
-0.0021907
0.074923
-0.00339375
0.0748771
-0.00341467
0.0748624
-0.00502761
0.0747896
-0.00516218
0.0747754
-0.0072758
0.0746698
-0.00764927
0.0746669
-0.0102746
0.07454
-0.0110355
0.0745738
-0.0139404
0.0744892
-0.0151188
0.0746009
-0.0175645
0.0746903
-0.0186561
-0.0193625
0.0749056
0.0749979
-4.65166e-05
0.0749951
-0.000590419
0.074984
-0.000618792
0.0749768
-0.00130246
0.0749541
-0.00128554
0.0749427
-0.00219244
0.0749025
-0.00215052
0.0748875
-0.00337872
0.0748206
-0.00334776
0.0748044
-0.00501138
0.0746989
-0.00505674
0.0746889
-0.00726583
0.0745367
-0.00749702
0.0745527
-0.0102906
0.0743713
-0.0108541
0.0744558
-0.0140249
0.074339
-0.015002
0.0745512
-0.0177767
0.0746954
-0.0188002
-0.0197053
0.0750381
0.0749973
-4.38241e-05
0.0749931
-0.000586198
0.0749783
-0.000603972
0.0749677
-0.00129186
0.0749376
-0.00125551
0.0749214
-0.00217614
0.0748683
-0.00209751
0.0748474
-0.00335781
0.0747596
-0.00325995
0.0747379
-0.00498963
0.0745999
-0.00491877
0.0745884
-0.00725437
0.0743893
-0.00729791
0.0744174
-0.0103187
0.0741788
-0.0106155
0.0743096
-0.0141556
0.0741521
-0.0148445
0.0744714
-0.0180959
0.0746612
-0.01899
-0.020199
0.075155
0.074997
-4.08176e-05
0.0749909
-0.000580134
0.0749729
-0.000585929
0.0749583
-0.00127733
0.0749216
-0.00121872
0.0748993
-0.00215387
0.0748344
-0.0020326
0.0748057
-0.00332912
0.0746983
-0.00315254
0.0746679
-0.00495928
0.074499
-0.00474989
0.0744815
-0.00723682
0.0742365
-0.00705294
0.0742709
-0.0103531
0.0739726
-0.0103172
0.074146
-0.0143291
0.0739359
-0.0146345
0.074371
-0.018531
0.0745901
-0.0192091
-0.0208664
0.0752575
0.074997
-3.7777e-05
0.0749886
-0.000571824
0.074968
-0.000565273
0.0749489
-0.0012582
0.0749063
-0.00117614
0.0748769
-0.0021245
0.0748016
-0.00195727
0.0747633
-0.00329079
0.0746384
-0.00302764
0.0745964
-0.00491733
0.0743992
-0.00455272
0.0743711
-0.0072087
0.0740823
-0.00676413
0.0741171
-0.0103878
0.0737567
-0.00995681
0.0739686
-0.014541
0.0736925
-0.0143583
0.074253
-0.0190915
0.0744796
-0.0194357
-0.0217371
0.0753503
0.0749973
-3.5036e-05
0.0749862
-0.000560787
0.0749637
-0.000542744
0.0749392
-0.00123375
0.0748921
-0.00112897
0.0748544
-0.00208682
0.0747705
-0.0018734
0.0747205
-0.00324079
0.0745809
-0.00288797
0.0745241
-0.0048606
0.0743021
-0.00433066
0.0742585
-0.00716508
0.0739287
-0.00643439
0.0739569
-0.010416
0.0735331
-0.00953299
0.0737771
-0.0147849
0.073421
-0.0140022
0.0741159
-0.0197864
0.0743242
-0.019644
-0.0228512
0.0754383
0.0749979
-3.29754e-05
0.0749836
-0.00054647
0.0749601
-0.000519196
0.0749294
-0.00120309
0.0748791
-0.00107866
0.0748317
-0.00203937
0.0747415
-0.00178327
0.0746775
-0.00317682
0.0745264
-0.00273685
0.0744513
-0.00478543
0.0742086
-0.00408796
0.0741438
-0.00710035
0.0737771
-0.00606765
0.0737904
-0.0104293
0.0733028
-0.0090454
0.0735694
-0.0150516
0.0731199
-0.0135527
0.0739556
-0.0206222
0.0741159
-0.0198042
-0.0242617
0.0755263
0.074999
-3.20018e-05
0.0749808
-0.000528274
0.0749572
-0.00049558
0.0749194
-0.00116526
0.0748676
-0.00102683
0.0748087
-0.00198049
0.0747149
-0.00168953
0.0746342
-0.0030961
0.0744757
-0.0025783
0.0743777
-0.00468743
0.0741197
-0.00382995
0.074027
-0.00700771
0.0736287
-0.00566929
0.0736169
-0.0104175
0.0730667
-0.00849525
0.0733431
-0.0153279
0.0727872
-0.0129969
0.0737664
-0.0216014
0.0738442
-0.0198821
-0.0260381
0.0756207
0.0750005
-3.25077e-05
0.0749778
-0.000505606
0.0749551
-0.000472877
0.0749091
-0.00111922
0.0748575
-0.000975282
0.0747853
-0.0019083
0.0746911
-0.0015953
0.0745904
-0.00299536
0.0744294
-0.00241728
0.074303
-0.00456109
0.0740367
-0.00356366
0.0739075
-0.00687848
0.0734853
-0.00524712
0.0734354
-0.0103676
0.0728263
-0.00788613
0.0730956
-0.0155972
0.0724212
-0.0123224
0.0735413
-0.0227215
0.0734972
-0.019838
-0.0282712
0.0757302
0.0750023
-3.48036e-05
0.0749747
-0.000477975
0.0749538
-0.000451985
0.0748986
-0.001064
0.0748491
-0.000925808
0.0747616
-0.00182083
0.0746703
-0.00150399
0.0745457
-0.00287076
0.0743882
-0.00225977
0.0742265
-0.00439942
0.0739613
-0.00329846
0.0737837
-0.00670085
0.0733497
-0.00481309
0.0732439
-0.0102619
0.0725842
-0.00722641
0.0728243
-0.0158373
0.0720195
-0.0115176
0.0732744
-0.0239764
0.0730596
-0.0196232
-0.0310774
0.0758658
0.0750042
-3.90244e-05
0.0749714
-0.000445123
0.0749529
-0.00043356
0.0748879
-0.000998957
0.074842
-0.000879908
0.0747376
-0.00171645
0.0746525
-0.00141889
0.0745001
-0.00271837
0.0743529
-0.00211255
0.0741474
-0.00419393
0.0738955
-0.00304657
0.0736533
-0.00645864
0.0732259
-0.00438564
0.0730378
-0.0100738
0.0723459
-0.00653452
0.0725239
-0.0160153
0.0715812
-0.010575
0.072963
-0.0253582
0.0725085
-0.0191687
-0.0346102
0.0760414
0.075006
-4.50236e-05
0.0749681
-0.000407189
0.0749523
-0.000417803
0.0748774
-0.000924036
0.0748359
-0.000838419
0.0747138
-0.00159439
0.0746373
-0.0013423
0.0744543
-0.00253538
0.0743232
-0.00198152
0.0740654
-0.00393614
0.0738413
-0.00282241
0.0735136
-0.00613093
0.0731194
-0.00399149
0.0728086
-0.00976297
0.0721211
-0.00584704
0.0721805
-0.0160746
0.0711114
-0.00950592
0.0726047
-0.0268515
0.0718035
-0.0183675
-0.0390947
0.076288
0.0750073
-5.22863e-05
0.0749649
-0.000364862
0.0749514
-0.00040426
0.0748675
-0.000840094
0.0748301
-0.000801079
0.0746911
-0.00145537
0.0746236
-0.00127481
0.0744096
-0.00232134
0.0742978
-0.00186975
0.0739829
-0.00362128
0.0737972
-0.00263671
0.0733638
-0.00569747
0.0730365
-0.0036642
0.0725449
-0.00927133
0.0719241
-0.00522629
0.0717635
-0.015914
0.07063
-0.00837238
0.0721772
-0.0283986
0.0708837
-0.0170741
-0.0449175
0.0767065
0.0750076
-5.9904e-05
0.0749622
-0.000319441
0.0749497
-0.000391716
0.0748586
-0.000749085
0.0748238
-0.000766214
0.0746706
-0.00130216
0.0746101
-0.00121439
0.0743683
-0.00207951
0.0742743
-0.00177578
0.0739042
-0.0032511
0.0737594
-0.00249195
0.0732125
-0.00515056
0.0729733
-0.00342502
0.0722425
-0.00854056
0.0717722
-0.00475596
0.0712215
-0.0153633
0.0701765
-0.00732738
0.0715843
-0.0298065
0.0696993
-0.0151891
-0.0527882
0.07757
0.0750067
-6.66486e-05
0.0749601
-0.000272749
0.0749466
-0.000378289
0.0748515
-0.000653984
0.0748161
-0.000730777
0.0746535
-0.0011396
0.0745953
-0.00115618
0.0743333
-0.00181752
0.0742498
-0.00169221
0.0738352
-0.00283656
0.0737219
-0.00237863
0.0730722
-0.0045009
0.0729158
-0.00326858
0.071934
-0.00755874
0.0716714
-0.00449338
0.0704944
-0.0141863
0.0697951
-0.00662813
0.0705927
-0.030604
0.0683151
-0.0129115
-0.0638033
0.0793302
0.0750045
-7.1154e-05
0.0749586
-0.000226871
0.0749421
-0.000361737
0.0748465
-0.000558364
0.0748065
-0.00069084
0.0746409
-0.000974005
0.0745779
-0.0010932
0.0743069
-0.00154653
0.0742212
-0.00160651
0.0737822
-0.00239748
0.0736779
-0.00227439
0.0729595
-0.00378243
0.0728489
-0.00315798
0.0716591
-0.00636894
0.0715593
-0.00439358
0.0697063
-0.0123333
0.0695105
-0.00643231
0.0688529
-0.0299464
0.0670272
-0.0110858
-0.0788858
0.0821097
0.075001
-7.21449e-05
0.074958
-0.000183845
0.0749361
-0.000339863
0.0748435
-0.000465802
0.0747951
-0.000642387
0.074633
-0.000811976
0.0745577
-0.00101786
0.0742901
-0.00127896
0.0741876
-0.00150392
0.0737483
-0.00195826
0.0736233
-0.00214939
0.0728864
-0.0030455
0.0727583
-0.00302991
0.0714659
-0.00507651
0.0713942
-0.00432187
0.0690279
-0.00996702
0.0692331
-0.00663758
0.0660521
-0.0267654
0.0662708
-0.0113045
-0.0968521
0.0842371
0.0749965
-6.86431e-05
0.074958
-0.000145373
0.0749291
-0.000310964
0.0748425
-0.000379187
0.0747824
-0.00058227
0.0746294
-0.000658969
0.0745355
-0.000923994
0.0742819
-0.00102535
0.07415
-0.00137201
0.073732
-0.00154028
0.0735596
-0.00197698
0.0728521
-0.00233803
0.0726429
-0.00282062
0.0713724
-0.00380609
0.0711489
-0.00409838
0.0686194
-0.0074375
0.0685882
-0.00660629
0.063301
-0.0214783
0.0659289
-0.0139323
-0.111362
0.0804383
0.0749904
-5.90715e-05
0.0749609
-0.000115866
0.0749196
-0.000269645
0.0748456
-0.000305168
0.0747659
-0.00050261
0.074633
-0.000526041
0.0745076
-0.000798565
0.0742863
-0.000804075
0.0741032
-0.00118896
0.0737376
-0.00117464
0.0734809
-0.00172028
0.0728572
-0.00171429
0.0725022
-0.00246571
0.0713608
-0.00266467
0.070845
-0.00358256
0.0684777
-0.00507017
0.0675794
-0.00570804
0.0614708
-0.0153697
0.0632585
-0.01572
0.058522
-0.106625
0.074793
-0.00250801
0.074812
-0.00248934
0.0748323
-0.00247176
0.0748534
-0.00245109
0.074875
-0.00242758
0.074897
-0.00240136
0.0749193
-0.00237246
0.0749417
-0.00234096
0.074964
-0.00230689
-0.00227021
0.0749852
0.0749341
-0.00253653
0.0749669
-0.00252206
0.0749997
-0.00250465
0.0750329
-0.0024842
0.0750661
-0.00246079
0.0750992
-0.00243447
0.075132
-0.00240531
0.0751645
-0.00237343
0.0751965
-0.00233889
-0.00230209
0.0752284
0.0750877
-0.00258614
0.0751382
-0.00257253
0.0751887
-0.00255515
0.0752389
-0.00253444
0.0752887
-0.00251052
0.0753377
-0.00248346
0.0753857
-0.00245335
0.0754326
-0.0024203
0.0754781
-0.00238439
-0.00234595
0.0755219
0.075226
-0.00265716
0.0752968
-0.00264333
0.0753673
-0.00262568
0.0754372
-0.0026043
0.075506
-0.00257935
0.0755735
-0.00255094
0.0756393
-0.00251916
0.0757031
-0.00248414
0.0757647
-0.002446
-0.00240515
0.0758239
0.0753518
-0.00275153
0.075446
-0.00273745
0.0755394
-0.00271908
0.0756315
-0.00269645
0.075722
-0.00266982
0.0758103
-0.00263928
0.0758961
-0.00260494
0.075979
-0.00256699
0.0760585
-0.00252557
-0.0024812
0.0761346
0.0754721
-0.00287331
0.0755931
-0.0028585
0.0757128
-0.00283872
0.0758304
-0.00281404
0.0759453
-0.00278479
0.0760571
-0.00275109
0.0761653
-0.00271307
0.0762693
-0.00267098
0.0763687
-0.00262498
-0.00257575
0.0764632
0.0755924
-0.00302743
0.0757449
-0.003011
0.075895
-0.00298882
0.0760419
-0.00296094
0.076185
-0.00292785
0.0763235
-0.00288963
0.0764569
-0.00284645
0.0765846
-0.00279864
0.076706
-0.00274643
-0.00269067
0.076821
0.075719
-0.0032201
0.0759087
-0.0032007
0.0760945
-0.00317468
0.0762756
-0.00314203
0.0764511
-0.00310339
0.0766203
-0.00305883
0.0767824
-0.00300854
0.0769367
-0.00295296
0.0770827
-0.00289241
-0.00282799
0.07722
0.0758597
-0.00345908
0.0760937
-0.00343468
0.0763218
-0.00340278
0.0765429
-0.00336317
0.0767562
-0.00331668
0.0769607
-0.00326332
0.0771555
-0.00320334
0.0773398
-0.00313732
0.0775131
-0.00306567
-0.0029899
0.077675
0.076025
-0.00375383
0.0763119
-0.00372162
0.0765901
-0.00368097
0.0768584
-0.00363143
0.0771157
-0.00357398
0.0773609
-0.00350856
0.077593
-0.00343547
0.0778113
-0.00335554
0.0780149
-0.00326929
-0.00317874
0.0782037
0.0762279
-0.00411597
0.0765785
-0.00407214
0.0769164
-0.00401894
0.0772405
-0.00395554
0.0775496
-0.00388305
0.0778424
-0.00380132
0.0781177
-0.00371076
0.0783746
-0.00361251
0.0786126
-0.00350721
-0.00339764
0.0788315
0.0764867
-0.00456127
0.0769152
-0.00450061
0.0773264
-0.00443012
0.0777187
-0.00434792
0.0780909
-0.00425522
0.0784413
-0.00415175
0.0787687
-0.00403813
0.0790721
-0.00391591
0.0793507
-0.00378585
-0.00365193
0.079605
0.0768418
-0.00511509
0.0773719
-0.0050307
0.0778786
-0.00493685
0.07836
-0.0048293
0.0788141
-0.00470935
0.0792391
-0.0045767
0.0796332
-0.00443223
0.0799954
-0.00427811
0.0803247
-0.00411516
-0.00394933
0.0806221
0.0774135
-0.00582204
0.0780859
-0.00570313
0.0787252
-0.0055761
0.079328
-0.00543215
0.0798916
-0.00527293
0.0804132
-0.00509829
0.0808905
-0.00490955
0.0813222
-0.00470986
0.0817072
-0.00450011
-0.00428969
0.0820475
0.0784906
-0.00674268
0.0793564
-0.00656886
0.0801678
-0.00638755
0.0809193
-0.00618362
0.0816063
-0.00595995
0.0822251
-0.00571705
0.0827728
-0.00545734
0.0832487
-0.00518576
0.0836524
-0.00490377
-0.00462523
0.083988
0.0804862
-0.00789867
0.081544
-0.00762671
0.0824972
-0.00734069
0.0833405
-0.00702697
0.0840694
-0.00668881
0.0846802
-0.00632782
0.0851723
-0.00594945
0.0855482
-0.00556171
0.0858128
-0.00516833
-0.00478529
0.0859728
0.0833658
-0.00915482
0.0843978
-0.0086587
0.0852211
-0.00816399
0.0858476
-0.00765352
0.0862809
-0.00712204
0.0865261
-0.00657306
0.0865943
-0.00601764
0.0864992
-0.00546661
0.0862573
-0.00492649
-0.00441196
0.085884
0.085039
-0.0099567
0.085352
-0.00897172
0.0853222
-0.00813418
0.0849916
-0.00732299
0.084393
-0.00652337
0.0835681
-0.00574814
0.0825603
-0.00500985
0.0814066
-0.00431297
0.0801372
-0.00365707
-0.00303492
0.0787602
0.0788224
-0.00834081
0.0769028
-0.00705208
0.0746554
-0.0058868
0.0721777
-0.00484526
0.0695671
-0.00391276
0.0669199
-0.00310096
0.0643128
-0.00240275
0.0617985
-0.0017987
0.059408
-0.00126654
-0.00079623
0.0571693
0.0501812
0.0431291
0.0372423
0.032397
0.0284843
0.0253833
0.0229806
0.0211819
0.0199153
0.0191191
0.075096
-0.0102549
0.0751979
-0.00916761
0.0752872
-0.00794709
0.0753612
-0.00666931
0.0754187
-0.00539996
0.0754606
-0.00418545
0.0754889
-0.00305791
0.0755057
-0.00203454
0.0755133
-0.00112613
0.0755137
-0.000332674
0.0755091
0.000346774
0.0755006
0.000921963
0.0754894
0.00139783
0.0754768
0.00178858
0.0754632
0.00209842
0.0754493
0.00234331
0.0754351
0.00252393
0.075421
0.00265604
0.0754061
0.00273694
0.00277725
0.0753647
-0.0103912
0.0754743
-0.00927717
0.0755531
-0.00802592
0.0756036
-0.00671979
0.07563
-0.00542644
0.0756376
-0.00419297
0.075631
-0.00305133
0.0756148
-0.00201832
0.0755925
-0.00110385
0.0755671
-0.000307287
0.0755405
0.000373374
0.0755141
0.000948297
0.0754889
0.00142309
0.0754653
0.0018122
0.0754434
0.00212028
0.0754233
0.00236342
0.0754047
0.00254258
0.0753871
0.00267358
0.0753703
0.00275377
0.00279362
0.0757067
-0.010576
0.0758403
-0.00941083
0.0759218
-0.00810733
0.0759569
-0.00675496
0.0759552
-0.00542473
0.0759263
-0.00416405
0.0758791
-0.00300407
0.075821
-0.0019603
0.0757583
-0.00104114
0.0756954
-0.000244358
0.0756351
0.000433655
0.0755793
0.00100408
0.0755291
0.00147332
0.0754846
0.00185674
0.0754457
0.00215911
0.0754118
0.00239739
0.0753822
0.00257212
0.0753557
0.00270014
0.0753316
0.00277789
0.00281752
0.0760671
-0.0108192
0.076234
-0.00957766
0.076325
-0.0081984
0.076351
-0.00678089
0.0763261
-0.00539988
0.0762646
-0.0041026
0.0761793
-0.00291874
0.0760808
-0.00186179
0.0759776
-0.000937945
0.0758759
-0.000142604
0.0757795
0.000530049
0.075691
0.00109255
0.0756119
0.00155244
0.0755421
0.00192647
0.0754818
0.00221942
0.0754296
0.00244962
0.0753848
0.00261694
0.0753452
0.00273976
0.0753097
0.00281336
0.00285161
0.0764418
-0.0111264
0.0766442
-0.00978006
0.0767457
-0.00829985
0.0767627
-0.00679789
0.0767151
-0.00535236
0.076622
-0.00400949
0.0765
-0.00279667
0.0763627
-0.00172449
0.0762207
-0.000795994
0.0760819
-3.76129e-06
0.0759507
0.000661218
0.0758305
0.00121276
0.0757229
0.00166007
0.0756279
0.00202146
0.0755455
0.00230179
0.0754741
0.00252105
0.0754127
0.00267834
0.0753586
0.00279389
0.0753101
0.00286182
0.0028975
0.0768388
-0.0115019
0.0770763
-0.0100176
0.0771854
-0.00840888
0.0771899
-0.00680241
0.0771164
-0.00527884
0.0769891
-0.0038822
0.0768287
-0.00263634
0.0766522
-0.00154799
0.0764722
-0.000615949
0.076297
0.000171469
0.0761327
0.000825475
0.0759824
0.00136305
0.0758479
0.00179456
0.0757292
0.0021402
0.075626
0.00240497
0.0755363
0.00261072
0.075459
0.00275566
0.0753907
0.0028622
0.0753294
0.00292311
0.00295553
0.0772686
-0.0119496
0.0775391
-0.0102881
0.0776506
-0.00852038
0.0776368
-0.00678856
0.0775316
-0.0051737
0.0773654
-0.003716
0.0771634
-0.00243429
0.0769456
-0.00133017
0.0767262
-0.000396601
0.0765148
0.000382841
0.0763179
0.00102244
0.0761385
0.00154238
0.0759784
0.00195468
0.0758373
0.00228137
0.0757146
0.00252764
0.0756078
0.00271746
0.0755157
0.00284778
0.075434
0.00294395
0.0753606
0.00299648
0.00302557
0.077743
-0.0124726
0.0780424
-0.0105875
0.0781493
-0.00862728
0.0781094
-0.0067487
0.0779655
-0.00502979
0.0777545
-0.00350497
0.0775062
-0.00218607
0.077244
-0.0010679
0.0769834
-0.000136
0.0767347
0.000631487
0.0765045
0.00125265
0.0762961
0.00175084
0.0761104
0.00214036
0.075947
0.00244471
0.0758051
0.00266961
0.0756814
0.00284111
0.0755746
0.00295459
0.0754793
0.00303923
0.0753938
0.00308199
0.00310814
0.0782751
-0.0130727
0.0785971
-0.0109094
0.0786907
-0.00872088
0.0786159
-0.00667392
0.0784251
-0.00483896
0.0781624
-0.00324228
0.0778627
-0.00188643
0.077552
-0.00075718
0.0772468
0.000169255
0.0769584
0.000919875
0.0766927
0.00151835
0.0764531
0.00199041
0.0762398
0.00235365
0.0760524
0.00263214
0.075889
0.00283302
0.0757464
0.00298365
0.0756227
0.00307831
0.0755118
0.00315019
0.0754119
0.00318182
0.00320556
0.0788816
-0.0137506
0.0792185
-0.0112463
0.0792892
-0.0087916
0.0791695
-0.00655421
0.078922
-0.00459151
0.078599
-0.00291925
0.0782403
-0.00152769
0.0778743
-0.000391257
0.0775179
0.000525709
0.0771838
0.00125399
0.0768766
0.00182557
0.0766001
0.0022669
0.0763531
0.00260061
0.0761359
0.00284938
0.0759449
0.00302398
0.0757779
0.00315066
0.0756313
0.00322488
0.0754995
0.00328205
0.0753799
0.00330142
0.00332266
0.0795886
-0.0145077
0.0799328
-0.0115905
0.0799698
-0.00882863
0.0797915
-0.00637593
0.0794724
-0.00427234
0.0790739
-0.0025208
0.0786409
-0.00109468
0.0782051
4.45889e-05
0.0777833
0.000947465
0.0773896
0.00164764
0.0770275
0.00218772
0.0767013
0.0025931
0.076408
0.00289387
0.0761493
0.00310812
0.075919
0.00325427
0.0757172
0.00335249
0.0755371
0.003405
0.0753755
0.00344359
0.075227
0.00344998
0.00346659
0.0804458
-0.0153485
0.0807873
-0.0119319
0.0807703
-0.00881159
0.0805046
-0.00611022
0.0800808
-0.00384859
0.0795735
-0.00201348
0.0790342
-0.000555357
0.0784959
0.000582879
0.0779804
0.00146291
0.0775004
0.00212769
0.0770587
0.00262943
0.0766605
0.00299132
0.0763003
0.00325405
0.0759818
0.00342663
0.0756949
0.00354111
0.0754439
0.00360357
0.075216
0.00363287
0.075014
0.00364553
0.0748255
0.00363855
0.00364447
0.0815408
-0.0162672
0.0818423
-0.0122335
0.0817106
-0.00867984
0.0812839
-0.00568357
0.0806812
-0.00324589
0.0799945
-0.0013268
0.0792847
0.000154518
0.0785892
0.0012784
0.0779314
0.0021207
0.0773238
0.00273522
0.0767678
0.00318546
0.0762683
0.00349084
0.0758166
0.00370574
0.0754181
0.0038251
0.0750575
0.00390172
0.0747442
0.00391692
0.0744568
0.00392024
0.0742076
0.00389471
0.073972
0.00387414
0.00385755
0.0829559
-0.0171756
0.0830793
-0.0123569
0.0826676
-0.00826812
0.081918
-0.00493398
0.0809935
-0.00232135
0.0800094
-0.000342764
0.0790305
0.00113346
0.0781042
0.00220467
0.0772473
0.00297762
0.0764702
0.00351229
0.0757701
0.00388561
0.0751486
0.00411234
0.0745924
0.00426194
0.0741067
0.00431083
0.0736696
0.00433882
0.0732955
0.00429102
0.0729521
0.00426359
0.0726639
0.00418294
0.0723893
0.00414871
0.00409198
0.0845326
-0.0177202
0.0841166
-0.011941
0.083086
-0.00723751
0.0817423
-0.00359029
0.0802973
-0.000876294
0.0788713
0.00108319
0.0775387
0.00246612
0.0763295
0.00341379
0.0752513
0.00405583
0.0743026
0.00446098
0.0734709
0.00471733
0.0727491
0.00483416
0.0721172
0.00489386
0.0715761
0.00485189
0.0710977
0.00481726
0.0706986
0.00469011
0.0703359
0.00462626
0.0700463
0.00447261
0.0697693
0.00442564
0.0043086
0.0852941
-0.0170415
0.0836885
-0.0103353
0.081556
-0.00510505
0.0793363
-0.00137057
0.077223
0.00123699
0.0753216
0.0029846
0.073663
0.00412468
0.0722412
0.00483567
0.0710358
0.00526117
0.070021
0.00547584
0.0691674
0.00557088
0.0684534
0.00554819
0.0678511
0.0054961
0.0673536
0.00534945
0.0669285
0.00524234
0.0665913
0.00502731
0.0662925
0.00492508
0.066078
0.00468709
0.0658717
0.00463189
0.00443834
0.0826263
-0.0137838
0.0791186
-0.00682762
0.0755964
-0.00158281
0.0725249
0.00170088
0.0699489
0.00381299
0.0678581
0.00507547
0.0661829
0.00579981
0.0648567
0.00616194
0.063814
0.00630384
0.0629976
0.0062923
0.0623607
0.00620776
0.0618672
0.0060417
0.0614851
0.00587823
0.0611993
0.00563516
0.0609799
0.00546181
0.0608383
0.00516883
0.0607267
0.00503668
0.0606957
0.00471813
0.0606613
0.00466625
0.00439104
0.0719679
-0.00699154
0.0667467
-0.00160639
0.0624741
0.00268973
0.0594669
0.00470811
0.0572813
0.00599857
0.0557547
0.00660206
0.054704
0.00685053
0.0540064
0.00685951
0.0535678
0.00674249
0.0533171
0.006543
0.0532047
0.00632008
0.0531917
0.00605469
0.0532519
0.00581805
0.0533684
0.00551866
0.0535213
0.00530898
0.0537188
0.00497133
0.0539236
0.00483181
0.0541859
0.00445584
0.0544249
0.00442728
0.0040803
0.0491852
0.0009926
0.0450635
0.00251531
0.0423904
0.00536284
0.0411631
0.00593541
0.0405404
0.00662123
0.04043
0.00671244
0.0406147
0.00666581
0.0410034
0.00647082
0.0415201
0.0062258
0.0421128
0.00595032
0.0427494
0.00568355
0.043402
0.00540208
0.0440597
0.00516031
0.0447099
0.00486845
0.0453489
0.00467001
0.0459815
0.00433867
0.0465893
0.00422404
0.0472149
0.00383027
0.0477908
0.00385135
0.00345395
0.0195617
0.000550024
0.02037
0.00170695
0.0212167
0.00451614
0.0224356
0.00471653
0.0237229
0.00533395
0.0252086
0.00522676
0.0267323
0.00514211
0.0282782
0.00492493
0.0297994
0.00470454
0.0312726
0.00447717
0.032686
0.00427013
0.0340265
0.00406159
0.0352995
0.00388726
0.0364971
0.0036709
0.0376345
0.00353261
0.0387075
0.00326566
0.0397277
0.00320382
0.040711
0.00284693
0.0416272
0.00293523
0.00252263
0.00276471
-0.00221469
0.00333887
0.00113279
0.00414359
0.00371142
0.0049601
0.00390001
0.00585904
0.00443502
0.0067599
0.00432589
0.00765427
0.00424775
0.0085198
0.00405939
0.00934731
0.00387703
0.0101302
0.00369431
0.0108672
0.00353308
0.0115562
0.00337257
0.0122032
0.00324035
0.012803
0.00307108
0.0133728
0.00296274
0.0138935
0.00274503
0.0144059
0.00269141
0.0148568
0.00239599
0.0153301
0.00246196
0.00212468
0.000721589
-0.00293628
0.00116632
0.000688066
0.00211634
0.0027614
0.00307565
0.00294069
0.00414041
0.00337026
0.00518406
0.00328224
0.00621065
0.00322116
0.00719202
0.00307803
0.00812253
0.00294653
0.00899649
0.00282034
0.00981464
0.00271493
0.0105759
0.00261135
0.0112879
0.00252834
0.0119454
0.00241352
0.0125688
0.00233941
0.013135
0.00217883
0.0136929
0.00213349
0.0141775
0.00191134
0.0146918
0.00194774
0.00170325
-0.000711108
-0.00222517
-0.000418699
0.000395656
0.000593347
0.00174936
0.00164757
0.00188647
0.00282929
0.00218854
0.00397948
0.00213205
0.00510437
0.00209627
0.00617283
0.00200956
0.00718078
0.00193858
0.00812334
0.00187778
0.00900265
0.00183562
0.0098184
0.0017956
0.0105796
0.00176709
0.0112811
0.00171206
0.0119447
0.00167579
0.0125461
0.00157747
0.0131374
0.00154219
0.0136494
0.0013993
0.0141909
0.00140623
0.00125935
-0.0016085
-0.000616666
-0.00141591
0.00020306
-0.000402326
0.000735777
0.00070887
0.000775272
0.00196473
0.000932682
0.00318232
0.000914461
0.00437013
0.000908464
0.00549436
0.000885323
0.00655182
0.000881112
0.00753815
0.000891453
0.00845647
0.000917297
0.00930706
0.000945015
0.0100999
0.000974296
0.0108295
0.000982382
0.0115191
0.000986201
0.0121431
0.000953503
0.0127558
0.000929485
0.0132852
0.000869866
0.0138439
0.000847516
0.000801515
-0.00200823
0.00139156
-0.00186618
6.10194e-05
-0.000856079
-0.000274328
0.000282267
-0.000363075
0.00157062
-0.000355668
0.00281642
-0.000331338
0.00403066
-0.000305775
0.00517796
-0.000261981
0.00625551
-0.000196442
0.00725932
-0.000112355
0.00819312
-1.65062e-05
0.00905757
8.05647e-05
0.00986304
0.000168833
0.0106042
0.000241251
0.0113043
0.000286044
0.0119375
0.000320316
0.0125587
0.000308258
0.013095
0.000333642
0.01366
0.000282471
0.000338558
-0.00194665
0.00333821
-0.00176484
-0.000120787
-0.000747061
-0.00129211
0.000381185
-0.00149132
0.001657
-0.00163148
0.0028921
-0.00156644
0.00409599
-0.00150967
0.00523321
-0.00139919
0.0063009
-0.00126413
0.00729537
-0.00110682
0.00822059
-0.000941732
0.00907742
-0.000776265
0.00987618
-0.000629926
0.0106115
-0.000494109
0.0113065
-0.000408882
0.0119351
-0.000308301
0.0125516
-0.000308297
0.0130837
-0.000198428
0.013644
-0.000277849
-0.000120446
-0.00140924
0.00474744
-0.00111016
-0.000419863
-7.10803e-05
-0.00233119
0.00099999
-0.00256239
0.00222014
-0.00285163
0.00340607
-0.00275238
0.00456328
-0.00266687
0.00565765
-0.00249356
0.00668591
-0.00229239
0.00764459
-0.00206551
0.00853752
-0.00183466
0.00936555
-0.00160429
0.0101385
-0.00140287
0.0108511
-0.0012067
0.0115252
-0.00108296
0.0121356
-0.00091872
0.0127344
-0.000907135
0.0132515
-0.000715536
0.0137962
-0.000822534
-0.000566545
-0.000321503
0.00506895
9.0273e-05
-0.000831638
0.00111533
-0.00335625
0.00211868
-0.00356574
0.00324266
-0.0039756
0.00434153
-0.00385126
0.00541686
-0.0037422
0.00643689
-0.00351359
0.00739747
-0.00325298
0.0082952
-0.00296323
0.00913332
-0.00267279
0.00991247
-0.00238344
0.0106415
-0.00213187
0.0113152
-0.00188038
0.0119535
-0.00172135
0.0125328
-0.00149801
0.0131015
-0.00147584
0.0135935
-0.00120748
0.0141121
-0.00134117
-0.000991256
0.00132862
0.00374032
0.00192354
-0.00142655
0.00283079
-0.0042635
0.00370734
-0.0044423
0.00469346
-0.00496172
0.0056685
-0.00482629
0.00662873
-0.00470243
0.00754506
-0.00442992
0.00841195
-0.00411987
0.00922571
-0.00377699
0.00998856
-0.00343564
0.0107006
-0.00309547
0.0113692
-0.0028005
0.0119894
-0.00250051
0.0125786
-0.00231059
0.013115
-0.00203439
0.0136423
-0.00200314
0.0140997
-0.00166489
0.0145829
-0.00182438
-0.00138658
0.00371983
2.04921e-05
0.00434685
-0.00205358
0.00502075
-0.00493739
0.00572494
-0.00514649
0.00652634
-0.00576312
0.00734557
-0.00564553
0.00815954
-0.00551639
0.00894619
-0.00521657
0.00969641
-0.00487009
0.0104062
-0.00448673
0.011076
-0.00410551
0.0117052
-0.00372468
0.0122993
-0.00339455
0.0128534
-0.00305466
0.0133815
-0.00283865
0.0138657
-0.00251857
0.0143401
-0.00247757
0.0147581
-0.00208292
0.015192
-0.00225823
-0.00175406
0.0375354
0.00325736
-0.0407723
0.0361136
-0.000631779
0.0358005
-0.00462426
0.0365692
-0.00591526
0.0376143
-0.00680819
0.0389955
-0.00702672
0.040467
-0.0069879
0.0419926
-0.00674219
0.0435171
-0.0063946
0.0450163
-0.00598593
0.0464787
-0.00556786
0.0478899
-0.00513588
0.0492524
-0.00475708
0.0505556
-0.00435785
0.0518033
-0.00408635
0.0529976
-0.00371285
0.054118
-0.00359802
0.055226
-0.00319085
0.0562119
-0.00324416
-0.00281094
0.0874058
0.0127596
-0.096908
0.0808038
0.00597018
0.0753379
0.000841676
0.0716871
-0.00226444
0.0691093
-0.00423045
0.0674216
-0.005339
0.066327
-0.00589326
0.0656625
-0.00607775
0.0653047
-0.0060368
0.0651648
-0.00584597
0.0651843
-0.00558743
0.0653187
-0.00527019
0.0655372
-0.0049756
0.0658193
-0.00463997
0.066136
-0.00440305
0.0664987
-0.00407557
0.066846
-0.00394529
0.0672627
-0.00360753
0.0676088
-0.00359031
-0.00326972
0.108265
0.0164424
-0.111947
0.104198
0.0100364
0.0999299
0.00511011
0.0961047
0.00156078
0.0928184
-0.000944077
0.0900889
-0.00260956
0.0878396
-0.00364392
0.0860068
-0.00424493
0.0845225
-0.0045525
0.0833234
-0.00464688
0.0823578
-0.00462183
0.0815849
-0.00449735
0.0809643
-0.00435498
0.0804771
-0.00415272
0.0800794
-0.00400538
0.0797858
-0.00378204
0.079524
-0.00368344
0.0793705
-0.00345402
0.0791972
-0.00341706
-0.00321754
0.112522
0.0165717
-0.112652
0.111125
0.0114341
0.109007
0.0072277
0.106644
0.003924
0.104275
0.00142489
0.102031
-0.00036536
0.100001
-0.00161456
0.0981987
-0.00244248
0.0966146
-0.00296839
0.0952358
-0.00326807
0.0940371
-0.00342309
0.0930012
-0.00346144
0.0920978
-0.00345156
0.0913207
-0.00337569
0.09063
-0.0033147
0.0900439
-0.00319593
0.0894998
-0.00313933
0.0890568
-0.00301096
0.0886184
-0.00297866
-0.00287772
0.111214
0.0154701
-0.110113
0.11117
0.0114784
0.110407
0.00799117
0.109215
0.00511522
0.107801
0.00283974
0.10633
0.00110563
0.104888
-0.000172657
0.103539
-0.00109341
0.102295
-0.00172498
0.101168
-0.00214127
0.100152
-0.00240685
0.0992449
-0.0025542
0.098427
-0.00263364
0.0977002
-0.00264888
0.0970346
-0.00264913
0.0964464
-0.00260767
0.0958911
-0.00258406
0.0954066
-0.00252644
0.0949322
-0.00250425
-0.00246394
0.109185
0.0141723
-0.107887
0.109615
0.0110483
0.109444
0.00816284
0.108867
0.00569197
0.108047
0.00365917
0.107111
0.00204201
0.106144
0.000794926
0.105188
-0.000138119
0.104284
-0.000820732
0.103446
-0.00130355
0.102676
-0.00163703
0.101979
-0.00185643
0.101342
-0.00199676
0.100768
-0.00207514
0.100238
-0.00211917
0.0997601
-0.00212963
0.0993078
-0.00213176
0.0988976
-0.00211628
0.0984988
-0.00210543
-0.00209309
0.107557
0.0129689
-0.106354
0.108102
0.0105036
0.108158
0.00810713
0.107873
0.00597696
0.107365
0.00416638
0.106732
0.00267519
0.106042
0.0014853
0.105343
0.000560387
0.104665
-0.000142122
0.104029
-0.0006679
0.103441
-0.00104849
0.102904
-0.00131991
0.102414
-0.00150715
0.101972
-0.00163268
0.101566
-0.00171285
0.101196
-0.00176011
0.10085
-0.00178565
0.100529
-0.00179537
0.10022
-0.00179682
-0.00179462
0.106329
0.0119074
-0.105267
0.106885
0.00994694
0.107039
0.00795309
0.106903
0.00611362
0.106567
0.00450196
0.106107
0.00313492
0.105583
0.00200966
0.105038
0.00110515
0.104502
0.000394459
0.103989
-0.000155711
0.103514
-0.000572597
0.103078
-0.000884277
0.102681
-0.0011107
0.102323
-0.00127434
0.101997
-0.00138712
0.101701
-0.00146366
0.101427
-0.00151194
0.101171
-0.00153957
0.100928
-0.00155364
-0.00155549
0.105368
0.0109857
-0.104446
0.105903
0.00941155
0.106107
0.0077488
0.106061
0.00616019
0.105836
0.00472704
0.105492
0.00347833
0.105081
0.00242097
0.10464
0.00154579
0.104197
0.000837799