/*--------------------------------*- C++ -*----------------------------------*\
| =========                 |                                                 |
| \\      /  F ield         | OpenFOAM: The Open Source CFD Toolbox           |
|  \\    /   O peration     | Version:  v1806                                 |
|   \\  /    A nd           | Web:      www.OpenFOAM.com                      |
|    \\/     M anipulation  |                                                 |
\*---------------------------------------------------------------------------*/
FoamFile
{
    version     2.0;
    format      ascii;
    class       volScalarField;
    location    "300";
    object      p;
}
// * * * * * * * * * * * * * * * * * * * * * * * * * * * * * * * * * * * * * //

dimensions      [0 2 -2 0 0 0 0];


internalField   nonuniform List<scalar> 
4400
(
-0.010793
0.00335725
0.00307403
0.00174447
0.00133874
0.0012161
0.00111522
0.00102373
0.000941614
0.000861718
0.00078034
0.000697372
0.000613526
0.000529285
0.000444936
0.000360706
0.000276863
0.000193656
0.000110088
2.64597e-05
0.0188813
0.0129302
0.00871266
0.00607532
0.00464991
0.00378462
0.00315294
0.00265851
0.0022641
0.00194144
0.00166832
0.00142994
0.00121682
0.00102251
0.000842395
0.000673124
0.000512231
0.000357771
0.000207014
5.93734e-05
0.0242734
0.0176473
0.0131705
0.00994021
0.00767648
0.00611333
0.00499204
0.00414765
0.00348734
0.00295414
0.00251023
0.00213031
0.00179736
0.00149959
0.00122847
0.000977628
0.000742271
0.000518531
0.000302247
9.18026e-05
0.0268106
0.020417
0.0156769
0.0122097
0.00970511
0.00787711
0.00650228
0.00543219
0.00457584
0.00387443
0.00328687
0.00278372
0.00234382
0.00195188
0.00159657
0.0012693
0.00096344
0.000673573
0.00039437
0.000123201
0.0258146
0.020955
0.0169467
0.0137577
0.011252
0.00929208
0.00775033
0.00651961
0.00551843
0.00468784
0.00398523
0.00337946
0.00284758
0.00237253
0.00194136
0.00154406
0.00117272
0.00082082
0.000482131
0.000153154
0.0246407
0.0209267
0.0175142
0.0146072
0.0122172
0.0102757
0.00869377
0.00739163
0.00630565
0.00538705
0.0045985
0.00391126
0.00330309
0.0027568
0.00225892
0.00179878
0.00136776
0.000958605
0.000564521
0.000181329
0.0230961
0.0202658
0.0174988
0.0150006
0.0128285
0.0109769
0.00941013
0.00808261
0.00695036
0.00597527
0.00512587
0.00437675
0.00370753
0.00310191
0.00254673
0.00203133
0.00154684
0.00108569
0.000640775
0.000207458
0.0217111
0.0195158
0.0172456
0.0150905
0.0131386
0.011415
0.00991117
0.00860254
0.00746041
0.00645755
0.00556985
0.00477664
0.00406051
0.00340688
0.00280362
0.00224053
0.00170894
0.00120127
0.000710383
0.000231361
0.0204023
0.0186662
0.0168076
0.0149749
0.0132509
0.0116738
0.0102544
0.00898682
0.00785634
0.00684548
0.00593682
0.00511428
0.00436359
0.00367228
0.00302955
0.00242606
0.00185364
0.00130496
0.000773066
0.000252932
0.0192704
0.0178679
0.0163236
0.014751
0.013226
0.0117913
0.0104664
0.00925534
0.00815307
0.00714982
0.00623416
0.00539449
0.00461977
0.00389981
0.00322543
0.00258833
0.00198106
0.00139674
0.000828763
0.000272139
0.0182688
0.0171132
0.0158161
0.0144626
0.0131152
0.0118147
0.0105847
0.00943581
0.00837006
0.00738391
0.00647092
0.00562332
0.00483303
0.00409208
0.00339288
0.00272831
0.00209175
0.00147688
0.000877587
0.000289014
0.0174137
0.016442
0.0153346
0.0141555
0.0129562
0.011774
0.010633
0.00954708
0.00852224
0.0075593
0.00665574
0.0058071
0.00500789
0.0042522
0.003534
0.00284739
0.00218657
0.0015459
0.000919795
0.000303636
0.0166788
0.0158466
0.0148872
0.0138494
0.0127747
0.0116955
0.0106351
0.00960861
0.00862486
0.00768765
0.00679742
0.00595231
0.00514907
0.00438356
0.00365121
0.00294719
0.0022666
0.00160447
0.000955747
0.00031612
0.0160623
0.0153358
0.0144905
0.013564
0.0125903
0.0115976
0.0106072
0.00963468
0.00868993
0.00777877
0.00690375
0.00606504
0.00526119
0.00448962
0.00374699
0.00302951
0.00233307
0.00165335
0.000985867
0.000326604
0.0155495
0.0149035
0.0141463
0.0133077
0.0124158
0.0114945
0.0105636
0.00963792
0.00872825
0.00784157
0.00698189
0.00615092
0.00534863
0.00457368
0.00382381
0.00309612
0.00238721
0.00169336
0.00101061
0.00033524
0.0151357
0.0145501
0.0138596
0.0130888
0.0122608
0.0113967
0.0105142
0.00962784
0.00874829
0.00788331
0.0070379
0.00621488
0.00541527
0.00463877
0.00388397
0.00314871
0.00243022
0.00172529
0.00103043
0.000342176
0.0148127
0.0142716
0.013631
0.012911
0.0121317
0.0113118
0.0104674
0.00961221
0.00875708
0.00791009
0.0070769
0.00626108
0.00546447
0.00468749
0.00392945
0.00318876
0.00246314
0.00174983
0.00104571
0.000347544
0.0145777
0.0140679
0.0134622
0.0127783
0.0120338
0.0112456
0.0104289
0.00959676
0.00875989
0.00792655
0.00710282
0.00629279
0.00549883
0.00472191
0.00396181
0.0032174
0.00248678
0.00176752
0.00105677
0.000351446
0.0144272
0.0139373
0.0133535
0.0126922
0.0119696
0.0112016
0.0104027
0.00958539
0.00876035
0.00793594
0.00711847
0.00631233
0.00552024
0.0047435
0.0039822
0.0032355
0.00250176
0.00177875
0.00106382
0.000353949
0.0143586
0.0138769
0.013303
0.012652
0.0119395
0.0111808
0.0103901
0.00957973
0.00876023
0.00794002
0.0071255
0.00632122
0.00553005
0.00475342
0.0039916
0.00324386
0.00250869
0.00178396
0.00106709
0.000355114
0.0392647
0.0455622
0.0500596
0.053459
0.0560252
0.0578935
0.0591678
0.0599248
0.0602148
0.0600658
0.0594872
0.0584704
0.0569888
0.0549959
0.0524209
0.0491625
0.0450872
0.0400216
0.0336276
0.0250679
0.0447834
0.047043
0.0488695
0.0503523
0.051538
0.0524436
0.0530791
0.0534523
0.0535683
0.05343
0.053038
0.0523914
0.0514876
0.0503219
0.0488874
0.0471738
0.0451748
0.0429122
0.0403656
0.0369219
0.0400743
0.0414338
0.0426523
0.0437023
0.0445703
0.0452481
0.0457299
0.0460119
0.0460913
0.0459658
0.0456338
0.0450934
0.0443429
0.043381
0.0422066
0.0408192
0.039223
0.0374299
0.0354363
0.0331381
0.0367274
0.0374776
0.0381449
0.0387178
0.0391877
0.0395479
0.0397931
0.0399196
0.0399244
0.0398056
0.039562
0.0391932
0.0386996
0.0380821
0.0373425
0.0364834
0.0355099
0.0344312
0.0332452
0.0318953
0.0327585
0.0332108
0.0336102
0.0339494
0.0342221
0.0344231
0.0345478
0.0345928
0.0345556
0.0344345
0.0342286
0.033938
0.0335637
0.0331075
0.0325722
0.0319618
0.0312815
0.0305383
0.029738
0.0288781
0.0297489
0.030029
0.0302702
0.030469
0.0306224
0.0307277
0.0307827
0.0307858
0.0307356
0.0306313
0.0304726
0.0302597
0.0299934
0.0296748
0.0293055
0.0288879
0.0284251
0.0279213
0.0273786
0.0267865
0.0269696
0.0271442
0.0272906
0.0274066
0.0274906
0.027541
0.0275565
0.0275361
0.0274792
0.0273852
0.0272543
0.0270865
0.0268827
0.0266436
0.0263707
0.0260655
0.0257301
0.0253668
0.0249779
0.024564
0.0247875
0.0249026
0.0249962
0.0250672
0.0251146
0.0251376
0.0251356
0.025108
0.0250546
0.0249751
0.0248696
0.0247383
0.0245816
0.0244001
0.0241944
0.0239656
0.0237149
0.0234438
0.0231532
0.0228395
0.0228708
0.0229459
0.0230046
0.0230461
0.02307
0.0230758
0.0230631
0.0230317
0.0229814
0.0229122
0.0228241
0.0227173
0.0225922
0.0224491
0.0222885
0.022111
0.0219175
0.0217087
0.0214856
0.0212479
0.0213233
0.0213752
0.0214141
0.0214396
0.0214513
0.0214491
0.0214328
0.0214021
0.021357
0.0212976
0.0212238
0.0211358
0.0210338
0.0209181
0.0207889
0.0206467
0.020492
0.0203254
0.0201472
0.0199559
0.019987
0.0200225
0.0200476
0.0200621
0.0200657
0.0200584
0.02004
0.0200104
0.0199696
0.0199177
0.0198546
0.0197806
0.0196957
0.0196001
0.0194941
0.0193778
0.0192518
0.0191162
0.0189716
0.0188175
0.0188916
0.0189172
0.0189342
0.0189425
0.0189419
0.0189325
0.018914
0.0188865
0.01885
0.0188044
0.0187499
0.0186865
0.0186143
0.0185335
0.0184441
0.0183465
0.0182407
0.0181271
0.018006
0.0178765
0.0179598
0.0179783
0.0179896
0.0179936
0.0179902
0.0179795
0.0179614
0.0179358
0.0179028
0.0178624
0.0178146
0.0177595
0.0176971
0.0176277
0.0175512
0.0174679
0.0173778
0.0172812
0.0171783
0.0170687
0.0171979
0.0172119
0.0172197
0.0172212
0.0172165
0.0172055
0.0171882
0.0171645
0.0171345
0.0170983
0.0170558
0.017007
0.0169521
0.0168912
0.0168242
0.0167514
0.0166728
0.0165886
0.0164988
0.0164032
0.0165672
0.0165779
0.0165832
0.0165831
0.0165775
0.0165665
0.0165499
0.0165279
0.0165005
0.0164675
0.0164292
0.0163855
0.0163364
0.0162821
0.0162226
0.016158
0.0160883
0.0160137
0.0159343
0.0158498
0.0160668
0.0160754
0.0160792
0.0160781
0.0160721
0.0160613
0.0160456
0.016025
0.0159995
0.0159692
0.015934
0.0158941
0.0158494
0.0158
0.0157459
0.0156873
0.0156241
0.0155566
0.0154847
0.0154081
0.0156769
0.0156841
0.0156868
0.0156851
0.0156789
0.0156683
0.0156533
0.0156338
0.0156099
0.0155816
0.0155488
0.0155118
0.0154704
0.0154247
0.0153748
0.0153206
0.0152624
0.0152001
0.0151338
0.0150634
0.0153966
0.0154028
0.0154049
0.0154029
0.0153966
0.0153863
0.0153717
0.0153531
0.0153302
0.0153033
0.0152723
0.0152372
0.015198
0.0151548
0.0151077
0.0150566
0.0150017
0.0149429
0.0148804
0.0148139
0.0152128
0.0152184
0.0152201
0.0152179
0.0152117
0.0152015
0.0151873
0.0151692
0.0151472
0.0151212
0.0150913
0.0150576
0.01502
0.0149786
0.0149334
0.0148844
0.0148318
0.0147756
0.0147158
0.0146524
0.0151369
0.0151423
0.0151439
0.0151415
0.0151353
0.0151251
0.0151111
0.0150932
0.0150714
0.0150457
0.0150163
0.0149829
0.0149458
0.014905
0.0148603
0.014812
0.0147601
0.0147045
0.0146454
0.0145824
0.0167481
0.0172126
0.0176846
0.0181621
0.0186442
0.0191248
0.0195943
0.0200398
0.0204459
0.0207965
0.0210773
0.0212815
0.0214171
0.0215189
0.0216615
0.0219572
0.022531
0.0235778
0.0257502
0.0306706
0.0182418
0.0186206
0.019052
0.0195222
0.0200346
0.0205983
0.0212234
0.021922
0.0227088
0.0236008
0.0246169
0.0257768
0.0270998
0.0286033
0.0303013
0.032202
0.0343111
0.0366506
0.0392656
0.0421064
0.0207045
0.0212839
0.0218777
0.0224973
0.0231456
0.0238245
0.0245366
0.0252847
0.0260722
0.0269029
0.0277807
0.0287103
0.0296973
0.0307479
0.0318689
0.0330667
0.0343468
0.035711
0.0371496
0.0386258
0.0212034
0.0217283
0.0222867
0.0228724
0.023486
0.0241299
0.0248053
0.0255134
0.0262547
0.0270293
0.0278366
0.0286752
0.0295426
0.0304351
0.0313478
0.0322738
0.033205
0.0341306
0.0350372
0.0359086
0.0215271
0.0220187
0.0225191
0.0230319
0.0235576
0.0240957
0.0246458
0.0252075
0.0257802
0.0263631
0.0269551
0.0275547
0.0281602
0.028769
0.0293782
0.0299839
0.0305813
0.0311647
0.0317272
0.0322612
0.0211499
0.021569
0.021997
0.0224328
0.0228758
0.0233254
0.0237808
0.0242411
0.024705
0.0251711
0.0256376
0.0261026
0.0265639
0.0270187
0.0274643
0.0278974
0.0283147
0.0287124
0.0290866
0.0294334
0.020596
0.0209506
0.0213058
0.0216626
0.0220205
0.0223788
0.0227366
0.023093
0.023447
0.0237975
0.0241433
0.0244829
0.0248149
0.0251375
0.0254491
0.0257476
0.026031
0.0262971
0.0265438
0.0267687
0.0198617
0.0201577
0.0204528
0.0207472
0.0210402
0.0213312
0.0216194
0.021904
0.0221841
0.0224588
0.022727
0.0229877
0.0232397
0.0234817
0.0237125
0.0239308
0.0241352
0.0243244
0.0244971
0.0246519
0.0190889
0.0193352
0.0195783
0.0198186
0.0200559
0.0202894
0.0205186
0.0207428
0.0209614
0.0211737
0.021379
0.0215765
0.0217655
0.0219451
0.0221145
0.0222729
0.0224195
0.0225534
0.0226738
0.0227798
0.0183181
0.0185248
0.0187278
0.0189274
0.0191232
0.0193147
0.0195014
0.0196829
0.0198587
0.0200282
0.0201909
0.0203464
0.0204939
0.020633
0.020763
0.0208835
0.0209938
0.0210935
0.021182
0.0212587
0.0175858
0.0177599
0.0179299
0.0180961
0.0182581
0.0184157
0.0185683
0.0187158
0.0188576
0.0189935
0.019123
0.0192458
0.0193616
0.0194698
0.0195701
0.0196623
0.0197458
0.0198203
0.0198856
0.0199413
0.0169147
0.0170638
0.0172087
0.0173498
0.0174867
0.0176192
0.017747
0.0178698
0.0179874
0.0180995
0.0182058
0.018306
0.0183999
0.0184871
0.0185675
0.0186407
0.0187066
0.0187648
0.0188152
0.0188575
0.0163117
0.0164406
0.0165653
0.0166863
0.0168032
0.0169159
0.017024
0.0171276
0.0172262
0.0173198
0.0174081
0.0174909
0.0175681
0.0176394
0.0177046
0.0177636
0.0178163
0.0178624
0.0179017
0.0179343
0.015786
0.0158995
0.016009
0.0161149
0.0162168
0.0163148
0.0164085
0.0164979
0.0165828
0.016663
0.0167384
0.0168089
0.0168742
0.0169343
0.016989
0.0170383
0.0170819
0.0171198
0.0171518
0.0171779
0.0153366
0.0154379
0.0155354
0.0156294
0.0157197
0.0158062
0.0158887
0.0159672
0.0160414
0.0161114
0.0161769
0.0162379
0.0162943
0.0163459
0.0163927
0.0164346
0.0164714
0.0165032
0.0165298
0.0165511
0.0149662
0.0150585
0.0151471
0.0152324
0.0153141
0.0153922
0.0154665
0.015537
0.0156036
0.0156662
0.0157246
0.0157789
0.0158289
0.0158746
0.0159158
0.0159526
0.0159847
0.0160123
0.0160352
0.0160534
0.0146725
0.0147579
0.0148399
0.0149186
0.0149939
0.0150658
0.015134
0.0151986
0.0152595
0.0153166
0.0153699
0.0154192
0.0154645
0.0155058
0.015543
0.015576
0.0156048
0.0156293
0.0156495
0.0156654
0.0144563
0.0145372
0.0146147
0.0146889
0.0147599
0.0148275
0.0148916
0.0149523
0.0150093
0.0150628
0.0151126
0.0151586
0.0152008
0.0152392
0.0152737
0.0153042
0.0153308
0.0153533
0.0153718
0.0153863
0.0143155
0.0143929
0.0144672
0.0145384
0.0146064
0.0146711
0.0147325
0.0147905
0.0148451
0.0148961
0.0149436
0.0149874
0.0150276
0.0150641
0.0150968
0.0151258
0.015151
0.0151722
0.0151897
0.0152032
0.0142542
0.0143309
0.0144043
0.0144745
0.0145415
0.0146053
0.0146658
0.0147228
0.0147765
0.0148266
0.0148732
0.0149163
0.0149557
0.0149915
0.0150236
0.015052
0.0150766
0.0150974
0.0151144
0.0151275
0.00589224
0.0108992
0.013341
0.0148317
0.0157681
0.0162924
0.0165276
0.0165704
0.0164879
0.0163268
0.0161211
0.0158961
0.0156705
0.015458
0.0152709
0.0151162
0.0149932
0.0149148
0.0148869
0.0149109
0.00646135
0.00924734
0.010981
0.0122928
0.0132754
0.0139668
0.0144276
0.0147157
0.0148766
0.014946
0.0149522
0.014917
0.0148574
0.0147858
0.0147111
0.0146402
0.0145841
0.0145387
0.0145082
0.0144919
0.00843321
0.0103493
0.0116752
0.0126822
0.0134354
0.0139677
0.014321
0.0145357
0.0146464
0.0146812
0.0146632
0.0146106
0.0145374
0.0144543
0.014369
0.0142868
0.0142119
0.0141459
0.0140857
0.0140315
0.00938847
0.0106444
0.0116082
0.0123749
0.0129708
0.0134118
0.0137197
0.0139187
0.0140314
0.014078
0.014076
0.01404
0.0139817
0.0139104
0.0138329
0.0137544
0.0136783
0.0136064
0.0135354
0.0134625
0.0099418
0.010826
0.0115519
0.0121472
0.0126211
0.0129808
0.0132383
0.0134082
0.0135057
0.0135455
0.0135411
0.0135045
0.0134457
0.013373
0.0132928
0.0132102
0.0131289
0.0130509
0.0129729
0.0128926
0.0101202
0.0107651
0.0113182
0.0117819
0.0121584
0.0124502
0.0126634
0.0128066
0.0128898
0.0129234
0.0129176
0.0128818
0.0128246
0.0127533
0.0126738
0.012591
0.0125088
0.0124294
0.0123499
0.012268
0.0100724
0.0105653
0.0109979
0.0113648
0.0116653
0.0119004
0.012073
0.0121884
0.0122535
0.0122758
0.0122633
0.0122236
0.0121639
0.0120907
0.0120096
0.011925
0.0118411
0.0117599
0.011679
0.011596
0.00986631
0.0102512
0.0105924
0.0108829
0.0111215
0.0113079
0.0114436
0.011532
0.0115777
0.0115864
0.0115644
0.0115179
0.0114533
0.0113762
0.0112916
0.011204
0.0111173
0.0110337
0.0109506
0.0108658
0.00956668
0.00986808
0.0101343
0.0103605
0.0105451
0.0106872
0.0107875
0.010848
0.0108722
0.0108643
0.0108292
0.0107724
0.0106992
0.0106147
0.0105237
0.0104304
0.0103386
0.0102505
0.0101635
0.0100753
0.00921729
0.00944616
0.00964419
0.00981042
0.00994322
0.0100414
0.010105
0.0101353
0.0101346
0.0101062
0.0100541
0.00998281
0.00989702
0.00980141
0.00970038
0.00959803
0.0094982
0.0094032
0.0093101
0.00921661
0.00885759
0.00901738
0.00914775
0.00925306
0.00933178
0.00938238
0.00940464
0.00939933
0.00936808
0.00931337
0.00923839
0.00914693
0.00904312
0.0089312
0.00881533
0.00869954
0.00858772
0.00848229
0.00838012
0.00827881
0.00852314
0.00861271
0.00867191
0.00871134
0.00872964
0.00872516
0.00869773
0.00864798
0.00857716
0.0084872
0.0083807
0.00826084
0.00813123
0.00799572
0.00785826
0.0077228
0.00759341
0.00747264
0.00735715
0.00724436
0.00825175
0.00826792
0.00825061
0.00821673
0.00816518
0.00809449
0.00800494
0.00789747
0.00777343
0.00763466
0.00748348
0.00732269
0.00715552
0.00698546
0.00681622
0.00665174
0.00649629
0.00635271
0.00621734
0.00608742
0.00808644
0.00802642
0.00792776
0.00781254
0.00768
0.00752907
0.00736089
0.00717727
0.00698033
0.00677252
0.00655655
0.00633541
0.00611223
0.00589036
0.0056733
0.00546497
0.00526991
0.00509139
0.00492537
0.00476894
0.00807892
0.0079439
0.00776307
0.00756129
0.00733786
0.00709214
0.00682622
0.0065432
0.0062467
0.00594074
0.00562955
0.00531735
0.00500817
0.00470579
0.00441384
0.00413632
0.00387823
0.00364348
0.00342759
0.00322767
0.00828706
0.00808595
0.00783022
0.0075439
0.0072257
0.00687484
0.00649378
0.00608669
0.00565898
0.00521706
0.00476805
0.00431914
0.00387705
0.00344758
0.00303552
0.00264535
0.00228255
0.00195166
0.00164739
0.00136795
0.0087787
0.00853261
0.00822226
0.00786668
0.0074628
0.00700812
0.0065036
0.00595273
0.00536137
0.00473783
0.00409262
0.00343772
0.00278549
0.00214735
0.00153265
0.000948779
0.000402609
-0.000101718
-0.000574325
-0.00101646
0.00965642
0.00941654
0.00910405
0.00872922
0.00828644
0.00776947
0.00717453
0.0065003
0.00574855
0.00492485
0.00403903
0.00310512
0.00214047
0.00116398
0.000193888
-0.000752849
-0.00165995
-0.00252161
-0.00337213
-0.00423405
0.0109031
0.0107104
0.0104468
0.0101075
0.00968459
0.00916778
0.00854665
0.00781188
0.00695653
0.00597755
0.00487734
0.00366496
0.00235623
0.000972149
-0.000463123
-0.00192116
-0.00337281
-0.00484076
-0.00651512
-0.00853969
0.0125417
0.0123679
0.0121511
0.0118641
0.0114893
0.0110092
0.010403
0.00964731
0.00871673
0.00758471
0.00622529
0.00461509
0.00273529
0.000572991
-0.00187542
-0.00459744
-0.00757802
-0.0109196
-0.0150598
-0.0201481
0.000243945
0.000750964
0.00126791
0.00179673
0.00234194
0.00290772
0.00349824
0.00411784
0.00477102
0.00546236
0.00619636
0.00697733
0.00780911
0.00869484
0.00963662
0.0106355
0.0116932
0.012819
0.0140457
0.0154856
0.000267191
0.000817786
0.00137799
0.00195061
0.00253993
0.00315024
0.00378595
0.00445165
0.00515224
0.00589287
0.00667904
0.00751661
0.00841201
0.00937245
0.0104063
0.0115239
0.0127387
0.0140731
0.0155676
0.0172482
0.000287962
0.000878136
0.00147755
0.00208935
0.00271793
0.00336761
0.00404289
0.00474858
0.00548983
0.00627228
0.00710213
0.00798644
0.00893348
0.00995341
0.0110594
0.0122703
0.0136144
0.0151359
0.0168962
0.0190038
0.00030657
0.00093199
0.0015663
0.00221275
0.0028757
0.00355948
0.00426862
0.00500797
0.00578281
0.00659897
0.00746303
0.00838264
0.0093669
0.0104271
0.0115776
0.0128377
0.0142338
0.015804
0.0176092
0.0197325
0.00032301
0.000979419
0.00164429
0.00232084
0.00301334
0.00372602
0.00446332
0.00522999
0.00603123
0.00687281
0.00776128
0.00870427
0.00971091
0.0107925
0.0119635
0.0132426
0.0146551
0.0162345
0.018023
0.0200741
0.000337297
0.00102057
0.00171174
0.00241398
0.00313133
0.00386785
0.00462778
0.00541562
0.0062363
0.00709526
0.00799861
0.00895341
0.00996794
0.0110521
0.0122179
0.01348
0.0148567
0.0163712
0.0180509
0.0199184
0.000349505
0.00105566
0.00176908
0.00249277
0.00323053
0.00398612
0.00476347
0.00556674
0.00640039
0.00726931
0.00817891
0.00913532
0.0101455
0.0112176
0.0123609
0.0135861
0.0149056
0.0163323
0.0178753
0.0195331
0.000359748
0.00108506
0.00181689
0.0025581
0.00331212
0.00408239
0.00487244
0.00568594
0.00652679
0.00739917
0.00830757
0.00925689
0.0102525
0.0113002
0.012406
0.0135764
0.0148174
0.0161331
0.017522
0.0189702
0.000368172
0.00110917
0.00185592
0.00261106
0.00337761
0.00415864
0.00495719
0.00577642
0.00661957
0.00749001
0.00839123
0.00932686
0.0103006
0.0113161
0.0123766
0.0134848
0.0146417
0.0158448
0.0170846
0.0183401
0.000374948
0.0011285
0.00188704
0.00265289
0.0034287
0.00421708
0.00502059
0.0058418
0.00668327
0.00754753
0.00843705
0.00935419
0.010301
0.0112791
0.0122894
0.0133312
0.0144018
0.0154948
0.0165971
0.0176862
0.000380265
0.00114362
0.00191118
0.00268498
0.00346725
0.00426012
0.00506569
0.00588592
0.00672269
0.00757772
0.00845251
0.00934824
0.0102656
0.0112045
0.0121638
0.0131406
0.0141297
0.015122
0.016103
0.0170505
0.000384321
0.0011551
0.00192933
0.00270875
0.00349516
0.00429026
0.00509562
0.00591268
0.00674264
0.00758647
0.00844479
0.00931774
0.0102048
0.0111045
0.0120142
0.0129295
0.0138436
0.0147464
0.0156234
0.0164544
0.000387316
0.00116352
0.0019425
0.00272565
0.00351437
0.00430995
0.00511349
0.00592589
0.00674778
0.00757945
0.00842074
0.00927091
0.0101285
0.010991
0.0118548
0.0127143
0.0135619
0.0143875
0.015177
0.0159125
0.000389448
0.00116947
0.00195164
0.00273704
0.00352671
0.00432154
0.00512221
0.00592915
0.00674246
0.00756183
0.00838647
0.00921495
0.010045
0.0108735
0.0116959
0.0125061
0.0132964
0.0140568
0.0147743
0.0154334
0.0003909
0.00117348
0.00195765
0.00274422
0.0035339
0.00432722
0.00512448
0.00592572
0.00673057
0.00753826
0.00834745
0.00915616
0.0099616
0.01076
0.0115465
0.0123147
0.0130569
0.0137635
0.0144228
0.0150211
0.000391841
0.00117604
0.00196137
0.00274837
0.00353748
0.00432893
0.00512271
0.0059185
0.00671557
0.00751276
0.00830831
0.00909982
0.0098841
0.010657
0.0114134
0.012147
0.01285
0.0135134
0.0141268
0.0146782
0.000392421
0.00117759
0.00196351
0.00275051
0.00353881
0.00432839
0.00511898
0.00591
0.00670042
0.00748878
0.00827301
0.0090504
0.00981747
0.0105699
0.0113023
0.0120085
0.0126809
0.013311
0.0138894
0.0144053
0.00039276
0.00117848
0.00196466
0.00275149
0.00353899
0.00432699
0.00511502
0.00590228
0.00668755
0.00746913
0.00824476
0.00901149
0.00976567
0.0105028
0.0112175
0.0119035
0.0125536
0.0131597
0.0137129
0.0142036
0.000392946
0.00117895
0.00196524
0.00275189
0.00353882
0.00432572
0.00511202
0.00589677
0.00667864
0.00745578
0.00822577
0.00898557
0.00973138
0.0104586
0.011162
0.0118351
0.012471
0.0130618
0.0135989
0.0140733
0.000393024
0.00117915
0.00196548
0.00275203
0.00353867
0.00432504
0.00511051
0.00589409
0.00667435
0.0074494
0.00821676
0.00897331
0.00971522
0.0104379
0.0111359
0.0118031
0.0124324
0.0130162
0.0135462
0.0140139
-0.000151795
-0.000376242
-0.000627829
-0.000891564
-0.00117416
-0.00148041
-0.0018159
-0.0021871
-0.00260155
-0.00306821
-0.00359832
-0.00420608
-0.00490677
-0.00571522
-0.00666776
-0.0078607
-0.00929146
-0.0102658
-0.0104787
-0.0211301
-0.000132376
-0.000319631
-0.000531585
-0.000753432
-0.000990942
-0.00124796
-0.00152881
-0.00183833
-0.00218176
-0.0025649
-0.00299419
-0.00347605
-0.00401375
-0.00460731
-0.00526793
-0.00600855
-0.00665365
-0.00652406
-0.00556926
-0.00733387
-0.000112406
-0.00026155
-0.000432931
-0.000611955
-0.000803441
-0.00101029
-0.00123562
-0.00148264
-0.00175444
-0.00205381
-0.00238276
-0.00274075
-0.00312159
-0.00351305
-0.00389929
-0.0042234
-0.00423725
-0.00344449
-0.00179828
0.000505185
-9.19917e-05
-0.000202307
-0.000332411
-0.000467952
-0.000612814
-0.000769004
-0.000938466
-0.00112292
-0.00132352
-0.0015404
-0.00177169
-0.00201141
-0.00224655
-0.00245537
-0.00260066
-0.00258767
-0.00217638
-0.00101474
0.00110765
0.00472977
-7.12393e-05
-0.000142209
-0.000230562
-0.000322228
-0.000420187
-0.000525609
-0.000639374
-0.000761886
-0.000892615
-0.00102947
-0.00116756
-0.00129704
-0.00140036
-0.0014489
-0.00139188
-0.00112349
-0.000443608
0.000914526
0.00324163
0.00690984
-5.02547e-05
-8.1558e-05
-0.000127908
-0.000175559
-0.000226635
-0.000281544
-0.000340225
-0.000401962
-0.000464854
-0.000525092
-0.000575662
-0.00060434
-0.000591091
-0.000503668
-0.000286562
0.000159474
0.000993944
0.00243621
0.00474883
0.00800586
-2.91407e-05
-2.0645e-05
-2.49533e-05
-2.86826e-05
-3.31611e-05
-3.81216e-05
-4.27013e-05
-4.52676e-05
-4.28711e-05
-3.05034e-05
1.19595e-07
6.23101e-05
0.000176872
0.000376586
0.000714741
0.00127576
0.00218441
0.00361891
0.00576084
0.00850107
-7.99545e-06
4.02533e-05
7.78307e-05
0.000117717
0.000159315
0.000203475
0.000251726
0.000306411
0.000371218
0.00045187
0.000557172
0.000700476
0.000901863
0.00119195
0.00161731
0.00224522
0.00317142
0.00453166
0.00642387
0.00865367
1.30879e-05
0.000100877
0.000180004
0.00026301
0.000349964
0.000442206
0.000541802
0.000651615
0.000775795
0.00092036
0.00109403
0.0013094
0.00158466
0.00194633
0.00243199
0.00309199
0.00399627
0.00523865
0.00685026
0.00861122
3.40221e-05
0.000160985
0.000281164
0.000406627
0.000538047
0.000677169
0.000826477
0.000989192
0.00116969
0.00137395
0.00161017
0.0018896
0.00222771
0.0026458
0.00317174
0.00384012
0.00469757
0.00579973
0.00712767
0.00846692
5.47261e-05
0.000220355
0.000380943
0.000548056
0.000722915
0.000907591
0.00110489
0.00131825
0.0015521
0.00181215
0.00210577
0.0024425
0.00283467
0.00329791
0.00385057
0.00451295
0.00531062
0.00626635
0.00732355
0.00828645
7.51251e-05
0.000278784
0.00047901
0.000686842
0.000904
0.00113282
0.00137634
0.00163813
0.00192254
0.00223486
0.00258149
0.00297012
0.00340982
0.00391066
0.00448224
0.00513221
0.00586753
0.00668309
0.00749338
0.00812187
9.51513e-05
0.00033609
0.000575067
0.00082258
0.00108081
0.00135229
0.00164026
0.00194834
0.00228072
0.00264223
0.00303827
0.00347473
0.00395758
0.00449186
0.00507956
0.00571754
0.00639671
0.0070882
0.00768387
0.00802168
0.000114745
0.000392106
0.000668848
0.000954909
0.0012529
0.00156554
0.00189618
0.00224849
0.00262648
0.00303453
0.00347712
0.00395854
0.00448208
0.00504854
0.00565374
0.00628579
0.00692231
0.00751435
0.00793653
0.00803452
0.000133845
0.000446677
0.000760111
0.00108351
0.00141991
0.00177215
0.00214371
0.00253827
0.00295971
0.00341201
0.00389893
0.00442346
0.00498679
0.00558651
0.0062138
0.00685034
0.00746329
0.00798794
0.00828805
0.00820883
0.00015237
0.000499648
0.000848643
0.00120809
0.00158147
0.00197174
0.00238248
0.00281739
0.00328027
0.00377484
0.00430434
0.00487087
0.00547424
0.00610996
0.00676637
0.00742091
0.00803332
0.0085284
0.00876762
0.00858843
0.000170205
0.000550866
0.000934264
0.00132841
0.00173729
0.00216399
0.00261216
0.00308558
0.00358801
0.00412304
0.00469366
0.00530155
0.00594591
0.00662146
0.00731562
0.00800414
0.00864272
0.00915106
0.00939659
0.00920901
0.000187328
0.000600216
0.00101682
0.00144427
0.00188712
0.00234863
0.0028325
0.0033426
0.00388276
0.00445657
0.00506705
0.00571589
0.00640248
0.0071221
0.00786341
0.00860383
0.00930016
0.0098736
0.0101996
0.0101037
0.000204185
0.000647624
0.0010961
0.00155548
0.00203076
0.00252543
0.00304327
0.00358826
0.00416437
0.00477538
0.00542454
0.00611402
0.00684407
0.00761173
0.00840893
0.00921867
0.010007
0.0107099
0.011217
0.0113216
0.000221682
0.000692956
0.00117181
0.00166181
0.00216797
0.00269411
0.00324415
0.00382223
0.00443251
0.00507907
0.00576564
0.00649521
0.00726943
0.00808784
0.00894672
0.00983703
0.0107409
0.0116272
0.0124346
0.012953
-0.00033841
-0.000936428
-0.0015783
-0.002242
-0.00293726
-0.00366856
-0.00444066
-0.00525826
-0.00612557
-0.00704575
-0.00801978
-0.00904422
-0.0101073
-0.0111827
-0.0122217
-0.0131474
-0.0138751
-0.0143814
-0.0146782
-0.0151689
-0.000337799
-0.000935199
-0.00157544
-0.00223956
-0.0029361
-0.00367026
-0.00444735
-0.00527269
-0.00615126
-0.00708721
-0.00808278
-0.00913625
-0.010238
-0.0113638
-0.0124659
-0.0134647
-0.0142658
-0.014829
-0.0151597
-0.0154906
-0.000336646
-0.000931758
-0.00156938
-0.00223209
-0.00292836
-0.0036638
-0.00444435
-0.00527604
-0.00616472
-0.00711566
-0.00813253
-0.00921544
-0.010357
-0.0115353
-0.0127039
-0.0137802
-0.0146566
-0.0152719
-0.0156333
-0.0158818
-0.000334811
-0.000925736
-0.00155943
-0.00221898
-0.00291324
-0.00364823
-0.0044305
-0.00526685
-0.00616411
-0.00712877
-0.00816611
-0.00927825
-0.0104602
-0.011693
-0.0129316
-0.0140906
-0.0150481
-0.0157208
-0.0161176
-0.0163459
-0.00033232
-0.000917195
-0.00154538
-0.00219995
-0.0028903
-0.00362288
-0.00440489
-0.00524394
-0.00614792
-0.00712467
-0.00818124
-0.00932198
-0.0105447
-0.0118335
-0.013146
-0.0143941
-0.0154422
-0.0161846
-0.0166231
-0.0168629
-0.000328954
-0.000906013
-0.00152686
-0.00217454
-0.00285893
-0.00358695
-0.00436645
-0.00520591
-0.00611433
-0.00710102
-0.00817498
-0.00934307
-0.0106062
-0.0119525
-0.0133431
-0.0146882
-0.0158402
-0.01667
-0.0171595
-0.0174316
-0.000324656
-0.000892084
-0.00150365
-0.00214238
-0.00281858
-0.00353969
-0.00431418
-0.00515141
-0.00606155
-0.00705551
-0.0081444
-0.00933785
-0.0106405
-0.0120453
-0.013518
-0.0149691
-0.0162414
-0.0171821
-0.0177339
-0.0180593
-0.000319355
-0.000875266
-0.00147549
-0.00210307
-0.00276874
-0.00348035
-0.00424705
-0.00507903
-0.0059877
-0.00698562
-0.00808619
-0.00930213
-0.0106424
-0.0121058
-0.0136644
-0.015231
-0.0166428
-0.0177245
-0.0183514
-0.0187576
-0.000313007
-0.000855442
-0.00144216
-0.0020563
-0.00270891
-0.00340826
-0.00416408
-0.00498744
-0.00589091
-0.0068888
-0.00799691
-0.00923137
-0.0106061
-0.012127
-0.0137742
-0.0154655
-0.0170385
-0.0182992
-0.0190159
-0.0195419
-0.000305573
-0.000832506
-0.00140349
-0.00200178
-0.00263866
-0.00332278
-0.0040644
-0.00487534
-0.00576935
-0.00676246
-0.00787296
-0.00912061
-0.0105249
-0.0121004
-0.0138369
-0.015661
-0.017419
-0.0189043
-0.0197299
-0.0204312
-0.000297023
-0.00080638
-0.00135933
-0.00193928
-0.00255767
-0.00322342
-0.00394722
-0.0047416
-0.00562134
-0.00660411
-0.00771069
-0.00896464
-0.0103917
-0.012016
-0.0138393
-0.0158017
-0.0177695
-0.0195308
-0.0204936
-0.0214459
-0.000287336
-0.000777012
-0.0013096
-0.00186865
-0.00246568
-0.00310978
-0.00381196
-0.00458526
-0.00544539
-0.00641147
-0.00750658
-0.00875813
-0.0101985
-0.0118623
-0.0137652
-0.0158667
-0.0180669
-0.0201569
-0.0213035
-0.0226025
-0.000276505
-0.000744384
-0.00125425
-0.00178984
-0.00236258
-0.00298166
-0.00365822
-0.00440566
-0.00524034
-0.00618257
-0.00725746
-0.00849598
-0.00993715
-0.0116266
-0.0135954
-0.0158294
-0.0182763
-0.0207423
-0.0221501
-0.0239054
-0.00026453
-0.000708513
-0.00119333
-0.00170286
-0.00224839
-0.00283902
-0.00348586
-0.00420243
-0.00500545
-0.00591599
-0.00696067
-0.00817357
-0.00959999
-0.0112962
-0.0133092
-0.0156568
-0.0183496
-0.0212266
-0.0230119
-0.025336
-0.00025143
-0.000669455
-0.00112692
-0.00160788
-0.0021233
-0.00268206
-0.00329507
-0.00397566
-0.00474053
-0.00561096
-0.0066144
-0.00778723
-0.00918008
-0.0108584
-0.0128845
-0.015312
-0.0182302
-0.021535
-0.023832
-0.0268342
-0.000237233
-0.000627305
-0.0010552
-0.00150514
-0.00198764
-0.00251122
-0.00308634
-0.00372588
-0.00444604
-0.00526766
-0.00621805
-0.0073347
-0.00867179
-0.0103012
-0.0122981
-0.0147564
-0.0178618
-0.0215825
-0.0244602
-0.0282491
-0.000221984
-0.000582201
-0.000978413
-0.001395
-0.00184193
-0.00232717
-0.00286056
-0.00345417
-0.00412324
-0.00488742
-0.00577274
-0.00681608
-0.008072
-0.00961364
-0.0115255