/*--------------------------------*- C++ -*----------------------------------*\
| =========                 |                                                 |
| \\      /  F ield         | OpenFOAM: The Open Source CFD Toolbox           |
|  \\    /   O peration     | Version:  v1806                                 |
|   \\  /    A nd           | Web:      www.OpenFOAM.com                      |
|    \\/     M anipulation  |                                                 |
\*---------------------------------------------------------------------------*/
FoamFile
{
    version     2.0;
    format      ascii;
    class       surfaceScalarField;
    location    "260";
    object      phi;
}
// * * * * * * * * * * * * * * * * * * * * * * * * * * * * * * * * * * * * * //

dimensions      [0 3 -1 0 0 0 0];
oriented        oriented;


internalField   nonuniform List<scalar> 
4680
(
0.104998
-6.46677e-05
0.104999
-0.000390329
0.104992
-0.000531783
0.104991
-0.000905937
0.10498
-0.00108405
0.104975
-0.00155658
0.104956
-0.00182528
0.104947
-0.00243068
0.104919
-0.00285147
0.104904
-0.00365373
0.104866
-0.00429217
0.104844
-0.00530509
0.1048
-0.00622302
0.104773
-0.00747257
0.104733
-0.00864472
0.104715
-0.00998136
0.104704
-0.0112151
0.104719
-0.0123568
0.104755
-0.0131649
-0.0135587
0.104831
0.104995
-5.97274e-05
0.104997
-0.000392272
0.104984
-0.000519193
0.104982
-0.000903996
0.104961
-0.00106261
0.104955
-0.00155052
0.104922
-0.00179238
0.104911
-0.00241918
0.104864
-0.00280506
0.104846
-0.00363539
0.104785
-0.00423171
0.104762
-0.00528133
0.104695
-0.00615683
0.104673
-0.00745006
0.104623
-0.00859512
0.104625
-0.00998348
0.104637
-0.0112265
0.104701
-0.0124206
0.104809
-0.0132734
-0.0137061
0.104957
0.104992
-5.1764e-05
0.104995
-0.000395437
0.104975
-0.00049879
0.104972
-0.000901409
0.104938
-0.00102825
0.10493
-0.00154245
0.104878
-0.00174044
0.104863
-0.00240441
0.104791
-0.00273263
0.104768
-0.00361299
0.104675
-0.00413864
0.104649
-0.00525485
0.104548
-0.00605647
0.10453
-0.00743168
0.104459
-0.00852401
0.104484
-0.0100087
0.104513
-0.0112558
0.104636
-0.0125433
0.104821
-0.0134584
-0.0139453
0.10506
0.104989
-4.10492e-05
0.104993
-0.000399449
0.104965
-0.000470818
0.104962
-0.000897608
0.104914
-0.000980973
0.104903
-0.0015315
0.104832
-0.00166887
0.104813
-0.00238523
0.104712
-0.00263239
0.104685
-0.00358534
0.104555
-0.00400909
0.104525
-0.00522496
0.104383
-0.00591452
0.10437
-0.00741828
0.104266
-0.00841977
0.104317
-0.0100602
0.104353
-0.0112913
0.104539
-0.0127302
0.104803
-0.0137218
-0.0142905
0.105148
0.104987
-2.79557e-05
0.104991
-0.000403926
0.104956
-0.000435722
0.104951
-0.000892209
0.104891
-0.000921221
0.104877
-0.00151725
0.104786
-0.00157775
0.104762
-0.00236132
0.104633
-0.00250347
0.1046
-0.00355252
0.104431
-0.00384001
0.104399
-0.00519267
0.104208
-0.00572373
0.104203
-0.00741285
0.104051
-0.00826874
0.104136
-0.0101444
0.10416
-0.0113153
0.104421
-0.0129917
0.104761
-0.0140612
-0.0147522
0.105222
0.104985
-1.29958e-05
0.104989
-0.000408313
0.104948
-0.000394186
0.10494
-0.000884672
0.104869
-0.000849806
0.104851
-0.0014992
0.104741
-0.00146774
0.104712
-0.0023323
0.104554
-0.00234575
0.104516
-0.00351454
0.104305
-0.00362924
0.104272
-0.00515888
0.104025
-0.00547721
0.104031
-0.00741849
0.103818
-0.00805578
0.103943
-0.0102695
0.103932
-0.0113048
0.104285
-0.0133446
0.10469
-0.0144662
-0.0153487
0.105287
0.104984
3.16993e-06
0.104987
-0.000411847
0.10494
-0.000347172
0.10493
-0.0008742
0.104848
-0.000767964
0.104825
-0.00147643
0.104698
-0.00134014
0.104663
-0.00229724
0.104477
-0.00216003
0.104433
-0.00347056
0.104179
-0.00337575
0.104144
-0.00512323
0.103836
-0.0051692
0.103854
-0.00743662
0.103564
-0.00776549
0.103737
-0.0104434
0.103664
-0.0112313
0.10413
-0.0138109
0.104578
-0.0149143
-0.0161124
0.105342
0.104983
1.97097e-05
0.104985
-0.00041352
0.104934
-0.000295955
0.104919
-0.000859675
0.104829
-0.000677409
0.1048
-0.00144758
0.104657
-0.001197
0.104614
-0.00225446
0.104402
-0.00194824
0.10435
-0.00341855
0.104055
-0.00308013
0.104015
-0.00508336
0.103641
-0.00479592
0.10367
-0.00746551
0.103289
-0.00738379
0.103516
-0.0106703
0.103348
-0.0110641
0.103953
-0.0144157
0.104411
-0.0153724
-0.0170893
0.105388
0.104984
3.56841e-05
0.104983
-0.000412114
0.104929
-0.000242156
0.104909
-0.000839616
0.104812
-0.000580422
0.104775
-0.00141066
0.104619
-0.00104121
0.104566
-0.00220131
0.104331
-0.00171365
0.104268
-0.00335491
0.103933
-0.00274496
0.103883
-0.00503431
0.103444
-0.00435633
0.103478
-0.00749918
0.102993
-0.00689943
0.103272
-0.0109488
0.102979
-0.0107718
0.103747
-0.0151833
0.104174
-0.0157994
-0.0183416
0.105426
0.104986
4.99623e-05
0.10498
-0.000406095
0.104925
-0.000187805
0.104898
-0.000812112
0.104797
-0.000479926
0.10475
-0.00136299
0.104585
-0.000876733
0.104518
-0.00213406
0.104265
-0.00146114
0.104185
-0.00327432
0.103815
-0.00237526
0.103749
-0.0049683
0.103246
-0.00385285
0.103273
-0.00752667
0.102679
-0.00630531
0.102999
-0.0112688
0.102552
-0.0103246
0.103501
-0.016133
0.103849
-0.0161466
-0.019953
0.10546
0.104989
6.12502e-05
0.104976
-0.00039362
0.104924
-0.00013539
0.104886
-0.000774752
0.104786
-0.000379608
0.104724
-0.00130103
0.104556
-0.000708761
0.10447
-0.00204761
0.104206
-0.00119752
0.104101
-0.00316939
0.103705
-0.00197892
0.103611
-0.00487431
0.10305
-0.00329198
0.103055
-0.00753146
0.102349
-0.00559937
0.10269
-0.0116104
0.102061
-0.00969543
0.103203
-0.017275
0.103413
-0.0163567
-0.0220374
0.105498
0.104993
6.81309e-05
0.104972
-0.00037254
0.104925
-8.78721e-05
0.104874
-0.000724565
0.104779
-0.000284039
0.104698
-0.00122016
0.104533
-0.00054409
0.104421
-0.00193503
0.104155
-0.000932268
0.104016
-0.00302988
0.103605
-0.00156776
0.103468
-0.00473723
0.102861
-0.00268559
0.102821
-0.00749085
0.102007
-0.00478581
0.102339
-0.0119427
0.101505
-0.00886084
0.102836
-0.0186057
0.10284
-0.0163608
-0.024753
0.105555
0.104999
6.92296e-05
0.104967
-0.000340576
0.104928
-4.85757e-05
0.104861
-0.000658081
0.104776
-0.000198697
0.10467
-0.00111447
0.104518
-0.000391493
0.104369
-0.00178689
0.104116
-0.000678554
0.103927
-0.00284123
0.103519
-0.00115965
0.103317
-0.00453551
0.102686
-0.00205394
0.102568
-0.00737341
0.10166
-0.00387802
0.101939
-0.0122218
0.100881
-0.00780233
0.102378
-0.0201025
0.102089
-0.0160721
-0.0283232
0.105659
0.105006
6.35472e-05
0.104961
-0.000295963
0.104933
-2.03843e-05
0.104847
-0.000572024
0.104777
-0.000129101
0.10464
-0.000977499
0.10451
-0.000261523
0.104314
-0.00159095
0.10409
-0.000454596
0.103831
-0.00258221
0.103454
-0.000782187
0.103154
-0.00423584
0.102533
-0.00143255
0.102291
-0.00713108
0.101321
-0.00290806
0.101482
-0.0123836
0.100191
-0.00651146
0.101812
-0.021723
0.101105
-0.0153653
-0.0330679
0.10585
0.105013
5.09018e-05
0.104955
-0.000238073
0.104939
-4.92448e-06
0.104832
-0.000464731
0.104782
-7.88639e-05
0.104609
-0.000805001
0.10451
-0.000162256
0.104256
-0.00133656
0.10408
-0.000279105
0.103725
-0.00222707
0.103419
-0.000476238
0.102968
-0.0037846
0.102421
-0.000885532
0.10197
-0.00667998
0.101011
-0.00194894
0.100945
-0.0123181
0.0994489
-0.00501533
0.101122
-0.0233964
0.0998143
-0.0140574
-0.0394481
0.106194
0.105018
3.24552e-05
0.104949
-0.000168194
0.104945
-1.62986e-06
0.104818
-0.000337413
0.104787
-4.82215e-05
0.10458
-0.000597329
0.104514
-9.64095e-05
0.104198
-0.00102071
0.10408
-0.000160766
0.103615
-0.00176257
0.103407
-0.000268129
0.102757
-0.00313423
0.102373
-0.000502357
0.101562
-0.00586865
0.100774
-0.00116122
0.100256
-0.0117999
0.0986984
-0.00345748
0.10023
-0.0249283
0.0981222
-0.0119493
-0.0482873
0.106961
0.105021
1.09938e-05
0.104943
-8.99565e-05
0.104949
-7.19772e-06
0.104807
-0.000195212
0.104791
-3.24148e-05
0.104555
-0.000361802
0.104517
-5.80359e-05
0.104149
-0.000652445
0.104082
-9.3767e-05
0.103515
-0.00119621
0.103405
-0.000158041
0.102548
-0.00227745
0.102355
-0.000308725
0.101111
-0.0046246
0.10069
-0.000740438
0.0992308
-0.0103407
0.0980376
-0.00226431
0.0988066
-0.0256973
0.0959772
-0.00911986
-0.0613067
0.108997
0.10502
-9.26772e-06
0.10494
-9.48849e-06
0.104948
-1.51375e-05
0.1048
-4.76372e-05
0.104789
-2.10967e-05
0.104541
-0.000113853
0.104513
-3.04484e-05
0.104118
-0.000256685
0.104075
-5.14857e-05
0.103446
-0.000566775
0.103394
-0.000105914
0.102386
-0.00126942
0.10233
-0.000253413
0.10069
-0.00298466
0.100618
-0.000667557
0.0980584
-0.00778159
0.0977551
-0.00196102
0.0959816
-0.0239238
0.0935882
-0.00672645
-0.08046
0.112742
0.105015
-2.42843e-05
0.104937
6.82557e-05
0.104943
-2.09618e-05
0.104798
9.75805e-05
0.104782
-5.4133e-06
0.104536
0.000132169
0.104503
2.61222e-06
0.104106
0.000140505
0.104058
-3.44541e-06
0.103416
7.49842e-05
0.10336
-4.98553e-05
0.102303
-0.000212425
0.10226
-0.000209953
0.100436
-0.00116091
0.100452
-0.000683518
0.0970794
-0.00440914
0.0973139
-0.00219558
0.0918542
-0.0184641
0.091889
-0.00676129
-0.10164
0.113069
0.105002
-2.6096e-05
0.104947
0.000122932
0.104926
5.93382e-07
0.104812
0.000211227
0.104757
4.91099e-05
0.104559
0.000330702
0.104466
9.54436e-05
0.10414
0.000466729
0.103998
0.000138209
0.103463
0.000610111
0.10326
0.000153468
0.10236
0.000687298
0.102073
7.6694e-05
0.100461
0.000451443
0.10004
-0.0002627
0.0967897
-0.00115861
0.0960521
-0.00145801
0.0883606
-0.0107726
0.0921278
-0.0105285
0.096605
-0.106117
0.104849
-0.00158389
0.104858
-0.00157621
0.104868
-0.00157108
0.104878
-0.00156496
0.104889
-0.00155792
0.104899
-0.00155
0.10491
-0.00154121
0.10492
-0.00153154
0.104931
-0.00152099
-0.00150951
0.104941
0.104971
-0.00159808
0.104989
-0.00159447
0.105007
-0.00158938
0.105026
-0.00158335
0.105044
-0.00157637
0.105063
-0.00156845
0.105081
-0.0015596
0.105099
-0.00154984
0.105118
-0.00153918
-0.00152771
0.105136
0.10509
-0.00162797
0.10512
-0.00162422
0.10515
-0.00161914
0.105179
-0.001613
0.105209
-0.00160583
0.105238
-0.00159763
0.105267
-0.00158841
0.105295
-0.00157819
0.105323
-0.00156699
-0.00155484
0.10535
0.105191
-0.00167042
0.105233
-0.00166661
0.105275
-0.00166148
0.105317
-0.00165517
0.105359
-0.00164768
0.105401
-0.00163903
0.105441
-0.00162923
0.105482
-0.00161831
0.105521
-0.00160629
-0.00159322
0.105559
0.105279
-0.00172709
0.105336
-0.00172342
0.105393
-0.00171825
0.105449
-0.00171167
0.105505
-0.0017037
0.105561
-0.00169438
0.105615
-0.00168372
0.105668
-0.00167175
0.105721
-0.00165852
-0.00164407
0.105772
0.105361
-0.00180082
0.105434
-0.00179721
0.105508
-0.00179191
0.105581
-0.0017849
0.105654
-0.00177621
0.105725
-0.00176589
0.105796
-0.00175398
0.105864
-0.00174053
0.105931
-0.00172557
-0.0017092
0.105996
0.105437
-0.00189543
0.105531
-0.00189163
0.105625
-0.00188602
0.105719
-0.00187825
0.105811
-0.00186844
0.105902
-0.00185666
0.105991
-0.00184294
0.106077
-0.00182736
0.106162
-0.00180998
-0.00179092
0.106244
0.105509
-0.00201613
0.105629
-0.00201173
0.105748
-0.00200537
0.105866
-0.00199631
0.105983
-0.00198474
0.106097
-0.00197075
0.106208
-0.0019544
0.106317
-0.00193579
0.106422
-0.001915
-0.00189221
0.106523
0.10558
-0.00216989
0.105732
-0.00216415
0.105883
-0.00215628
0.106032
-0.00214502
0.106178
-0.0021307
0.106321
-0.0021134
0.106459
-0.0020932
0.106594
-0.00207024
0.106724
-0.00204464
-0.00201665
0.106848
0.105656
-0.00236597
0.105849
-0.00235748
0.10604
-0.00234683
0.106227
-0.00233197
0.10641
-0.00231338
0.106587
-0.00229114
0.10676
-0.00226533
0.106925
-0.00223614
0.107085
-0.00220376
-0.00216854
0.107236
0.105748
-0.00261635
0.105994
-0.00260281
0.106234
-0.00258739
0.106469
-0.00256676
0.106697
-0.00254165
0.106918
-0.00251207
0.107131
-0.0024781
0.107335
-0.00244
0.107529
-0.00239807
-0.00235277
0.107713
0.105874
-0.00293541
0.106186
-0.0029143
0.106489
-0.00289102
0.106784
-0.00286145
0.107069
-0.00282651
0.107343
-0.00278612
0.107605
-0.00274034
0.107855
-0.00268958
0.108091
-0.00263423
-0.00257499
0.108313
0.106066
-0.00334195
0.10646
-0.0033091
0.106843
-0.00327387
0.107213
-0.00323104
0.107568
-0.00318169
0.107908
-0.00312563
0.10823
-0.00306295
0.108535
-0.00299427
0.108821
-0.00292015
-0.00284161
0.109087
0.106371
-0.00386266
0.106872
-0.00381066
0.107356
-0.00375778
0.107821
-0.00369579
0.108265
-0.00362591
0.108687
-0.00354772
0.109086
-0.00346133
0.109459
-0.00336763
0.109806
-0.00326733
-0.00316171
0.110126
0.106885
-0.0045536
0.107538
-0.00446297
0.108162
-0.00438155
0.108755
-0.00428959
0.109318
-0.00418853
0.109848
-0.00407766
0.110344
-0.00395704
0.110804
-0.00382787
0.111227
-0.00369096
-0.00354999
0.111616
0.107885
-0.00547669
0.108754
-0.00533285
0.109579
-0.00520614
0.110355
-0.00506521
0.111079
-0.00491264
0.111749
-0.00474783
0.112363
-0.00457093
0.112919
-0.00438366
0.113414
-0.00418638
-0.00398221
0.113846
0.110039
-0.00651881
0.111111
-0.00640508
0.112096
-0.00619147
0.113002
-0.00597082
0.113827
-0.00573742
0.114566
-0.00548715
0.115216
-0.00522084
0.115775
-0.00494239
0.11624
-0.00465218
-0.00436774
0.116626
0.114103
-0.00788019
0.115041
-0.00734292
0.115788
-0.00693839
0.116366
-0.0065489
0.116787
-0.00615889
0.117061
-0.00576126
0.117197
-0.00535623
0.117199
-0.0049448
0.117069
-0.00452236
-0.00410832
0.11681
0.113012
-0.00782365
0.112764
-0.0070948
0.112213
-0.00638752
0.111416
-0.00575113
0.110407
-0.00515064
0.109231
-0.00458463
0.10793
-0.00405593
0.106548
-0.00356197
0.105117
-0.00309164
-0.00261036
0.103619
0.0887813
0.0816865
0.075299
0.0695479
0.0643972
0.0598126
0.0557567
0.0521947
0.0491031
0.0464927
0.104983
-0.00555524
0.105025
-0.00534715
0.105064
-0.00510494
0.105101
-0.00483689
0.105134
-0.00455034
0.105163
-0.00425332
0.105188
-0.00395313
0.105207
-0.0036567
0.105222
-0.00336959
0.105233
-0.00309721
0.105239
-0.00284318
0.105242
-0.00261162
0.105242
-0.00240412
0.105238
-0.00222401
0.105232
-0.00207045
0.105223
-0.00194749
0.105211
-0.00184981
0.105198
-0.00178682
0.105183
-0.00174195
-0.00174291
0.105199
-0.00561889
0.105257
-0.00540461
0.105306
-0.00515396
0.105345
-0.00487646
0.105375
-0.00458022
0.105396
-0.00427365
0.105407
-0.00396442
0.10541
-0.00365974
0.105406
-0.00336535
0.105395
-0.0030867
0.105379
-0.00282747
0.105359
-0.00259158
0.105336
-0.0023807
0.10531
-0.00219782
0.105282
-0.00204224
0.105252
-0.00191755
0.105221
-0.00181877
0.105188
-0.00175465
0.105156
-0.00170949
-0.00170912
0.105446
-0.00571522
0.10553
-0.00548805
0.105598
-0.00522212
0.105649
-0.00492789
0.105684
-0.00461462
0.105702
-0.00429165
0.105705
-0.00396728
0.105694
-0.00364913
0.105672
-0.00334317
0.10564
-0.00305484
0.1056
-0.00278786
0.105555
-0.00254587
0.105504
-0.00233055
0.105451
-0.00214437
0.105396
-0.00198674
0.105339
-0.00186062
0.105281
-0.00176128
0.105223
-0.00169678
0.105165
-0.00165167
-0.00165093
0.105694
-0.00584978
0.105809
-0.00560293
0.1059
-0.00531373
0.105967
-0.00499461
0.106009
-0.00465642
0.106027
-0.00430974
0.106023
-0.00396379
0.106001
-0.00362663
0.105962
-0.00330456
0.10591
-0.00300292
0.105848
-0.00272544
0.105778
-0.00247535
0.105701
-0.00225426
0.105621
-0.00206401
0.105538
-0.00190401
0.105454
-0.00177651
0.10537
-0.0016768
0.105285
-0.00161237
0.105201
-0.00156758
-0.00156751
0.105949
-0.00602713
0.106098
-0.00575234
0.106215
-0.00543068
0.106298
-0.00507741
0.106347
-0.00470553
0.106365
-0.00432726
0.106354
-0.00395293
0.106318
-0.00359113
0.106262
-0.00324843
0.106189
-0.00292998
0.106103
-0.00263945
0.106007
-0.00237948
0.105905
-0.00215154
0.105797
-0.00195668
0.105687
-0.00179418
0.105576
-0.00166551
0.105465
-0.00156577
0.105355
-0.00150199
0.105245
-0.00145792
-0.00145926
0.106222
-0.00625272
0.106409
-0.00593968
0.106553
-0.00557438
0.106652
-0.00517602
0.106707
-0.00476041
0.106721
-0.00434183
0.1067
-0.00393187
0.106649
-0.00353961
0.106572
-0.00317181
0.106475
-0.00283328
0.106363
-0.00252747
0.10624
-0.00225624
0.106109
-0.00202079
0.105974
-0.00182119
0.105836
-0.00165648
0.105698
-0.00152722
0.10556
-0.00142814
0.105424
-0.00136591
0.105289
-0.00132317
-0.00132681
0.106524
-0.00653346
0.106753
-0.00616884
0.106925
-0.005746
0.107038
-0.00528936
0.107096
-0.00481839
0.107104
-0.00434975
0.107069
-0.00389638
0.106997
-0.00346771
0.106896
-0.00307048
0.106771
-0.00270888
0.10663
-0.00238599
0.106476
-0.00210263
0.106315
-0.00185954
0.106149
-0.0016556
0.105982
-0.00148949
0.105816
-0.00136071
0.105651
-0.00126344
0.105489
-0.00120408
0.10533
-0.00116356
-0.00117072
0.106867
-0.00687779
0.107143
-0.00644411
0.107343
-0.00594619
0.107469
-0.00541525
0.107526
-0.00487532
0.107522
-0.00434577
0.107466
-0.00384075
0.107368
-0.00336967
0.107236
-0.00293897
0.107079
-0.00255182
0.106904
-0.00221069
0.106716
-0.00191495
0.106522
-0.0016648
0.106324
-0.00145752
0.106126
-0.00129145
0.10593
-0.00116482
0.105737
-0.00107109
0.10555
-0.00101642
0.105365
-0.000979367
-0.00099169
0.107266
-0.00729554
0.107591
-0.00676972
0.10782
-0.00617441
0.107954
-0.00554967
0.108004
-0.00492504
0.107981
-0.00432263
0.107897
-0.00375743
0.107766
-0.00323818
0.107597
-0.00277055
0.107402
-0.00235612
0.107187
-0.00199648
0.106961
-0.00168896
0.10673
-0.00143312
0.106497
-0.00122428
0.106266
-0.00106049
0.106039
-0.000938355
0.105819
-0.000850542
0.105605
-0.000803014
0.105397
-0.000771151
-0.000790709
0.107739
-0.00779766
0.108118
-0.00714909
0.108372
-0.00642803
0.108508
-0.00568588
0.108541
-0.00495857
0.108489
-0.00427054
0.108368
-0.00363668
0.108194
-0.00306411
0.107981
-0.00255708
0.10774
-0.00211482
0.107481
-0.00173757
0.107212
-0.00141987
0.106939
-0.00116075
0.106668
-0.000952954
0.106402
-0.000794572
0.106144
-0.000680005
0.105894
-0.000601362
0.105655
-0.000564023
0.105424
-0.00053968
-0.000568924
0.108311
-0.00839563
0.108746
-0.00758367
0.109019
-0.00670095
0.109146
-0.00581329
0.109151
-0.00496339
0.109057
-0.00417666
0.108887
-0.00346628
0.108659
-0.0028364
0.108391
-0.00228905
0.108096
-0.00182002
0.107786
-0.00142744
0.107468
-0.00110234
0.107151
-0.000843407
0.106838
-0.000640023
0.106535
-0.000491107
0.106243
-0.000387845
0.105964
-0.000322581
0.105699
-0.000299014
0.105444
-0.000285268
-0.000326763
0.109018
-0.00910085
0.109506
-0.0080717
0.109788
-0.00698228
0.109891
-0.00591649
0.10985
-0.00492273
0.109698
-0.00402464
0.109463
-0.00323117
0.109169
-0.00254169
0.108835
-0.00195517
0.108477
-0.00146206
0.108107
-0.00105784
0.107734
-0.000729282
0.107366
-0.000474945
0.107005
-0.000279783
0.106659
-0.000144981
0.106329
-5.71815e-05
0.106016
-1.04342e-05
0.105722
-4.61297e-06
0.105442
-5.44455e-06
-6.15102e-05
0.109912
-0.00992516
0.110447
-0.00860725
0.11072
-0.00725516
0.110778
-0.00597395
0.110669
-0.00481372
0.110436
-0.00379215
0.110116
-0.00291061
0.109736
-0.00216166
0.109319
-0.00153865
0.108883
-0.00102571
0.108439
-0.000614525
0.107997
-0.000286905
0.107564
-4.24528e-05
0.107144
0.00014052
0.106743
0.000256519
0.106361
0.000324555
0.106003
0.000347724
0.105667
0.00033126
0.10535
0.000310975
0.000237057
0.111083
-0.0108821
0.111652
-0.00917642
0.111888
-0.00749054
0.111863
-0.0059496
0.111646
-0.00459664
0.111293
-0.00343842
0.110847
-0.00246507
0.110345
-0.00165946
0.109811
-0.00100504
0.109263
-0.000477613
0.108715
-6.5965e-05
0.108172
0.000255618
0.107642
0.000487125
0.107131
0.000651734
0.106644
0.000744131
0.106181
0.000786897
0.105748
0.000780914
0.105344
0.000735779
0.104964
0.000690846
0.000593914
0.112701
-0.0119673
0.11325
-0.00972567
0.113368
-0.00760837
0.11317
-0.0057519
0.112749
-0.00417503
0.112177
-0.0028668
0.111513
-0.00180136
0.110801
-0.000947644
0.110071
-0.00027495
0.109339
0.000254323
0.108614
0.000659291
0.107907
0.000963006
0.107221
0.00117331
0.106561
0.00131149
0.105931
0.00137447
0.105335
0.00138237
0.104775
0.00134097
0.104256
0.00125484
0.103767
0.00117982
0.00104615
0.11492
-0.0130414
0.115213
-0.0100182
0.114952
-0.00734769
0.114324
-0.00512329
0.113461
-0.00331224
0.112457
-0.0018634
0.11138
-0.000723594
0.110292
0.000139778
0.109216
0.000801374
0.108173
0.00129725
0.107169
0.00166365
0.106206
0.00192565
0.105284
0.00209549
0.104407
0.00218823
0.103572
0.00220943
0.10279
0.00216472
0.102052
0.00207869
0.101379
0.00192816
0.100742
0.00181664
0.00161412
0.117017
-0.0134327
0.116377
-0.00937816
0.115109
-0.00607929
0.113495
-0.00350927
0.111725
-0.00154238
0.109946
-8.48087e-05
0.108196
0.00102717
0.106533
0.00180251
0.104984
0.00234979
0.103548
0.00273383
0.102214
0.00299751
0.100975
0.00316414
0.0998184
0.00325253
0.0987396
0.003267
0.0977258
0.0032232
0.0967891
0.00310143
0.0959109
0.00295697
0.0951273
0.0027117
0.0943884
0.00255556
0.00222808
0.114571
-0.0111934
0.111728
-0.00653599
0.108533
-0.00288407
0.10535
-0.00032562
0.102351
0.00145665
0.0996237
0.00264212
0.0972401
0.00341072
0.095162
0.0038806
0.09336
0.00415185
0.0917983
0.00429545
0.0904352
0.00436063
0.0892321
0.00436726
0.0881518
0.00433284
0.0871742
0.00424462
0.0862744
0.00412302
0.0854577
0.00391806
0.0847009
0.00371382
0.0840516
0.00336098
0.0834491
0.00315809
0.00264864
0.0963034
-0.0038779
0.0903323
-0.000564885
0.0851705
0.0022778
0.0810943
0.00375054
0.0778831
0.00466782
0.0754392
0.00508604
0.0736127
0.00523727
0.0722725
0.0052208
0.0713046
0.00511975
0.0706138
0.0049862
0.0701207
0.00485379
0.0697591
0.00472879
0.0694783
0.00461364
0.0692453
0.00447765
0.0690358
0.00433253
0.0688533
0.00410053
0.068685
0.00388209
0.0685867
0.00345928
0.0685093
0.00323557
0.00252444
0.0433065
-0.000691657
0.0410766
0.00166499
0.0397503
0.00360409
0.0394704
0.00403043
0.039712
0.00442619
0.0403882
0.00440991
0.0413153
0.00431014
0.0424019
0.00413421
0.04357
0.00395161
0.0447638
0.0037924
0.0459406
0.00367699
0.0470659
0.0036035
0.0481185
0.00356111
0.0490846
0.00351148
0.0499647
0.00345253
0.0507724
0.0032928
0.0515158
0.00313868
0.0522574
0.00271769
0.0529504
0.00254261
0.00166683
0.00360885
-0.0043005
0.0044292
0.000844631
0.00494112
0.00309217
0.00541757
0.00355398
0.00595571
0.00388805
0.0065507
0.00381492
0.00717513
0.0036857
0.00780999
0.00349936
0.00843801
0.00332358
0.0090466
0.00318381
0.0096266
0.00309698
0.0101713
0.00305875
0.0106779
0.00305453
0.0111436
0.00304586
0.0115736
0.00302249
0.0119647
0.00290165
0.0123375
0.00276589
0.0126735
0.00238169
0.0130241
0.00219204
0.00134945
0.00114028
-0.00544078
0.00182025
0.000164664
0.00254957
0.00236284
0.00320214
0.00290141
0.00391631
0.00317388
0.00465937
0.00307186
0.00541921
0.00292587
0.00617543
0.00274314
0.00691373
0.00258528
0.0076227
0.00247484
0.00829472
0.00242496
0.00892437
0.0024291
0.00951009
0.00246881
0.0100495
0.00250647
0.0105497
0.00252225
0.011005
0.00244638
0.0114413
0.00232954
0.0118284
0.00199457
0.0122382
0.00178227
0.00100156
-0.000469571
-0.00497121
-9.73345e-05
-0.000207572
0.000687877
0.00157763
0.00144986
0.00213943
0.00229281
0.00233092
0.00315238
0.0022123
0.00401839
0.00205985
0.00487005
0.00189147
0.00569486
0.00176047
0.00648276
0.00168694
0.00722759
0.00168014
0.00792507
0.00173162
0.00857485
0.00181902
0.00917502
0.0019063
0.00973363
0.00196364
0.0102438
0.0019362
0.0107331
0.00184029
0.0111668
0.00156083
0.0116209
0.00132812
0.000620341
-0.00146633
-0.00350488
-0.0013321
-0.000341798
-0.000620016
0.000865545
0.000202171
0.00131724
0.00113506
0.00139803
0.00207602
0.00127134
0.00301682
0.00111905
0.00393525
0.000973045
0.00482033
0.000875392
0.00566325
0.000844018
0.00645925
0.000884141
0.00720519
0.000985686
0.00790173
0.00112248
0.00854738
0.00126065
0.00915069
0.00136033
0.00970379
0.0013831
0.0102348
0.00130933
0.0107056
0.00109001
0.0111942
0.00083947
0.000214892
-0.00193986
-0.00156503
-0.00200742
-0.000274239
-0.00135951
0.000217641
-0.000501352
0.00045908
0.00047674
0.00041994
0.00146348
0.000284602
0.00244626
0.000136273
0.00340121
1.8098e-05
0.00431864
-4.20426e-05
0.00519102
-2.83583e-05
0.00601489
6.02714e-05
0.0067882
0.000212369
0.0075125
0.000398183
0.00818662
0.000586529
0.00881922
0.000727738
0.0094016
0.000800726
0.00996144
0.00074948
0.0104584
0.000593098
0.0109701
0.000327681
-0.000205387
-0.00198939
0.000424357
-0.00213062
-0.000133008
-0.00151554
-0.000397436
-0.000653056
-0.000403404
0.000336313
-0.000569429
0.00133412
-0.000713208
0.00232534
-0.000854945
0.00328573
-0.000942288
0.00420674
-0.000963052
0.00508212
-0.000903738
0.00590964
-0.000767253
0.00668829
-0.000566277
0.00742027
-0.0003338
0.00810473
-9.7932e-05
0.00875004
8.24285e-05
0.00934685
0.000203912
0.00992163
0.000174708
0.0104326
8.21705e-05
0.0109554
-0.000195155
-0.000630667
-0.0016373
0.00206166
-0.00171065
-5.96638e-05
-0.00109007
-0.00101801
-0.00024952
-0.00124396
0.000718758
-0.00153771
0.00169349
-0.00168794
0.00265932
-0.00182078
0.00359383
-0.0018768
0.00448948
-0.0018587
0.00534128
-0.00175553
0.00614807
-0.00157405
0.00690975
-0.00132795
0.00762899
-0.00105304
0.00830519
-0.000774126
0.00894607
-0.000558449
0.00954184
-0.00039186
0.010117
-0.000400415
0.0106292
-0.000430082
0.0111507
-0.000716608
-0.00105103
-0.000839765
0.00290142
-0.00074475
-0.000154678
-7.70018e-05
-0.00168576
0.00070954
-0.0020305
0.00161727
-0.00244544
0.00253319
-0.00260385
0.00343983
-0.00272741
0.00431747
-0.00275445
0.00515937
-0.0027006
0.00596163
-0.00255779
0.00672392
-0.00233634
0.00744684
-0.00205087
0.00813329
-0.0017395
0.00878281
-0.00142365
0.00940218
-0.00117782
0.00998141
-0.000971088
0.0105422
-0.0009612
0.0110431
-0.000930958
0.0115508
-0.0012243
-0.0014568
0.000488229
0.00241319
0.00080391
-0.00047036
0.001471
-0.00235285
0.00220005
-0.00275954
0.00301015
-0.00325554
0.00383067
-0.00342437
0.00464475
-0.0035415
0.0054355
-0.00354519
0.00619655
-0.00346166
0.00692475
-0.00328599
0.00762016
-0.00303176
0.00828382
-0.00271453
0.00891854
-0.00237421
0.00952393
-0.00202904
0.0101055
-0.00175935
0.0106532
-0.00151885
0.0111855
-0.00149348
0.0116626
-0.00140809
0.0121449
-0.00170661
-0.00183848
0.00244819
-3.50011e-05
0.00299332
-0.00101549
0.00357459
-0.00293411
0.00419124
-0.0033762
0.00486027
-0.00392458
0.00554941
-0.00411351
0.00623836
-0.00423044
0.00691405
-0.00422088
0.00756931
-0.00411692
0.00820117
-0.00391785
0.00880959
-0.00364017
0.00939556
-0.0033005
0.0099615
-0.00294016
0.0105069
-0.00257448
0.0110356
-0.00228796
0.0115385
-0.00202183
0.0120281
-0.00198307
0.0124724
-0.00185236
0.0129138
-0.00214805
-0.0021944
0.0174755
-0.000739531
-0.016771
0.0181617
-0.00170162
0.0186997
-0.0034721
0.0194768
-0.00415337
0.0203044
-0.00475215
0.0212644
-0.00507347
0.022272
-0.00523804
0.023307
-0.0052559
0.024345
-0.00515489
0.0253753
-0.00494816
0.026396
-0.00466091
0.0274054
-0.00430993
0.0284087
-0.00394342
0.0294005
-0.00356631
0.0303836
-0.00327102
0.0313448
-0.00298307
0.0322719
-0.00291019
0.0331688
-0.00274924
0.0339666
-0.00294579
-0.00295289
0.0442948
0.00529553
-0.0503299
0.0409517
0.00164149
0.0386549
-0.00117527
0.0373555
-0.00285395
0.0365829
-0.00397957
0.0361856
-0.00467621
0.0360332
-0.00508558
0.0360514
-0.0052741
0.0361901
-0.00529361
0.0364185
-0.00517655
0.036721
-0.00496344
0.0370855
-0.00467442
0.0375086
-0.00436652
0.0379785
-0.00403622
0.03849
-0.00378243
0.0390269
-0.00352005
0.0395651
-0.00344837
0.0401111
-0.00329521
0.0405883
-0.00342299
-0.00341097
0.0661237
0.010871
-0.0716992
0.0616797
0.00608553
0.0580229
0.00248151
0.0552201
-5.11562e-05
0.0530935
-0.00185292
0.051472
-0.00305472
0.0502351
-0.00384874
0.0492907
-0.00432966
0.0485726
-0.00457552
0.0480348
-0.00463877
0.0476481
-0.00457676
0.0473896
-0.0044159
0.0472456
-0.00422248
0.0471984
-0.00398905
0.0472336
-0.00381762
0.0473352
-0.00362165
0.0474691
-0.00358227
0.0476437
-0.00346979
0.0477834
-0.00356269
-0.00355598
0.0771997
0.0138245
-0.0801532
0.0740814
0.0092039
0.071018
0.00554485
0.0682565
0.00271038
0.0658225
0.000581038
0.0637518
-0.000983994
0.0619984
-0.00209536
0.0605212
-0.00285244
0.0592827
-0.00333699
0.0582492
-0.0036053
0.0573951
-0.00372263
0.0566981
-0.00371889
0.0561405
-0.00366491
0.0557047
-0.00355321
0.0553695
-0.00348248
0.0551231
-0.00337527
0.0549252
-0.00338432
0.0547878
-0.00333243
0.0546395
-0.00341437
-0.00343408
0.0804655
0.0146592
-0.0813002
0.0789678
0.0107016
0.0771187
0.00739388
0.0751498
0.00467935
0.0732178
0.00251298
0.0713977
0.000836147
0.0697317
-0.000429345
0.0682366
-0.00135741
0.0669101
-0.00201043
0.0657458
-0.00244106
0.0647342
-0.00271097
0.0638638
-0.0028485
0.0631208
-0.00292189
0.0624936
-0.00292603
0.0619598
-0.00294864
0.061514
-0.00292951
0.0611152
-0.00298557
0.0607792
-0.00299637
0.0604428
-0.003078
-0.00313248
0.0799766
0.0143701
-0.0796875
0.0795662
0.0111121
0.0787068
0.0082532
0.077572
0.00581423
0.0763
0.00378494
0.0749907
0.00214547
0.0737071
0.000854259
0.0724831
-0.000133423
0.071349
-0.000876327
0.0703142
-0.00140631
0.0693827
-0.00177946
0.0685547
-0.00202052
0.0678222
-0.00218939
0.067181
-0.00228475
0.0666108
-0.00237844
0.0661118
-0.00243052
0.0656477
-0.00252153
0.065234
-0.00258264
0.0648212
-0.00266525
-0.0027481
0.0783727
0.013684
-0.0776865
0.078491
0.0109937
0.0782062
0.00853808
0.077637
0.0063834
0.076884
0.00453795
0.0760297
0.00299972
0.0751348
0.00174922
0.074244
0.000757341
0.0733797
-1.20024e-05
0.0725692
-0.00059582
0.0718196
-0.00102984
0.0711375
-0.00133849
0.0705194
-0.00157127
0.0699655
-0.00173083
0.0694595
-0.00187249
0.0690035
-0.00197446
0.0685692
-0.0020872
0.068167
-0.00218047
0.0677641
-0.00226234
-0.0023588
0.0768279
0.0129554
-0.0760993
0.0771269
0.0106948
0.0771008
0.00856418
0.076833
0.00665116
0.0763936
0.00497738
0.0758444
0.00354886
0.0752352
0.00235851
0.074603
0.00138948
0.0739768
0.000614252
0.0733713
9.60203e-06
0.0728029
-0.000461374
0.0722779
-0.000813505
0.071795
-0.00108836
0.0713558
-0.00129169
0.0709484
-0.00146502
0.0705732
-0.00159929
0.0702108
-0.00172485
0.0698646
-0.00183427
0.0695167
-0.00191441
-0.00201002
0.0756363
0.0122952
-0.074976
0.0759642
0.0103668
0.0760307
0.00849771
0.0758995
0.00678238
0.0756233
0.00525359
0.0752488
0.00392338
0.0748153
0.00279199
0.074354
0.00185075
0.0738878
0.00108043
0.0734346
0.000462851
0.0730023
-2.90617e-05
0.0726013
-0.000412502
0.0722302
-0.00071728
0.0718903
-0.000951849
0.0715732
-0.00114792
0.0712772
-0.00130326
0.07099
-0.00143762
0.0707086
-0.00155291
0.070426
-0.00163179
-0.00171738
0.0747446
0.0117135
-0.0741629
0.0750584
0.010053
0.0751545
0.00840165
0.0750843
0.00685256
0.0748913
0.00544666
0.074613
0.0042016
0.0742819
0.00312317
0.073924
0.00220861
0.0735591
0.00144538
0.0732018
0.000820109
0.0728618
0.000310963
0.0725442