/*--------------------------------*- C++ -*----------------------------------*\
| =========                 |                                                 |
| \\      /  F ield         | OpenFOAM: The Open Source CFD Toolbox           |
|  \\    /   O peration     | Version:  v1806                                 |
|   \\  /    A nd           | Web:      www.OpenFOAM.com                      |
|    \\/     M anipulation  |                                                 |
\*---------------------------------------------------------------------------*/
FoamFile
{
    version     2.0;
    format      ascii;
    class       surfaceScalarField;
    location    "7";
    object      phi;
}
// * * * * * * * * * * * * * * * * * * * * * * * * * * * * * * * * * * * * * //

dimensions      [0 3 -1 0 0 0 0];
oriented        oriented;


internalField   nonuniform List<scalar> 
4680
(
0.750016
-0.00308824
0.75004
-0.00655251
0.750013
-0.0128625
0.749973
-0.0181183
0.750029
-0.0235343
0.749941
-0.0289078
0.750026
-0.0348895
0.750065
-0.0382791
0.750114
-0.0446481
0.750029
-0.0511726
0.750191
-0.0562365
0.750163
-0.0612734
0.750292
-0.0671508
0.750356
-0.0726445
0.750477
-0.0779769
0.750613
-0.0830637
0.751079
-0.0853582
0.751298
-0.0906963
0.751456
-0.0969244
-0.100182
0.751912
0.750044
-0.00313268
0.750045
-0.0065532
0.750034
-0.0128515
0.749935
-0.0180194
0.750066
-0.0236653
0.749872
-0.0287133
0.750037
-0.0350549
0.750061
-0.0383027
0.750236
-0.0448234
0.750107
-0.0510431
0.750443
-0.0565732
0.750431
-0.0612607
0.750773
-0.0674926
0.750971
-0.0728431
0.751425
-0.0784308
0.751754
-0.0833924
0.752617
-0.0862213
0.75321
-0.0912896
0.753823
-0.0975374
-0.1011
0.754741
0.750074
-0.00320627
0.750018
-0.0064973
0.750043
-0.0128769
0.749913
-0.017889
0.750067
-0.0238196
0.74982
-0.0284661
0.750032
-0.0352674
0.750018
-0.0382887
0.750294
-0.0450987
0.750185
-0.0509349
0.750583
-0.0569706
0.750593
-0.0612706
0.75112
-0.0680204
0.751486
-0.0732087
0.75223
-0.0791745
0.752735
-0.0838976
0.753804
-0.0872907
0.754749
-0.0922341
0.755839
-0.0986272
-0.102321
0.75706
0.750094
-0.00330006
0.749992
-0.00639502
0.750084
-0.0129696
0.749846
-0.0176511
0.750025
-0.0239987
0.749718
-0.0281588
0.750009
-0.035558
0.749906
-0.0381863
0.750301
-0.0454936
0.750131
-0.0507641
0.750621
-0.057461
0.750661
-0.0613103
0.751414
-0.0687742
0.751882
-0.0736759
0.752837
-0.0801299
0.753508
-0.0845682
0.7549
-0.0886836
0.756229
-0.0935626
0.757639
-0.100037
-0.103801
0.759119
0.750128
-0.00342824
0.749949
-0.00621561
0.750101
-0.0131216
0.749744
-0.0172946
0.749983
-0.0242377
0.7496
-0.0277755
0.749944
-0.0359022
0.749675
-0.0379176
0.750195
-0.0460134
0.749915
-0.0504836
0.750551
-0.0580974
0.750601
-0.0613606
0.751548
-0.0697212
0.752017
-0.0741441
0.753252
-0.0813649
0.754089
-0.0854055
0.755793
-0.0903881
0.757446
-0.0952155
0.759231
-0.101822
-0.105613
0.761042
0.750173
-0.00360153
0.749868
-0.00591041
0.750101
-0.0133545
0.749623
-0.0168163
0.749941
-0.0245562
0.74939
-0.0272242
0.749779
-0.0362914
0.749303
-0.0374415
0.749973
-0.0466833
0.749532
-0.0500423
0.750342
-0.0589078
0.7503
-0.0613189
0.751422
-0.070843
0.751881
-0.0746033
0.753415
-0.0828983
0.754371
-0.0863618
0.756413
-0.0924301
0.758391
-0.0971935
0.76057
-0.104001
-0.107832
0.762789
0.750199
-0.00380033
0.74977
-0.00548198
0.750094
-0.0136779
0.749445
-0.0161672
0.749835
-0.0249468
0.749069
-0.0264579
0.749519
-0.0367412
0.748784
-0.0367067
0.749627
-0.047526
0.748929
-0.0493442
0.749908
-0.0598875
0.749639
-0.0610502
0.751015
-0.0722182
0.75141
-0.0749981
0.753255
-0.0847439
0.754249
-0.0873554
0.756678
-0.0948592
0.758993
-0.0995086
0.761648
-0.106656
-0.110526
0.764342
0.750192
-0.00399184
0.749656
-0.00494646
0.750013
-0.0140352
0.749187
-0.0153411
0.749641
-0.0254002
0.748667
-0.0254844
0.749146
-0.0372198
0.748106
-0.0356665
0.749057
-0.0484775
0.748035
-0.0483223
0.749169
-0.0610215
0.748595
-0.0604759
0.750274
-0.0738969
0.750486
-0.0752108
0.752628
-0.0868853
0.753619
-0.0883462
0.756577
-0.0978174
0.759131
-0.102063
0.762304
-0.10983
-0.113691
0.765469
0.750069
-0.0040612
0.749517
-0.00439416
0.749802
-0.0143205
0.748934
-0.0144724
0.7493
-0.0257668
0.748188
-0.0243721
0.748546
-0.0375783
0.747237
-0.0343575
0.748134
-0.0493737
0.746823
-0.0470112
0.748052
-0.0622509
0.747146
-0.0595701
0.749067
-0.0758183
0.748944
-0.0750872
0.751408
-0.0893497
0.752394
-0.0893319
0.75595
-0.101374
0.758631
-0.104743
0.762428
-0.113627
-0.117408
0.766145
0.749693
-0.00375396
0.74948
-0.00418184
0.749414
-0.0142543
0.748816
-0.0138747
0.748667
-0.025617
0.747717
-0.0234221
0.747475
-0.0373369
0.746239
-0.0331215
0.746635
-0.0497697
0.745351
-0.0457275
0.746292
-0.0631914
0.745224
-0.0585022
0.747126
-0.0777201
0.746698
-0.0746598
0.74944
-0.0920915
0.750383
-0.0902745
0.754588
-0.105579
0.757322
-0.107478
0.761982
-0.118286
-0.121751
0.766325
0.749004
-0.00275786
0.749726
-0.00490348
0.748692
-0.013221
0.748902
-0.0140849
0.747498
-0.0242122
0.74748
-0.0234043
0.745778
-0.0356353
0.74555
-0.0328937
0.744403
-0.0486226
0.743939
-0.0452636
0.743409
-0.0626615
0.742952
-0.0580444
0.743976
-0.0787444
0.743741
-0.0744245
0.746425
-0.0947759
0.747465
-0.0913141
0.752235
-0.110349
0.755108
-0.110351
0.760953
-0.124131
-0.126779
0.765981
0.748144
-0.000901744
0.750113
-0.00687279
0.747644
-0.0107513
0.749131
-0.015572
0.745926
-0.0210074
0.747499
-0.0249772
0.743648
-0.0317843
0.745373
-0.0346185
0.741459
-0.0447092
0.743182
-0.0469864
0.739466
-0.0589451
0.741445
-0.0600238
0.739106
-0.0764054
0.740911
-0.0762298
0.741451
-0.0953157
0.743772
-0.0936351
0.748589
-0.115166
0.751855
-0.113617
0.759294
-0.131571
-0.132524
0.76504
0.747447
0.00165164
0.750423
-0.00984961
0.746648
-0.00697544
0.749295
-0.0182189
0.744436
-0.0161494
0.747448
-0.0279892
0.741383
-0.0257187
0.744996
-0.0382316
0.737993
-0.0377059
0.74218
-0.0511743
0.734545
-0.0513095
0.73981
-0.0652889
0.732569
-0.0691641
0.738681
-0.0823421
0.733868
-0.0905025
0.740812
-0.100579
0.741622
-0.115976
0.747533
-0.119528
0.756226
-0.140264
-0.139055
0.762757
0.747118
0.00453386
0.750488
-0.0132199
0.746004
-0.00249171
0.749173
-0.021388
0.743232
-0.0102078
0.746831
-0.0315881
0.739222
-0.0181099
0.743709
-0.0427184
0.734342
-0.0283388
0.739946
-0.0567789
0.72888
-0.0402428
0.736624
-0.0730329
0.724381
-0.0569212
0.734542
-0.0925036
0.723055
-0.0790151
0.736049
-0.113573
0.729243
-0.10917
0.743155
-0.133439
0.747918
-0.145027
-0.148319
0.757183
0.746985
0.00754893
0.750277
-0.016512
0.745549
0.00223609
0.748487
-0.0243253
0.742047
-0.00376862
0.745227
-0.0347673
0.736947
-0.00983072
0.74084
-0.0466114
0.730341
-0.0178398
0.735401
-0.0618388
0.722472
-0.0273133
0.730148
-0.0807094
0.714516
-0.0412892
0.726306
-0.104293
0.708731
-0.0614399
0.726635
-0.131478
0.710937
-0.0934725
0.734634
-0.157136
0.729728
-0.140121
-0.16834
0.749748
0.747005
0.0105439
0.749903
-0.0194101
0.74517
0.00696964
0.747337
-0.026493
0.740893
0.0026751
0.742888
-0.0367616
0.734693
-0.00163606
0.736819
-0.0487367
0.726363
-0.0073842
0.729075
-0.0645506
0.715973
-0.0142113
0.720808
-0.0855442
0.704208
-0.0246901
0.713723
-0.113808
0.693241
-0.0409571
0.711846
-0.150084
0.688942
-0.0705686
0.721351
-0.189545
0.706416
-0.125186
-0.204168
0.742245
0.747691
0.0128528
0.749511
-0.0212304
0.745329
0.0111523
0.746251
-0.0274147
0.740553
0.0083723
0.740934
-0.0371426
0.733642
0.00565645
0.733413
-0.0485083
0.723932
0.00209702
0.723455
-0.0640735
0.711349
-0.00210523
0.711814
-0.086009
0.696263
-0.00913921
0.700155
-0.1177
0.680627
-0.0214289
0.694629
-0.164086
0.669147
-0.0450859
0.705395
-0.225793
0.680634
-0.100425
-0.267736
0.744202
0.749587
0.0132662
0.748446
-0.0200897
0.746921
0.0126774
0.745262
-0.0257564
0.742838
0.0107969
0.739707
-0.0340114
0.735866
0.00949718
0.731237
-0.0438798
0.725708
0.00762597
0.719459
-0.0578235
0.711764
0.0055897
0.704322
-0.0785673
0.693685
0.00149783
0.687867
-0.111882
0.672892
-0.00645363
0.676467
-0.167661
0.655119
-0.0237381
0.686534
-0.257208
0.653334
-0.0672252
-0.385021
0.770618
0.751332
0.0119342
0.748474
-0.017232
0.749096
0.0120557
0.745493
-0.0221532
0.74515
0.0111398
0.739994
-0.0288551
0.738372
0.0111187
0.73146
-0.0369676
0.728449
0.0106373
0.71913
-0.0485053
0.714752
0.00996801
0.702251
-0.0660661
0.696358
0.00739109
0.680296
-0.0958209
0.673095
0.000747619
0.658052
-0.152618
0.653489
-0.0191751
0.666665
-0.270384
0.659944
-0.0605041
-0.482639
0.757562
0.753017
0.00891724
0.74867
-0.0128852
0.751548
0.00917753
0.746089
-0.0166939
0.748276
0.00895297
0.741181
-0.0217603
0.742588
0.00971132
0.73351
-0.0278894
0.734096
0.0100511
0.722159
-0.0365684
0.722101
0.0100265
0.705771
-0.0497357
0.705881
0.00728067
0.682292
-0.0722318
0.686974
-0.00393471
0.651263
-0.116906
0.676338
-0.0442502
0.62965
-0.223696
0.758872
-0.189726
0.8649
-0.588667
0.752363
-0.080766
0.752803
-0.0834298
0.753264
-0.08458
0.753701
-0.0871433
0.754043
-0.0898612
0.754726
-0.0909491
0.755256
-0.0912692
0.756003
-0.0920773
0.756773
-0.090367
-0.0925139
0.757623
0.755619
-0.0816441
0.756481
-0.0842919
0.757376
-0.0854748
0.75834
-0.0881075
0.759096
-0.0906171
0.76032
-0.0921728
0.761296
-0.0922454
0.762609
-0.0933903
0.763758
-0.091516
-0.0940282
0.765272
0.758123
-0.0827066
0.75926
-0.0854291
0.760448
-0.0866633
0.761807
-0.0894658
0.762858
-0.0916687
0.764264
-0.0935786
0.765418
-0.0933998
0.767074
-0.095046
0.7684
-0.0928414
-0.0957984
0.77017
0.760532
-0.0841199
0.762106
-0.0870023
0.763636
-0.0881938
0.76538
-0.0912099
0.766677
-0.0929658
0.768373
-0.095274
0.769776
-0.0948026
0.771862
-0.0971326
0.773489
-0.0944683
-0.0979865
0.775677
0.762805
-0.0858825
0.7648
-0.0889971
0.766617
-0.090011
0.768751
-0.0933442
0.770341
-0.0945553
0.772422
-0.0973556
0.774057
-0.0964373
0.776442
-0.0995177
0.778229
-0.096255
-0.100589
0.780831
0.764928
-0.0880209
0.767308
-0.0913773
0.769454
-0.0921572
0.772007
-0.0958972
0.773886
-0.0964342
0.776383
-0.0998526
0.778196
-0.0982504
0.780835
-0.102157
0.782803
-0.0982223
-0.103625
0.785839
0.766809
-0.0904877
0.769576
-0.0941442
0.772083
-0.0946642
0.775131
-0.0989451
0.777292
-0.0985953
0.780199
-0.10276
0.782154
-0.100205
0.785084
-0.105086
0.787142
-0.10028
-0.107033
0.79055
0.768425
-0.0934437
0.771607
-0.0973253
0.774558
-0.0976153
0.778045
-0.102433
0.780488
-0.101038
0.783766
-0.106038
0.785843
-0.102283
0.789143
-0.108386
0.791249
-0.102387
-0.110706
0.794923
0.769707
-0.0970064
0.77337
-0.100988
0.776833
-0.101079
0.780703
-0.106303
0.783484
-0.103818
0.787103
-0.109657
0.78932
-0.1045
0.792913
-0.111978
0.79497
-0.104444
-0.114478
0.798741
0.7706
-0.101281
0.774774
-0.105162
0.778949
-0.105254
0.783159
-0.110513
0.78639
-0.107049
0.790249
-0.113516
0.792639
-0.10689
0.796313
-0.115653
0.798202
-0.106333
-0.118133
0.801857
0.771089
-0.10639
0.775895
-0.109968
0.781059
-0.110418
0.785585
-0.115038
0.789443
-0.110907
0.793294
-0.117367
0.795959
-0.109555
0.799351
-0.119044
0.800985
-0.107967
-0.121166
0.804018
0.771309
-0.112659
0.776991
-0.11565
0.783292
-0.116719
0.788043
-0.119789
0.792694
-0.115559
0.796334
-0.121006
0.799428
-0.112649
0.802064
-0.12168
0.803283
-0.109185
-0.122684
0.8048
0.771157
-0.121059
0.778208
-0.1227
0.785295
-0.123807
0.790057
-0.124551
0.795558
-0.12106
0.799055
-0.124503
0.802811
-0.116406
0.804005
-0.122874
0.804653
-0.109833
-0.121452
0.80342
0.769599
-0.133475
0.778489
-0.13159
0.78574
-0.131058
0.790934
-0.129745
0.796729
-0.126855
0.800684
-0.128459
0.805053
-0.120775
0.804446
-0.122267
0.804156
-0.109542
-0.11677
0.799474
0.764667
-0.148394
0.774373
-0.141296
0.782773
-0.139459
0.79031
-0.137282
0.798306
-0.134851
0.803739
-0.133892
0.807076
-0.124112
0.804351
-0.119541
0.802065
-0.107256
-0.109075
0.79437
0.75826
-0.16441
0.767023
-0.150058
0.779995
-0.152431
0.790097
-0.147384
0.802861
-0.147614
0.813712
-0.144743
0.81468
-0.12508
0.809522
-0.114383
0.800644
-0.0983787
-0.0981644
0.789733
0.752926
-0.173133
0.765142
-0.162275
0.780452
-0.167741
0.789256
-0.156188
0.810224
-0.168582
0.825935
-0.160454
0.825241
-0.124387
0.813949
-0.103091
0.795341
-0.0797699
-0.0740521
0.771228
0.776667
-0.179182
0.786462
-0.17207
0.785974
-0.167253
0.789713
-0.159927
0.803518
-0.182387
0.787032
-0.143968
0.76851
-0.105864
0.739445
-0.0740267
0.709258
-0.0495823
-0.0344431
0.669649
0.744324
-0.165944
0.742839
-0.170585
0.700286
-0.1247
0.70325
-0.162891
0.727441
-0.206579
0.68579
-0.102317
0.616534
-0.0366084
0.534164
0.00834409
0.456974
0.0276077
0.0424248
0.380106
0.698956
0.528371
0.403672
0.24078
0.0342015
-0.0681152
-0.104724
-0.0963794
-0.0687717
-0.0263469
0.759626
-0.420512
0.765746
-0.451027
0.773131
-0.39675
0.77474
-0.325567
0.771487
-0.33341
0.76378
-0.40197
0.742547
-0.597018
0.693013
-0.92028
0.60481
-1.22733
0.485578
-1.40428
0.360278
-1.44183
0.251985
-1.37326
0.169855
-1.23412
0.112206
-1.05851
0.0733507
-0.874089
0.0476477
-0.697092
0.0308856
-0.533981
0.0203539
-0.383831
0.0141316
-0.243795
-0.0918899
0.767368
-0.422608
0.77947
-0.463129
0.788322
-0.405602
0.786313
-0.323558
0.775161
-0.322257
0.753001
-0.37981
0.718097
-0.562114
0.66506
-0.867242
0.584546
-1.14682
0.480174
-1.2999
0.370678
-1.33233
0.273578
-1.27616
0.196359
-1.1569
0.138865
-1.00101
0.0977177
-0.832942
0.0687758
-0.66815
0.0485084
-0.513714
0.0347411
-0.370063
0.0261062
-0.23516
-0.088636
0.771084
-0.423522
0.78776
-0.479805
0.797326
-0.415169
0.789391
-0.315623
0.76987
-0.302736
0.743799
-0.353739
0.713449
-0.531765
0.666501
-0.820294
0.586961
-1.06728
0.479432
-1.19238
0.36677
-1.21967
0.269047
-1.17843
0.193637
-1.08149
0.138935
-0.946312
0.100501
-0.794508
0.0740445
-0.641693
0.0558996
-0.495569
0.0436435
-0.357807
0.0361397
-0.227657
-0.0859218
0.776225
-0.42407
0.797773
-0.501353
0.808498
-0.425894
0.797318
-0.304443
0.774223
-0.279642
0.740641
-0.320156
0.698455
-0.489579
0.643161
-0.765001
0.566136
-0.990251
0.471865
-1.0981
0.375272
-1.12307
0.28823
-1.09139
0.216181
-1.00944
0.160124
-0.890255
0.11827
-0.752654
0.0881162
-0.611539
0.06725
-0.474703
0.0535957
-0.344153
0.0458972
-0.219958
-0.0833926
0.780282
-0.423521
0.807187
-0.528258
0.820761
-0.439468
0.806081
-0.289762
0.773379
-0.246939
0.730838
-0.277615
0.69078
-0.449522
0.643044
-0.717264
0.567345
-0.914553
0.46802
-0.998779
0.366827
-1.02188
0.280145
-1.00471
0.212377
-0.941671
0.161556
-0.839435
0.124006
-0.715104
0.0963568
-0.583889
0.0763426
-0.454688
0.0627184
-0.330529
0.0550588
-0.212298
-0.0809796
0.784144
-0.421826
0.817502
-0.561617
0.83369
-0.455655
0.814198
-0.270271
0.775844
-0.208585
0.729035
-0.230806
0.681083
-0.40157
0.622232
-0.658413
0.544736
-0.837057
0.458065
-0.912108
0.373437
-0.937253
0.296351
-0.927624
0.230188
-0.875509
0.176858
-0.786104
0.13622
-0.674467
0.106565
-0.554234
0.0855748
-0.433698
0.0714907
-0.316445
0.0636954
-0.204503
-0.0785893
0.787075
-0.418352
0.826929
-0.60147
0.848467
-0.477193
0.826193
-0.247997
0.778023
-0.160415
0.721045
-0.173829
0.672065
-0.352589
0.619146
-0.605494
0.543199
-0.76111
0.450844
-0.819754
0.361592
-0.848001
0.286631
-0.852662
0.227099
-0.815978
0.180212
-0.739217
0.143337
-0.637592
0.114971
-0.525868
0.09408
-0.412807
0.0797782
-0.302143
0.0718146
-0.19654
-0.0761576
0.788697
-0.412126
0.838032
-0.650806
0.866344
-0.505505
0.837145
-0.218797
0.780149
-0.103419
0.718977
-0.112656
0.663392
-0.297004
0.598846
-0.540949
0.520597
-0.68286
0.441107
-0.740264
0.367258
-0.774152
0.299434
-0.784838
0.239675
-0.756218
0.19052
-0.690062
0.152248
-0.599319
0.123345
-0.496965
0.102172
-0.391635
0.0876179
-0.287589
0.0794376
-0.188359
-0.0736341
0.789691
-0.403076
0.849459
-0.710574
0.886184
-0.542229
0.851549
-0.184162
0.782733
-0.0346037
0.711035
-0.0409586
0.65341
-0.239379
0.591158
-0.478697
0.511165
-0.602867
0.426482
-0.655581
0.351619
-0.699289
0.289789
-0.723008
0.238351
-0.70478
0.194953
-0.646664
0.159163
-0.563529
0.130918
-0.46872
0.109744
-0.37046
0.0949997
-0.272845
0.0865797
-0.179939
-0.0709821
0.789568
-0.390786
0.862425
-0.783431
0.909314
-0.589119
0.864065
-0.138914
0.783994
0.0454677
0.707784
0.0352514
0.642165
-0.17376
0.568273
-0.404805
0.489597
-0.524191
0.419221
-0.585205
0.356772
-0.63684
0.298627
-0.664863
0.246321
-0.652474
0.202094
-0.602437
0.166249
-0.527683
0.138086
-0.440557
0.116852
-0.349227
0.101933
-0.257926
0.0932566
-0.171263
-0.0681744
0.790468
-0.377236
0.873647
-0.86661
0.93109
-0.646562
0.876694
-0.0845179
0.782271
0.139891
0.696658
0.120864
0.629445
-0.106546
0.55539
-0.330749
0.473047
-0.441848
0.399738
-0.511897
0.340866
-0.577968
0.29131
-0.615307
0.246659
-0.607823
0.206601
-0.56238
0.172384
-0.493467
0.144692
-0.412865
0.123488
-0.328023
0.108423
-0.242861
0.0994822
-0.162322
-0.0651924
0.793411
-0.365847
0.878573
-0.951772
0.942854
-0.710842
0.879465
-0.021129
0.777516
0.24184
0.687591
0.210789
0.610397
-0.0293517
0.529012
-0.249365
0.454574
-0.36741
0.395278
-0.452602
0.344345
-0.527034
0.296325
-0.567288
0.25162
-0.563118
0.21196
-0.52272
0.178276
-0.459782
0.150859
-0.385448
0.129675
-0.306839
0.114477
-0.227663
0.10527
-0.153114
-0.0620231
0.800976
-0.363402
0.862997
-1.01379
0.929118
-0.776963
0.865659
0.0423304
0.757703
0.349795
0.668612
0.29988
0.593194
0.0460665
0.508598
-0.164769
0.430463
-0.289275
0.373659
-0.395797
0.330925
-0.4843
0.291757
-0.528119
0.252909
-0.52427
0.216098
-0.485909
0.183578
-0.427262
0.156557
-0.358426
0.135419
-0.285702
0.120104
-0.212347
0.110631
-0.143641
-0.0586586
0.807189
-0.371118
0.809301
-1.0159
0.862744
-0.830406
0.821125
0.083949
0.723458
0.447462
0.63491
0.388427
0.556592
0.124384
0.478062
-0.0862383
0.414553
-0.225765
0.369477
-0.350722
0.331841
-0.446665
0.294234
-0.490512
0.256331
-0.486367
0.220442
-0.450021
0.188569
-0.395389
0.161842
-0.331699
0.140739
-0.264598
0.125311
-0.19692
0.115576
-0.133907
-0.0550945
0.791375
-0.368123
0.691981
-0.91651
0.727026
-0.865452
0.732352
0.0786238
0.668059
0.511755
0.59758
0.458906
0.522623
0.199342
0.442449
-0.00606429
0.383407
-0.166723
0.349094
-0.316409
0.322265
-0.419836
0.292077
-0.460323
0.258194
-0.452484
0.224193
-0.416019
0.19314
-0.364337
0.166715
-0.305274
0.145643
-0.243526
0.130107
-0.181384
0.120117
-0.123917
-0.0513297
0.725948
-0.304338
0.499627
-0.690189
0.51868
-0.884505
0.588461
0.00884265
0.568152
0.532064
0.540868
0.48619
0.489481
0.250729
0.418586
0.0648302
0.36962
-0.117757
0.34447
-0.291259
0.322285
-0.397652
0.293942
-0.43198
0.261153
-0.419696
0.227968
-0.382834
0.197417
-0.333786
0.171207
-0.279063
0.150143
-0.222463
0.134499
-0.165739
0.124262
-0.11368
-0.0473666
0.59136
-0.124469
0.246136
-0.344965
0.271697
-0.910067
0.428873
-0.148332
0.465309
0.495627
0.466534
0.484965
0.412404
0.304859
0.353333
0.123901
0.333396
-0.0978197
0.329872
-0.287735
0.318108
-0.385887
0.294348
-0.40822
0.263649
-0.388996
0.231457
-0.350642
0.201368
-0.303697
0.175324
-0.25302
0.15425
-0.201388
0.138494
-0.149983
0.128019
-0.103205
-0.0432112
0.393338
0.151841
-0.0232508
0.0716242
0.0204765
-0.953794
0.244053
-0.371909
0.327552
0.412128
0.367806
0.444712
0.333386
0.339279
0.311402
0.145885
0.322516
-0.108933
0.330441
-0.29566
0.320847
-0.376294
0.297282
-0.384655
0.266799
-0.358513
0.234916
-0.318759
0.205049
-0.27383
0.179086
-0.227056
0.15797
-0.180273
0.142097
-0.13411
0.131396
-0.0925037
-0.0388742
0.0545235
0.477423
-0.236401
0.362548
-0.184187
-1.00601
0.0918326
-0.647929
0.21214
0.291821
0.263815
0.393037
0.254736
0.348357
0.278674
0.121947
0.314071
-0.14433
0.329563
-0.311152
0.322409
-0.36914
0.29983
-0.362077
0.269819
-0.328503
0.238189
-0.287128
0.208443
-0.244084
0.182495
-0.201108
0.16131
-0.159087
0.145313
-0.118114
0.134398
-0.0815883
-0.0343704
-0.0677112
0.518788
-0.263083
0.55792
-0.283396
-0.985695
-0.0785445
-0.85278
0.0849011
0.128376
0.148725
0.329213
0.197665
0.299417
0.267245
0.0523673
0.316925
-0.19401
0.33467
-0.328898
0.326879
-0.361349
0.303511
-0.338709
0.273097
-0.298088
0.241331
-0.255363
0.211545
-0.214297
0.185553
-0.175116
0.164278
-0.137812
0.148156
-0.101992
0.137036
-0.0704684
-0.0297152
-0.0244184
0.543206
-0.0869953
0.620497
-0.138761
-0.93393
-0.0905115
-0.901029
0.00289248
0.0349718
0.0365564
0.295549
0.0735121
0.262461
0.109133
0.0167469
0.130002
-0.21488
0.136299
-0.335194
0.132341
-0.357391
0.122518
-0.328886
0.11013
-0.285701
0.0973294
-0.242562
0.0853756
-0.202343
0.0749651
-0.164706
0.0664376
-0.129285
0.0599734
-0.0955278
0.0554624
-0.0659574
-0.0278197
-0.0219568
0.565163
-0.0806443
0.679184
-0.140444
-0.87413
-0.105946
-0.935527
-0.0139886
-0.0569859
0.0274339
0.254127
0.0738107
0.216085
0.112389
-0.0218319
0.132992
-0.235482
0.138266
-0.340468
0.133519
-0.352644
0.123277
-0.318644
0.1107
-0.273124
0.0978149
-0.229677
0.085818
-0.190346
0.075379
-0.154267
0.0668281
-0.120734
0.0603439
-0.0890436
0.0558027
-0.0614162
-0.0259063
-0.0183198
0.583482
-0.0601702
0.721035
-0.117979
-0.816321
-0.109315
-0.94419
-0.0267404
-0.139561
0.0241762
0.20321
0.0775998
0.162661
0.117299
-0.061531
0.136727
-0.25491
0.140534
-0.344276
0.134809
-0.346918
0.124071
-0.307905
0.111273
-0.260325
0.0982896
-0.216694
0.0862432
-0.1783
0.0757724
-0.143796
0.0671957
-0.112157
0.0606879
-0.0825357
0.0561187
-0.056847
-0.0239745
-0.0128221
0.596305
-0.0384252
0.746638
-0.087493
-0.767254
-0.100562
-0.931122
-0.0315463
-0.208576
0.0274669
0.144197
0.0845239
0.105604
0.123686
-0.100693
0.141149
-0.272374
0.143104
-0.34623
0.136221
-0.340036
0.124908
-0.296593
0.111853
-0.24727
0.0987555
-0.203596
0.0866512
-0.166196
0.0761441
-0.133289
0.0675397
-0.103553
0.0610079
-0.0760038
0.0564113
-0.0522505
-0.0220252
-0.00499377
0.601298
-0.013716
0.75536
-0.0503622
-0.730607
-0.0809767
-0.900507
-0.0265064
-0.263046
0.0365567
0.0811337
0.094189
0.0479717
0.131313
-0.137817
0.14609
-0.287152
0.145883
-0.346023
0.137719
-0.331872
0.125777
-0.284651
0.112439
-0.233932
0.0992118
-0.190369
0.0870415
-0.154026
0.0764941
-0.122742
0.0678601
-0.0949191
0.0613038
-0.0694476
0.0566807
-0.0476273
-0.0200596
0.00595377
0.595345
0.0145539
0.74676
-0.00904116
-0.707012
-0.0533731
-0.856175
-0.0124076
-0.304012
0.0503433
0.0183827
0.10612
-0.00780488
0.139868
-0.171564
0.151361
-0.298645
0.148785
-0.343447
0.139268
-0.322354
0.126666
-0.272049
0.113026
-0.220292
0.0996578
-0.177001
0.0874143
-0.141782
0.0768224
-0.11215
0.0681569
-0.0862535
0.0615758
-0.0628665
0.0569269
-0.0429784
-0.0180785
0.0207213
0.574623
0.0433088
0.724173
0.0291794
-0.692883
-0.0195642
-0.807432
0.00888447
-0.332461
0.0679733
-0.0407061
0.119767
-0.0595983
0.149005
-0.200803
0.156771
-0.306411
0.151718
-0.338394
0.140832
-0.311468
0.127562
-0.258779
0.113611
-0.206341
0.100093
-0.163483
0.0877693
-0.129459
0.0771291
-0.10151
0.0684301
-0.0775546
0.0618238
-0.0562601
0.0571498
-0.0383044
-0.0160831
0.036745
0.537878
0.072704
0.688214
0.0666564
-0.686835
0.0186843
-0.75946
0.036688
-0.350464
0.0886422
-0.0926603
0.134594
-0.10555
0.158416
-0.224626
0.16215
-0.310145
0.154598
-0.330842
0.142376
-0.299247
0.128455
-0.244858
0.114191
-0.192077
0.100516
-0.149808
0.0881067
-0.117049
0.0774143
-0.0908171
0.06868
-0.0688203
0.0620479
-0.049628
0.0573495
-0.033606
-0.0140744
0.0552499
0.482628
0.10203
0.641434
0.102446
-0.687252
0.0598878
-0.716901
0.0689352
-0.359512
0.111628
-0.135353
0.150151
-0.144072
0.167849
-0.242324
0.167357
-0.309653
0.157352
-0.320837
0.14387
-0.285764
0.129332
-0.23032
0.114762
-0.177507
0.100927
-0.135973
0.0884267
-0.104549
0.0776784
-0.0800688
0.0689067
-0.0600486
0.0622482
-0.0429695
0.0575262
-0.028884
-0.0120534
0.0727316
0.409897
0.130713
0.583453
0.136062
-0.692601
0.100641
-0.681481
0.103472
-0.362343
0.136191
-0.168072
0.166139
-0.174021
0.177064
-0.253249
0.172344
-0.304933
0.160008
-0.308501
0.145355
-0.271111
0.130232
-0.215197
0.115356
-0.162631
0.101351
-0.121968
0.088747
-0.0919454
0.0779301
-0.0692519
0.0691125
-0.0512311
0.0624184
-0.0362754
0.0576771
-0.0241427
-0.0100168
0.332568
0.455776
-0.378447
0.641771
0.27425
0.687524
-0.738354
0.613142
-0.607099
0.593367
-0.342568
0.635898
-0.210603
0.670738
-0.20886
0.657432
-0.239944
0.610438
-0.257938
0.553336
-0.251399
0.496862
-0.214637
0.442514
-0.16085
0.390627
-0.110744
0.3425
-0.0738401
0.299507
-0.0489528
0.262725
-0.0324692
0.232812
-0.0213189
0.210125
-0.0135874
0.194107
-0.0081256
-0.00308684
0.930058
0.525554
-0.999836
1.04176
0.162546
0.961488
-0.65808
0.888242
-0.533853
0.871124
-0.32545
0.860256
-0.199735
0.809068
-0.157672
0.724042
-0.154917
0.638712
-0.172608
0.567824
-0.180511
0.506992
-0.153805
0.450091
-0.103949
0.395861
-0.0565141
0.345941
-0.0239196
0.301758
-0.00476958
0.264232
0.00505654
0.233853
0.00906054
0.210877
0.00938824
0.19467
0.00808155
0.00391366
1.14971
0.496381
-1.12053
1.18768
0.12457
1.02106
-0.491453
0.903856
-0.416653
0.855681
-0.277275
0.817777
-0.16183
0.761057
-0.100952
0.700113
-0.0939742
0.640574
-0.113069
0.578233
-0.11817
0.515673
-0.091244
0.455841
-0.0441178
0.399584
-0.000256767
0.348307
0.0273573
0.303069
0.0404687
0.264797
0.0433282
0.233938
0.0399197
0.210681
0.0326448
0.194339
0.0244236
0.0109393
1.2181
0.426042
-1.14776
1.22549
0.117176
1.09731
-0.363272
1.0147
-0.334036
0.945555
-0.208133
0.885429
-0.101704
0.84364
-0.0591634
0.811441
-0.0617752
0.756704
-0.058332
0.668215
-0.0296807
0.568275
0.00869597
0.479983
0.0441736
0.409122
0.0706041
0.351499
0.084981
0.303789
0.0881786
0.26444
0.0826766
0.233044
0.0713156
0.209515
0.0561743
0.193097
0.040842
0.0179427
1.21327
0.368821
-1.15605
1.20572
0.124725
1.09077
-0.248323
0.996445
-0.239711
0.927769
-0.139456
0.890281
-0.0642165
0.85097
-0.0198522
0.78061
0.00858461
0.691877
0.0304009
0.609389
0.0528071
0.5366
0.0814856
0.469386
0.111387
0.407021
0.132969
0.351139
0.140863
0.302989
0.136329
0.262975
0.12269
0.231122
0.103169
0.207354
0.0799423
0.190924
0.0572719
0.0248746
1.19035
0.318739
-1.14026
1.18341
0.131659
1.09029
-0.155196
1.02042
-0.169845
0.965132
-0.0841682
0.914914
-0.0139981
0.861557
0.0335046
0.790264
0.0798773
0.703041
0.117624
0.616829
0.139019
0.539995
0.158319
0.470893
0.180489
0.407391
0.196471
0.350401
0.197853
0.301223
0.185507
0.260453
0.16346
0.228151
0.135471
0.204176
0.103917
0.187801
0.0736465
0.0316846
1.17457
0.279652
-1.13548
1.1589
0.147329
1.08313
-0.0794331
1.02635
-0.113065
0.966976
-0.024791
0.897582
0.0553965
0.850539
0.0805473
0.826417
0.103999
0.781905
0.162136
0.696438
0.224486
0.590481
0.264276
0.492811
0.278159
0.413703
0.27558
0.350282
0.261274
0.29867
0.237119
0.25687
0.20526
0.224101
0.16824
0.199953
0.128065
0.183703
0.0898968
0.0383217
1.14007
0.258564
-1.11898
1.13919
0.148212
1.08409
-0.0243298
1.00685
-0.0358258
0.958303
0.0237517
0.932712
0.080988
0.880865
0.132394
0.795043
0.189821
0.704004
0.253176
0.619531
0.308958
0.542832
0.340975
0.471528
0.349463
0.40527
0.341838
0.345621
0.320923
0.294263
0.288477
0.252015
0.247508
0.218913
0.201343
0.194655
0.152323
0.178602
0.105949
0.0447326
1.12592
0.239212
-1.10656
1.12078
0.153345
1.07154
0.024916
1.01198
0.0237327
0.967427
0.0683049
0.93034
0.118075
0.867881
0.194853
0.785079
0.272623
0.706997
0.331258
0.63559
0.380366
0.559728
0.416837
0.480536
0.428655
0.406636
0.415738
0.342583
0.384977
0.289202
0.341857
0.246048
0.290662
0.212578
0.234813
0.188254
0.176648
0.17247
0.121733
0.05086
1.10628
0.22708
-1.09415
1.09234
0.167291
1.05906
0.05819
1.01991
0.062882
0.966757
0.121463
0.916993
0.167838
0.873755
0.238092
0.805439
0.340938
0.707568
0.429129
0.609696
0.478238
0.529621
0.496912
0.461197
0.497078
0.396077
0.480858
0.335286
0.445767
0.282219
0.394925
0.238718
0.334163
0.205029
0.268502
0.180715
0.200963
0.16527
0.137178
0.0566531
1.09307
0.216243
-1.08223
1.08364
0.17672
1.04721
0.0946193
1.01321
0.0968787
0.971408
0.163267
0.918672
0.220573
0.865679
0.291085
0.807558
0.399059
0.739427
0.49726
0.663331
0.554334
0.577196
0.583047
0.485617
0.588657
0.401611
0.564864
0.33144
0.515939
0.274888
0.451477
0.230252
0.378799
0.196267
0.302487
0.172011
0.225219
0.156964
0.152224
0.0620845
1.0798
0.207819
-1.07138
1.07061
0.185917
1.03777
0.127457
1.00888
0.125768
0.971758
0.200387
0.917649
0.274683
0.87172
0.337014
0.830848
0.439931
0.761015
0.567093
0.657284
0.658066
0.549495
0.690835
0.459413
0.678739
0.384716
0.639561
0.319938
0.580717
0.264771
0.506643
0.220187
0.423383
0.186191
0.336483
0.162102
0.249307
0.147511
0.166815
0.0671469
1.06581
0.203547
-1.06153
1.06288
0.188848
1.03399
0.156342
0.999839
0.159921
0.972419
0.227808
0.931267
0.315834
0.874839
0.393442
0.816963
0.497807
0.753007
0.63105
0.674684
0.736388
0.583143
0.782376
0.484764
0.777118
0.392229
0.732096
0.315303
0.657643
0.255094
0.566852
0.209052
0.469425
0.17485
0.370685
0.15097
0.273187
0.136869
0.180916
0.0718501
1.05294
0.203127
-1.05252
1.0512
0.190589
1.0331
0.17444
1.00019
0.192833
0.968291
0.259706
0.932307
0.351818
0.885401
0.440348
0.831558
0.55165
0.759094
0.703514
0.658285
0.837198
0.545041
0.89562
0.443936
0.878224
0.362901
0.813131
0.296264
0.724279
0.240569
0.622548
0.195811
0.514182
0.162056
0.40444
0.138566
0.296678
0.12499
0.194492
0.0762201
1.04359
0.203902
-1.04437
1.04049
0.193691
1.02828
0.18665
0.999714
0.221398
0.970711
0.288709
0.942187
0.380342
0.889437
0.493097
0.813496
0.627591
0.732901
0.78411
0.649508
0.92059
0.560071
0.985057
0.466352
0.971943
0.374405
0.905078
0.293625
0.805059
0.229729
0.686444
0.182202
0.56171
0.148077
0.438565
0.124913
0.319842
0.111832
0.207572
0.0803123
1.03605
0.204701
-1.03685
1.03094
0.198801
1.02358
0.194007
1.00338
0.241596
0.971715
0.320376
0.941281
0.410776
0.902841
0.531537
0.838171
0.692261
0.746702
0.875579
0.638631
1.02866
0.526099
1.09759
0.421281
1.07676
0.333027
0.993332
0.263078
0.875008
0.207823
0.741699
0.164588
0.604944
0.132216
0.470937
0.109895
0.342164
0.0973293
0.220138
0.0842089
1.02987
0.204609
-1.02978
1.02417
0.204505
1.0179
0.200279
1.00416
0.255333
0.979842
0.344695
0.949515
0.441103
0.90285
0.578202
0.830308
0.764803
0.739142
0.966745
0.640855
1.12695
0.54053
1.19791
0.441125
1.17617
0.347735
1.08672
0.265844
0.9569
0.199622
0.807921
0.150417
0.654149
0.116179
0.505175
0.0938085
0.364534
0.0814621
0.232484
0.08807
1.02469
0.203103
-1.02318
1.01908
0.210114
1.01421
0.205151
1.00539
0.264153
0.98224
0.367842
0.957563
0.46578
0.925583
0.610181
0.862099
0.828287
0.763772