/*--------------------------------*- C++ -*----------------------------------*\
| =========                 |                                                 |
| \\      /  F ield         | OpenFOAM: The Open Source CFD Toolbox           |
|  \\    /   O peration     | Version:  v1806                                 |
|   \\  /    A nd           | Web:      www.OpenFOAM.com                      |
|    \\/     M anipulation  |                                                 |
\*---------------------------------------------------------------------------*/
FoamFile
{
    version     2.0;
    format      ascii;
    class       volVectorField;
    location    "420";
    object      U;
}
// * * * * * * * * * * * * * * * * * * * * * * * * * * * * * * * * * * * * * //

dimensions      [0 1 -1 0 0 0 0];


internalField   nonuniform List<vector> 
2400
(
(0.3 -0.00168187 0)
(0.300007 -0.00504295 0)
(0.300023 -0.00838978 0)
(0.30005 -0.0117101 0)
(0.30009 -0.0149908 0)
(0.300147 -0.0182177 0)
(0.300223 -0.0213748 0)
(0.300324 -0.0244443 0)
(0.300453 -0.0274062 0)
(0.300616 -0.0302383 0)
(0.300818 -0.0329171 0)
(0.301065 -0.0354173 0)
(0.301362 -0.0377129 0)
(0.301714 -0.0397778 0)
(0.302127 -0.0415868 0)
(0.302602 -0.0431163 0)
(0.303143 -0.0443463 0)
(0.303747 -0.0452602 0)
(0.304416 -0.0458473 0)
(0.305141 -0.0461021 0)
(0.300001 -0.00168779 0)
(0.300019 -0.00506124 0)
(0.300055 -0.00842218 0)
(0.300112 -0.0117593 0)
(0.300193 -0.0150605 0)
(0.300302 -0.0183123 0)
(0.300443 -0.0214996 0)
(0.300624 -0.0246052 0)
(0.300851 -0.02761 0)
(0.30113 -0.0304925 0)
(0.301469 -0.0332291 0)
(0.301874 -0.0357947 0)
(0.302353 -0.038163 0)
(0.302911 -0.0403068 0)
(0.30355 -0.0421995 0)
(0.304272 -0.0438158 0)
(0.305075 -0.0451329 0)
(0.305955 -0.0461317 0)
(0.306905 -0.0467982 0)
(0.307912 -0.0471252 0)
(0.300002 -0.00169918 0)
(0.300029 -0.00509591 0)
(0.300086 -0.00848199 0)
(0.300175 -0.0118475 0)
(0.3003 -0.0151815 0)
(0.300465 -0.0184718 0)
(0.300679 -0.0217042 0)
(0.30095 -0.0248625 0)
(0.301286 -0.027928 0)
(0.301696 -0.0308794 0)
(0.302191 -0.0336931 0)
(0.302778 -0.0363431 0)
(0.303465 -0.0388018 0)
(0.304258 -0.04104 0)
(0.30516 -0.0430286 0)
(0.306171 -0.0447387 0)
(0.307285 -0.0461443 0)
(0.308493 -0.047222 0)
(0.309784 -0.0479545 0)
(0.311136 -0.0483297 0)
(0.300002 -0.00171538 0)
(0.300039 -0.00514512 0)
(0.300114 -0.00856643 0)
(0.30023 -0.0119712 0)
(0.300394 -0.0153502 0)
(0.300612 -0.0186927 0)
(0.300893 -0.021986 0)
(0.301248 -0.0252149 0)
(0.301687 -0.0283612 0)
(0.302224 -0.0314041 0)
(0.302871 -0.0343194 0)
(0.303637 -0.03708 0)
(0.304534 -0.0396563 0)
(0.305567 -0.0420163 0)
(0.30674 -0.0441272 0)
(0.30805 -0.0459557 0)
(0.309492 -0.0474704 0)
(0.311049 -0.048643 0)
(0.312706 -0.0494509 0)
(0.314432 -0.0498781 0)
(0.300002 -0.00173551 0)
(0.300046 -0.00520624 0)
(0.300135 -0.00867137 0)
(0.300274 -0.0121252 0)
(0.30047 -0.0155604 0)
(0.300731 -0.0189687 0)
(0.301069 -0.0223387 0)
(0.301497 -0.0256568 0)
(0.30203 -0.0289055 0)
(0.302683 -0.0320645 0)
(0.303472 -0.0351089 0)
(0.30441 -0.0380104 0)
(0.305511 -0.0407364 0)
(0.306782 -0.0432516 0)
(0.308229 -0.0455179 0)
(0.309849 -0.0474959 0)
(0.311633 -0.0491476 0)
(0.313561 -0.0504371 0)
(0.315609 -0.0513354 0)
(0.317741 -0.0518202 0)
(0.300003 -0.00175844 0)
(0.300051 -0.00527597 0)
(0.30015 -0.00879145 0)
(0.300304 -0.012302 0)
(0.300522 -0.0158031 0)
(0.300815 -0.019289 0)
(0.301197 -0.0227502 0)
(0.301684 -0.0261754 0)
(0.302294 -0.0295478 0)
(0.303048 -0.0328484 0)
(0.303965 -0.0360507 0)
(0.305064 -0.039126 0)
(0.306361 -0.0420375 0)
(0.307868 -0.0447458 0)
(0.309592 -0.0472061 0)
(0.311532 -0.049371 0)
(0.313675 -0.0511939 0)
(0.316001 -0.0526281 0)
(0.318475 -0.0536361 0)
(0.321051 -0.0541863 0)
(0.300003 -0.0017828 0)
(0.300053 -0.00535019 0)
(0.300155 -0.00891978 0)
(0.300315 -0.0124924 0)
(0.300544 -0.0160664 0)
(0.300854 -0.0196396 0)
(0.301263 -0.0232047 0)
(0.30179 -0.0267539 0)
(0.302459 -0.0302706 0)
(0.303295 -0.0337389 0)
(0.304321 -0.0371295 0)
(0.305563 -0.040415 0)
(0.307044 -0.0435519 0)
(0.308781 -0.0464982 0)
(0.310785 -0.0491986 0)
(0.313055 -0.0515969 0)
(0.315582 -0.0536345 0)
(0.318338 -0.0552496 0)
(0.32128 -0.0563943 0)
(0.324352 -0.0570224 0)
(0.300003 -0.00180689 0)
(0.300051 -0.00542382 0)
(0.300149 -0.00904797 0)
(0.300305 -0.0126845 0)
(0.300529 -0.0163353 0)
(0.300839 -0.020003 0)
(0.301253 -0.0236821 0)
(0.301798 -0.0273706 0)
(0.3025 -0.031051 0)
(0.303391 -0.034714 0)
(0.304502 -0.0383243 0)
(0.305865 -0.0418612 0)
(0.307513 -0.045268 0)
(0.309468 -0.0485065 0)
(0.311751 -0.0515022 0)
(0.314364 -0.054193 0)
(0.3173 -0.0565013 0)
(0.320528 -0.0583458 0)
(0.323994 -0.0596651 0)
(0.327629 -0.060389 0)
(0.300002 -0.0018287 0)
(0.300044 -0.00549086 0)
(0.30013 -0.00916595 0)
(0.300268 -0.0128645 0)
(0.300471 -0.016592 0)
(0.300758 -0.0203575 0)
(0.301153 -0.0241574 0)
(0.301686 -0.0279982 0)
(0.302389 -0.0318595 0)
(0.303302 -0.0357449 0)
(0.304464 -0.0396062 0)
(0.305917 -0.0434418 0)
(0.307705 -0.0471669 0)
(0.30986 -0.0507651 0)
(0.312418 -0.0541204 0)
(0.315382 -0.057182 0)
(0.318758 -0.059832 0)
(0.322506 -0.0619719 0)
(0.326567 -0.0635199 0)
(0.330853 -0.064365 0)
(0.300002 -0.00184588 0)
(0.300032 -0.00554423 0)
(0.300096 -0.0092619 0)
(0.300201 -0.0130157 0)
(0.300362 -0.0168151 0)
(0.300601 -0.0206774 0)
(0.300946 -0.0246001 0)
(0.301431 -0.0286027 0)
(0.302095 -0.0326583 0)
(0.302987 -0.0367937 0)
(0.304155 -0.0409357 0)
(0.305655 -0.0451249 0)
(0.307545 -0.0492175 0)
(0.30987 -0.0532632 0)
(0.31269 -0.0570483 0)
(0.316007 -0.0605906 0)
(0.319858 -0.0636681 0)
(0.324183 -0.0661991 0)
(0.328931 -0.0680511 0)
(0.333985 -0.0690532 0)
(0.300001 -0.00185574 0)
(0.300014 -0.00557582 0)
(0.300044 -0.00932226 0)
(0.300099 -0.0131189 0)
(0.300194 -0.0169796 0)
(0.300356 -0.0209315 0)
(0.300614 -0.0249732 0)
(0.301009 -0.029142 0)
(0.301585 -0.0333998 0)
(0.302401 -0.0378114 0)
(0.303517 -0.042259 0)
(0.305005 -0.0468658 0)
(0.306943 -0.0513712 0)
(0.309389 -0.0559831 0)
(0.312446 -0.0602638 0)
(0.316104 -0.0644542 0)
(0.320473 -0.0680478 0)
(0.325431 -0.0711247 0)
(0.330989 -0.0733769 0)
(0.336963 -0.0745904 0)
(0.3 -0.00185531 0)
(0.29999 -0.00557664 0)
(0.299974 -0.00933186 0)
(0.299958 -0.0131524 0)
(0.299962 -0.0170569 0)
(0.300011 -0.0210841 0)
(0.300141 -0.0252334 0)
(0.300394 -0.0295647 0)
(0.300824 -0.0340254 0)
(0.301495 -0.0387341 0)
(0.302486 -0.0435059 0)
(0.303881 -0.0486016 0)
(0.30579 -0.0535551 0)
(0.308284 -0.0588944 0)
(0.311532 -0.0637126 0)
(0.315493 -0.0688233 0)
(0.320431 -0.0729856 0)
(0.326062 -0.076899 0)
(0.332619 -0.0796413 0)
(0.339697 -0.0811728 0)
(0.299998 -0.00184139 0)
(0.299959 -0.00553697 0)
(0.299883 -0.00927426 0)
(0.299777 -0.0130923 0)
(0.299661 -0.0170155 0)
(0.29956 -0.0210942 0)
(0.299515 -0.0253308 0)
(0.299564 -0.0298098 0)
(0.299781 -0.0344646 0)
(0.30022 -0.0394794 0)
(0.300998 -0.044587 0)
(0.302188 -0.0502409 0)
(0.303967 -0.0556692 0)
(0.306395 -0.0619418 0)
(0.309754 -0.0672941 0)
(0.313941 -0.0737669 0)
(0.319499 -0.0784284 0)
(0.325798 -0.0837776 0)
(0.333676 -0.0869893 0)
(0.342034 -0.0891256 0)
(0.299996 -0.00181067 0)
(0.29992 -0.00544676 0)
(0.299772 -0.00913232 0)
(0.299553 -0.0129135 0)
(0.29929 -0.0168215 0)
(0.298995 -0.0209174 0)
(0.298729 -0.02521 0)
(0.298504 -0.0298063 0)
(0.298435 -0.0346351 0)
(0.298529 -0.0399431 0)
(0.298995 -0.0453926 0)
(0.29982 -0.0516496 0)
(0.301353 -0.0575872 0)
(0.303525 -0.0650116 0)
(0.306883 -0.0708677 0)
(0.311155 -0.0793492 0)
(0.317336 -0.0842042 0)
(0.324245 -0.0921975 0)
(0.33398 -0.0954536 0)
(0.343637 -0.099066 0)
(0.299994 -0.00175989 0)
(0.299875 -0.0052961 0)
(0.299642 -0.00888892 0)
(0.299289 -0.0125908 0)
(0.298848 -0.01644 0)
(0.29832 -0.020507 0)
(0.297781 -0.024811 0)
(0.297207 -0.0294759 0)
(0.296772 -0.0344424 0)
(0.296391 -0.0399993 0)
(0.296435 -0.0457891 0)
(0.296673 -0.0526374 0)
(0.297837 -0.0591569 0)
(0.299433 -0.0678735 0)
(0.302685 -0.0742965 0)
(0.306744 -0.085522 0)
(0.313463 -0.0900611 0)
(0.320936 -0.102817 0)
(0.333128 -0.104726 0)
(0.343798 -0.11221 0)
(0.299992 -0.00168605 0)
(0.299824 -0.0050759 0)
(0.299493 -0.00852817 0)
(0.298988 -0.0121003 0)
(0.298344 -0.0158376 0)
(0.297544 -0.0198175 0)
(0.296681 -0.0240727 0)
(0.295688 -0.0287375 0)
(0.294799 -0.0337813 0)
(0.293805 -0.0395071 0)
(0.293294 -0.045612 0)
(0.292675 -0.0529611 0)
(0.293326 -0.0601769 0)
(0.293838 -0.0701271 0)
(0.296953 -0.0774863 0)
(0.300096 -0.0918735 0)
(0.307381 -0.0959532 0)
(0.315315 -0.116293 0)
(0.329986 -0.113984 0)
(0.341724 -0.130966 0)
(0.299989 -0.00158669 0)
(0.299768 -0.00477861 0)
(0.299331 -0.00803669 0)
(0.29866 -0.0114219 0)
(0.297789 -0.0149846 0)
(0.296688 -0.0188078 0)
(0.295452 -0.0229369 0)
(0.293981 -0.0275128 0)
(0.292542 -0.0325415 0)
(0.290819 -0.038321 0)
(0.289572 -0.0446599 0)
(0.287846 -0.05235 0)
(0.287724 -0.0603385 0)
(0.286539 -0.0712347 0)
(0.289439 -0.0802635 0)
(0.290313 -0.0973576 0)
(0.29882 -0.102557 0)
(0.30598 -0.132277 0)
(0.32268 -0.122579 0)
(0.338204 -0.160035 0)
(0.299986 -0.00146015 0)
(0.29971 -0.00439902 0)
(0.299161 -0.00740513 0)
(0.298316 -0.0105406 0)
(0.297201 -0.0138588 0)
(0.295782 -0.0174453 0)
(0.294134 -0.0213555 0)
(0.292148 -0.0257341 0)
(0.290061 -0.0306196 0)
(0.287536 -0.0363029 0)
(0.285323 -0.0427086 0)
(0.28234 -0.0505316 0)
(0.28094 -0.0591727 0)
(0.27765 -0.0706494 0)
(0.279625 -0.0819469 0)
(0.276666 -0.100559 0)
(0.287182 -0.110964 0)
(0.289479 -0.147544 0)
(0.311184 -0.134128 0)
(0.334685 -0.206735 0)
(0.299983 -0.00130594 0)
(0.299652 -0.00393525 0)
(0.298989 -0.00662972 0)
(0.297971 -0.00944974 0)
(0.296608 -0.0124491 0)
(0.294866 -0.0157114 0)
(0.292786 -0.0192987 0)
(0.290271 -0.023353 0)
(0.287468 -0.0279386 0)
(0.284108 -0.0333355 0)
(0.28071 -0.039559 0)
(0.276423 -0.0472393 0)
(0.27306 -0.0561311 0)
(0.267657 -0.0678399 0)
(0.266785 -0.0810184 0)
(0.259555 -0.100407 0)
(0.26952 -0.119209 0)
(0.261948 -0.15711 0)
(0.296328 -0.164137 0)
(0.320069 -0.270012 0)
(0.29998 -0.00112524 0)
(0.299597 -0.00339051 0)
(0.298827 -0.00571527 0)
(0.297642 -0.00815503 0)
(0.296041 -0.0107611 0)
(0.293988 -0.0136097 0)
(0.291485 -0.0167657 0)
(0.288449 -0.0203588 0)
(0.284921 -0.0244727 0)
(0.280718 -0.0293587 0)
(0.276041 -0.0351049 0)
(0.270417 -0.0422642 0)
(0.264626 -0.0508334 0)
(0.257178 -0.0621945 0)
(0.25122 -0.075861 0)
(0.240708 -0.09567 0)
(0.240717 -0.119782 0)
(0.222224 -0.158565 0)
(0.259742 -0.211246 0)
(0.25381 -0.312698 0)
(0.305995 -0.0460211 0)
(0.30699 -0.0454709 0)
(0.308037 -0.0444874 0)
(0.309107 -0.0431033 0)
(0.310192 -0.041377 0)
(0.31126 -0.0393498 0)
(0.312312 -0.0370973 0)
(0.313321 -0.0346453 0)
(0.314292 -0.0320815 0)
(0.315213 -0.029399 0)
(0.309071 -0.0471076 0)
(0.310374 -0.0466046 0)
(0.311693 -0.0456487 0)
(0.312992 -0.0442728 0)
(0.314255 -0.0425349 0)
(0.315446 -0.0404788 0)
(0.31657 -0.0381836 0)
(0.317596 -0.035677 0)
(0.318539 -0.0330542 0)
(0.31939 -0.0303104 0)
(0.312671 -0.0483471 0)
(0.314368 -0.0478564 0)
(0.316052 -0.0468826 0)
(0.317674 -0.0454625 0)
(0.31921 -0.0436586 0)
(0.320618 -0.0415211 0)
(0.321905 -0.0391366 0)
(0.323037 -0.0365332 0)
(0.324042 -0.0338199 0)
(0.324901 -0.0309691 0)
(0.316378 -0.0499236 0)
(0.318509 -0.0494233 0)
(0.320597 -0.0483997 0)
(0.322581 -0.0468958 0)
(0.324425 -0.0449814 0)
(0.326082 -0.0427173 0)
(0.327561 -0.0401981 0)
(0.328829 -0.0374572 0)
(0.329928 -0.0346113 0)
(0.330827 -0.0316293 0)
(0.320133 -0.0518885 0)
(0.322738 -0.0513583 0)
(0.325267 -0.0502518 0)
(0.327643 -0.0486216 0)
(0.329815 -0.0465489 0)
(0.331736 -0.0441099 0)
(0.333414 -0.0414093 0)
(0.334823 -0.0384888 0)
(0.336014 -0.0354722 0)
(0.336955 -0.0323259 0)
(0.323936 -0.0542731 0)
(0.327065 -0.05369 0)
(0.330079 -0.0524609 0)
(0.33288 -0.0506529 0)
(0.3354 -0.048365 0)
(0.337592 -0.0456954 0)
(0.339467 -0.0427618 0)
(0.341011 -0.0396156 0)
(0.342281 -0.0363884 0)
(0.343257 -0.0330422 0)
(0.327791 -0.0571243 0)
(0.33151 -0.0564608 0)
(0.335063 -0.0550598 0)
(0.338329 -0.0530095 0)
(0.341215 -0.0504387 0)
(0.343683 -0.0474735 0)
(0.345743 -0.0442494 0)
(0.347411 -0.0408268 0)
(0.348739 -0.0373466 0)
(0.349734 -0.033764 0)
(0.3317 -0.0605045 0)
(0.336094 -0.0597257 0)
(0.340257 -0.0580882 0)
(0.344035 -0.0557133 0)
(0.347301 -0.052777 0)
(0.350041 -0.04944 0)
(0.352268 -0.045861 0)
(0.354039 -0.0421061 0)
(0.355395 -0.0383292 0)
(0.356385 -0.0344721 0)
(0.33566 -0.0644961 0)
(0.340843 -0.063555 0)
(0.345707 -0.0615924 0)
(0.350046 -0.0587846 0)
(0.353701 -0.0553819 0)
(0.356702 -0.0515836 0)
(0.359063 -0.0475784 0)
(0.360907 -0.0434292 0)
(0.362247 -0.0393114 0)
(0.3632 -0.0351396 0)
(0.339667 -0.069211 0)
(0.345796 -0.0680399 0)
(0.351476 -0.0656249 0)
(0.356429 -0.06224 0)
(0.360469 -0.0582478 0)
(0.3637 -0.0538829 0)
(0.366148 -0.0493722 0)
(0.368017 -0.0447598 0)
(0.369271 -0.0402564 0)
(0.370131 -0.0357258 0)
(0.34371 -0.0748048 0)
(0.351008 -0.0732963 0)
(0.357653 -0.0702428 0)
(0.363267 -0.0660913 0)
(0.367667 -0.0613595 0)
(0.371077 -0.0563017 0)
(0.373526 -0.0511948 0)
(0.375327 -0.0460379 0)
(0.376364 -0.0411015 0)
(0.377012 -0.0361572 0)
(0.347782 -0.0814971 0)
(0.356581 -0.0794671 0)
(0.36438 -0.0755077 0)
(0.370688 -0.0703495 0)
(0.375379 -0.0646896 0)
(0.378839 -0.058776 0)
(0.381099 -0.0529556 0)
(0.382606 -0.0471456 0)
(0.383136 -0.0417153 0)
(0.383296 -0.0362764 0)
(0.351889 -0.0896009 0)
(0.362714 -0.0867173 0)
(0.371898 -0.0814799 0)
(0.378858 -0.0750079 0)
(0.383613 -0.0681558 0)
(0.386752 -0.0611482 0)
(0.388325 -0.0544339 0)
(0.38897 -0.0478046 0)
(0.388358 -0.0417877 0)
(0.387424 -0.0357337 0)
(0.356181 -0.0995723 0)
(0.369854 -0.0952265 0)
(0.380551 -0.0881654 0)
(0.387746 -0.0799021 0)
(0.391775 -0.0714131 0)
(0.393537 -0.0629302 0)
(0.393224 -0.055026 0)
(0.391769 -0.0473443 0)
(0.388821 -0.0406277 0)
(0.385705 -0.0338345 0)
(0.361412 -0.112108 0)
(0.378821 -0.105218 0)
(0.390232 -0.0953193 0)
(0.395892 -0.0842927 0)
(0.396941 -0.0733486 0)
(0.394912 -0.0628093 0)
(0.39041 -0.0533393 0)
(0.384786 -0.0444331 0)
(0.377801 -0.0370097 0)
(0.371108 -0.0295122 0)
(0.369625 -0.128167 0)
(0.389586 -0.116957 0)
(0.397715 -0.101864 0)
(0.397033 -0.0860599 0)
(0.390461 -0.0713516 0)
(0.380673 -0.0581847 0)
(0.368908 -0.0470418 0)
(0.356927 -0.037195 0)
(0.344618 -0.02946 0)
(0.333661 -0.0217773 0)
(0.382167 -0.147731 0)
(0.395295 -0.128464 0)
(0.390643 -0.103375 0)
(0.375218 -0.080169 0)
(0.354901 -0.0609217 0)
(0.333675 -0.0455753 0)
(0.313204 -0.0337652 0)
(0.295101 -0.0243175 0)
(0.278934 -0.0174836 0)
(0.265835 -0.0109312 0)
(0.389816 -0.162464 0)
(0.371245 -0.12859 0)
(0.341831 -0.0884433 0)
(0.303893 -0.0589442 0)
(0.268202 -0.0379408 0)
(0.238438 -0.0236674 0)
(0.214952 -0.0143957 0)
(0.197414 -0.00825054 0)
(0.18402 -0.0044943 0)
(0.174614 -0.000781944 0)
(0.358559 -0.140655 0)
(0.268415 -0.0932219 0)
(0.216851 -0.0395512 0)
(0.164224 -0.0161818 0)
(0.131442 -0.0044958 0)
(0.111403 -0.000491553 0)
(0.0994174 0.00073708 0)
(0.0924152 0.00128777 0)
(0.0881254 0.00172416 0)
(0.0857778 0.0034509 0)
(0.226952 -0.122737 0)
(0.0383405 -0.039174 0)
(0.0330412 0.00328265 0)
(0.0129363 0.00484333 0)
(0.0146945 0.00446094 0)
(0.0149459 0.00265003 0)
(0.0162893 0.00154336 0)
(0.0176494 0.00110692 0)
(0.019125 0.00114311 0)
(0.0203335 0.0017629 0)
(0.316841 -0.0241178 0)
(0.319065 -0.0159751 0)
(0.320172 -0.00883247 0)
(0.321764 -0.00293812 0)
(0.322225 0.00295849 0)
(0.323298 0.00637048 0)
(0.324147 0.0130553 0)
(0.32467 0.0172069 0)
(0.325549 0.0266786 0)
(0.324903 0.0333601 0)
(0.324788 0.0406723 0)
(0.323619 0.0466672 0)
(0.32273 0.0453414 0)
(0.320936 0.0454338 0)
(0.320675 0.0326493 0)
(0.3182 0.0256018 0)
(0.316696 0.00324302 0)
(0.315974 -0.00583074 0)
(0.316666 -0.0264661 0)
(0.325138 -0.026359 0)
(0.32085 -0.0249001 0)
(0.322532 -0.0165036 0)
(0.323055 -0.00924277 0)
(0.324086 -0.00327347 0)
(0.32406 0.00268744 0)
(0.324892 0.00606648 0)
(0.325543 0.0128334 0)
(0.325997 0.0170378 0)
(0.326566 0.0266479 0)
(0.325521 0.0334868 0)
(0.324966 0.0408566 0)
(0.323413 0.0469155 0)
(0.322272 0.0457128 0)
(0.320233 0.0456931 0)
(0.319894 0.0330245 0)
(0.317135 0.0262208 0)
(0.315607 0.00366563 0)
(0.314837 -0.0057511 0)
(0.316072 -0.0281966 0)
(0.326757 -0.0279543 0)
(0.326327 -0.025412 0)
(0.327602 -0.0167747 0)
(0.327599 -0.00940172 0)
(0.328039 -0.0033308 0)
(0.327417 0.00261692 0)
(0.327957 0.00588183 0)
(0.328356 0.0126527 0)
(0.328777 0.0169247 0)
(0.328904 0.0267715 0)
(0.327155 0.0338213 0)
(0.325769 0.0412778 0)
(0.323366 0.0473874 0)
(0.321659 0.0462918 0)
(0.319041 0.0460908 0)
(0.318559 0.0335722 0)
(0.315168 0.026935 0)
(0.313651 0.00396485 0)
(0.312969 -0.00587176 0)
(0.314902 -0.0302869 0)
(0.328688 -0.0296897 0)
(0.332285 -0.0258527 0)
(0.333276 -0.016905 0)
(0.332869 -0.00938813 0)
(0.332816 -0.0032101 0)
(0.331668 0.00266645 0)
(0.332007 0.0057863 0)
(0.33225 0.0125083 0)
(0.332799 0.0169005 0)
(0.332539 0.027096 0)
(0.32996 0.0344177 0)
(0.327489 0.0420014 0)
(0.3238 0.0480968 0)
(0.321215 0.0470649 0)
(0.317659 0.0465919 0)
(0.316907 0.0342282 0)
(0.312617 0.0276707 0)
(0.311139 0.00423235 0)
(0.310766 -0.00607101 0)
(0.313193 -0.0329048 0)
(0.330337 -0.0318384 0)
(0.338446 -0.0262698 0)
(0.339183 -0.0169519 0)
(0.338418 -0.00926067 0)
(0.337919 -0.00295869 0)
(0.336318 0.00278718 0)
(0.336559 0.00572263 0)
(0.336803 0.0123316 0)
(0.337701 0.0168999 0)
(0.337235 0.0275909 0)
(0.333859 0.0352976 0)
(0.330217 0.0430981 0)
(0.32492 0.0491353 0)
(0.321197 0.048139 0)
(0.316385 0.0472678 0)
(0.315169 0.03508 0)
(0.309812 0.0285158 0)
(0.308317 0.00446563 0)
(0.308547 -0.00636691 0)
(0.310868 -0.0360944 0)
(0.331187 -0.0344495 0)
(0.344749 -0.0266511 0)
(0.34521 -0.0169136 0)
(0.344078 -0.00902059 0)
(0.343102 -0.00257799 0)
(0.341069 0.00296327 0)
(0.341262 0.00565682 0)
(0.34166 0.0120619 0)
(0.343121 0.0168538 0)
(0.342682 0.0282111 0)
(0.338636 0.0364496 0)
(0.333869 0.0446118 0)
(0.326782 0.0505857 0)
(0.321745 0.0496065 0)
(0.315451 0.0482038 0)
(0.313497 0.0362147 0)
(0.307036 0.0295026 0)
(0.305329 0.00465326 0)
(0.306544 -0.00673219 0)
(0.307683 -0.0396831 0)
(0.330571 -0.0374389 0)
(0.351179 -0.0269834 0)
(0.351323 -0.01678 0)
(0.34978 -0.00865024 0)
(0.348228 -0.00205373 0)
(0.345739 0.00319167 0)
(0.345858 0.00556767 0)
(0.346547 0.0116464 0)
(0.348753 0.0167024 0)
(0.348575 0.028907 0)
(0.344012 0.0378382 0)
(0.338245 0.0465495 0)
(0.329306 0.0524864 0)
(0.322869 0.0515152 0)
(0.314981 0.0494671 0)
(0.311932 0.0376838 0)
(0.304504 0.0306381 0)
(0.302219 0.00479948 0)
(0.304857 -0.00705928 0)
(0.303189 -0.0433454 0)
(0.327666 -0.040673 0)
(0.357716 -0.0272501 0)
(0.357486 -0.0165365 0)
(0.355454 -0.00812 0)
(0.353161 -0.00136033 0)
(0.350146 0.00348334 0)
(0.35009 0.00544609 0)
(0.351186 0.0110373 0)
(0.354289 0.0163921 0)
(0.354616 0.0296272 0)
(0.349696 0.0394168 0)
(0.343087 0.0488937 0)
(0.332319 0.054841 0)
(0.324473 0.0538789 0)
(0.314986 0.0511127 0)
(0.310413 0.0395164 0)
(0.302363 0.0319346 0)
(0.298942 0.0049331 0)
(0.303376 -0.00716623 0)
(0.296788 -0.0466218 0)
(0.321614 -0.0439746 0)
(0.364319 -0.0274285 0)
(0.363624 -0.0161599 0)
(0.36095 -0.00738341 0)
(0.357662 -0.00045103 0)
(0.353995 0.00386891 0)
(0.353568 0.00529817 0)
(0.355161 0.0101916 0)
(0.359293 0.0158674 0)
(0.36043 0.0303124 0)
(0.355349 0.0411326 0)
(0.348095 0.0516132 0)
(0.335587 0.0576323 0)
(0.32639 0.0566877 0)
(0.315375 0.0531934 0)
(0.308816 0.0417204 0)
(0.300689 0.0334098 0)
(0.295391 0.00512115 0)
(0.301695 -0.00678777 0)
(0.287872 -0.0489647 0)
(0.311763 -0.0471442 0)
(0.370876 -0.0274831 0)
(0.369525 -0.0156059 0)
(0.365915 -0.00636581 0)
(0.361263 0.00073195 0)
(0.356725 0.00440487 0)
(0.355622 0.00515 0)
(0.357752 0.00907497 0)
(0.363028 0.0150606 0)
(0.365425 0.0308749 0)
(0.360503 0.0429128 0)
(0.352898 0.0546611 0)
(0.338825 0.0608254 0)
(0.328403 0.0599162 0)
(0.31596 0.055759 0)
(0.307009 0.044275 0)
(0.299465 0.0350872 0)
(0.291421 0.00550095 0)
(0.2991 -0.00557876 0)
(0.276051 -0.0498535 0)
(0.297961 -0.050005 0)
(0.377054 -0.0273414 0)
(0.37463 -0.0147834 0)
(0.369563 -0.00494382 0)
(0.363057 0.00228239 0)
(0.357307 0.00518055 0)
(0.355112 0.00505298 0)
(0.357734 0.00766734 0)
(0.364255 0.0138872 0)
(0.368617 0.031174 0)
(0.364432 0.0446352 0)
(0.356983 0.0579547 0)
(0.341673 0.0643576 0)
(0.330242 0.0635261 0)
(0.316473 0.058846 0)
(0.304903 0.0471299 0)
(0.298555 0.0370082 0)
(0.286833 0.00629818 0)
(0.294701 -0.00316578 0)
(0.261407 -0.048943 0)
(0.280771 -0.0524529 0)
(0.381948 -0.0268427 0)
(0.377637 -0.0135143 0)
(0.370333 -0.00293182 0)
(0.361432 0.00434292 0)
(0.354019 0.00632599 0)
(0.350265 0.00508611 0)
(0.35324 0.00596525 0)
(0.361116 0.0122316 0)
(0.368495 0.0309855 0)
(0.366022 0.0460924 0)
(0.359616 0.0613424 0)
(0.34365 0.0681206 0)
(0.331563 0.0674643 0)
(0.316571 0.0624596 0)
(0.302469 0.0502141 0)
(0.297661 0.0392492 0)
(0.281343 0.00783425 0)
(0.28771 0.000742929 0)
(0.244684 -0.0461798 0)
(0.261493 -0.0544877 0)
(0.383393 -0.0256577 0)
(0.375931 -0.0115087 0)
(0.365529 -0.000108119 0)
(0.353862 0.00706631 0)
(0.344354 0.00799983 0)
(0.33868 0.00535251 0)
(0.341843 0.00397844 0)
(0.351254 0.00992106 0)
(0.363073 0.0299691 0)
(0.363748 0.0469559 0)
(0.359793 0.0645659 0)
(0.344113 0.071936 0)
(0.331908 0.0716512 0)
(0.315871 0.0665518 0)
(0.299705 0.0534515 0)
(0.296323 0.0419402 0)
(0.274578 0.010463 0)
(0.277765 0.00630732 0)
(0.22729 -0.0418276 0)
(0.241925 -0.0561949 0)
(0.377048 -0.0232369 0)
(0.365127 -0.00839924 0)
(0.351249 0.00364491 0)
(0.337042 0.010528 0)
(0.325306 0.0103004 0)
(0.317741 0.00590545 0)
(0.321096 0.0017007 0)
(0.332407 0.00671504 0)
(0.350289 0.0276677 0)
(0.355877 0.046762 0)
(0.356311 0.0672335 0)
(0.342257 0.0755365 0)
(0.3307 0.075961 0)
(0.313975 0.071002 0)
(0.29656 0.0567818 0)
(0.293942 0.0452716 0)
(0.266166 0.014453 0)
(0.265123 0.0133401 0)
(0.211031 -0.0364304 0)
(0.223951 -0.0576842 0)
(0.355968 -0.0189439 0)
(0.339484 -0.0039472 0)
(0.323205 0.00824007 0)
(0.307787 0.0146106 0)
(0.294354 0.0131646 0)
(0.285665 0.00663927 0)
(0.289638 -0.00096559 0)
(0.303478 0.0023231 0)
(0.328814 0.0235807 0)
(0.34097 0.0449627 0)
(0.348023 0.0688332 0)
(0.337204 0.0785685 0)
(0.327287 0.0802014 0)
(0.31052 0.0756112 0)
(0.29285 0.0601799 0)
(0.289855 0.0494673 0)
(0.255856 0.0198936 0)
(0.25064 0.0212678 0)
(0.19773 -0.0306892 0)
(0.209165 -0.0590273 0)
(0.31235 -0.0125429 0)
(0.294419 0.00135125 0)
(0.279008 0.0131135 0)
(0.264867 0.0188798 0)
(0.251083 0.0162829 0)
(0.242928 0.00725606 0)
(0.248405 -0.00422523 0)
(0.265543 -0.00356645 0)
(0.298865 0.0173175 0)
(0.318532 0.0410557 0)
(0.334217 0.0688153 0)
(0.328187 0.0806332 0)
(0.321056 0.0841056 0)
(0.305213 0.0801202 0)
(0.288212 0.0636677 0)
(0.283444 0.0547301 0)
(0.243684 0.0266137 0)
(0.235549 0.0293254 0)
(0.188766 -0.0252639 0)
(0.198656 -0.0602333 0)
(0.243572 -0.00516594 0)
(0.231311 0.00614031 0)
(0.221321 0.0171959 0)
(0.210952 0.0226609 0)
(0.198552 0.0191113 0)
(0.19303 0.00730538 0)
(0.200854 -0.00833096 0)
(0.221831 -0.0111025 0)
(0.262338 0.00877923 0)
(0.289349 0.0347497 0)
(0.314912 0.0667273 0)
(0.314763 0.0813619 0)
(0.311604 0.0873499 0)
(0.297863 0.0842529 0)
(0.282125 0.067311 0)
(0.274263 0.0611663 0)
(0.23005 0.0341843 0)
(0.221196 0.0366193 0)
(0.184789 -0.0207214 0)
(0.19297 -0.0612843 0)
(0.160667 -0.000278562 0)
(0.160683 0.0084831 0)
(0.158312 0.0195079 0)
(0.152408 0.0254248 0)
(0.142752 0.0211074 0)
(0.141372 0.00640956 0)
(0.151682 -0.0134111 0)
(0.176415 -0.0201422 0)
(0.221991 -0.00177632 0)
(0.255243 0.0260524 0)
(0.290839 0.0623406 0)
(0.296938 0.0804916 0)
(0.298876 0.0895954 0)
(0.288378 0.0877788 0)
(0.27401 0.0712033 0)
(0.262141 0.0687334 0)
(0.215699 0.041973 0)
(0.208765 0.0422694 0)
(0.185657 -0.0175335 0)
(0.192146 -0.0621706 0)
(0.08551 -8.28413e-05 0)
(0.0964141 0.00771222 0)
(0.0992054 0.0200992 0)
(0.096384 0.0271249 0)
(0.0900576 0.0219998 0)
(0.0928983 0.00454318 0)
(0.105077 -0.0193376 0)
(0.132671 -0.0302896 0)
(0.18042 -0.0137715 0)
(0.218453 0.0152345 0)
(0.263152 0.055699 0)
(0.275201 0.0778929 0)
(0.283218 0.0905399 0)
(0.276739 0.0905809 0)
(0.263359 0.075434 0)
(0.247265 0.0771955 0)
(0.201646 0.0492265 0)
(0.199103 0.0455289 0)
(0.190586 -0.0160219 0)
(0.195745 -0.062904 0)
(0.033688 -0.00445172 0)
(0.046033 0.00523489 0)
(0.0496876 0.0199114 0)
(0.0480472 0.0280364 0)
(0.0449044 0.0218723 0)
(0.0507921 0.00195616 0)
(0.0640737 -0.0257901 0)
(0.0927447 -0.0409435 0)
(0.139653 -0.0265302 0)
(0.181101 0.00269752 0)
(0.233147 0.0470793 0)
(0.250512 0.0735487 0)
(0.265311 0.0899786 0)
(0.262946 0.0926971 0)
(0.249861 0.0800304 0)
(0.2302 0.086128 0)
(0.189034 0.0551897 0)
(0.192622 0.0459217 0)
(0.198396 -0.0163364 0)
(0.202896 -0.0635332 0)
(0.0121732 -0.00933808 0)
(0.0142606 0.0038345 0)
(0.01557 0.0198555 0)
(0.0138063 0.0284483 0)
(0.0129677 0.0211666 0)
(0.0203564 -0.000690875 0)
(0.0342241 -0.0315998 0)
(0.0615879 -0.0502991 0)
(0.105352 -0.0381121 0)
(0.148672 -0.00973135 0)
(0.205329 0.0378653 0)
(0.226967 0.0681685 0)
(0.247936 0.0881003 0)
(0.248581 0.0942149 0)
(0.235225 0.0844168 0)
(0.213876 0.0938876 0)
(0.180024 0.0587932 0)
(0.189635 0.0436327 0)
(0.20687 -0.0182717 0)
(0.211518 -0.0641024 0)
(0.000100421 -0.0105735 0)
(-0.00580554 0.00409431 0)
(-0.00743097 0.0201651 0)
(-0.00957782 0.0286507 0)
(-0.00867492 0.0202218 0)
(-0.000373614 -0.00320936 0)
(0.0139775 -0.0364804 0)
(0.0385403 -0.05796 0)
(0.0780516 -0.0480961 0)
(0.121785 -0.021289 0)
(0.180809 0.0288348 0)
(0.205869 0.0624112 0)
(0.231908 0.0854972 0)
(0.234443 0.0954158 0)
(0.220693 0.0883564 0)
(0.199315 0.10007 0)
(0.174184 0.0604789 0)
(0.188859 0.0398331 0)
(0.214803 -0.0211108 0)
(0.220044 -0.0647047 0)
(-0.0070699 -0.00843264 0)
(-0.0191977 0.0055399 0)
(-0.0234513 0.0208491 0)
(-0.0258166 0.028709 0)
(-0.0232248 0.018993 0)
(-0.0140216 -0.00587709 0)
(0.000794657 -0.0409261 0)
(0.0212712 -0.0646857 0)
(0.0553208 -0.0575068 0)
(0.0977412 -0.0329873 0)
(0.157231 0.0192151 0)
(0.185269 0.0557842 0)
(0.215469 0.0821443 0)
(0.21899 0.0965581 0)
(0.205054 0.092149 0)
(0.185446 0.105083 0)
(0.170921 0.0604972 0)
(0.189794 0.0345199 0)
(0.222793 -0.0249129 0)
(0.229018 -0.0654392 0)
(-0.0109038 -0.00453136 0)
(-0.0269811 0.00780006 0)
(-0.0328639 0.0217862 0)
(-0.0349422 0.0285642 0)
(-0.0303903 0.0174581 0)
(-0.0199983 -0.00870089 0)
(-0.00466683 -0.0448539 0)
(0.0110528 -0.0702343 0)
(0.0385993 -0.0659803 0)
(0.0774163 -0.0443702 0)
(0.135217 0.00929074 0)
(0.165628 0.0484796 0)
(0.198662 0.0782928 0)
(0.202393 0.0976995 0)
(0.188953 0.0955399 0)
(0.173082 0.108522 0)
(0.170525 0.0588149 0)
(0.192378 0.0280135 0)
(0.230724 -0.0295188 0)
(0.238119 -0.0663419 0)
(-0.0123089 0.000221237 0)
(-0.0298779 0.0104625 0)
(-0.0359955 0.0227432 0)
(-0.0370331 0.0280942 0)
(-0.0300041 0.0155339 0)
(-0.0180279 -0.0117174 0)
(-0.00205067 -0.0482351 0)
(0.00888951 -0.0744367 0)
(0.0290952 -0.0730913 0)
(0.0617042 -0.0548757 0)
(0.115293 -0.000611167 0)
(0.147222 0.0407788 0)
(0.181516 0.0741896 0)
(0.185027 0.0988181 0)
(0.173272 0.0982093 0)
(0.16303 0.110023 0)
(0.173164 0.0555024 0)
(0.196728 0.0206496 0)
(0.2387 -0.0347482 0)
(0.247161 -0.0674153 0)
(-0.0117275 0.00510309 0)
(-0.0283612 0.0130737 0)
(-0.0331318 0.0234432 0)
(-0.0322578 0.0271417 0)
(-0.022161 0.0131152 0)
(-0.0082666 -0.0150204 0)
(0.00852031 -0.0510866 0)
(0.0151801 -0.077239 0)
(0.0275639 -0.0784402 0)
(0.0515919 -0.0638692 0)
(0.0980262 -0.0100581 0)
(0.130335 0.033023 0)
(0.164236 0.070037 0)
(0.167555 0.0997831 0)
(0.159105 0.0998024 0)
(0.156002 0.109309 0)
(0.178879 0.050696 0)
(0.203092 0.012759 0)
(0.246973 -0.0403794 0)
(0.256061 -0.0686213 0)
(-0.00924311 0.00942198 0)
(-0.0226992 0.0151888 0)
(-0.024558 0.0236094 0)
(-0.0209361 0.0255481 0)
(-0.00729139 0.0101059 0)
(0.00867991 -0.0186463 0)
(0.0263528 -0.0535333 0)
(0.029568 -0.0787028 0)
(0.0341818 -0.0817562 0)
(0.0480992 -0.0707411 0)
(0.0842268 -0.0185544 0)
(0.115501 0.0255781 0)
(0.14738 0.0659627 0)
(0.150964 0.100365 0)
(0.147661 0.0999839 0)
(0.152548 0.10624 0)
(0.187558 0.0445549 0)
(0.211696 0.00465437 0)
(0.255808 -0.0461532 0)
(0.264799 -0.0698823 0)
(-0.0045733 0.0125165 0)
(-0.0129461 0.0164199 0)
(-0.0105634 0.0230017 0)
(-0.00354565 0.0231779 0)
(0.0138869 0.00642827 0)
(0.0318219 -0.0225608 0)
(0.0502371 -0.055715 0)
(0.0510106 -0.0789908 0)
(0.0484839 -0.0829662 0)
(0.0519957 -0.0750345 0)
(0.0750127 -0.0255811 0)
(0.103641 0.018798 0)
(0.131933 0.0620325 0)
(0.136511 0.100272 0)
(0.140117 0.0984988 0)
(0.153023 0.100841 0)
(0.198898 0.0372566 0)
(0.222557 -0.00340678 0)
(0.265353 -0.0517941 0)
(0.273355 -0.0710924 0)
(0.00307596 0.0135545 0)
(0.00117437 0.0164744 0)
(0.00863195 0.0214364 0)
(0.019353 0.0199491 0)
(0.0404819 0.00210669 0)
(0.0600049 -0.0267261 0)
(0.0786746 -0.0577015 0)
(0.07795 -0.078334 0)
(0.0693787 -0.0821879 0)
(0.0634692 -0.0765373 0)
(0.0716219 -0.0306491 0)
(0.0959627 0.0129968 0)
(0.11924 0.0583056 0)
(0.125568 0.0992089 0)
(0.137426 0.0952252 0)
(0.15759 0.0933166 0)
(0.21242 0.0290028 0)
(0.235387 -0.0112099 0)
(0.275567 -0.0570333 0)
(0.28168 -0.0721381 0)
(0.0152238 0.0112461 0)
(0.0205408 0.0150494 0)
(0.0330359 0.0188233 0)
(0.0472935 0.0158724 0)
(0.0715976 -0.00273087 0)
(0.0920793 -0.0310194 0)
(0.110133 -0.0595009 0)
(0.108575 -0.0769696 0)
(0.0952734 -0.079668 0)
(0.0819279 -0.0752842 0)
(0.0750376 -0.0334242 0)
(0.0936962 0.00845955 0)
(0.110815 0.0548706 0)
(0.119412 0.0969578 0)
(0.140186 0.0902035 0)
(0.166243 0.0840602 0)
(0.227544 0.0200656 0)
(0.249632 -0.0186177 0)
(0.286217 -0.0616227 0)
(0.289685 -0.0729272 0)
(0.0379792 0.00509293 0)
(0.0525726 0.0112729 0)
(0.0694795 0.0143997 0)
(0.086991 0.0100033 0)
(0.113844 -0.00903152 0)
(0.134422 -0.0361648 0)
(0.150281 -0.0613973 0)
(0.147998 -0.0747432 0)
(0.130478 -0.0749669 0)
(0.111168 -0.0707966 0)
(0.0878429 -0.0338003 0)
(0.0986018 0.00498256 0)
(0.107491 0.0513387 0)
(0.119129 0.092703 0)
(0.150648 0.0819882 0)
(0.181655 0.0711813 0)
(0.247128 0.00879677 0)
(0.267808 -0.0270426 0)
(0.299239 -0.0661801 0)
(0.298855 -0.0734885 0)
(0.103116 0.000203133 0)
(0.110146 0.00575994 0)
(0.125339 0.00818417 0)
(0.142778 0.00239788 0)
(0.169101 -0.0164689 0)
(0.187634 -0.0415655 0)
(0.19836 -0.0629891 0)
(0.194814 -0.0716795 0)