x,y,z,U_0,U_1,U_2
0,0,0,2.99729,-0.0125534,-5.7914e-12
0,0.1,0,2.99784,-0.0099834,-4.60576e-12
0,0.2,0,2.9984,-0.00741342,-3.42012e-12
0,0.3,0,2.99895,-0.00484343,-2.23448e-12
0,0.4,0,2.99951,-0.00227345,-1.04884e-12
0,0.5,0,3,-1.03951e-18,-8.42503e-29
0,0.6,0,3,-1.24741e-18,-1.011e-28
0,0.7,0,3,-1.45531e-18,-1.1795e-28
0,0.8,0,3,-1.66321e-18,-1.348e-28
0,0.9,0,3,-1.87111e-18,-1.5165e-28
0,1,0,3,-2.00265e-18,-2.3381e-28
0,1.1,0,3,-2.20291e-18,-2.57191e-28
0,1.2,0,3,-2.40318e-18,-2.80572e-28
0,1.3,0,3,-2.60344e-18,-3.03953e-28
0,1.4,0,3,-2.80371e-18,-3.27334e-28
0,1.5,0,3,-2.58557e-18,-8.3208e-28
0,1.6,0,3,-2.75794e-18,-8.87552e-28
0,1.7,0,3,-2.93031e-18,-9.43024e-28
0,1.8,0,3,-3.10268e-18,-9.98496e-28
0,1.9,0,3,-3.27505e-18,-1.05397e-27
0,2,0,3,-3.45623e-18,3.56204e-28
0,2.1,0,3,-3.62904e-18,3.74014e-28
0,2.2,0,3,-3.80185e-18,3.91824e-28
0,2.3,0,3,-3.97467e-18,4.09634e-28
0,2.4,0,3,-4.14748e-18,4.27444e-28
0,2.5,0,3,-4.18924e-18,6.99712e-27
0,2.6,0,3,-4.35681e-18,7.27701e-27
0,2.7,0,3,-4.52438e-18,7.55689e-27
0,2.8,0,3,-4.69195e-18,7.83678e-27
0,2.9,0,3,-4.85952e-18,8.11666e-27
0,3,0,3,-4.26716e-18,1.17161e-26
0,3.1,0,3,-4.4094e-18,1.21066e-26
0,3.2,0,3,-4.55164e-18,1.24972e-26
0,3.3,0,3,-4.69387e-18,1.28877e-26
0,3.4,0,3,-4.83611e-18,1.32783e-26
0,3.5,0,3,-4.66186e-18,1.18235e-26
0,3.6,0,3,-4.79506e-18,1.21613e-26
0,3.7,0,3,-4.92826e-18,1.24991e-26
0,3.8,0,3,-5.06145e-18,1.2837e-26
0,3.9,0,3,-5.19465e-18,1.31748e-26
0,4,0,3,-4.28944e-18,5.20716e-27
0,4.1,0,3,-4.39668e-18,5.33734e-27
0,4.2,0,3,-4.50392e-18,5.46752e-27
0,4.3,0,3,-4.61115e-18,5.5977e-27
0,4.4,0,3,-3.36591e-18,4.15271e-27
0,4.5,0,3,-3.44241e-18,4.24709e-27
0,4.6,0,3,-3.51891e-18,4.34147e-27
0,4.7,0,3,-3.5954e-18,4.43585e-27
0,4.8,0,3,-3.6719e-18,4.53023e-27
0,4.9,0,3,-2.60928e-18,4.09836e-27
0,5,0,3,-2.66253e-18,4.182e-27
0,5.1,0,3,-2.71578e-18,4.26564e-27
0,5.2,0,3,-2.76903e-18,4.34928e-27
0,5.3,0,3,-2.82228e-18,4.43292e-27
0,5.4,0,3,-1.45421e-18,1.99291e-27
0,5.5,0,3,-1.48114e-18,2.02982e-27
0,5.6,0,3,-1.50807e-18,2.06672e-27
0,5.7,0,3,-1.535e-18,2.10363e-27
0,5.8,0,3,-1.56193e-18,2.14053e-27
0,5.9,0,3,1.09404e-19,2.47698e-27
0,6,0,3,1.11259e-19,2.51896e-27
0,6.1,0,3,1.13113e-19,2.56095e-27
0,6.2,0,3,1.14967e-19,2.60293e-27
0,6.3,0,3,1.16822e-19,2.64491e-27
0,6.4,0,3,1.76813e-18,-2.0662e-27
0,6.5,0,3,1.79575e-18,-2.09849e-27
0,6.6,0,3,1.82338e-18,-2.13077e-27
0,6.7,0,3,1.85101e-18,-2.16305e-27
0,6.8,0,3,1.87864e-18,-2.19534e-27
0,6.9,0,3,3.63532e-18,-6.64245e-27
0,7,0,3,3.68801e-18,-6.73872e-27
0,7.1,0,3,3.74069e-18,-6.83498e-27
0,7.2,0,3,3.79338e-18,-6.93125e-27
0,7.3,0,3,3.84606e-18,-7.02752e-27
0,7.4,0,3,5.4691e-18,-1.06447e-26
0,7.5,0,3,5.54301e-18,-1.07886e-26
0,7.6,0,3,5.61692e-18,-1.09324e-26
0,7.7,0,3,5.69082e-18,-1.10763e-26
0,7.8,0,3,5.76473e-18,-1.12201e-26
0,7.9,0,3,7.81951e-18,-7.81595e-27
0,8,0,3,7.91849e-18,-7.91488e-27
0,8.1,0,3,8.01747e-18,-8.01382e-27
0,8.2,0,3,8.11645e-18,-8.11275e-27
0,8.3,0,3,8.21543e-18,-8.21169e-27
0,8.4,0,3,1.00999e-17,-7.16245e-27
0,8.5,0,3,1.02202e-17,-7.24772e-27
0,8.6,0,3,1.03404e-17,-7.33298e-27
0,8.7,0,3,1.04606e-17,-7.41825e-27
0,8.8,0,3,1.13052e-17,-1.43197e-26
0,8.9,0,3,1.14337e-17,-1.44824e-26
0,9,0,3,1.15622e-17,-1.46451e-26
0,9.1,0,3,1.16906e-17,-1.48079e-26
0,9.2,0,3,1.18191e-17,-1.49706e-26
0,9.3,0,3,1.51979e-17,-9.56425e-27
0,9.4,0,3,1.53614e-17,-9.66709e-27
0,9.5,0,3,1.55248e-17,-9.76993e-27
0,9.6,0,3,1.56882e-17,-9.87277e-27
0,9.7,0,3,1.58516e-17,-9.97562e-27
0,9.8,0,3,1.69062e-17,-1.00147e-26
0,9.9,0,3,1.70787e-17,-1.01169e-26
0,10,0,3,1.72512e-17,-1.02191e-26
0,10.1,0,3,1.74237e-17,-1.03212e-26
0,10.2,0,3,1.75962e-17,-1.04234e-26
0,10.3,0,3,1.74178e-17,-1.9779e-26
0,10.4,0,3,1.75869e-17,-1.9971e-26
0,10.5,0,3,1.7756e-17,-2.01631e-26
0,10.6,0,3,1.79251e-17,-2.03551e-26
0,10.7,0,3,1.80942e-17,-2.05471e-26
0,10.8,0,3,2.11427e-17,-6.17812e-27
0,10.9,0,3,2.13385e-17,-6.23533e-27
0,11,0,3,2.15342e-17,-6.29253e-27
0,11.1,0,3,2.173e-17,-6.34974e-27
0,11.2,0,3,2.19258e-17,-6.40694e-27
0,11.3,0,3,2.32248e-17,-2.04462e-27
0,11.4,0,3,2.34304e-17,-2.06271e-27
0,11.5,0,3,2.36359e-17,-2.08081e-27
0,11.6,0,3,2.38414e-17,-2.0989e-27
0,11.7,0,3,2.40469e-17,-2.11699e-27
0,11.8,0,3,2.42525e-17,-2.13509e-27
0,11.9,0,3,2.4458e-17,-2.15318e-27
0,12,0,3,2.46635e-17,-2.17128e-27
0,12.1,0,3,2.48691e-17,-2.18937e-27
0,12.2,0,3,2.50746e-17,-2.20746e-27
0,12.3,0,2.99951,0.00229747,-1.17037e-12
0,12.4,0,2.99895,0.00489461,-2.49341e-12
0,12.5,0,2.9984,0.00749174,-3.81644e-12
0,12.6,0,2.99784,0.0100889,-5.13947e-12
0,12.7,0,2.99729,0.012686,-6.4625e-12
0.1,0,0,2.99785,-0.0163754,-6.37812e-12
0.1,0.1,0,2.99806,-0.0171815,-4.89767e-12
0.1,0.2,0,2.99861,-0.0146115,-3.71202e-12
0.1,0.3,0,2.99917,-0.0120415,-2.52638e-12
0.1,0.4,0,2.99972,-0.0094715,-1.34074e-12
0.1,0.5,0,3.00026,-0.00725324,-3.16534e-13
0.1,0.6,0,3.00056,-0.00798522,-6.47188e-13
0.1,0.7,0,3.00056,-0.00798522,-6.47188e-13
0.1,0.8,0,3.00056,-0.00798522,-6.47188e-13
0.1,0.9,0,3.00056,-0.00798522,-6.47188e-13
0.1,1,0,3.00042,-0.00791915,-7.03685e-13
0.1,1.1,0,2.99997,-0.0076919,-8.98032e-13
0.1,1.2,0,2.99997,-0.0076919,-8.98032e-13
0.1,1.3,0,2.99997,-0.0076919,-8.98032e-13
0.1,1.4,0,2.99997,-0.0076919,-8.98032e-13
0.1,1.5,0,2.99967,-0.00731693,-1.32943e-12
0.1,1.6,0,2.99912,-0.00662054,-2.1306e-12
0.1,1.7,0,2.99912,-0.00662054,-2.1306e-12
0.1,1.8,0,2.99912,-0.00662054,-2.1306e-12
0.1,1.9,0,2.99912,-0.00662054,-2.1306e-12
0.1,2,0,2.99938,-0.00662854,-8.00839e-13
0.1,2.1,0,2.99967,-0.00663746,6.84065e-13
0.1,2.2,0,2.99967,-0.00663746,6.84065e-13
0.1,2.3,0,2.99967,-0.00663746,6.84065e-13
0.1,2.4,0,2.99967,-0.00663746,6.84065e-13
0.1,2.5,0,2.9998,-0.00651856,6.62851e-12
0.1,2.6,0,2.99989,-0.00643612,1.075e-11
0.1,2.7,0,2.99989,-0.00643612,1.075e-11
0.1,2.8,0,2.99989,-0.00643612,1.075e-11
0.1,2.9,0,2.99989,-0.00643612,1.075e-11
0.1,3,0,2.99961,-0.00574664,1.37618e-11
0.1,3.1,0,2.99949,-0.00546319,1.5e-11
0.1,3.2,0,2.99949,-0.00546319,1.5e-11
0.1,3.3,0,2.99949,-0.00546319,1.5e-11
0.1,3.4,0,2.99949,-0.00546319,1.5e-11
0.1,3.5,0,2.99981,-0.00517605,1.33258e-11
0.1,3.6,0,2.99988,-0.00511588,1.2975e-11
0.1,3.7,0,2.99988,-0.00511588,1.2975e-11
0.1,3.8,0,2.99988,-0.00511588,1.2975e-11
0.1,3.9,0,2.99988,-0.00511588,1.2975e-11
0.1,4,0,2.99986,-0.00417375,5.43957e-12
0.1,4.1,0,2.99986,-0.0041188,5e-12
0.1,4.2,0,2.99986,-0.0041188,5e-12
0.1,4.3,0,2.99986,-0.0041188,5e-12
0.1,4.4,0,2.99984,-0.00407231,4.94587e-12
0.1,4.5,0,2.99949,-0.00293818,3.625e-12
0.1,4.6,0,2.99949,-0.00293818,3.625e-12
0.1,4.7,0,2.99949,-0.00293818,3.625e-12
0.1,4.8,0,2.99949,-0.00293818,3.625e-12
0.1,4.9,0,2.99947,-0.00279757,3.56004e-12
0.1,5,0,2.9994,-0.00204528,3.2125e-12
0.1,5.1,0,2.9994,-0.00204528,3.2125e-12
0.1,5.2,0,2.9994,-0.00204528,3.2125e-12
0.1,5.3,0,2.9994,-0.00204528,3.2125e-12
0.1,5.4,0,2.99938,-0.00176668,2.71781e-12
0.1,5.5,0,2.99933,-0.00103434,1.4175e-12
0.1,5.6,0,2.99933,-0.00103434,1.4175e-12
0.1,5.7,0,2.99933,-0.00103434,1.4175e-12
0.1,5.8,0,2.99933,-0.00103434,1.4175e-12
0.1,5.9,0,2.99934,-0.000599079,1.49427e-12
0.1,6,0,2.99936,7.12216e-05,1.6125e-12
0.1,6.1,0,2.99936,7.12216e-05,1.6125e-12
0.1,6.2,0,2.99936,7.12216e-05,1.6125e-12
0.1,6.3,0,2.99936,7.12216e-05,1.6125e-12
0.1,6.4,0,2.99942,0.00057786,1.52559e-13
0.1,6.5,0,2.99948,0.00106112,-1.24e-12
0.1,6.6,0,2.99948,0.00106112,-1.24e-12
0.1,6.7,0,2.99948,0.00106112,-1.24e-12
0.1,6.8,0,2.99948,0.00106112,-1.24e-12
0.1,6.9,0,2.99936,0.0016674,-2.78803e-12
0.1,7,0,2.99928,0.00202359,-3.6975e-12
0.1,7.1,0,2.99928,0.00202359,-3.6975e-12
0.1,7.2,0,2.99928,0.00202359,-3.6975e-12
0.1,7.3,0,2.99928,0.00202359,-3.6975e-12
0.1,7.4,0,2.99902,0.00263329,-5.06453e-12
0.1,7.5,0,2.99893,0.00283866,-5.525e-12
0.1,7.6,0,2.99893,0.00283866,-5.525e-12
0.1,7.7,0,2.99893,0.00283866,-5.525e-12
0.1,7.8,0,2.99893,0.00283866,-5.525e-12
0.1,7.9,0,2.99919,0.00367282,-4.03091e-12
0.1,8,0,2.99923,0.00380173,-3.8e-12
0.1,8.1,0,2.99923,0.00380173,-3.8e-12
0.1,8.2,0,2.99923,0.00380173,-3.8e-12
0.1,8.3,0,2.99923,0.00380173,-3.8e-12
0.1,8.4,0,2.99936,0.0046053,-3.28327e-12
0.1,8.5,0,2.99936,0.00461815,-3.275e-12
0.1,8.6,0,2.99936,0.00461815,-3.275e-12
0.1,8.7,0,2.99936,0.00461815,-3.275e-12
0.1,8.8,0,2.99936,0.00464305,-3.50925e-12
0.1,8.9,0,2.99938,0.00493431,-6.25e-12
0.1,9,0,2.99938,0.00493431,-6.25e-12
0.1,9.1,0,2.99938,0.00493431,-6.25e-12
0.1,9.2,0,2.99938,0.00493431,-6.25e-12
0.1,9.3,0,2.99956,0.00519856,-5.79724e-12
0.1,9.4,0,3.00028,0.00627669,-3.95e-12
0.1,9.5,0,3.00028,0.00627669,-3.95e-12
0.1,9.6,0,3.00028,0.00627669,-3.95e-12
0.1,9.7,0,3.00028,0.00627669,-3.95e-12
0.1,9.8,0,3.0002,0.00638669,-3.94213e-12
0.1,9.9,0,3.00003,0.00662595,-3.925e-12
0.1,10,0,3.00003,0.00662595,-3.925e-12
0.1,10.1,0,3.00003,0.00662595,-3.925e-12
0.1,10.2,0,3.00003,0.00662595,-3.925e-12
0.1,10.3,0,2.9997,0.00656928,-5.41935e-12
0.1,10.4,0,2.99926,0.00649508,-7.37558e-12
0.1,10.5,0,2.99926,0.00649508,-7.37558e-12
0.1,10.6,0,2.99926,0.00649508,-7.37558e-12
0.1,10.7,0,2.99926,0.00649508,-7.37558e-12
0.1,10.8,0,2.99965,0.0070595,-4.52133e-12
0.1,10.9,0,2.99997,0.0075191,-2.19716e-12
0.1,11,0,2.99997,0.0075191,-2.19716e-12
0.1,11.1,0,2.99997,0.0075191,-2.19716e-12
0.1,11.2,0,2.99997,0.0075191,-2.19716e-12
0.1,11.3,0,3.00027,0.00777009,-1.19175e-12
0.1,11.4,0,3.00042,0.00789411,-6.94965e-13
0.1,11.5,0,3.00042,0.00789411,-6.94965e-13
0.1,11.6,0,3.00042,0.00789411,-6.94965e-13
0.1,11.7,0,3.00042,0.00789411,-6.94965e-13
0.1,11.8,0,3.00042,0.00789411,-6.94965e-13
0.1,11.9,0,3.00042,0.00789411,-6.94965e-13
0.1,12,0,3.00042,0.00789411,-6.94965e-13
0.1,12.1,0,3.00042,0.00789411,-6.94965e-13
0.1,12.2,0,3.00016,0.00745132,-2.95632e-12
0.1,12.3,0,2.99963,0.00967114,-4.43723e-12
0.1,12.4,0,2.99908,0.0122683,-5.76026e-12
0.1,12.5,0,2.99852,0.0148654,-7.0833e-12
0.1,12.6,0,2.99797,0.0174626,-8.40633e-12
0.1,12.7,0,2.99781,0.0168858,-8.815e-12
0.2,0,0,2.99842,-0.0201974,-6.96484e-12
0.2,0.1,0,2.99862,-0.0210284,-5.48221e-12
0.2,0.2,0,2.99883,-0.0218095,-4.00393e-12
0.2,0.3,0,2.99938,-0.0192395,-2.81829e-12
0.2,0.4,0,2.99994,-0.0166696,-1.63265e-12
0.2,0.5,0,3.00047,-0.0144095,-5.89259e-13
0.2,0.6,0,3.00082,-0.01525,-9.68946e-13
0.2,0.7,0,3.00111,-0.0159704,-1.29438e-12
0.2,0.8,0,3.00111,-0.0159704,-1.29438e-12
0.2,0.9,0,3.00111,-0.0159704,-1.29438e-12
0.2,1,0,3.00099,-0.0159082,-1.34762e-12
0.2,1.1,0,3.00038,-0.0156054,-1.60655e-12
0.2,1.2,0,2.99994,-0.0153838,-1.79606e-12
0.2,1.3,0,2.99994,-0.0153838,-1.79606e-12
0.2,1.4,0,2.99994,-0.0153838,-1.79606e-12
0.2,1.5,0,2.99965,-0.015016,-2.21918e-12
0.2,1.6,0,2.99877,-0.013912,-3.48934e-12
0.2,1.7,0,2.99824,-0.0132411,-4.26121e-12
0.2,1.8,0,2.99824,-0.0132411,-4.26121e-12
0.2,1.9,0,2.99824,-0.0132411,-4.26121e-12
0.2,2,0,2.9985,-0.0132491,-2.93144e-12
0.2,2.1,0,2.99906,-0.0132664,-5.02863e-14
0.2,2.2,0,2.99933,-0.0132749,1.36813e-12
0.2,2.3,0,2.99933,-0.0132749,1.36813e-12
0.2,2.4,0,2.99933,-0.0132749,1.36813e-12
0.2,2.5,0,2.99946,-0.013156,7.31258e-12
0.2,2.6,0,2.99969,-0.0129499,1.76163e-11
0.2,2.7,0,2.99978,-0.0128722,2.15e-11
0.2,2.8,0,2.99978,-0.0128722,2.15e-11
0.2,2.9,0,2.99978,-0.0128722,2.15e-11
0.2,3,0,2.99949,-0.0121828,2.45118e-11
0.2,3.1,0,2.99909,-0.0111869,2.88622e-11
0.2,3.2,0,2.99898,-0.0109264,3e-11
0.2,3.3,0,2.99898,-0.0109264,3e-11
0.2,3.4,0,2.99898,-0.0109264,3e-11
0.2,3.5,0,2.9993,-0.0106392,2.83258e-11
0.2,3.6,0,2.9997,-0.0102837,2.6253e-11
0.2,3.7,0,2.99976,-0.0102318,2.595e-11
0.2,3.8,0,2.99976,-0.0102318,2.595e-11
0.2,3.9,0,2.99976,-0.0102318,2.595e-11
0.2,4,0,2.99974,-0.00928964,1.84146e-11
0.2,4.1,0,2.99972,-0.00826899,1.02512e-11
0.2,4.2,0,2.99972,-0.00823759,1e-11
0.2,4.3,0,2.99972,-0.00823759,1e-11
0.2,4.4,0,2.9997,-0.00819111,9.94587e-12
0.2,4.5,0,2.99932,-0.00698261,8.53839e-12
0.2,4.6,0,2.99897,-0.00587637,7.25e-12
0.2,4.7,0,2.99897,-0.00587637,7.25e-12
0.2,4.8,0,2.99897,-0.00587637,7.25e-12
0.2,4.9,0,2.99896,-0.00573575,7.18504e-12
0.2,5,0,2.99887,-0.00482176,6.7628e-12
0.2,5.1,0,2.9988,-0.00409056,6.425e-12
0.2,5.2,0,2.9988,-0.00409056,6.425e-12
0.2,5.3,0,2.9988,-0.00409056,6.425e-12
0.2,5.4,0,2.99878,-0.00381196,5.93031e-12
0.2,5.5,0,2.99871,-0.00277713,4.09291e-12
0.2,5.6,0,2.99866,-0.00206868,2.835e-12
0.2,5.7,0,2.99866,-0.00206868,2.835e-12
0.2,5.8,0,2.99866,-0.00206868,2.835e-12
0.2,5.9,0,2.99867,-0.00163342,2.91177e-12
0.2,6,0,2.99871,-0.000501741,3.11138e-12
0.2,6.1,0,2.99872,0.000142443,3.225e-12
0.2,6.2,0,2.99873,0.000142443,3.225e-12
0.2,6.3,0,2.99873,0.000142443,3.225e-12
0.2,6.4,0,2.99878,0.000649082,1.76506e-12
0.2,6.5,0,2.9989,0.00166236,-1.15482e-12
0.2,6.6,0,2.99896,0.00212223,-2.48e-12
0.2,6.7,0,2.99896,0.00212223,-2.48e-12
0.2,6.8,0,2.99896,0.00212223,-2.48e-12
0.2,6.9,0,2.99883,0.00272851,-4.02803e-12
0.2,7,0,2.99863,0.00371373,-6.54358e-12
0.2,7.1,0,2.99857,0.00404718,-7.395e-12
0.2,7.2,0,2.99857,0.00404718,-7.395e-12
0.2,7.3,0,2.99857,0.00404718,-7.395e-12
0.2,7.4,0,2.9983,0.00465688,-8.76203e-12
0.2,7.5,0,2.99794,0.0054912,-1.06327e-11
0.2,7.6,0,2.99786,0.00567732,-1.105e-11
0.2,7.7,0,2.99786,0.00567732,-1.105e-11
0.2,7.8,0,2.99786,0.00567732,-1.105e-11
0.2,7.9,0,2.99812,0.00651148,-9.55591e-12
0.2,8,0,2.99843,0.0074973,-7.79016e-12
0.2,8.1,0,2.99846,0.00760347,-7.6e-12
0.2,8.2,0,2.99846,0.00760347,-7.6e-12
0.2,8.3,0,2.99846,0.00760347,-7.6e-12
0.2,8.4,0,2.99859,0.00840703,-7.08327e-12
0.2,8.5,0,2.99872,0.00923631,-6.55e-12
0.2,8.6,0,2.99872,0.00923631,-6.55e-12
0.2,8.7,0,2.99872,0.00923631,-6.55e-12
0.2,8.8,0,2.99872,0.0092612,-6.78425e-12
0.2,8.9,0,2.99875,0.00958482,-9.82953e-12
0.2,9,0,2.99877,0.00986862,-1.25e-11
0.2,9.1,0,2.99877,0.00986862,-1.25e-11
0.2,9.2,0,2.99877,0.00986862,-1.25e-11
0.2,9.3,0,2.99894,0.0101329,-1.20472e-11
0.2,9.4,0,2.99986,0.011507,-9.69291e-12
0.2,9.5,0,3.00056,0.0125534,-7.9e-12
0.2,9.6,0,3.00056,0.0125534,-7.9e-12
0.2,9.7,0,3.00056,0.0125534,-7.9e-12
0.2,9.8,0,3.00049,0.0126634,-7.89213e-12
0.2,9.9,0,3.00023,0.0130209,-7.86654e-12
0.2,10,0,3.00007,0.0132519,-7.85e-12
0.2,10.1,0,3.00007,0.0132519,-7.85e-12
0.2,10.2,0,3.00007,0.0132519,-7.85e-12
0.2,10.3,0,2.99973,0.0131952,-9.34435e-12
0.2,10.4,0,2.99894,0.0130613,-1.28764e-11
0.2,10.5,0,2.99852,0.0129902,-1.47512e-11
0.2,10.6,0,2.99852,0.0129902,-1.47512e-11
0.2,10.7,0,2.99852,0.0129902,-1.47512e-11
0.2,10.8,0,2.99891,0.0135546,-1.18969e-11
0.2,10.9,0,2.99963,0.0146028,-6.59617e-12
0.2,11,0,2.99994,0.0150382,-4.39432e-12
0.2,11.1,0,2.99994,0.0150382,-4.39432e-12
0.2,11.2,0,2.99994,0.0150382,-4.39432e-12
0.2,11.3,0,3.00024,0.0152892,-3.38891e-12
0.2,11.4,0,3.0007,0.0156731,-1.85123e-12
0.2,11.5,0,3.00084,0.0157882,-1.38993e-12
0.2,11.6,0,3.00084,0.0157882,-1.38993e-12
0.2,11.7,0,3.00084,0.0157882,-1.38993e-12
0.2,11.8,0,3.00084,0.0157882,-1.38993e-12
0.2,11.9,0,3.00084,0.0157882,-1.38993e-12
0.2,12,0,3.00084,0.0157882,-1.38993e-12
0.2,12.1,0,3.00059,0.0153573,-3.59071e-12
0.2,12.2,0,3.00028,0.0148433,-6.2155e-12
0.2,12.3,0,2.99976,0.0170448,-7.70409e-12
0.2,12.4,0,2.9992,0.019642,-9.02712e-12
0.2,12.5,0,2.99865,0.0222391,-1.03502e-11
0.2,12.6,0,2.99848,0.0217475,-1.07834e-11
0.2,12.7,0,2.99834,0.0210855,-1.11675e-11
0.3,0,0,2.99898,-0.0240195,-7.55156e-12
0.3,0.1,0,2.99918,-0.0248504,-6.06893e-12
0.3,0.2,0,2.99939,-0.0256813,-4.58631e-12
0.3,0.3,0,2.9996,-0.0264376,-3.1102e-12
0.3,0.4,0,3.00015,-0.0238676,-1.92456e-12
0.3,0.5,0,3.00069,-0.0215657,-8.61983e-13
0.3,0.6,0,3.00104,-0.0224063,-1.24167e-12
0.3,0.7,0,3.00138,-0.0232468,-1.62136e-12
0.3,0.8,0,3.00167,-0.0239556,-1.94156e-12
0.3,0.9,0,3.00167,-0.0239556,-1.94156e-12
0.3,1,0,3.00155,-0.0238972,-1.99155e-12
0.3,1.1,0,3.00095,-0.0235944,-2.25048e-12
0.3,1.2,0,3.00034,-0.0232917,-2.50941e-12
0.3,1.3,0,2.99991,-0.0230757,-2.69409e-12
0.3,1.4,0,2.99991,-0.0230757,-2.69409e-12
0.3,1.5,0,2.99962,-0.0227151,-3.10893e-12
0.3,1.6,0,2.99875,-0.0216111,-4.3791e-12
0.3,1.7,0,2.99787,-0.0205071,-5.64926e-12
0.3,1.8,0,2.99736,-0.0198616,-6.39181e-12
0.3,1.9,0,2.99736,-0.0198616,-6.39181e-12
0.3,2,0,2.99762,-0.0198696,-5.06205e-12
0.3,2.1,0,2.99818,-0.0198869,-2.18089e-12
0.3,2.2,0,2.99874,-0.0199043,7.00267e-13
0.3,2.3,0,2.999,-0.0199124,2.05219e-12
0.3,2.4,0,2.999,-0.0199124,2.05219e-12
0.3,2.5,0,2.99913,-0.0197935,7.99664e-12
0.3,2.6,0,2.99936,-0.0195874,1.83004e-11
0.3,2.7,0,2.99959,-0.0193813,2.86041e-11
0.3,2.8,0,2.99967,-0.0193084,3.225e-11
0.3,2.9,0,2.99967,-0.0193084,3.225e-11
0.3,3,0,2.99938,-0.0186189,3.52618e-11
0.3,3.1,0,2.99897,-0.017623,3.96122e-11
0.3,3.2,0,2.99856,-0.0166271,4.39626e-11
0.3,3.3,0,2.99847,-0.0163896,4.5e-11
0.3,3.4,0,2.99847,-0.0163896,4.5e-11
0.3,3.5,0,2.99879,-0.0161024,4.33258e-11
0.3,3.6,0,2.99919,-0.0157469,4.1253e-11
0.3,3.7,0,2.99959,-0.0153914,3.91801e-11
0.3,3.8,0,2.99964,-0.0153477,3.8925e-11
0.3,3.9,0,2.99964,-0.0153477,3.8925e-11
0.3,4,0,2.99962,-0.0144055,3.13896e-11
0.3,4.1,0,2.9996,-0.0133849,2.32262e-11
0.3,4.2,0,2.99958,-0.0123642,1.50628e-11
0.3,4.3,0,2.99958,-0.0123564,1.5e-11
0.3,4.4,0,2.99956,-0.0123099,1.49459e-11
0.3,4.5,0,2.99918,-0.0111014,1.35384e-11
0.3,4.6,0,2.9988,-0.00989291,1.21309e-11
0.3,4.7,0,2.99846,-0.00881455,1.0875e-11
0.3,4.8,0,2.99846,-0.00881455,1.0875e-11
0.3,4.9,0,2.99844,-0.00867394,1.081e-11
0.3,5,0,2.99836,-0.00775994,1.03878e-11
0.3,5.1,0,2.99827,-0.00684595,9.96555e-12
0.3,5.2,0,2.9982,-0.00613585,9.6375e-12
0.3,5.3,0,2.9982,-0.00613585,9.6375e-12
0.3,5.4,0,2.99818,-0.00585724,9.14281e-12
0.3,5.5,0,2.99811,-0.00482242,7.30541e-12
0.3,5.6,0,2.99804,-0.00378759,5.46801e-12
0.3,5.7,0,2.99799,-0.00310302,4.2525e-12
0.3,5.8,0,2.99799,-0.00310302,4.2525e-12
0.3,5.9,0,2.998,-0.00266776,4.32927e-12
0.3,6,0,2.99804,-0.00153608,4.52888e-12
0.3,6.1,0,2.99807,-0.000404404,4.72848e-12
0.3,6.2,0,2.99809,0.000213665,4.8375e-12
0.3,6.3,0,2.99809,0.000213665,4.8375e-12
0.3,6.4,0,2.99815,0.000720303,3.37756e-12
0.3,6.5,0,2.99827,0.00173358,4.57677e-13
0.3,6.6,0,2.99839,0.00274686,-2.4622e-12
0.3,6.7,0,2.99844,0.00318335,-3.72e-12
0.3,6.8,0,2.99844,0.00318335,-3.72e-12
0.3,6.9,0,2.99831,0.00378963,-5.26803e-12
0.3,7,0,2.99811,0.00477484,-7.78358e-12
0.3,7.1,0,2.99791,0.00576005,-1.02991e-11
0.3,7.2,0,2.99785,0.00607077,-1.10925e-11
0.3,7.3,0,2.99785,0.00607077,-1.10925e-11
0.3,7.4,0,2.99758,0.00668047,-1.24595e-11
0.3,7.5,0,2.99722,0.00751479,-1.43302e-11
0.3,7.6,0,2.99686,0.00834912,-1.62009e-11
0.3,7.7,0,2.99679,0.00851598,-1.6575e-11
0.3,7.8,0,2.99679,0.00851598,-1.6575e-11
0.3,7.9,0,2.99705,0.00935014,-1.50809e-11
0.3,8,0,2.99736,0.010336,-1.33152e-11
0.3,8.1,0,2.99766,0.0113218,-1.15494e-11
0.3,8.2,0,2.99769,0.0114052,-1.14e-11
0.3,8.3,0,2.99769,0.0114052,-1.14e-11
0.3,8.4,0,2.99782,0.0122088,-1.08833e-11
0.3,8.5,0,2.99795,0.0130445,-1.03459e-11
0.3,8.6,0,2.99808,0.0138545,-9.825e-12
0.3,8.7,0,2.99808,0.0138545,-9.825e-12
0.3,8.8,0,2.99809,0.0138794,-1.00593e-11
0.3,8.9,0,2.99811,0.014203,-1.31045e-11
0.3,9,0,2.99813,0.0145266,-1.61498e-11
0.3,9.1,0,2.99815,0.0148029,-1.875e-11
0.3,9.2,0,2.99815,0.0148029,-1.875e-11
0.3,9.3,0,2.99832,0.0150672,-1.82972e-11
0.3,9.4,0,2.99925,0.0164413,-1.59429e-11
0.3,9.5,0,3.00017,0.0178154,-1.35886e-11
0.3,9.6,0,3.00085,0.0188301,-1.185e-11
0.3,9.7,0,3.00085,0.0188301,-1.185e-11
0.3,9.8,0,3.00077,0.0189401,-1.18421e-11
0.3,9.9,0,3.00051,0.0192976,-1.18165e-11
0.3,10,0,3.00026,0.0196551,-1.17909e-11
0.3,10.1,0,3.0001,0.0198779,-1.1775e-11
0.3,10.2,0,3.0001,0.0198779,-1.1775e-11
0.3,10.3,0,2.99977,0.0198212,-1.32693e-11
0.3,10.4,0,2.99897,0.0196872,-1.68014e-11
0.3,10.5,0,2.99818,0.0195533,-2.03335e-11
0.3,10.6,0,2.99777,0.0194852,-2.21267e-11
0.3,10.7,0,2.99777,0.0194852,-2.21267e-11
0.3,10.8,0,2.99816,0.0200497,-1.92725e-11
0.3,10.9,0,2.99889,0.0210979,-1.39718e-11
0.3,11,0,2.99962,0.0221461,-8.67101e-12
0.3,11.1,0,2.9999,0.0225573,-6.59148e-12
0.3,11.2,0,2.9999,0.0225573,-6.59148e-12
0.3,11.3,0,3.00021,0.0228083,-5.58608e-12
0.3,11.4,0,3.00067,0.0231922,-4.04839e-12
0.3,11.5,0,3.00114,0.023576,-2.51071e-12
0.3,11.6,0,3.00127,0.0236823,-2.08489e-12
0.3,11.7,0,3.00127,0.0236823,-2.08489e-12
0.3,11.8,0,3.00127,0.0236823,-2.08489e-12
0.3,11.9,0,3.00127,0.0236823,-2.08489e-12
0.3,12,0,3.00102,0.0232633,-4.2251e-12
0.3,12.1,0,3.00071,0.0227493,-6.84989e-12
0.3,12.2,0,3.0004,0.0222354,-9.47468e-12
0.3,12.3,0,2.99988,0.0244185,-1.09709e-11
0.3,12.4,0,2.99933,0.0270156,-1.2294e-11
0.3,12.5,0,2.99915,0.0266093,-1.27518e-11
0.3,12.6,0,2.999,0.0259473,-1.31359e-11
0.3,12.7,0,2.99886,0.0252853,-1.352e-11
0.4,0,0,2.99955,-0.0278415,-8.13828e-12
0.4,0.1,0,2.99975,-0.0286724,-6.65565e-12
0.4,0.2,0,2.99995,-0.0295034,-5.17303e-12
0.4,0.3,0,3.00015,-0.0303343,-3.6904e-12
0.4,0.4,0,3.00037,-0.0310657,-2.21647e-12
0.4,0.5,0,3.00091,-0.028722,-1.13471e-12
0.4,0.6,0,3.00125,-0.0295625,-1.51439e-12
0.4,0.7,0,3.0016,-0.030403,-1.89408e-12
0.4,0.8,0,3.00194,-0.0312436,-2.27377e-12
0.4,0.9,0,3.00223,-0.0319409,-2.58875e-12
0.4,1,0,3.00212,-0.0318862,-2.63548e-12
0.4,1.1,0,3.00151,-0.0315835,-2.89441e-12
0.4,1.2,0,3.0009,-0.0312807,-3.15334e-12
0.4,1.3,0,3.0003,-0.0309779,-3.41228e-12
0.4,1.4,0,2.99988,-0.0307676,-3.59213e-12
0.4,1.5,0,2.9996,-0.0304142,-3.99869e-12
0.4,1.6,0,2.99872,-0.0293102,-5.26885e-12
0.4,1.7,0,2.99784,-0.0282062,-6.53901e-12
0.4,1.8,0,2.99697,-0.0271021,-7.80917e-12
0.4,1.9,0,2.99648,-0.0264822,-8.52242e-12
0.4,2,0,2.99673,-0.0264902,-7.19265e-12
0.4,2.1,0,2.9973,-0.0265075,-4.3115e-12
0.4,2.2,0,2.99786,-0.0265248,-1.43034e-12
0.4,2.3,0,2.99842,-0.0265421,1.45082e-12
0.4,2.4,0,2.99867,-0.0265498,2.73626e-12
0.4,2.5,0,2.9988,-0.0264309,8.68071e-12
0.4,2.6,0,2.99902,-0.0262248,1.89844e-11
0.4,2.7,0,2.99925,-0.0260187,2.92881e-11
0.4,2.8,0,2.99948,-0.0258127,3.95918e-11
0.4,2.9,0,2.99956,-0.0257445,4.3e-11
0.4,3,0,2.99927,-0.025055,4.60118e-11
0.4,3.1,0,2.99886,-0.0240591,5.03622e-11
0.4,3.2,0,2.99845,-0.0230632,5.47126e-11
0.4,3.3,0,2.99804,-0.0220673,5.9063e-11
0.4,3.4,0,2.99796,-0.0218528,6e-11
0.4,3.5,0,2.99828,-0.0215656,5.83258e-11
0.4,3.6,0,2.99868,-0.0212101,5.6253e-11
0.4,3.7,0,2.99908,-0.0208546,5.41801e-11
0.4,3.8,0,2.99948,-0.0204991,5.21073e-11
0.4,3.9,0,2.99952,-0.0204635,5.19e-11
0.4,4,0,2.9995,-0.0195214,4.43646e-11
0.4,4.1,0,2.99948,-0.0185008,3.62012e-11
0.4,4.2,0,2.99946,-0.0174801,2.80378e-11
0.4,4.3,0,2.99944,-0.0164752,2e-11
0.4,4.4,0,2.99942,-0.0164287,1.99459e-11
0.4,4.5,0,2.99904,-0.0152202,1.85384e-11
0.4,4.6,0,2.99866,-0.0140117,1.71309e-11
0.4,4.7,0,2.99827,-0.0128032,1.57234e-11
0.4,4.8,0,2.99794,-0.0117527,1.45e-11
0.4,4.9,0,2.99793,-0.0116121,1.4435e-11
0.4,5,0,2.99784,-0.0106981,1.40128e-11
0.4,5.1,0,2.99775,-0.00978413,1.35906e-11
0.4,5.2,0,2.99767,-0.00887014,1.31683e-11
0.4,5.3,0,2.9976,-0.00818113,1.285e-11
0.4,5.4,0,2.99758,-0.00790252,1.23553e-11
0.4,5.5,0,2.99751,-0.0068677,1.05179e-11
0.4,5.6,0,2.99744,-0.00583287,8.68051e-12
0.4,5.7,0,2.99737,-0.00479805,6.84311e-12
0.4,5.8,0,2.99732,-0.00413735,5.67e-12
0.4,5.9,0,2.99733,-0.00370209,5.74677e-12
0.4,6,0,2.99737,-0.00257042,5.94638e-12
0.4,6.1,0,2.9974,-0.00143874,6.14598e-12
0.4,6.2,0,2.99743,-0.000307067,6.34559e-12
0.4,6.3,0,2.99745,0.000284886,6.45e-12
0.4,6.4,0,2.99751,0.000791525,4.99006e-12
0.4,6.5,0,2.99763,0.0018048,2.07018e-12
0.4,6.6,0,2.99775,0.00281808,-8.49705e-13
0.4,6.7,0,2.99787,0.00383136,-3.76959e-12
0.4,6.8,0,2.99792,0.00424446,-4.96e-12
0.4,6.9,0,2.99779,0.00485075,-6.50803e-12
0.4,7,0,2.99759,0.00583596,-9.02358e-12
0.4,7.1,0,2.99739,0.00682117,-1.15391e-11
0.4,7.2,0,2.99719,0.00780638,-1.40547e-11
0.4,7.3,0,2.99713,0.00809436,-1.479e-11
0.4,7.4,0,2.99687,0.00870406,-1.6157e-11
0.4,7.5,0,2.9965,0.00953838,-1.80277e-11
0.4,7.6,0,2.99614,0.0103727,-1.98984e-11
0.4,7.7,0,2.99578,0.011207,-2.1769e-11
0.4,7.8,0,2.99571,0.0113546,-2.21e-11
0.4,7.9,0,2.99598,0.0121888,-2.06059e-11
0.4,8,0,2.99628,0.0131746,-1.88402e-11
0.4,8.1,0,2.99659,0.0141604,-1.70744e-11
0.4,8.2,0,2.9969,0.0151463,-1.53087e-11
0.4,8.3,0,2.99692,0.0152069,-1.52e-11
0.4,8.4,0,2.99705,0.0160105,-1.46833e-11
0.4,8.5,0,2.99718,0.0168462,-1.41459e-11
0.4,8.6,0,2.99732,0.0176819,-1.36085e-11
0.4,8.7,0,2.99745,0.0184726,-1.31e-11
0.4,8.8,0,2.99745,0.0184975,-1.33343e-11
0.4,8.9,0,2.99747,0.0188211,-1.63795e-11
0.4,9,0,2.99749,0.0191448,-1.94248e-11
0.4,9.1,0,2.99751,0.0194684,-2.24701e-11
0.4,9.2,0,2.99753,0.0197372,-2.5e-11
0.4,9.3,0,2.99771,0.0200015,-2.45472e-11
0.4,9.4,0,2.99863,0.0213756,-2.21929e-11
0.4,9.5,0,2.99955,0.0227497,-1.98386e-11
0.4,9.6,0,3.00047,0.0241238,-1.74843e-11
0.4,9.7,0,3.00113,0.0251068,-1.58e-11
0.4,9.8,0,3.00105,0.0252168,-1.57921e-11
0.4,9.9,0,3.0008,0.0255743,-1.57665e-11
0.4,10,0,3.00054,0.0259318,-1.57409e-11
0.4,10.1,0,3.00029,0.0262893,-1.57154e-11
0.4,10.2,0,3.00014,0.0265038,-1.57e-11
0.4,10.3,0,2.9998,0.0264471,-1.71943e-11
0.4,10.4,0,2.99901,0.0263132,-2.07264e-11
0.4,10.5,0,2.99821,0.0261792,-2.42585e-11
0.4,10.6,0,2.99742,0.0260452,-2.77906e-11
0.4,10.7,0,2.99703,0.0259803,-2.95023e-11
0.4,10.8,0,2.99742,0.0265447,-2.66481e-11
0.4,10.9,0,2.99815,0.027593,-2.13473e-11
0.4,11,0,2.99888,0.0286412,-1.60466e-11
0.4,11.1,0,2.9996,0.0296894,-1.07458e-11
0.4,11.2,0,2.99987,0.0300764,-8.78864e-12
0.4,11.3,0,3.00018,0.0303274,-7.78324e-12
0.4,11.4,0,3.00064,0.0307113,-6.24555e-12
0.4,11.5,0,3.0011,0.0310951,-4.70787e-12
0.4,11.6,0,3.00157,0.031479,-3.17019e-12
0.4,11.7,0,3.00169,0.0315764,-2.77986e-12
0.4,11.8,0,3.00169,0.0315764,-2.77986e-12
0.4,11.9,0,3.00144,0.0311692,-4.8595e-12
0.4,12,0,3.00114,0.0306553,-7.48428e-12
0.4,12.1,0,3.00083,0.0301413,-1.01091e-11
0.4,12.2,0,3.00053,0.0296274,-1.27339e-11
0.4,12.3,0,3.00001,0.0317922,-1.42378e-11
0.4,12.4,0,2.99982,0.031471,-1.47201e-11
0.4,12.5,0,2.99967,0.030809,-1.51043e-11
0.4,12.6,0,2.99953,0.0301471,-1.54884e-11
0.4,12.7,0,2.99939,0.0294851,-1.58725e-11
0.5,0,0,3.00011,-0.0316635,-8.725e-12
0.5,0.1,0,3.00032,-0.032521,-7.22102e-12
0.5,0.2,0,3.00052,-0.0333784,-5.71705e-12
0.5,0.3,0,3.00073,-0.0342358,-4.21307e-12
0.5,0.4,0,3.00094,-0.0350933,-2.7091e-12
0.5,0.5,0,3.00113,-0.0359186,-1.3691e-12
0.5,0.6,0,3.00147,-0.0367428,-1.76431e-12
0.5,0.7,0,3.00182,-0.037567,-2.15951e-12
0.5,0.8,0,3.00216,-0.0383998,-2.54649e-12
0.5,0.9,0,3.0025,-0.0392404,-2.92618e-12
0.5,1,0,3.00268,-0.0398752,-3.27941e-12
0.5,1.1,0,3.00208,-0.0395725,-3.53834e-12
0.5,1.2,0,3.00147,-0.0392697,-3.79728e-12
0.5,1.3,0,3.00086,-0.0389669,-4.05621e-12
0.5,1.4,0,3.00026,-0.0386642,-4.31514e-12
0.5,1.5,0,2.99957,-0.0381133,-4.88844e-12
0.5,1.6,0,2.9987,-0.0370093,-6.1586e-12
0.5,1.7,0,2.99782,-0.0359053,-7.42877e-12
0.5,1.8,0,2.99694,-0.0348012,-8.69893e-12
0.5,1.9,0,2.99607,-0.0336972,-9.96909e-12
0.5,2,0,2.99585,-0.0331107,-9.32326e-12
0.5,2.1,0,2.99641,-0.033128,-6.4421e-12
0.5,2.2,0,2.99697,-0.0331453,-3.56094e-12
0.5,2.3,0,2.99753,-0.0331627,-6.79784e-13
0.5,2.4,0,2.9981,-0.03318,2.20137e-12
0.5,2.5,0,2.99846,-0.0330684,9.36477e-12
0.5,2.6,0,2.99869,-0.0328623,1.96685e-11
0.5,2.7,0,2.99892,-0.0326562,2.99722e-11
0.5,2.8,0,2.99915,-0.0324501,4.02759e-11
0.5,2.9,0,2.99937,-0.032244,5.05796e-11
0.5,3,0,2.99916,-0.0314911,5.67618e-11
0.5,3.1,0,2.99875,-0.0304952,6.11122e-11
0.5,3.2,0,2.99834,-0.0294993,6.54626e-11
0.5,3.3,0,2.99793,-0.0285034,6.9813e-11
0.5,3.4,0,2.99752,-0.0275075,7.41634e-11
0.5,3.5,0,2.99777,-0.0270288,7.33258e-11
0.5,3.6,0,2.99817,-0.0266733,7.1253e-11
0.5,3.7,0,2.99857,-0.0263178,6.91801e-11
0.5,3.8,0,2.99897,-0.0259623,6.71073e-11
0.5,3.9,0,2.99937,-0.0256068,6.50344e-11
0.5,4,0,2.99938,-0.0246373,5.73396e-11
0.5,4.1,0,2.99936,-0.0236166,4.91762e-11
0.5,4.2,0,2.99934,-0.022596,4.10128e-11
0.5,4.3,0,2.99932,-0.0215754,3.28494e-11
0.5,4.4,0,2.99928,-0.0205475,2.49459e-11
0.5,4.5,0,2.9989,-0.019339,2.35384e-11
0.5,4.6,0,2.99852,-0.0181305,2.21309e-11
0.5,4.7,0,2.99813,-0.016922,2.07234e-11
0.5,4.8,0,2.99775,-0.0157135,1.93159e-11
0.5,4.9,0,2.99741,-0.0145503,1.806e-11
0.5,5,0,2.99733,-0.0136363,1.76378e-11
0.5,5.1,0,2.99724,-0.0127223,1.72156e-11
0.5,5.2,0,2.99715,-0.0118083,1.67933e-11
0.5,5.3,0,2.99707,-0.0108943,1.63711e-11
0.5,5.4,0,2.99698,-0.0099478,1.55678e-11
0.5,5.5,0,2.99691,-0.00891298,1.37304e-11
0.5,5.6,0,2.99684,-0.00787815,1.1893e-11
0.5,5.7,0,2.99677,-0.00684333,1.00556e-11
0.5,5.8,0,2.9967,-0.00580851,8.21821e-12
0.5,5.9,0,2.99667,-0.00473643,7.16427e-12
0.5,6,0,2.9967,-0.00360476,7.36388e-12
0.5,6.1,0,2.99673,-0.00247308,7.56348e-12
0.5,6.2,0,2.99676,-0.00134141,7.76309e-12
0.5,6.3,0,2.9968,-0.00020973,7.9627e-12
0.5,6.4,0,2.99687,0.000862747,6.60256e-12
0.5,6.5,0,2.99699,0.00187602,3.68268e-12
0.5,6.6,0,2.99711,0.0028893,7.62795e-13
0.5,6.7,0,2.99723,0.00390258,-2.15709e-12
0.5,6.8,0,2.99735,0.00491585,-5.07697e-12
0.5,6.9,0,2.99727,0.00591186,-7.74803e-12
0.5,7,0,2.99707,0.00689707,-1.02636e-11
0.5,7.1,0,2.99687,0.00788228,-1.27791e-11
0.5,7.2,0,2.99667,0.00886749,-1.52947e-11
0.5,7.3,0,2.99647,0.0098527,-1.78102e-11
0.5,7.4,0,2.99615,0.0107277,-1.98545e-11
0.5,7.5,0,2.99579,0.011562,-2.17252e-11
0.5,7.6,0,2.99542,0.0123963,-2.35959e-11
0.5,7.7,0,2.99506,0.0132306,-2.54665e-11
0.5,7.8,0,2.9947,0.0140649,-2.73372e-11
0.5,7.9,0,2.9949,0.0150275,-2.61309e-11
0.5,8,0,2.99521,0.0160133,-2.43652e-11
0.5,8.1,0,2.99552,0.0169991,-2.25994e-11
0.5,8.2,0,2.99583,0.0179849,-2.08337e-11
0.5,8.3,0,2.99614,0.0189707,-1.90679e-11
0.5,8.4,0,2.99628,0.0198122,-1.84833e-11
0.5,8.5,0,2.99641,0.0206479,-1.79459e-11
0.5,8.6,0,2.99655,0.0214836,-1.74085e-11
0.5,8.7,0,2.99668,0.0223194,-1.68711e-11
0.5,8.8,0,2.99681,0.0231157,-1.66093e-11
0.5,8.9,0,2.99683,0.0234393,-1.96545e-11
0.5,9,0,2.99685,0.0237629,-2.26998e-11
0.5,9.1,0,2.99687,0.0240865,-2.57451e-11
0.5,9.2,0,2.9969,0.0244102,-2.87904e-11
0.5,9.3,0,2.99709,0.0249358,-3.07972e-11
0.5,9.4,0,2.99801,0.0263099,-2.84429e-11
0.5,9.5,0,2.99893,0.027684,-2.60886e-11
0.5,9.6,0,2.99985,0.0290581,-2.37343e-11
0.5,9.7,0,3.00077,0.0304322,-2.13799e-11
0.5,9.8,0,3.00133,0.0314935,-1.97421e-11
0.5,9.9,0,3.00108,0.031851,-1.97165e-11
0.5,10,0,3.00083,0.0322085,-1.96909e-11
0.5,10.1,0,3.00057,0.032566,-1.96654e-11
0.5,10.2,0,3.00032,0.0329235,-1.96398e-11
0.5,10.3,0,2.99983,0.0330731,-2.11193e-11
0.5,10.4,0,2.99904,0.0329391,-2.46514e-11
0.5,10.5,0,2.99824,0.0328052,-2.81835e-11
0.5,10.6,0,2.99745,0.0326712,-3.17156e-11
0.5,10.7,0,2.99666,0.0325372,-3.52477e-11
0.5,10.8,0,2.99668,0.0330398,-3.40237e-11
0.5,10.9,0,2.99741,0.034088,-2.87229e-11
0.5,11,0,2.99813,0.0351362,-2.34222e-11
0.5,11.1,0,2.99886,0.0361845,-1.81214e-11
0.5,11.2,0,2.99959,0.0372327,-1.28207e-11