/*--------------------------------*- C++ -*----------------------------------*\
| =========                 |                                                 |
| \\      /  F ield         | OpenFOAM: The Open Source CFD Toolbox           |
|  \\    /   O peration     | Version:  v1806                                 |
|   \\  /    A nd           | Web:      www.OpenFOAM.com                      |
|    \\/     M anipulation  |                                                 |
\*---------------------------------------------------------------------------*/
FoamFile
{
    version     2.0;
    format      ascii;
    class       volScalarField;
    location    "360";
    object      p;
}
// * * * * * * * * * * * * * * * * * * * * * * * * * * * * * * * * * * * * * //

dimensions      [0 2 -2 0 0 0 0];


internalField   nonuniform List<scalar> 
2400
(
3.43959e-05
3.56824e-05
3.7253e-05
4.05813e-05
4.41727e-05
5.01431e-05
5.57826e-05
6.48581e-05
7.25922e-05
8.51887e-05
9.43644e-05
0.000109841
0.000117903
0.000132543
0.000133023
0.000136777
0.000118109
9.37047e-05
4.50011e-05
-1.81667e-05
0.000103015
0.000106835
0.000111335
0.000121282
0.000131679
0.000149545
0.000165865
0.000193121
0.000215443
0.000253439
0.000279807
0.000326833
0.000349776
0.000395073
0.000395691
0.00040952
0.000353754
0.000284283
0.000138926
-4.74138e-05
0.000171244
0.000177448
0.000184915
0.000201295
0.000218511
0.000247966
0.000275023
0.000320049
0.000357129
0.000420078
0.000464038
0.000542452
0.000581041
0.000657917
0.000659667
0.000686734
0.000593967
0.000484012
0.000239002
-7.07013e-05
0.00023881
0.000247221
0.000257771
0.000280396
0.000304554
0.000345269
0.000383271
0.00044565
0.000497862
0.000585411
0.00064764
0.000757667
0.000813003
0.000923451
0.000927507
0.000973185
0.000842545
0.000699471
0.000347846
-8.8163e-05
0.000305457
0.000315855
0.000329627
0.000358268
0.0003895
0.000441072
0.00049024
0.000569478
0.000637242
0.000749011
0.000830315
0.000972367
0.00104587
0.00119265
0.00120068
0.00127236
0.00110276
0.000937587
0.000468322
-9.59889e-05
0.000370931
0.000383042
0.000400204
0.000434569
0.000473028
0.000534944
0.000595548
0.000691005
0.000774854
0.000910305
0.00101177
0.0011862
0.00127989
0.00146611
0.00148087
0.00158748
0.00137844
0.00120612
0.00060395
-8.77052e-05
0.000434984
0.000448484
0.000469228
0.000508966
0.000554833
0.000626467
0.000698842
0.000809705
0.000910328
0.00106869
0.00119176
0.00139865
0.00151541
0.00174411
0.00176998
0.00192133
0.001674
0.00151343
0.000758772
-5.40223e-05
0.000497366
0.000511898
0.000536436
0.000581136
0.000634614
0.000715232
0.000799773
0.000925046
0.00104329
0.00122349
0.00137003
0.00160903
0.00175272
0.00202642
0.00206996
0.002276
0.00199455
0.00186815
0.000937583
1.8465e-05
0.000557837
0.000573017
0.000601566
0.000650767
0.000712071
0.000800834
0.000897989
0.00103648
0.00117335
0.00137394
0.00154624
0.00181637
0.00199198
0.00231228
0.00238273
0.00265264
0.0023461
0.00227867
0.00114674
0.000148389
0.000616158
0.000631594
0.000664363
0.000717563
0.000786903
0.000882881
0.000993126
0.00114343
0.00130008
0.00151922
0.00171998
0.00201948
0.00223316
0.00260031
0.00271012
0.00305129
0.0027357
0.00275272
0.00139551
0.00036016
0.000672096
0.000687405
0.000724578
0.000781244
0.0008588
0.000960997
0.0010848
0.00124536
0.001423
0.00165844
0.00189074
0.00221697
0.00247607
0.00288856
0.00305371
0.00347063
0.00317143
0.00329663
0.00169824
0.000684113
0.000725423
0.000740251
0.000781963
0.000841551
0.000927449
0.00103484
0.00117261
0.00134174
0.00154157
0.00179071
0.00205786
0.00240727
0.00272024
0.00317457
0.00341474
0.0039078
0.00366212
0.00391415
0.00207712
0.00115706
0.000775914
0.00078996
0.000836273
0.000898254
0.00099252
0.00110409
0.00125612
0.00143206
0.00165517
0.00191514
0.00222045
0.00258876
0.00296487
0.00345555
0.00379432
0.00435846
0.00421698
0.00460444
0.00256427
0.00182258
0.000823348
0.000836388
0.000887264
0.000951147
0.00105367
0.0011685
0.00133484
0.00151591
0.00176307
0.00203088
0.00237737
0.00275969
0.00320858
0.00372859
0.00419345
0.00481815
0.00484642
0.00535926
0.00320182
0.00272171
0.000867504
0.000879416
0.000934696
0.00100006
0.00111054
0.00122784
0.00140821
0.00159294
0.00186434
0.00213719
0.00252713
0.00291813
0.00344899
0.00399034
0.00461219
0.00528443
0.00556595
0.0061636
0.00404348
0.003868
0.000908166
0.000918946
0.000978341
0.00104482
0.00116279
0.00128194
0.00147568
0.00166288
0.00195791
0.00223349
0.0026676
0.00306234
0.00368261
0.00423513
0.00504754
0.0057561
0.0064015
0.00701147
0.00516695
0.00523209
0.000945122
0.000954898
0.00101798
0.00108532
0.00121008
0.00133068
0.00153667
0.00172555
0.00204264
0.00231939
0.00279617
0.00319104
0.00390332
0.00445748
0.00549063
0.00622071
0.00737968
0.00793452
0.00671064
0.00667335
0.000978153
0.000987243
0.00105339
0.00112147
0.00125205
0.00137402
0.00159057
0.00178091
0.00211733
0.00239474
0.00290998
0.00330349
0.00410308
0.00465384
0.00592006
0.00665455
0.00849168
0.00900849
0.00892692
0.00764505
0.00100698
0.00101602
0.00108434
0.00115323
0.00128836
0.00141199
0.00163679
0.00182908
0.00218075
0.00245975
0.00300606
0.00339973
0.00427305
0.00482226
0.00630241
0.0070436
0.0096695
0.0101982
0.0125448
0.00688406
0.00103145
0.00104105
0.001111
0.00118018
0.00131927
0.00144398
0.00167573
0.00186916
0.00223333
0.00251313
0.0030844
0.00347777
0.00441055
0.00495823
0.00661911
0.00736769
0.0107643
0.011396
0.0184443
0.0044565
-6.66664e-05
-8.12219e-05
-9.30674e-05
-0.000103167
-0.000112995
-0.000122846
-0.000132492
-0.000141702
-0.000150271
-0.000158021
-0.000174265
-0.000206992
-0.00023828
-0.00026871
-0.000298754
-0.000328372
-0.000357295
-0.000385303
-0.00041229
-0.00043826
-0.000283865
-0.000340746
-0.000395596
-0.000448751
-0.000500881
-0.000551999
-0.000601769
-0.000649866
-0.000696046
-0.000740153
-0.000396318
-0.000479051
-0.000558726
-0.000635662
-0.000710979
-0.000784782
-0.000856588
-0.000925897
-0.000992346
-0.00105571
-0.000509531
-0.000621005
-0.000728619
-0.000832417
-0.000933812
-0.00103299
-0.00112932
-0.00122212
-0.00131088
-0.00139531
-0.000623702
-0.000769031
-0.000909368
-0.00104417
-0.00117534
-0.00130327
-0.00142722
-0.00154627
-0.00165979
-0.00176737
-0.000739984
-0.000927016
-0.0011066
-0.00127764
-0.00144318
-0.00160416
-0.00175966
-0.00190847
-0.00204974
-0.00218303
-0.000860723
-0.00110134
-0.00132904
-0.00154278
-0.00174831
-0.00194763
-0.00213952
-0.0023223
-0.00249488
-0.00265675
-0.000990593
-0.00130243
-0.00159006
-0.00185424
-0.00210636
-0.00235033
-0.00258437
-0.00280601
-0.00301383
-0.00320736
-0.00113845
-0.00154684
-0.00190969
-0.00223329
-0.00253948
-0.00283542
-0.00311825
-0.00338417
-0.00363137
-0.00385952
-0.00132056
-0.00186056
-0.00231762
-0.00271055
-0.00307905
-0.00343522
-0.0037742
-0.00409007
-0.00438056
-0.00464571
-0.00156528
-0.00228387
-0.00285758
-0.00333003
-0.00376947
-0.00419481
-0.00459763
-0.00496883
-0.00530561
-0.00560881
-0.00191809
-0.00287632
-0.00359221
-0.00415427
-0.00467343
-0.00517713
-0.00565107
-0.00608167
-0.00646572
-0.0068054
-0.00244967
-0.00372366
-0.00461072
-0.00527329
-0.00588169
-0.00647285
-0.00702358
-0.00751445
-0.00794236
-0.00831171
-0.00327941
-0.00495938
-0.00604783
-0.00682157
-0.00752924
-0.00821659
-0.00884693
-0.00939318
-0.00985329
-0.010235
-0.00462446
-0.00681873
-0.00813266
-0.00901415
-0.00981838
-0.0106001
-0.0113018
-0.0118847
-0.012348
-0.0127047
-0.00684031
-0.00971523
-0.0112983
-0.012265
-0.0131269
-0.0139592
-0.0146796
-0.0152355
-0.0156274
-0.0158773
-0.0102711
-0.0139622
-0.0158609
-0.0169227
-0.017816
-0.0186252
-0.0192558
-0.019665
-0.0198647
-0.0198909
-0.0154174
-0.0192275
-0.0208403
-0.0218317
-0.0227178
-0.0234016
-0.0237842
-0.0238915
-0.0237864
-0.0235251
-0.0278086
-0.0292337
-0.0279603
-0.0275545
-0.027751
-0.0279079
-0.0278663
-0.0276773
-0.0274243
-0.0270585
-0.0001785
-0.000208216
-0.000221652
-0.000219047
-0.000205372
-0.000185474
-0.000162666
-0.000139133
-0.000116271
-9.52817e-05
-7.67235e-05
-6.07329e-05
-4.71994e-05
-3.60991e-05
-2.69751e-05
-1.97472e-05
-1.37502e-05
-9.0238e-06
-4.79658e-06
-1.3217e-06
-0.000522905
-0.000616103
-0.000656309
-0.000649487
-0.000610007
-0.000551862
-0.00048476
-0.000415237
-0.00034789
-0.000285781
-0.000230498
-0.000182761
-0.000142333
-0.000109044
-8.17268e-05
-5.99713e-05
-4.20454e-05
-2.78547e-05
-1.5347e-05
-5.13955e-06
-0.000880252
-0.00103601
-0.00110165
-0.00108831
-0.00102063
-0.000922081
-0.000808942
-0.000692201
-0.000579443
-0.000475698
-0.000383444
-0.000303891
-0.000236625
-0.000181252
-0.000135911
-9.9785e-05
-7.01447e-05
-4.66638e-05
-2.60515e-05
-9.0181e-06
-0.00125741
-0.00147752
-0.00156632
-0.00154229
-0.00144208
-0.00129928
-0.00113695
-0.000970601
-0.000810798
-0.000664336
-0.000534523
-0.000422911
-0.000328796
-0.0002515
-0.000188378
-0.000138194
-9.71373e-05
-6.4695e-05
-3.61835e-05
-1.25998e-05
-0.00166323
-0.00194845
-0.00205604
-0.00201512
-0.0018765
-0.00168445
-0.00146895
-0.00125008
-0.00104129
-0.000850903
-0.000682893
-0.000538991
-0.000418069
-0.000319093
-0.000238536
-0.000174716
-0.00012265
-8.16863e-05
-4.56237e-05
-1.59974e-05
-0.00210754
-0.00245758
-0.00257722
-0.00251096
-0.00232628
-0.00207866
-0.0018051
-0.00153021
-0.00127016
-0.00103451
-0.000827628
-0.00065123
-0.000503623
-0.000383316
-0.000285795
-0.000208882
-0.000146352
-9.74282e-05
-5.42992e-05
-1.92264e-05
-0.00260246
-0.00301512
-0.00313702
-0.00303436
-0.00279392
-0.00248286
-0.00214537
-0.00181041
-0.00149648
-0.00121407
-0.000967636
-0.000758593
-0.000584521
-0.000443356
-0.000329491
-0.000240166
-0.000167865
-0.000111663
-6.20706e-05
-2.22393e-05
-0.00316308
-0.00363286
-0.00374319
-0.00358992
-0.00328172
-0.00289771
-0.0024894
-0.00208982
-0.00171908
-0.00138834
-0.00110169
-0.000859932
-0.000659748
-0.000498346
-0.000368922
-0.000268009
-0.000186802
-0.000124111
-6.87876e-05
-2.50006e-05
-0.00380826
-0.00432432
-0.00440401
-0.00418229
-0.00379169
-0.00332348
-0.00283642
-0.00236705
-0.00193657
-0.0015559
-0.00122843
-0.000954011
-0.000728227
-0.000547375
-0.000403366
-0.000291842
-0.000202779
-0.000134483
-7.43195e-05
-2.74856e-05
-0.00456156
-0.00510486
-0.00512834
-0.00481612
-0.00432549
-0.00375998
-0.00318525
-0.00264059
-0.00214728
-0.00171514
-0.00134637
-0.00103949
-0.00078881
-0.000589488
-0.000432081
-0.000311077
-0.000215428
-0.00014247
-7.85616e-05
-2.96461e-05
-0.0054524
-0.00599172
-0.0059256
-0.0054959
-0.0048842
-0.00420645
-0.00353458
-0.00290846
-0.00234921
-0.00186418
-0.00145383
-0.00111492
-0.000840272
-0.000623683
-0.000454303
-0.000325114
-0.000224395
-0.00014773
-8.14422e-05
-3.13581e-05
-0.00651759
-0.0070041
-0.00680579
-0.00622582
-0.00546815
-0.00466108
-0.00388147
-0.00316815
-0.00253998
-0.00200089
-0.00154895
-0.00117871
-0.000881314
-0.000648928
-0.000469253
-0.000333346
-0.000229339
-0.000149873
-8.29298e-05
-3.23501e-05
-0.00780347
-0.00816365
-0.00777983
-0.00700916
-0.00607625
-0.00512082
-0.00422226
-0.00341613
-0.00271653
-0.00212267
-0.00162961
-0.00122918
-0.000910619
-0.000664221
-0.000476193
-0.000335206
-0.000229944
-0.000148459
-8.30334e-05
-3.21293e-05
-0.00936927
-0.00949484
-0.00885928
-0.00784662
-0.00670418
-0.00558072
-0.00455108
-0.00364733
-0.0028748
-0.00222647
-0.00169357
-0.00126473
-0.000927062
-0.000668784
-0.000474561
-0.000330263
-0.000225943
-0.000143039
-8.17929e-05
-2.99465e-05
-0.0112875
-0.0110178
-0.0100505
-0.00873146
-0.0073413
-0.00602657
-0.00485811
-0.00385452
-0.00300967
-0.00230894
-0.00173885
-0.00128434
-0.000930203
-0.000662471
-0.000464283
-0.000318448
-0.000217208
-0.000133256
-7.926e-05
-2.48537e-05
-0.0136155
-0.0127276
-0.0113396
-0.00963434
-0.00796028
-0.00643796
-0.00512869
-0.00402808
-0.00311545
-0.00236739
-0.00176471
-0.00128841
-0.000921012
-0.000646355
-0.000446233
-0.000300362
-0.000203923
-0.000119018
-7.54709e-05
-1.58603e-05
-0.0163451
-0.0145468
-0.0126402
-0.0104872
-0.00850708
-0.00678368
-0.00534486
-0.00415821
-0.00318808
-0.00240128
-0.00177275
-0.0012797
-0.000902642
-0.000623312
-0.000422686
-0.000277577
-0.000186781
-0.00010069
-7.03664e-05
-2.21042e-06
-0.019332
-0.0163071
-0.0138504
-0.0111536
-0.00893134
-0.00703625
-0.00549409
-0.0042404
-0.00322776
-0.00241376
-0.00176782
-0.00126378
-0.000880566
-0.000598118
-0.000397439
-0.000252783
-0.00016713
-7.93199e-05
-6.36566e-05
1.62821e-05
-0.0216321
-0.0174336
-0.0147035
-0.0115831
-0.00921682
-0.0071872
-0.00557719
-0.004279
-0.00324101
-0.0024121
-0.00175739
-0.00124798
-0.000861619
-0.000576743
-0.000375329
-0.000229579
-0.000146944
-5.67546e-05
-5.4937e-05
3.90932e-05
-0.0235632
-0.0182494
-0.0152286
-0.0117894
-0.00937651
-0.00725144
-0.00561114
-0.00428663
-0.00323774
-0.00240382
-0.00174768
-0.00123779
-0.000850784
-0.00056346
-0.00036016
-0.000210395
-0.00012848
-3.36872e-05
-4.51177e-05
6.7223e-05
-0.0238101
-0.0180517
-0.0153172
-0.01179
-0.009416
-0.00724304
-0.0056072
-0.00427213
-0.00322453
-0.00239284
-0.00174046
-0.00123346
-0.000847895
-0.000558603
-0.000353934
-0.000197769
-0.000117545
-1.28817e-05
-4.08137e-05
9.77373e-05
-0.0233287
-0.0180401
-0.0153534
-0.0117972
-0.00943258
-0.00724114
-0.00560501
-0.00426522
-0.00321842
-0.0023885
-0.00173866
-0.00123368
-0.000849022
-0.000558587
-0.000352617
-0.000192843
-0.000111895
-3.60819e-06
-3.64317e-05
0.00011018
-0.0230109
-0.0180367
-0.0153759
-0.0118071
-0.00944389
-0.00724123
-0.00560234
-0.00425925
-0.00321323
-0.0023856
-0.00173863
-0.00123603
-0.000852374
-0.000560785
-0.000353114
-0.000189706
-0.000106753
3.71789e-06
-3.03967e-05
0.000118122
-0.0228132
-0.0180289
-0.0153819
-0.0118123
-0.0094505
-0.0072402
-0.0055984
-0.00425314
-0.00320823
-0.00238342
-0.00173972
-0.00123982
-0.000857305
-0.000564528
-0.000354979
-0.000187668
-0.000102271
1.02882e-05
-2.40342e-05
0.000123943
-0.0227317
-0.01802
-0.015384
-0.011816
-0.00945383
-0.00723826
-0.00559369
-0.00424715
-0.00320366
-0.00238208
-0.00174192
-0.00124492
-0.00086363
-0.000569637
-0.000358068
-0.00018667
-9.8513e-05
1.6099e-05
-1.76705e-05
0.000127967
-0.0227811
-0.018025
-0.0153883
-0.0118189
-0.00945465
-0.00723611
-0.00558877
-0.00424177
-0.00319992
-0.00238185
-0.00174532
-0.00125132
-0.000871237
-0.000576011
-0.000362279
-0.00018676
-9.55124e-05
2.09023e-05
-1.1382e-05
0.000129968
-0.0229531
-0.0180384
-0.0153909
-0.011822
-0.00945264
-0.00723367
-0.00558377
-0.00423726
-0.00319726
-0.00238287
-0.00174998
-0.00125892
-0.000879964
-0.000583485
-0.000367482
-0.000187909
-9.33251e-05
2.45775e-05
-5.34575e-06
0.000129853
-0.0232196
-0.0180376
-0.0153833
-0.0118199
-0.00944621
-0.00723006
-0.00557833
-0.00423355
-0.00319571
-0.00238515
-0.0017558
-0.00126756
-0.000889596
-0.000591833
-0.000373534
-0.000190011
-9.20282e-05
2.71402e-05
1.74076e-07
0.000127727
-0.0236075
-0.0180167
-0.0153505
-0.0118102
-0.00943385
-0.00722548
-0.00557246
-0.00423098
-0.00319557
-0.00238893
-0.00176291
-0.00127724
-0.000900064
-0.000600979
-0.000380348
-0.000193129
-9.16282e-05
2.83348e-05
5.2062e-06
0.000123283
-0.0243868
-0.0179804
-0.0153123
-0.011813
-0.00941907
-0.00722605
-0.00556886
-0.00423208
-0.00319877
-0.00239568
-0.00177251
-0.00128885
-0.000912005
-0.000611612
-0.000388129
-0.000198191
-9.19142e-05
2.65315e-05
1.0788e-05
0.000113377
-0.0220774
-0.0183863
-0.0153048
-0.0118897
-0.00938865
-0.00724451
-0.0055704
-0.00424561
-0.00321597
-0.00241919
-0.00180086
-0.0013199
-0.000942513
-0.000639295
-0.0004079
-0.000214881
-9.44627e-05
1.41994e-05
2.37253e-05
7.73522e-05
-0.0199284
-0.0165527
-0.0140778
-0.0113682
-0.00907072
-0.00709925
-0.0055028
-0.00423102
-0.00323049
-0.0024514
-0.00184265
-0.00136507
-0.000987327
-0.000679683
-0.0004417
-0.000242785
-0.000111788
-5.19798e-06
2.14156e-05
4.93881e-05
-0.0158977
-0.0144488
-0.0127012
-0.0105956
-0.00858753
-0.00683303
-0.00537085
-0.00418396
-0.00323366
-0.0024816
-0.00188609
-0.00141276
-0.0010352
-0.000725291
-0.000482726
-0.00028188
-0.000142644
-3.80311e-05
4.61135e-06
2.32839e-05
-0.012318
-0.0120232
-0.0109264
-0.00943283
-0.00789165
-0.00643318
-0.00515201
-0.00407853
-0.0031986
-0.00248755
-0.00191444
-0.00145158
-0.0010784
-0.000770781
-0.000526731
-0.000327521
-0.000182107
-7.80236e-05
-2.03182e-05
1.54606e-06
-0.00969542
-0.009974
-0.00938013
-0.0083484
-0.00715371
-0.00595973
-0.00486378
-0.00391559
-0.00311758
-0.00245741
-0.00191519
-0.00147056
-0.00110774
-0.000807781
-0.000566302
-0.000371151
-0.000222475
-0.00011693
-4.68461e-05
-1.42964e-05
-0.00764893
-0.00824241
-0.00800556
-0.00730438
-0.00639532
-0.00543865
-0.0045275
-0.00370676
-0.00299439
-0.00239115
-0.00188638
-0.00146627
-0.00111897
-0.000830924
-0.00059578
-0.000406392
-0.000257398
-0.000149702
-7.03387e-05
-2.47288e-05
-0.00610951
-0.00682191
-0.00681771
-0.00636619
-0.00568893
-0.00492993
-0.00417358
-0.00346876
-0.0028396
-0.00229495
-0.00183098
-0.00143953
-0.0011117
-0.000838484
-0.000612649
-0.000430302
-0.000283493
-0.000174218
-8.85754e-05
-3.11696e-05
-0.00493212
-0.0056596
-0.00579967
-0.00553114
-0.00503382
-0.00443392
-0.00380951
-0.00321006
-0.00266085
-0.00217464
-0.00175297
-0.00139257
-0.00108695
-0.000830666
-0.000616489
-0.000442367
-0.000299779
-0.000190283
-0.000101145
-3.49996e-05
-0.00401853
-0.00470633
-0.00492632
-0.00478793
-0.0044291
-0.00395852
-0.00344699
-0.00294058
-0.00246559
-0.00203579
-0.00165649
-0.00132819
-0.00104658
-0.000808676
-0.000607942
-0.000443248
-0.000306581
-0.000198667
-0.000108497
-3.70882e-05
-0.00329891
-0.00392067
-0.00417595
-0.00412672
-0.00387369
-0.00350777
-0.00309148
-0.00266662
-0.00225839
-0.00188253
-0.00154498
-0.0012491
-0.000992541
-0.000774088
-0.000588164
-0.000434112
-0.000304826
-0.000200381
-0.000111336
-3.78524e-05
-0.00272142
-0.00326758
-0.00352915
-0.00353802
-0.00336469
-0.00308264
-0.00274604
-0.0023921
-0.00204438
-0.00171847
-0.00142138
-0.00115775
-0.000926782
-0.000728529
-0.000558458
-0.000416186
-0.000295572
-0.000196351
-0.000110347
-3.74846e-05
-0.00224863
-0.00271864
-0.0029686
-0.00301252
-0.002898
-0.00268262
-0.00241239
-0.00211986
-0.00182631
-0.00154653
-0.00128826
-0.00105633
-0.00085111
-0.000673556
-0.000520122
-0.000390637
-0.000279843
-0.000187395
-0.000106141
-3.61076e-05
-0.00185349
-0.00225109
-0.00247902
-0.00254127
-0.00246906
-0.00230633
-0.00209119
-0.00185174
-0.00160666
-0.0013695
-0.00114778
-0.000946735
-0.000767167
-0.000610611
-0.0004744
-0.000358552
-0.000258591
-0.000174243
-9.92428e-05
-3.38335e-05
-0.00151635
-0.00184693
-0.00204717
-0.00211596
-0.00207324
-0.00195178
-0.0017824
-0.0015888
-0.00138703
-0.00118905
-0.00100184
-0.00083064
-0.000676426
-0.000541015
-0.000422459
-0.000320935
-0.000232685
-0.00015755
-9.01026e-05
-3.07771e-05
-0.00122277
-0.00149193
-0.00166177
-0.00172895
-0.00170595
-0.00161667
-0.00148535
-0.00133149
-0.00116853
-0.00100664
-0.000852033
-0.000709512
-0.00058023
-0.000465984
-0.00036538
-0.000278721
-0.000202918
-0.000137911
-7.91146e-05
-2.70545e-05
-0.000961928
-0.00117475
-0.00131318
-0.00137327
-0.00136268
-0.00129842
-0.00119896
-0.0010798
-0.000951801
-0.000823295
-0.000699473
-0.000584496
-0.000479763
-0.000386614
-0.000304155
-0.000232772
-0.000170012
-0.000115873
-6.66305e-05
-2.27833e-05
-0.000725486
-0.000886293
-0.000993173
-0.00104259
-0.00103907
-0.000994348
-0.000921869
-0.000833349
-0.000737151
-0.000639725
-0.000545171
-0.000456896
-0.000376076
-0.000303871
-0.000239684
-0.000183884
-0.000134629
-9.19376e-05
-5.29664e-05
-1.80888e-05
-0.000507012
-0.000619173
-0.000694834
-0.000731264
-0.000731035
-0.00070177
-0.00065255
-0.000591539
-0.000524634
-0.000456418
-0.000389833
-0.000327393
-0.000270033
-0.000218627
-0.000172772
-0.000132768
-9.73537e-05
-6.65454e-05
-3.83782e-05
-1.3085e-05
-0.000300368
-0.000366891
-0.000412091
-0.000434336
-0.000434945
-0.000418281
-0.000389614
-0.000353767
-0.000314234
-0.000273773
-0.000234127
-0.000196819
-0.000162472
-0.000131679
-0.000104141
-8.00614e-05
-5.87046e-05
-4.00851e-05
-2.30569e-05
-7.79382e-06
-0.000102248
-0.00012346
-0.000138684
-0.000146138
-0.000146241
-0.000140536
-0.000130798
-0.000118671
-0.000105317
-9.16807e-05
-7.8328e-05
-6.57792e-05
-5.42051e-05
-4.38655e-05
-3.46313e-05
-2.65582e-05
-1.94045e-05
-1.31653e-05
-7.44927e-06
-2.33511e-06
-0.0260979
-0.0269782
-0.0245517
-0.0231035
-0.0227832
-0.0228829
-0.0230608
-0.0232638
-0.0235026
-0.0236889
-0.00733755
-0.0106557
-0.0124518
-0.0137599
-0.0150641
-0.0163191
-0.0173893
-0.01823
-0.0188529
-0.0192972
-0.00604207
-0.00895992
-0.0105392
-0.0114346
-0.0122142
-0.0129964
-0.013713
-0.0143089
-0.014775
-0.0151265
-0.00330555
-0.00519181
-0.00634338
-0.00712773
-0.00786265
-0.00860959
-0.00932015
-0.00995368
-0.0105014
-0.0109689
-0.00200176
-0.00337289
-0.00435205
-0.00508376
-0.00575059
-0.00640129
-0.00701463
-0.00756802
-0.00805535
-0.0084793
-0.00143303
-0.00238738
-0.00313191
-0.0037208
-0.00425827
-0.00477935
-0.00527533
-0.00573321
-0.00614857
-0.00652261
-0.00113231
-0.00178542
-0.00233961
-0.00280952
-0.00324641
-0.00366965
-0.00407509
-0.00445505
-0.00480597
-0.00512753
-0.000961953
-0.00141739
-0.00183253
-0.00220575
-0.00255818
-0.00289896
-0.00322627
-0.00353609
-0.00382608
-0.00409563
-0.000852564
-0.00118125
-0.0014949
-0.00178842
-0.00206943
-0.00234176
-0.00260447
-0.00285539
-0.00309294
-0.0033164
-0.000766612
-0.00101373
-0.00125431
-0.00148463
-0.00170771
-0.001925
-0.00213572
-0.00233846
-0.00253206
-0.00271586
-0.000687523
-0.000880207
-0.00106795
-0.00124929
-0.00142639
-0.0015999
-0.00176904
-0.00193271
-0.00209004
-0.00224047
-0.000609744
-0.000763479
-0.000912064
-0.0010557
-0.00119669
-0.00133554
-0.00147149
-0.00160361
-0.00173125
-0.00185395
-0.000532352
-0.000656032
-0.000774567
-0.000888927
-0.00100148
-0.00111272
-0.00122198
-0.0013285
-0.00143176
-0.00153143
-0.000455989
-0.000555228
-0.000649812
-0.000740887
-0.000830622
-0.000919486
-0.00100694
-0.00109238
-0.0011754
-0.00125577
-0.000381411
-0.000460118
-0.000534914
-0.000606851
-0.000677754
-0.000748034
-0.000817275
-0.000885011
-0.000950944
-0.0010149
-0.000308894
-0.000369925
-0.000427859
-0.000483553
-0.000538448
-0.000592881
-0.000646543
-0.000699084
-0.000750285
-0.000800017
-0.000238254
-0.000283714
-0.00032693
-0.000368476
-0.000409391
-0.000449933
-0.000489898
-0.000529046
-0.000567229
-0.000604361
-0.000169254
-0.000200545
-0.00023055
-0.000259528
-0.000288047
-0.000316248
-0.00034401
-0.000371185
-0.00039767
-0.000423397
-0.00010287
-0.000120668
-0.000137651
-0.000154186
-0.00017059
-0.000186904
-0.000203033
-0.000218891
-0.000234449
-0.000249713
-4.05626e-05
-4.86952e-05
-5.51623e-05
-6.04745e-05
-6.55939e-05
-7.07842e-05
-7.59311e-05
-8.08897e-05
-8.55528e-05
-8.9846e-05
0.00109168
0.00110191
0.00117053
0.00124647
0.0013842
0.00151811
0.00174584
0.00195289
0.00230779
0.00260733
0.00315856
0.00358167
0.00447207
0.00506292
0.00663975
0.00744602
0.0106055
0.0112089
0.0165317
0.00150069
0.00108865
0.00109789
0.00116563
0.0012415
0.00137696
0.00150946
0.00173141
0.00193625
0.00227862
0.00257437
0.00309596
0.00351231
0.00432496
0.00490965
0.00622851
0.00703223
0.0090921
0.0098079
0.010575
0.00970129
0.0010771
0.00108795
0.00115243
0.00122886
0.00135847
0.00149152
0.00170197
0.00190767
0.00222733
0.00252485
0.00299838
0.0034183
0.00411944
0.00470671
0.00572621
0.00651154
0.00771651
0.0083649
0.00771376
0.0073391
0.0010579
0.00107102
0.0011314
0.00120775
0.00133017
0.00146327
0.00166007
0.00186544
0.00215898
0.00245584
0.00287652
0.00329412
0.00387887
0.00445423
0.00520028
0.0059199
0.00651464
0.00711142
0.0055673
0.00512972
0.00103144
0.00104706
0.0011029
0.00117842
0.00129282
0.00142485
0.00160697
0.00180981
0.00207622
0.00236788
0.00273667
0.00314141
0.00362209
0.00415854
0.00469209
0.00531791
0.00552011
0.00597569
0.00415517
0.00344177
0.000998157
0.00101612
0.00106726
0.00114113
0.00124711
0.00137664
0.00154389
0.00174147
0.0019815
0.00226261
0.00258384
0.00296514
0.00335717
0.00384096
0.00421148
0.00472901
0.00468871
0.00494772
0.00318623
0.00215892
0.000958487
0.000978274
0.00102484
0.00109619
0.00119376
0.00131909
0.00147195
0.00166136
0.00187673
0.00214237
0.00242111
0.00277179
0.00309003
0.00351242
0.00376189
0.00416273
0.00398349
0.00404414
0.00248274
0.00125725
0.00091283
0.000933748
0.000975995
0.001044
0.00113337
0.00125287
0.00139206
0.00157068
0.0017634
0.00200965
0.00225125
0.00256627
0.00282451
0.00318103
0.00334361
0.00362969
0.00338286
0.00327641
0.00195627
0.000681838
0.000861569
0.000882858
0.000921108
0.00098502
0.00106653
0.00117873
0.00130502
0.00147075
0.00164283
0.0018669
0.00207631
0.00235298
0.00256301
0.00285396
0.00295594
0.00313872
0.00286999
0.00264175
0.00155052
0.000333821
0.000805077
0.000826013
0.000860572
0.000919788
0.000993756
0.00109747
0.00121159
0.0013629
0.00151611
0.00171643
0.00189787
0.00213579
0.00230713
0.00253679
0.00259742
0.00269432
0.00242974
0.00212667
0.00122888
0.000132261
0.000743732
0.000763688
0.000794807
0.000848868
0.000915572
0.00100995
0.00111245
0.00124841
0.00138421
0.00156031
0.00171717
0.00191782
0.00205787
0.00223333
0.00226599
0.00229699
0.00204915
0.00171254
0.000970478
2.0312e-05
0.000677923
0.000696401
0.000724254
0.000772844
0.000832481
0.000916954
0.00100826
0.00112846
0.00124799
0.00140026
0.00153522
0.00170141
0.00181573
0.00194556
0.00195929
0.00194417
0.00171795
0.00137993
0.000762752
-4.00557e-05
0.000608055
0.000624691
0.000649377
0.000692304
0.000744989
0.000819269
0.000899637
0.0010041
0.00110819
0.00123767
0.00135279
0.00148812
0.00158086
0.00167399
0.00167492
0.00163114
0.00142816
0.00111071
0.000596212
-7.11919e-05
0.00053455
0.000549107
0.000570657
0.000607825
0.000653606
0.000717608
0.000787197
0.00087624
0.000965489
0.00107361
0.00117046
0.00127879
0.00135314
0.00141795
0.00141048
0.00135211
0.00117317
0.000889342
0.00046242
-8.45183e-05
0.000457849
0.000470194
0.000488591
0.000519972
0.000558847
0.000612627
0.000671512
0.000745617
0.000820481
0.000908794
0.000988634
0.00107369
0.0011322
0.00117596
0.00116353
0.00110117
0.00094712
0.000703641
0.000354291
-8.6112e-05
0.000378409
0.000388488
0.000403682
0.000429296
0.000461228
0.000504926
0.000553136
0.000612854
0.000673676
0.000743692
0.00080755
0.000872654
0.000917444
0.000946046
0.00093156
0.000872743
0.000744601
0.000544439
0.000265917
-7.9621e-05
0.000296704
0.000304514
0.000316443
0.000336329
0.000361268
0.000395058
0.000432595
0.000478461
0.000525508
0.000578559
0.000627294
0.000675174
0.000708028
0.00072599
0.000711919
0.00066179
0.00056062
0.000404789
0.000192279
-6.75623e-05
0.000213219
0.000218785
0.000227389
0.000241592
0.00025949
0.00028354
0.000310405
0.000342875
0.000376364
0.000413523
0.000447833
0.000480588
0.000502952
0.000513556
0.000501901
0.000463852
0.000390598
0.000279247
0.000129282
-5.19234e-05
0.000128449
0.000131798
0.000137027
0.000145581
0.000156401
0.00017084
0.000187039
0.00020645
0.000226551
0.000248595
0.000269019
0.000288124
0.000301095
0.000306567
0.000298845
0.000275018
0.000230432
0.000163396
7.3942e-05
-3.38533e-05
4.2912e-05
4.40378e-05
4.58365e-05
4.87128e-05
5.23912e-05
5.72327e-05
6.27151e-05
6.9205e-05
7.59818e-05
8.33155e-05
9.01574e-05
9.64418e-05
0.000100709
0.000102355
9.96093e-05
9.13689e-05
7.61614e-05
5.34831e-05
2.37381e-05
-1.27123e-05
0.00104591
0.00105485
0.00112767
0.00119428
0.00133878
0.00145979
0.00170071
0.00188741
0.0022675
0.00253487
0.00313557
0.00350568
0.00449865
0.00500444
0.00680999
0.00750485
0.0113936
0.0122327
0.0232197
0.0178549
0.00105337
0.00106241
0.00113591
0.00120216
0.00134825
0.00146885
0.00171244
0.00189819
0.00228297
0.0025482
0.0031579
0.00352336
0.00453636
0.00503271
0.00689324
0.00757881
0.01168
0.0127056
0.0248443
0.024052
0.0010601
0.00106944
0.00114306
0.00120964
0.00135634
0.00147754
0.00172211
0.00190865
0.00229518
0.00256133
0.00317461
0.0035409
0.00456332
0.00506016
0.00695226
0.00764501
0.0118906
0.0131048
0.025908
0.0283888
0.00106619
0.00107573
0.00114945
0.00121636
0.00136349
0.00148527
0.0017305
0.0019178
0.00230543
0.00257251
0.00318795
0.00355527
0.00458346
0.00508143
0.00699349
0.0076932
0.0120341
0.0133863
0.0266148
0.0311798
0.00107164
0.00108126
0.00115508
0.00122229
0.00136976
0.00149197
0.00173766
0.00192555
0.00231383
0.0025816
0.00319812
0.00356617
0.0045971
0.00509587
0.00701734
0.00772095
0.0121089
0.0135331
0.0269811
0.0326055
0.00107642
0.00108605
0.00115993
0.00122746
0.00137509
0.0014977
0.00174353
0.00193197
0.00232026
0.00258874
0.00320489
0.00357386
0.00460382
0.00510388
0.00702301
0.00772821
0.0121123
0.0135369
0.0270085
0.0327415
0.00108055
0.00109009
0.001164
0.00123185
0.00137948
0.00150246
0.0017481
0.00193706
0.00232472
0.00259393
0.00320826
0.00357836
0.00460352
0.00510552
0.00701053
0.00771501
0.0120439
0.0133969
0.0266961
0.0315909
0.00108403
0.00109336
0.00116731
0.00123544
0.00138298
0.00150617
0.00175145
0.00194071
0.00232732
0.00259697
0.00320846
0.00357938
0.00459662
0.00510032
0.00698083
0.00768133
0.011907
0.0131187
0.0260469
0.0290914
0.00108688
0.00109586
0.00116989
0.00123825
0.00138564
0.00150887
0.00175363
0.00194298
0.00232809
0.00259793
0.00320553
0.00357682
0.00458438
0.0050881
0.00693395
0.00762979
0.0117029
0.0127142
0.0250659
0.0250982
0.00108898
0.00109788
0.00117143
0.00124076
0.00138702
0.00151139
0.00175385
0.00194521
0.00232583
0.00259901
0.0031969
0.00357384
0.00455943
0.00507622
0.00686098
0.00757326
0.0114161
0.0122298
0.0235222
0.0192282
)
;

boundaryField
{
    inlet
    {
        type            zeroGradient;
    }
    outlet
    {
        type            fixedValue;
        value           uniform 0;
    }
    upAndBottom
    {
        type            empty;
    }
    obstacle
    {
        type            zeroGradient;
    }
}


// ************************************************************************* //
