/*--------------------------------*- C++ -*----------------------------------*\
| =========                 |                                                 |
| \\      /  F ield         | OpenFOAM: The Open Source CFD Toolbox           |
|  \\    /   O peration     | Version:  v1806                                 |
|   \\  /    A nd           | Web:      www.OpenFOAM.com                      |
|    \\/     M anipulation  |                                                 |
\*---------------------------------------------------------------------------*/
FoamFile
{
    version     2.0;
    format      ascii;
    class       volScalarField;
    location    "470";
    object      p;
}
// * * * * * * * * * * * * * * * * * * * * * * * * * * * * * * * * * * * * * //

dimensions      [0 2 -2 0 0 0 0];


internalField   nonuniform List<scalar> 
4400
(
-0.00978665
0.00379875
0.0030592
0.00160906
0.00113849
0.000960444
0.00082624
0.000720173
0.000636046
0.000563154
0.000495874
0.000432598
0.000372759
0.000315824
0.000261279
0.000208709
0.00015784
0.000108438
5.90987e-05
1.00018e-05
0.0186627
0.0127592
0.00846206
0.00577635
0.0043252
0.00343795
0.00279535
0.00230217
0.00191798
0.00161173
0.00135978
0.00114644
0.000961448
0.000797681
0.000649976
0.00051449
0.000388354
0.00026924
0.000154105
4.22441e-05
0.0236038
0.0171378
0.0126829
0.00945564
0.00720811
0.00566374
0.00456031
0.00373576
0.00309841
0.00259107
0.00217554
0.00182621
0.00152575
0.00126201
0.00102612
0.000811422
0.000612819
0.000426177
0.000247105
7.38944e-05
0.0258172
0.0196083
0.0149793
0.0115815
0.00912814
0.00734186
0.00600302
0.00496681
0.00414432
0.00347741
0.00292511
0.00245802
0.002055
0.00170065
0.00138352
0.00109487
0.000827889
0.000577012
0.000336757
0.000104435
0.0246456
0.0199792
0.0161054
0.0130088
0.0105744
0.0086748
0.00718578
0.00600246
0.00504551
0.00425746
0.00359651
0.00303198
0.0025412
0.00210723
0.00171717
0.001361
0.00103074
0.000719802
0.000421887
0.000133477
0.0233639
0.0198255
0.0165554
0.0137607
0.0114598
0.00959214
0.00807383
0.0068284
0.00579456
0.00492514
0.00418381
0.00354247
0.00297932
0.00247742
0.00202349
0.00160694
0.0012192
0.000853002
0.00050156
0.00016071
0.0217554
0.0190917
0.0164652
0.0140825
0.0120062
0.0102363
0.0087411
0.00747781
0.00640435
0.00548411
0.00468675
0.00398765
0.00336698
0.0028088
0.00230025
0.0018308
0.00139171
0.000975487
0.000575079
0.000185892
0.0203414
0.0182951
0.0161575
0.014118
0.0122659
0.0106291
0.00920197
0.00796248
0.00688381
0.00594011
0.00510835
0.00436863
0.00370413
0.0031007
0.0025465
0.00203157
0.00154741
0.00108656
0.000641994
0.000208862
0.0190205
0.0174209
0.0156868
0.0139657
0.0123406
0.0108518
0.00951186
0.00831668
0.0072531
0.00630475
0.00545516
0.00468901
0.00399258
0.00335386
0.00276239
0.0022091
0.00168599
0.00118592
0.000702081
0.000229532
0.0178926
0.0166122
0.0151828
0.0137163
0.0122881
0.0109416
0.00969735
0.00856059
0.00752738
0.00658898
0.00573475
0.00495375
0.00423548
0.00357017
0.00294898
0.0023639
0.00180767
0.00127362
0.000755319
0.000247888
0.0169011
0.0158564
0.0146656
0.0134123
0.0121583
0.0109444
0.00979481
0.00872098
0.00772559
0.0068059
0.00595608
0.00516896
0.0044369
0.00375232
0.00310798
0.00249703
0.00191307
0.00134999
0.000801859
0.000263969
0.0160623
0.0151906
0.0141812
0.0130962
0.0119865
0.0108887
0.00982731
0.00881636
0.00786246
0.00696694
0.00612778
0.00534095
0.00460137
0.00390347
0.00324156
0.00260994
0.00200309
0.00141557
0.000841983
0.000277867
0.0153447
0.0146039
0.0137353
0.0127862
0.011797
0.0107998
0.00981746
0.00886546
0.00795274
0.00708347
0.00625843
0.00547612
0.00473359
0.00402704
0.00335213
0.0027043
0.00207887
0.00147107
0.000876067
0.000289702
0.0147467
0.0141038
0.0133428
0.0125
0.0116082
0.0106948
0.009781
0.00888205
0.00800808
0.00716504
0.00635568
0.00558045
0.00483814
0.00412642
0.0034422
0.0027819
0.00214163
0.00151727
0.00090455
0.000299617
0.0142508
0.0136823
0.0130042
0.012245
0.0114316
0.0105872
0.00973119
0.00887819
0.00803886
0.00722024
0.00642648
0.00565945
0.0049193
0.00420491
0.00351422
0.00284451
0.00219262
0.001555
0.000927893
0.000307764
0.0138526
0.0133392
0.0127235
0.0120284
0.011276
0.0104867
0.00967763
0.00886292
0.00805319
0.0072561
0.00647671
0.00571792
0.00498089
0.00426547
0.00357045
0.00289382
0.00223303
0.00158504
0.000946547
0.000314294
0.0135423
0.0130697
0.0125003
0.0118532
0.0111472
0.0104002
0.00962793
0.00884361
0.0080578
0.00727849
0.00651132
0.00575991
0.00502617
0.00431067
0.00361285
0.00293128
0.00226389
0.00160808
0.000960907
0.000319338
0.0133172
0.012873
0.012336
0.0117227
0.0110498
0.0103332
0.00958763
0.00882567
0.00805771
0.00729185
0.00653412
0.00578858
0.0050577
0.00434252
0.00364296
0.00295803
0.00228602
0.00162466
0.000971281
0.000323
0.0131731
0.012747
0.0122303
0.0116382
0.0109861
0.0102889
0.00956036
0.00881278
0.00805637
0.0072993
0.00654778
0.0058062
0.0050773
0.00436247
0.00366191
0.00297492
0.00230003
0.00163518
0.00097789
0.000325347
0.0131075
0.0126888
0.0121813
0.0115989
0.0109563
0.0102679
0.00954733
0.00880644
0.00805542
0.00730248
0.00655391
0.0058142
0.00508627
0.00437163
0.00367064
0.00298272
0.00230651
0.00164005
0.000980951
0.000326439
0.0338136
0.0410047
0.0462073
0.0501706
0.0531997
0.0554557
0.0570608
0.0581055
0.0586504
0.0587318
0.0583656
0.0575487
0.0562591
0.0544545
0.0520677
0.0490013
0.0451257
0.0402739
0.0341129
0.0257714
0.0422236
0.0446216
0.0465823
0.0481992
0.0495187
0.0505573
0.0513243
0.0518268
0.0520698
0.0520558
0.0517854
0.0512574
0.0504692
0.0494162
0.0480911
0.0464831
0.0445862
0.0424239
0.0399726
0.036595
0.0369886
0.0385155
0.0399003
0.0411128
0.0421377
0.0429659
0.043591
0.0440089
0.044217
0.0442134
0.0439965
0.043565
0.0429174
0.0420527
0.0409697
0.0396685
0.0381531
0.0364356
0.0345113
0.032275
0.0343387
0.0351658
0.0359099
0.0365592
0.0371049
0.0375401
0.0378596
0.0380592
0.0381358
0.0380874
0.0379127
0.037611
0.0371826
0.0366283
0.0359496
0.0351491
0.0342317
0.0332067
0.0320711
0.0307664
0.0302409
0.030763
0.0312333
0.0316439
0.0319882
0.0322603
0.0324555
0.0325699
0.0326009
0.0325464
0.0324055
0.0321782
0.0318652
0.0314685
0.0309906
0.0304356
0.0298087
0.0291168
0.0283658
0.0275536
0.0275332
0.0278575
0.0281434
0.0283873
0.0285861
0.0287369
0.0288375
0.028886
0.0288809
0.0288216
0.0287074
0.0285386
0.0283157
0.0280398
0.0277126
0.0273362
0.0269137
0.0264494
0.0259451
0.0253899
0.0247691
0.0249813
0.0251661
0.0253214
0.0254451
0.0255357
0.0255917
0.0256119
0.0255956
0.0255422
0.0254516
0.0253239
0.0251598
0.02496
0.0247258
0.0244588
0.0241609
0.0238345
0.023482
0.023104
0.022761
0.0229037
0.0230254
0.023125
0.0232015
0.0232539
0.0232817
0.0232842
0.023261
0.0232119
0.0231368
0.023036
0.0229097
0.0227584
0.022583
0.0223842
0.0221632
0.0219216
0.0216601
0.0213751
0.0209026
0.0210008
0.0210832
0.0211492
0.021198
0.0212292
0.0212424
0.0212372
0.0212134
0.0211709
0.0211097
0.02103
0.020932
0.020816
0.0206826
0.0205322
0.0203656
0.0201837
0.0199873
0.0197764
0.0194712
0.0195414
0.019599
0.0196438
0.0196753
0.0196932
0.0196973
0.0196874
0.0196635
0.0196254
0.0195733
0.0195071
0.019427
0.0193334
0.0192264
0.0191064
0.0189739
0.0188295
0.0186736
0.0185043
0.0181984
0.0182494
0.0182905
0.0183214
0.0183419
0.0183519
0.0183512
0.0183398
0.0183174
0.0182842
0.0182402
0.0181854
0.0181199
0.0180439
0.0179577
0.0178613
0.0177552
0.0176397
0.0175152
0.0173814
0.0171854
0.0172238
0.017254
0.0172759
0.0172894
0.0172943
0.0172906
0.0172782
0.017257
0.0172272
0.0171886
0.0171414
0.0170856
0.0170213
0.0169487
0.016868
0.0167793
0.0166829
0.016579
0.0164667
0.0163089
0.0163383
0.016361
0.0163768
0.0163857
0.0163875
0.0163823
0.01637
0.0163505
0.0163239
0.0162903
0.0162496
0.0162018
0.0161472
0.0160858
0.0160176
0.0159429
0.0158618
0.0157745
0.0156808
0.0156056
0.0156289
0.0156465
0.0156582
0.015664
0.0156638
0.0156576
0.0156454
0.0156272
0.015603
0.0155728
0.0155366
0.0154944
0.0154465
0.0153927
0.0153332
0.0152682
0.0151977
0.0151218
0.0150402
0.0150172
0.0150362
0.0150502
0.015059
0.0150628
0.0150614
0.0150549
0.0150431
0.0150262
0.0150041
0.0149769
0.0149445
0.014907
0.0148645
0.014817
0.0147646
0.0147073
0.0146452
0.0145786
0.0145071
0.0145562
0.0145722
0.0145837
0.0145906
0.014593
0.0145908
0.014584
0.0145726
0.0145567
0.0145361
0.0145109
0.0144812
0.014447
0.0144083
0.0143652
0.0143177
0.0142658
0.0142097
0.0141494
0.0140847
0.0141945
0.0142084
0.0142181
0.0142238
0.0142253
0.0142226
0.0142158
0.0142048
0.0141897
0.0141704
0.014147
0.0141194
0.0140878
0.0140521
0.0140123
0.0139686
0.0139209
0.0138694
0.0138141
0.0137548
0.0139367
0.0139492
0.0139578
0.0139626
0.0139635
0.0139606
0.0139537
0.013943
0.0139284
0.0139099
0.0138876
0.0138615
0.0138315
0.0137977
0.0137602
0.0137189
0.013674
0.0136254
0.0135733
0.0135174
0.0137666
0.0137782
0.0137861
0.0137904
0.013791
0.0137879
0.0137811
0.0137707
0.0137565
0.0137387
0.0137172
0.0136921
0.0136633
0.0136309
0.013595
0.0135556
0.0135126
0.0134662
0.0134165
0.0133633
0.013697
0.0137082
0.0137159
0.0137199
0.0137204
0.0137172
0.0137104
0.0137
0.0136859
0.0136682
0.013647
0.0136221
0.0135937
0.0135618
0.0135263
0.0134873
0.0134448
0.013399
0.0133497
0.0132969
0.0117236
0.0121261
0.0125177
0.0129006
0.0132723
0.0136223
0.0139371
0.0142014
0.0144003
0.0145226
0.0145654
0.0145399
0.0144781
0.0144432
0.0145399
0.0149055
0.0156594
0.0169135
0.0191892
0.0242591
0.0136035
0.0139309
0.0143257
0.0147697
0.0152682
0.0158334
0.0164787
0.0172196
0.018074
0.0190612
0.0202009
0.0215115
0.0230087
0.0247047
0.0266069
0.0287167
0.031034
0.0335744
0.0363766
0.0393877
0.0167762
0.0173222
0.0178828
0.0184718
0.0190934
0.0197498
0.0204445
0.0211818
0.0219662
0.0228028
0.0236971
0.0246555
0.025685
0.0267938
0.0279901
0.0292812
0.030672
0.0321632
0.033744
0.0353759
0.0177603
0.0182873
0.018855
0.0194558
0.0200909
0.0207627
0.0214729
0.0222224
0.0230114
0.0238397
0.0247063
0.025609
0.0265446
0.0275088
0.0284957
0.0294978
0.0305061
0.0315093
0.0324937
0.0334426
0.0184116
0.0188936
0.0193882
0.0198988
0.0204257
0.0209687
0.0215276
0.0221024
0.0226925
0.0232974
0.0239163
0.0245477
0.02519
0.0258408
0.0264967
0.0271538
0.027807
0.02845
0.0290756
0.0296755
0.0183724
0.0187974
0.0192334
0.01968
0.0201367
0.0206027
0.0210773
0.0215595
0.0220479
0.0225409
0.0230367
0.0235332
0.0240279
0.0245181
0.0250007
0.0254724
0.0259295
0.0263682
0.0267844
0.0271741
0.0180203
0.0183727
0.0187285
0.0190881
0.019451
0.0198163
0.0201834
0.0205514
0.0209192
0.0212858
0.0216499
0.0220102
0.0223649
0.0227125
0.023051
0.0233784
0.0236925
0.023991
0.0242715
0.0245317
0.0175075
0.0178071
0.0181068
0.0184074
0.0187082
0.0190085
0.0193075
0.0196044
0.0198983
0.0201882
0.020473
0.0207515
0.0210226
0.0212849
0.0215372
0.021778
0.022006
0.0222197
0.0224177
0.0225986
0.0168817
0.0171276
0.017372
0.017615
0.0178563
0.018095
0.0183308
0.0185629
0.0187908
0.0190136
0.0192307
0.0194412
0.0196445
0.0198395
0.0200256
0.0202017
0.020367
0.0205206
0.0206617
0.0207892
0.0162616
0.01647
0.0166754
0.0168783
0.0170785
0.0172754
0.0174686
0.0176574
0.0178415
0.0180203
0.0181932
0.0183597
0.0185191
0.0186709
0.0188146
0.0189494
0.0190748
0.0191902
0.0192952
0.019389
0.01564
0.015814
0.0159848
0.0161527
0.0163173
0.0164783
0.0166353
0.0167879
0.0169358
0.0170786
0.0172159
0.0173472
0.0174723
0.0175906
0.0177019
0.0178056
0.0179014
0.017989
0.0180679
0.0181378
0.0150748
0.0152243
0.0153703
0.0155131
0.0156525
0.0157881
0.0159198
0.0160472
0.0161701
0.016288
0.0164009
0.0165083
0.0166101
0.0167058
0.0167953
0.0168782
0.0169542
0.0170232
0.0170849
0.017139
0.014554
0.0146824
0.0148074
0.0149293
0.0150477
0.0151625
0.0152734
0.0153803
0.015483
0.0155812
0.0156747
0.0157633
0.0158468
0.0159251
0.0159978
0.0160649
0.0161261
0.0161813
0.0162302
0.0162728
0.0141024
0.0142156
0.0143254
0.0144319
0.0145352
0.0146349
0.014731
0.0148233
0.0149116
0.0149958
0.0150756
0.015151
0.0152218
0.0152878
0.0153489
0.015405
0.015456
0.0155016
0.0155418
0.0155765
0.0137112
0.0138117
0.013909
0.0140033
0.0140944
0.0141821
0.0142663
0.014347
0.014424
0.0144971
0.0145663
0.0146314
0.0146923
0.014749
0.0148012
0.014849
0.0148922
0.0149307
0.0149644
0.0149933
0.01339
0.0134816
0.0135699
0.0136552
0.0137375
0.0138166
0.0138924
0.0139648
0.0140337
0.014099
0.0141606
0.0142185
0.0142725
0.0143225
0.0143685
0.0144105
0.0144482
0.0144817
0.014511
0.0145358
0.0131334
0.0132178
0.0132992
0.0133778
0.0134533
0.0135259
0.0135952
0.0136613
0.0137241
0.0137836
0.0138395
0.013892
0.0139408
0.013986
0.0140274
0.014065
0.0140988
0.0141287
0.0141546
0.0141766
0.0129451
0.0130249
0.0131017
0.0131757
0.0132469
0.013315
0.0133801
0.013442
0.0135008
0.0135563
0.0136086
0.0136574
0.0137028
0.0137448
0.0137831
0.013818
0.0138491
0.0138766
0.0139004
0.0139205
0.0128217
0.012898
0.0129716
0.0130425
0.0131105
0.0131756
0.0132378
0.013297
0.0133531
0.013406
0.0134557
0.0135022
0.0135454
0.0135852
0.0136216
0.0136546
0.0136841
0.0137101
0.0137325
0.0137513
0.0127683
0.0128438
0.0129164
0.0129863
0.0130533
0.0131175
0.0131786
0.0132368
0.0132919
0.0133439
0.0133927
0.0134383
0.0134807
0.0135197
0.0135554
0.0135877
0.0136165
0.0136419
0.0136638
0.0136821
0.00444698
0.00696208
0.00821566
0.00903256
0.00958482
0.00992121
0.0100978
0.0101645
0.0101574
0.0101019
0.0100171
0.00991702
0.0098124
0.00971132
0.00961998
0.00954327
0.00948461
0.00944395
0.00942769
0.00943871
0.00599233
0.00703036
0.00760166
0.0080186
0.00833708
0.00856433
0.0087164
0.00881115
0.00886288
0.00888265
0.00887925
0.00885966
0.00882931
0.00879234
0.00875168
0.00870922
0.00866679
0.00862768
0.00858729
0.00854258
0.00640291
0.00700695
0.00745549
0.00780442
0.00807288
0.00826965
0.00840522
0.00849078
0.00853657
0.00855152
0.00854323
0.00851808
0.00848128
0.00843697
0.00838831
0.00833772
0.00828707
0.00823702
0.00818525
0.00813086
0.00659771
0.00692277
0.00718133
0.00738767
0.00754821
0.00766704
0.0077491
0.00779986
0.00782474
0.00782877
0.00781652
0.00779198
0.00775861
0.00771925
0.00767621
0.00763137
0.00758636
0.00754182
0.00749544
0.00744538
0.00635274
0.00655344
0.0067253
0.00686684
0.00697927
0.00706447
0.00712474
0.00716281
0.00718167
0.00718435
0.00717381
0.00715283
0.00712393
0.00708932
0.00705088
0.00701026
0.00696889
0.00692742
0.00688393
0.00683743
0.00597441
0.00610546
0.00621892
0.00631128
0.00638312
0.00643582
0.0064709
0.0064901
0.00649539
0.00648883
0.00647249
0.00644836
0.00641832
0.00638403
0.00634695
0.00630841
0.00626961
0.00623108
0.00619094
0.006148
0.00545257
0.00554161
0.00562107
0.00568486
0.00573309
0.00576693
0.00578743
0.00579576
0.00579328
0.00578146
0.00576185
0.00573597
0.00570527
0.00567109
0.0056346
0.00559693
0.00555911
0.00552156
0.00548243
0.00544062
0.00487816
0.00493809
0.00499246
0.00503426
0.00506349
0.00508124
0.00508835
0.00508568
0.00507431
0.00505544
0.00503032
0.00500021
0.00496634
0.00492985
0.00489176
0.00485304
0.00481464
0.0047769
0.00473797
0.00469671
0.00424965
0.00428555
0.00431957
0.0043434
0.00435691
0.00436113
0.0043567
0.00434429
0.00432474
0.00429905
0.00426827
0.00423348
0.00419576
0.00415611
0.00411544
0.00407465
0.00403462
0.00399566
0.00395585
0.00391405
0.00359575
0.0036092
0.0036232
0.00362887
0.00362606
0.00361573
0.00359842
0.00357463
0.00354509
0.00351062
0.00347216
0.00343068
0.00338712
0.00334243
0.00329744
0.003253
0.00320996
0.00316861
0.00312697
0.00308387
0.00292161
0.00291059
0.00290194
0.00288668
0.00286474
0.00283705
0.00280406
0.0027662
0.00272405
0.00267833
0.00262985
0.00257944
0.00252796
0.00247625
0.00242511
0.00237533
0.00232774
0.0022826
0.00223786
0.0021923
0.00224504
0.00220405
0.002166
0.00212306
0.00207534
0.0020238
0.00196892
0.00191109
0.00185084
0.00178878
0.00172558
0.00166198
0.00159872
0.00153654
0.00147616
0.00141834
0.00136392
0.00131314
0.00126378
0.00121445
0.00159128
0.00151232
0.00143501
0.00135454
0.00127146
0.00118681
0.00110121
0.00101518
0.000929244
0.000843938
0.0007598
0.000677379
0.000597243
0.000519967
0.000446134
0.000376408
0.000311583
0.000251839
0.000194753
0.000138979
0.000988836
0.000856924
0.000722619
0.000586526
0.000449869
0.000313857
0.00017959
4.80217e-05
-8.00479e-05
-0.000203961
-0.000323175
-0.000437227
-0.000545697
-0.00064817
-0.000744205
-0.000833219
-0.000914395
-0.000987525
-0.00105545
-0.00112027
0.000524167
0.000328502
0.000122186
-8.58948e-05
-0.000293485
-0.000498962
-0.000700304
-0.000895611
-0.00108334
-0.00126234
-0.00143184
-0.0015914
-0.00174084
-0.00188015
-0.00200932
-0.00212819
-0.00223622
-0.00233354
-0.00242349
-0.00250718
0.000241171
-4.95427e-05
-0.000363222
-0.000682505
-0.00100461
-0.00132733
-0.0016471
-0.00196013
-0.00226293
-0.0025525
-0.00282642
-0.00308291
-0.00332088
-0.00353979
-0.00373938
-0.00391928
-0.00407847
-0.00421638
-0.00433725
-0.00444581
0.00044973
8.98819e-05
-0.000312347
-0.000730854
-0.00116199
-0.00160306
-0.00204882
-0.00249305
-0.00292936
-0.00335156
-0.00375416
-0.00413285
-0.00448484
-0.00480907
-0.00510605
-0.0053771
-0.00562357
-0.00584793
-0.00605709
-0.00624872
0.000986206
0.00047898
-8.82907e-05
-0.000694143
-0.00133928
-0.00202324
-0.00274172
-0.0034879
-0.00425293
-0.00502604
-0.00579499
-0.0065468
-0.00726872
-0.00794939
-0.0085798
-0.0091533
-0.00966418
-0.0101091
-0.0104978
-0.0108416
0.0032215
0.00287726
0.00244808
0.00195522
0.00139825
0.000773624
8.0579e-05
-0.000678767
-0.00149935
-0.00237279
-0.00328737
-0.00422843
-0.00517964
-0.00612507
-0.00705109
-0.00794647
-0.00880504
-0.00965237
-0.0105977
-0.0117109
0.00486948
0.00427724
0.00362306
0.0028708
0.00199973
0.000991726
-0.000173204
-0.00151597
-0.00305708
-0.00481545
-0.00680693
-0.00904273
-0.0115281
-0.0142608
-0.0172279
-0.0203973
-0.0237231
-0.027217
-0.0310639
-0.0351788
0.000215105
0.000659202
0.00110754
0.00156032
0.002019
0.00248458
0.00295794
0.00343994
0.00393138
0.00443298
0.00494542
0.00546931
0.00600528
0.00655414
0.00711725
0.00769738
0.00830118
0.00894613
0.00967442
0.0106209
0.000230827
0.000704996
0.00118385
0.00166798
0.00215921
0.00265911
0.00316926
0.00369142
0.00422757
0.00478005
0.00535174
0.00594628
0.00656858
0.00722533
0.00792578
0.00868221
0.00951106
0.0104384
0.0115186
0.012813
0.000245772
0.000748499
0.00125627
0.00177004
0.00229199
0.00282417
0.00336877
0.00392833
0.00450584
0.00510495
0.00573028
0.00638782
0.00708568
0.00783509
0.00865219
0.00956101
0.0105987
0.0118213
0.0133033
0.0151678
0.000259771
0.000789216
0.00132395
0.00186525
0.00241558
0.00297739
0.00355334
0.00414656
0.00476078
0.00540057
0.00607172
0.00678166
0.00754021
0.00836044
0.00926012
0.0102636
0.011405
0.0127336
0.0143288
0.0163093
0.000272684
0.000826729
0.00138618
0.00195257
0.00252858
0.0031169
0.00372054
0.00434298
0.00498839
0.00566185
0.00636972
0.00712007
0.00792339
0.00879347
0.00974874
0.0108139
0.0120218
0.0134158
0.0150511
0.0169962
0.000284402
0.000860728
0.00144244
0.00203127
0.00262998
0.00324142
0.00386874
0.00451559
0.00518627
0.00588596
0.00662103
0.00739938
0.00823091
0.00912816
0.0101069
0.0111872
0.0123942
0.0137603
0.0153261
0.017131
0.000294859
0.00089102
0.00149241
0.0021009
0.00271923
0.00335028
0.00399719
0.00466356
0.00535359
0.00607223
0.00682544
0.00762044
0.00846606
0.00937306
0.0103545
0.0114258
0.0126052
0.0139127
0.0153664
0.0169715
0.00030403
0.000917537
0.00153601
0.00216135
0.00279623
0.00344341
0.00410592
0.00478713
0.00549091
0.00622176
0.00698488
0.00778641
0.00863352
0.00953451
0.0104988
0.0115369
0.0126598
0.0138781
0.0151968
0.016609
0.000311927
0.000940327
0.00157333
0.00221282
0.00286128
0.00352131
0.00419568
0.00488745
0.00560001
0.00633719
0.00710335
0.00790336
0.00874268
0.00962729
0.0105634
0.0115572
0.0126135
0.0137347
0.0149156
0.0161387
0.000318603
0.000959545
0.00160466
0.00225574
0.00291505
0.00358493
0.00426783
0.00496639
0.00568346
0.00642214
0.00718577
0.00797795
0.00880241
0.00966284
0.0105626
0.011504
0.0124877
0.0135109
0.0145638
0.0156271
0.000324137
0.000975434
0.00163043
0.00229077
0.00295847
0.00363556
0.00432413
0.00502636
0.0057445
0.00648091
0.00723797
0.00801804
0.00882333
0.0096556
0.0105158
0.0114036
0.0123162
0.0132474
0.0141849
0.0151083
0.000328632
0.000988299
0.00165117
0.00231872
0.00299267
0.00367474
0.00436662
0.00507003
0.00578663
0.00651805
0.00726577
0.00803104
0.0088147
0.00961694
0.0104369
0.0112721
0.012118
0.0129665
0.0138051
0.014615
0.000332205
0.000998492
0.00166749
0.00234048
0.00301889
0.00370412
0.00439749
0.00510023
0.00581348
0.00653818
0.00727502
0.0080243
0.00878578
0.00955837
0.0103399
0.0111265
0.0119123
0.0126887
0.013443
0.0141583
0.000334982
0.00100638
0.00168002
0.00235698
0.00303842
0.00372541
0.00441892
0.00511975
0.00582854
0.00654565
0.00727107
0.00800432
0.00874428
0.00948893
0.0102351
0.0109782
0.0117117
0.0124269
0.013112
0.0137523
0.000337088
0.00101234
0.0016894
0.00236916
0.00305251
0.00374025
0.004433
0.00513122
0.00583509
0.00654446
0.00725879
0.00797695
0.00869715
0.0094167
0.0101318
0.0108374
0.0115266
0.012191
0.0128197
0.0133996
0.000338642
0.00101671
0.00169622
0.00237787
0.00306233
0.00375015
0.00444168
0.00513703
0.00583604
0.00653816
0.00724237
0.00794709
0.00865
0.00934796
0.0100368
0.0107111
0.0113641
0.0119878
0.0125721
0.0131057
0.000339753
0.00101982
0.00170101
0.00238389
0.00306893
0.00375647
0.00444664
0.00513929
0.00583396
0.0065298
0.00722544
0.00791894
0.00860763
0.00928804
0.00995573
0.0106052
0.0112299
0.0118219
0.0123722
0.0128706
0.000340511
0.00102193
0.00170423
0.00238786
0.00307317
0.00376032
0.00444928
0.00513971
0.00583093
0.00652187
0.0072109
0.00789584
0.00857379
0.00924105
0.00989305
0.0105243
0.0111282
0.0116973
0.0122232
0.0126966
0.000340977
0.00102321
0.00170617
0.00239024
0.00307566
0.0037625
0.0044506
0.00513951
0.00582843
0.00651611
0.0072008
0.00788013
0.00855108
0.00920981
0.0098517
0.0104712
0.0110618
0.0116164
0.0121267
0.0125839
0.000341187
0.00102379
0.00170705
0.00239131
0.00307676
0.00376344
0.00445112
0.00513932
0.00582714
0.00651328
0.00719592
0.00787263
0.00854029
0.00919505
0.00983223
0.0104463
0.0110308
0.0115787
0.0120821
0.0125327
-0.000161097
-0.000414868
-0.0006871
-0.000969313
-0.00126256
-0.00156785
-0.0018875
-0.0022233
-0.00257742
-0.00295217
-0.00335023
-0.0037743
-0.00422613
-0.00470566
-0.00520745
-0.00571082
-0.00609954
-0.00598311
-0.00492551
-0.00904527
-0.000129617
-0.000355605
-0.000582292
-0.000818683
-0.00106193
-0.00131276
-0.00157113
-0.00183702
-0.00210953
-0.00238689
-0.00266565
-0.00293946
-0.00319749
-0.00342211
-0.00358327
-0.00360455
-0.00329597
-0.00231698
-0.000735218
0.000764544
-0.000109303
-0.000291352
-0.000476707
-0.00066691
-0.000860708
-0.00105759
-0.00125627
-0.00145478
-0.00164991
-0.00183656
-0.00200669
-0.00214762
-0.00223991
-0.00225332
-0.00213609
-0.00178785
-0.00104209
0.000235039
0.00195452
0.00414485
-8.92551e-05
-0.000228307
-0.000371273
-0.00051639
-0.000662073
-0.000807027
-0.000949055
-0.00108486
-0.00120959
-0.00131602
-0.00139351
-0.00142652
-0.00139264
-0.00125845
-0.000969498
-0.000435509
0.000458904
0.00177641
0.00347879
0.0054485
-6.85164e-05
-0.000166797
-0.000267648
-0.000368982
-0.000468512
-0.000564417
-0.000653894
-0.000732893
-0.000795652
-0.000833952
-0.000836138
-0.000785858
-0.000660225
-0.000426339
-3.54964e-05
0.000578978
0.00148214
0.00269436
0.0041611
0.00568682
-4.80867e-05
-0.00010684
-0.000166901
-0.000226131
-0.000281944
-0.000332203
-0.000373845
-0.000402589
-0.000412508
-0.000395436
-0.000340204
-0.000231715
-4.9517e-05
0.000234574
0.000659107
0.00127064
0.00210707
0.00316859
0.00438294
0.00554791
-2.81556e-05
-4.86891e-05
-6.95243e-05
-8.86083e-05
-0.000103311
-0.000111456
-0.000110035
-9.49597e-05
-6.07133e-05
1.12632e-07
9.73633e-05
0.000243984
0.000456928
0.000758238
0.00117517
0.00173628
0.0024598
0.00333531
0.00429641
0.00517912
-8.87907e-06
7.5175e-06
2.42984e-05
4.33571e-05
6.71795e-05
9.77582e-05
0.000137768
0.000190753
0.000261373
0.000355715
0.000481637
0.000649177
0.000871043
0.00116295
0.00154281
0.0020272
0.0026235
0.0033174
0.00405403
0.00470794
9.78285e-06
6.18306e-05
0.000114722
0.000170068
0.000230086
0.000296411
0.000371188
0.000457181
0.000557924
0.000677904
0.000822744
0.000999394
0.00121628
0.00148311
0.00180966
0.00220323
0.00266457
0.00318109
0.00371334
0.00416722
2.78784e-05
0.000114451
0.000202141
0.000292197
0.000386475
0.000486148
0.000592694
0.000707952
0.000834168
0.000974063
0.00113089
0.00130847
0.00151114
0.00174339
0.00200868
0.00230787
0.00263794
0.00298854
0.00333045
0.00359212
4.55167e-05
0.0001657
0.000287152
0.000410708
0.000537818
0.000669139
0.000805435
0.00094757
0.00109647
0.00125309
0.00141838
0.00159315
0.00177795
0.00197252
0.00217485
0.00238064
0.00258427
0.00277699
0.002934
0.00299915
6.28165e-05
0.000215954
0.000370443
0.000526695
0.00068575
0.000847753
0.00101276
0.0011807
0.0013512
0.00152357
0.00169654
0.00186817
0.00203553
0.00219415
0.00233725
0.00245603
0.00254195
0.00258463
0.00255633
0.00241224
7.99077e-05
0.000265605
0.000452722
0.000641272
0.000831923
0.00102436
0.00121802
0.00141197
0.00160472
0.00179406
0.0019768
0.00214848
0.002303
0.00243198
0.00252411
0.00256602
0.00254494
0.00244509
0.00222906
0.00185935
9.6905e-05
0.000315002
0.00053462
0.000755429
0.000977805
0.00120107
0.00142416
0.00164545
0.00186254
0.00207197
0.00226892
0.00244678
0.00259667
0.00270664
0.00276111
0.00274168
0.00262942
0.00239877
0.00199617
0.00138196
0.000113897
0.000364413
0.000616616
0.000869926
0.00112453
0.00137953
0.00163353
0.00188444
0.00212924
0.00236357
0.00258139
0.00277439
0.00293137
0.00303725
0.0030724
0.00301306
0.00283221
0.0024905
0.00191309
0.00105229
0.000130934
0.000413984
0.000698976
0.000985189
0.00127274
0.00156069
0.00184751
0.00213097
0.00240773
0.00267302
0.00292014
0.00313973
0.00331895
0.0034403
0.00348058
0.0034106
0.00319396
0.00277535
0.00205706
0.000970065
0.000148014
0.000463715
0.000781707
0.00110125
0.00142253
0.00174472
0.00206644
0.00238557
0.00269894
0.00300193
0.00328788
0.00354738
0.0037671
0.00392836
0.00400557
0.00396473
0.00376014
0.00332165
0.00253289
0.00130272
0.00016509
0.000513456
0.000864546
0.00121772
0.00157336
0.00193093
0.0022894
0.00264711
0.00300145
0.00334856
0.00368275
0.00399576
0.00427557
0.00450474
0.00465812
0.0046997
0.00457697
0.00420903
0.00347006
0.00219214
0.000182061
0.00056291
0.000946974
0.00133383
0.00172414
0.00211782
0.00251437
0.00291283
0.00331155
0.00370794
0.00409805
0.00447602
0.00483316
0.0051565
0.00542654
0.00561284
0.00566519
0.0054979
0.00497636
0.00398401
0.000198789
0.000611659
0.00102826
0.00144846
0.00187331
0.00230323
0.00273839
0.00317872
0.00362373
0.00407245
0.00452317
0.00497318
0.00541838
0.00585268
0.00626704
0.0066467
0.00696347
0.00715851
0.0071086
0.00647665
-0.000264847
-0.00063109
-0.00109944
-0.00154159
-0.00203161
-0.00254088
-0.00309289
-0.00368802
-0.00433988
-0.00505971
-0.00586258
-0.00677055
-0.00779771
-0.0089912
-0.0103122
-0.0119009
-0.013444
-0.0155364
-0.0168813
-0.019325
-0.000265618
-0.000620163
-0.00108532
-0.00151951
-0.00200334
-0.00250485
-0.003049
-0.00363541
-0.00427799
-0.00498799
-0.00578085
-0.00667981
-0.00770017
-0.0088947
-0.0102263
-0.0118597
-0.0134627
-0.0156898
-0.0170809
-0.0195895
-0.000265598
-0.000609439
-0.00107064
-0.00149702
-0.00197429
-0.00246791
-0.0030039
-0.00358127
-0.00421411
-0.00491369
-0.00569576
-0.00658452
-0.00759659
-0.00878951
-0.0101291
-0.011801
-0.0134601
-0.0158137
-0.0172519
-0.0197766
-0.000265021
-0.000598809
-0.00105546
-0.0014741
-0.00194448
-0.00243006
-0.00295756
-0.00352556
-0.00414822
-0.00483677
-0.00560724
-0.00648458
-0.00748678
-0.00867531
-0.0100197
-0.0117234
-0.0134324
-0.0159056
-0.0174083
-0.0199876
-0.000263968
-0.000588226
-0.0010398
-0.00145075
-0.00191393
-0.0023913
-0.00291001
-0.00346832
-0.00408034
-0.00475726
-0.00551529
-0.00637994
-0.00737053
-0.0085517
-0.00989722
-0.0116259
-0.0133782
-0.0159634
-0.0175423
-0.0202122
-0.000262506
-0.000577658
-0.00102367
-0.00142698
-0.00188266
-0.00235167
-0.00286129
-0.00340957
-0.0040105
-0.00467519
-0.00541993
-0.00627057
-0.00724772
-0.00841836
-0.00976106
-0.0115071
-0.0132956
-0.0159852
-0.0176478
-0.0204338
-0.000260697
-0.000567077
-0.0010071
-0.00140279
-0.00185068
-0.00231117
-0.00281142
-0.00334935
-0.00393875
-0.00459058
-0.00532115
-0.00615646
-0.00711823
-0.00827503
-0.00961056
-0.011366
-0.0131828
-0.0159686
-0.0177199
-0.0206451
-0.000258593
-0.000556462
-0.000990097
-0.0013782
-0.00181802
-0.00226984
-0.00276043
-0.0032877
-0.00386512
-0.00450348
-0.00521902
-0.00603762
-0.00698201
-0.00812153
-0.0094452
-0.0112016
-0.0130379
-0.015911
-0.0177529
-0.020841
-0.000256241
-0.000545798
-0.000972677
-0.00135321
-0.00178471
-0.0022277
-0.00270836
-0.00322466
-0.00378966
-0.00441396
-0.00511358
-0.0059141
-0.00683904
-0.00795773
-0.00926457
-0.011013
-0.012859
-0.0158095
-0.0177396
-0.021016
-0.000253684
-0.00053507
-0.000954853
-0.00132783
-0.00175076
-0.00218477
-0.00265525
-0.00316026
-0.00371243
-0.00432207
-0.0050049
-0.00578599
-0.00668939
-0.0077836
-0.00906839
-0.0107992
-0.0126445
-0.0156608
-0.0176709
-0.0211647
-0.000250963
-0.000524272
-0.000936635
-0.00130209
-0.00171621
-0.00214108
-0.00260113
-0.00309457
-0.0036335
-0.0042279
-0.00489309
-0.0056534
-0.00653313
-0.00759922
-0.00885651
-0.0105597
-0.0123927
-0.0154612
-0.017536
-0.0212827
-0.000248118
-0.000513395
-0.000918032
-0.00127599
-0.00168107
-0.00209667
-0.00254605
-0.00302764
-0.00355293
-0.00413155
-0.00477826
-0.00551648
-0.00637045
-0.00740472
-0.00862891
-0.0102938
-0.0121024
-0.0152071
-0.017322
-0.0213668
-0.000245177
-0.000502444
-0.000899051
-0.00124956
-0.00164537
-0.00205156
-0.00249005
-0.00295952
-0.00347081
-0.0040331
-0.00466053
-0.00537539
-0.00620153
-0.00720037
-0.00838569
-0.0100012
-0.0117722
-0.0148936
-0.0170141
-0.0214166
-0.000242135
-0.000491434
-0.000879695
-0.0012228
-0.00160914
-0.00200578
-0.00243318
-0.00289027
-0.0033872
-0.00393266
-0.00454005
-0.00523033
-0.00602661
-0.00698645
-0.0081271
-0.00968156
-0.0114011
-0.0145148
-0.0165947
-0.0214325
-0.000239001
-0.000480377
-0.000859972
-0.00119574
-0.0015724
-0.00195937
-0.00237548
-0.00281996
-0.00330219
-0.00383035
-0.00441696
-0.00508152
-0.00584602
-0.00676344
-0.00785361
-0.00933514
-0.0109886
-0.0140642
-0.0160438