x,y,z,U_0,U_1,U_2
0,0,0,0.3,-0.000844191,0
0,0.1,0,0.3,-0.000506514,0
0,0.2,0,0.3,-0.000168838,0
0,0.3,0,0.3,0,0
0,0.4,0,0.3,0,0
0,0.5,0,0.3,0,0
0,0.6,0,0.3,0,0
0,0.7,0,0.3,0,0
0,0.8,0,0.3,0,0
0,0.9,0,0.3,0,0
0,1,0,0.3,0,0
0,1.1,0,0.3,0,0
0,1.2,0,0.3,0,0
0,1.3,0,0.3,0,0
0,1.4,0,0.3,0,0
0,1.5,0,0.3,0,0
0,1.6,0,0.3,0,0
0,1.7,0,0.3,0,0
0,1.8,0,0.3,0,0
0,1.9,0,0.3,0,0
0,2,0,0.3,0,0
0,2.1,0,0.3,0,0
0,2.2,0,0.3,0,0
0,2.3,0,0.3,0,0
0,2.4,0,0.3,0,0
0,2.5,0,0.3,0,0
0,2.6,0,0.3,0,0
0,2.7,0,0.3,0,0
0,2.8,0,0.3,0,0
0,2.9,0,0.3,0,0
0,3,0,0.3,0,0
0,3.1,0,0.3,0,0
0,3.2,0,0.3,0,0
0,3.3,0,0.3,0,0
0,3.4,0,0.3,0,0
0,3.5,0,0.3,5.72272e-19,0
0,3.6,0,0.3,0,0
0,3.7,0,0.3,0,0
0,3.8,0,0.3,0,0
0,3.9,0,0.3,0,0
0,4,0,0.3,4.93052e-19,0
0,4.1,0,0.3,0,0
0,4.2,0,0.3,0,0
0,4.3,0,0.3,0,0
0,4.4,0,0.3,0,0
0,4.5,0,0.3,0,0
0,4.6,0,0.3,0,0
0,4.7,0,0.3,0,0
0,4.8,0,0.3,0,0
0,4.9,0,0.3,0,0
0,5,0,0.3,0,0
0,5.1,0,0.3,0,0
0,5.2,0,0.3,0,0
0,5.3,0,0.3,0,0
0,5.4,0,0.3,0,0
0,5.5,0,0.3,0,0
0,5.6,0,0.3,1.38064e-19,0
0,5.7,0,0.3,0,0
0,5.8,0,0.3,0,0
0,5.9,0,0.3,0,0
0,6,0,0.3,0,0
0,6.1,0,0.3,0,0
0,6.2,0,0.3,-1.68983e-20,0
0,6.3,0,0.3,0,0
0,6.4,0,0.3,-6.82032e-20,0
0,6.5,0,0.3,0,0
0,6.6,0,0.3,-1.18669e-19,0
0,6.7,0,0.3,0,0
0,6.8,0,0.3,0,0
0,6.9,0,0.3,0,0
0,7,0,0.3,0,0
0,7.1,0,0.3,0,0
0,7.2,0,0.3,0,0
0,7.3,0,0.3,0,0
0,7.4,0,0.3,0,0
0,7.5,0,0.3,0,0
0,7.6,0,0.3,0,0
0,7.7,0,0.3,0,0
0,7.8,0,0.3,0,0
0,7.9,0,0.3,0,0
0,8,0,0.3,0,0
0,8.1,0,0.3,0,0
0,8.2,0,0.3,0,0
0,8.3,0,0.3,0,0
0,8.4,0,0.3,0,0
0,8.5,0,0.3,0,0
0,8.6,0,0.3,0,0
0,8.7,0,0.3,0,0
0,8.8,0,0.3,0,0
0,8.9,0,0.3,0,0
0,9,0,0.3,0,0
0,9.1,0,0.3,0,0
0,9.2,0,0.3,0,0
0,9.3,0,0.3,0,0
0,9.4,0,0.3,0,0
0,9.5,0,0.3,0,0
0,9.6,0,0.3,0,0
0,9.7,0,0.3,0,0
0,9.8,0,0.3,0,0
0,9.9,0,0.3,0,0
0,10,0,0.3,0,0
0,10.1,0,0.3,0,0
0,10.2,0,0.3,0,0
0,10.3,0,0.3,0,0
0,10.4,0,0.3,0,0
0,10.5,0,0.3,0,0
0,10.6,0,0.3,0,0
0,10.7,0,0.3,0,0
0,10.8,0,0.3,0,0
0,10.9,0,0.3,0,0
0,11,0,0.3,0,0
0,11.1,0,0.3,0,0
0,11.2,0,0.3,0,0
0,11.3,0,0.3,0,0
0,11.4,0,0.3,0,0
0,11.5,0,0.3,0,0
0,11.6,0,0.3,0,0
0,11.7,0,0.3,0,0
0,11.8,0,0.3,0,0
0,11.9,0,0.3,0,0
0,12,0,0.3,0,0
0,12.1,0,0.3,0,0
0,12.2,0,0.3,0,0
0,12.3,0,0.3,0,0
0,12.4,0,0.3,0,0
0,12.5,0,0.3,0.000224433,0
0,12.6,0,0.3,0.000488472,0
0,12.7,0,0.3,0.000752511,0
0.1,0,0,0.299999,-0.0015823,0
0.1,0.1,0,0.3,-0.00124354,0
0.1,0.2,0,0.3,-0.000978311,0
0.1,0.3,0,0.299999,-0.000977151,0
0.1,0.4,0,0.299999,-0.000976566,0
0.1,0.5,0,0.299998,-0.000976126,0
0.1,0.6,0,0.299999,-0.000973183,0
0.1,0.7,0,0.299999,-0.000972848,0
0.1,0.8,0,0.299999,-0.000969192,0
0.1,0.9,0,0.299999,-0.00096796,0
0.1,1,0,0.299995,-0.000966187,0
0.1,1.1,0,0.299999,-0.000960726,0
0.1,1.2,0,0.299997,-0.00095999,0
0.1,1.3,0,0.299997,-0.000953338,0
0.1,1.4,0,0.299999,-0.000951223,0
0.1,1.5,0,0.299992,-0.000948038,0
0.1,1.6,0,0.299998,-0.00093916,0
0.1,1.7,0,0.299996,-0.000937954,0
0.1,1.8,0,0.299995,-0.000927494,0
0.1,1.9,0,0.299998,-0.000924217,0
0.1,2,0,0.299987,-0.000919194,0
0.1,2.1,0,0.299998,-0.000906046,0
0.1,2.2,0,0.299994,-0.000904167,0
0.1,2.3,0,0.299994,-0.000888927,0
0.1,2.4,0,0.299998,-0.000884274,0
0.1,2.5,0,0.299981,-0.000876477,0
0.1,2.6,0,0.299998,-0.000858537,0
0.1,2.7,0,0.299992,-0.00085563,0
0.1,2.8,0,0.299993,-0.000834562,0
0.1,2.9,0,0.299999,-0.00082844,0
0.1,3,0,0.299974,-0.000816497,0
0.1,3.1,0,0.3,-0.000793583,0
0.1,3.2,0,0.299991,-0.000789235,0
0.1,3.3,0,0.299991,-0.000761251,0
0.1,3.4,0,0.300001,-0.000753606,0
0.1,3.5,0,0.299966,-0.000736366,0
0.1,3.6,0,0.300002,-0.000708206,0
0.1,3.7,0,0.29999,-0.000702193,0
0.1,3.8,0,0.29999,-0.000666521,0
0.1,3.9,0,0.300002,-0.000657246,0
0.1,4,0,0.299957,-0.000634431,0
0.1,4.1,0,0.300002,-0.000600777,0
0.1,4.2,0,0.299987,-0.000593114,0
0.1,4.3,0,0.299986,-0.000549896,0
0.1,4.4,0,0.300001,-0.000539037,0
0.1,4.5,0,0.299949,-0.000510784,0
0.1,4.6,0,0.299999,-0.000472482,0
0.1,4.7,0,0.299983,-0.000463191,0
0.1,4.8,0,0.299982,-0.000413653,0
0.1,4.9,0,0.299997,-0.000401714,0
0.1,5,0,0.299944,-0.000371648,0
0.1,5.1,0,0.299995,-0.000334648,0
0.1,5.2,0,0.299942,-0.000306496,0
0.1,5.3,0,0.299994,-0.000272426,0
0.1,5.4,0,0.29994,-0.000242827,0
0.1,5.5,0,0.299993,-0.000208562,0
0.1,5.6,0,0.299939,-0.000177653,0
0.1,5.7,0,0.299993,-0.000143573,0
0.1,5.8,0,0.299938,-0.000111494,0
0.1,5.9,0,0.299993,-7.78931e-05,0
0.1,6,0,0.299938,-4.48524e-05,0
0.1,6.1,0,0.299993,-1.19889e-05,0
0.1,6.2,0,0.299939,2.17438e-05,0
0.1,6.3,0,0.299993,5.36258e-05,0
0.1,6.4,0,0.299939,8.776e-05,0
0.1,6.5,0,0.299994,0.00011847,0
0.1,6.6,0,0.29994,0.000152696,0
0.1,6.7,0,0.299994,0.000182155,0
0.1,6.8,0,0.299942,0.00021603,0
0.1,6.9,0,0.299995,0.000244116,0
0.1,7,0,0.299944,0.000283046,0
0.1,7.1,0,0.299997,0.000315542,0
0.1,7.2,0,0.299997,0.000315542,0
0.1,7.3,0,0.299956,0.000365908,0
0.1,7.4,0,0.299999,0.000394521,0
0.1,7.5,0,0.299992,0.000400378,0
0.1,7.6,0,0.299969,0.000447851,0
0.1,7.7,0,0.300001,0.000467734,0
0.1,7.8,0,0.299986,0.000480313,0
0.1,7.9,0,0.299981,0.000521843,0
0.1,8,0,0.300002,0.000534271,0
0.1,8.1,0,0.299981,0.000552252,0
0.1,8.2,0,0.29999,0.000587296,0
0.1,8.3,0,0.300001,0.000593611,0
0.1,8.4,0,0.299976,0.000615643,0
0.1,8.5,0,0.299998,0.000644021,0
0.1,8.6,0,0.300001,0.000645617,0
0.1,8.7,0,0.299974,0.000670414,0
0.1,8.8,0,0.299999,0.00069048,0
0.1,8.9,0,0.299999,0.00069048,0
0.1,9,0,0.299976,0.0007161,0
0.1,9.1,0,0.299999,0.000728611,0
0.1,9.2,0,0.299999,0.000728987,0
0.1,9.3,0,0.299984,0.000752587,0
0.1,9.4,0,0.299998,0.000760543,0
0.1,9.5,0,0.299995,0.000764183,0
0.1,9.6,0,0.29999,0.000782139,0
0.1,9.7,0,0.299998,0.000786857,0
0.1,9.8,0,0.299994,0.00079258,0
0.1,9.9,0,0.299994,0.000805646,0
0.1,10,0,0.299998,0.000808137,0
0.1,10.1,0,0.299993,0.000814897,0
0.1,10.2,0,0.299997,0.000823994,0
0.1,10.3,0,0.299998,0.000825006,0
0.1,10.4,0,0.299994,0.000831951,0
0.1,10.5,0,0.299999,0.00083799,0
0.1,10.6,0,0.299999,0.000838057,0
0.1,10.7,0,0.299994,0.000844586,0
0.1,10.8,0,0.299999,0.000847914,0
0.1,10.9,0,0.299999,0.000847914,0
0.1,11,0,0.299996,0.000853281,0
0.1,11.1,0,0.299999,0.000855143,0
0.1,11.2,0,0.299999,0.000855431,0
0.1,11.3,0,0.299998,0.000859256,0
0.1,11.4,0,0.299999,0.000860291,0
0.1,11.5,0,0.299999,0.000860961,0
0.1,11.6,0,0.299999,0.00086332,0
0.1,11.7,0,0.3,0.000863823,0
0.1,11.8,0,0.299999,0.000864593,0
0.1,11.9,0,0.3,0.000865941,0
0.1,12,0,0.3,0.000866131,0
0.1,12.1,0,0.3,0.000866838,0
0.1,12.2,0,0.3,0.000867467,0
0.1,12.3,0,0.3,0.000867503,0
0.1,12.4,0,0.3,0.000868058,0
0.1,12.5,0,0.3,0.000877573,0
0.1,12.6,0,0.3,0.00114161,0
0.1,12.7,0,0.3,0.00140599,0
0.2,0,0,0.299999,-0.00232041,0
0.2,0.1,0,0.3,-0.00198122,0
0.2,0.2,0,0.299998,-0.00195683,0
0.2,0.3,0,0.299998,-0.00195567,0
0.2,0.4,0,0.299998,-0.00195287,0
0.2,0.5,0,0.299995,-0.00195225,0
0.2,0.6,0,0.299998,-0.00194813,0
0.2,0.7,0,0.299995,-0.00194491,0
0.2,0.8,0,0.299995,-0.00194126,0
0.2,0.9,0,0.299996,-0.00193486,0
0.2,1,0,0.29999,-0.00193237,0
0.2,1.1,0,0.299995,-0.00192473,0
0.2,1.2,0,0.299991,-0.00191826,0
0.2,1.3,0,0.299991,-0.00191161,0
0.2,1.4,0,0.299993,-0.00190053,0
0.2,1.5,0,0.299983,-0.00189608,0
0.2,1.6,0,0.299993,-0.00188365,0
0.2,1.7,0,0.299985,-0.00187309,0
0.2,1.8,0,0.299985,-0.00186263,0
0.2,1.9,0,0.299989,-0.00184542,0
0.2,2,0,0.299974,-0.00183839,0
0.2,2.1,0,0.299989,-0.00181998,0
0.2,2.2,0,0.299978,-0.00180395,0
0.2,2.3,0,0.299978,-0.00178871,0
0.2,2.4,0,0.299985,-0.00176387,0
0.2,2.5,0,0.299962,-0.00175295,0
0.2,2.6,0,0.299986,-0.00172784,0
0.2,2.7,0,0.29997,-0.00170448,0
0.2,2.8,0,0.29997,-0.00168341,0
0.2,2.9,0,0.299983,-0.00164971,0
0.2,3,0,0.299948,-0.00163299,0
0.2,3.1,0,0.299984,-0.00160091,0
0.2,3.2,0,0.299961,-0.00156833,0
0.2,3.3,0,0.299961,-0.00154034,0
0.2,3.4,0,0.29998,-0.00149687,0
0.2,3.5,0,0.299931,-0.00147273,0
0.2,3.6,0,0.299982,-0.00143331,0
0.2,3.7,0,0.299951,-0.00139036,0
0.2,3.8,0,0.299951,-0.00135469,0
0.2,3.9,0,0.299977,-0.0013008,0
0.2,4,0,0.299914,-0.00126886,0
0.2,4.1,0,0.299977,-0.00122175,0
0.2,4.2,0,0.29994,-0.00116835,0
0.2,4.3,0,0.299939,-0.00112513,0
0.2,4.4,0,0.29997,-0.00106112,0
0.2,4.5,0,0.299899,-0.00102157,0
0.2,4.6,0,0.299968,-0.000967946,0
0.2,4.7,0,0.299929,-0.000904701,0
0.2,4.8,0,0.299928,-0.000855163,0
0.2,4.9,0,0.299962,-0.000785389,0
0.2,5,0,0.299887,-0.000743297,0
0.2,5.1,0,0.299964,-0.000671508,0
0.2,5.2,0,0.299883,-0.000612991,0
0.2,5.3,0,0.299962,-0.00054597,0
0.2,5.4,0,0.29988,-0.000485654,0
0.2,5.5,0,0.29996,-0.000417964,0
0.2,5.6,0,0.299878,-0.000355307,0
0.2,5.7,0,0.299958,-0.000287646,0
0.2,5.8,0,0.299877,-0.000222987,0
0.2,5.9,0,0.299958,-0.000155926,0
0.2,6,0,0.299877,-8.97047e-05,0
0.2,6.1,0,0.299958,-2.37605e-05,0
0.2,6.2,0,0.299877,4.34876e-05,0
0.2,6.3,0,0.299958,0.000107815,0
0.2,6.4,0,0.299879,0.00017552,0
0.2,6.5,0,0.299961,0.000237819,0
0.2,6.6,0,0.299881,0.000305392,0
0.2,6.7,0,0.299962,0.000365414,0
0.2,6.8,0,0.299884,0.00043206,0
0.2,6.9,0,0.299965,0.000490943,0
0.2,7,0,0.299888,0.000566092,0
0.2,7.1,0,0.299953,0.000605999,0
0.2,7.2,0,0.299946,0.000673063,0
0.2,7.3,0,0.299903,0.000725355,0
0.2,7.4,0,0.299967,0.000768429,0
0.2,7.5,0,0.299943,0.000836631,0
0.2,7.6,0,0.29992,0.000884104,0
0.2,7.7,0,0.299977,0.000926505,0
0.2,7.8,0,0.299941,0.000986804,0
0.2,7.9,0,0.299936,0.00102833,0
0.2,8,0,0.299982,0.00107237,0
0.2,8.1,0,0.299941,0.00112186,0
0.2,8.2,0,0.299951,0.00115691,0
0.2,8.3,0,0.299984,0.00120116,0
0.2,8.4,0,0.299942,0.00124105,0
0.2,8.5,0,0.299963,0.00126942,0
0.2,8.6,0,0.299981,0.00130958,0
0.2,8.7,0,0.299944,0.0013443,0
0.2,8.8,0,0.299973,0.00136611,0
0.2,8.9,0,0.299978,0.00140163,0
0.2,9,0,0.299951,0.00143138,0
0.2,9.1,0,0.299981,0.00144775,0
0.2,9.2,0,0.299978,0.00147898,0
0.2,9.3,0,0.299963,0.00150258,0
0.2,9.4,0,0.299987,0.00151554,0
0.2,9.5,0,0.299979,0.00154277,0
0.2,9.6,0,0.299973,0.00156072,0
0.2,9.7,0,0.29999,0.00157322,0
0.2,9.8,0,0.299981,0.00159426,0
0.2,9.9,0,0.299981,0.00160733,0
0.2,10,0,0.299992,0.00161931,0
0.2,10.1,0,0.299983,0.00163489,0
0.2,10.2,0,0.299986,0.00164399,0
0.2,10.3,0,0.299993,0.00165486,0
0.2,10.4,0,0.299986,0.00166616,0
0.2,10.5,0,0.299991,0.0016722,0
0.2,10.6,0,0.299994,0.00168106,0
0.2,10.7,0,0.299988,0.0016896,0
0.2,10.8,0,0.299994,0.00169341,0
0.2,10.9,0,0.299995,0.0017004,0
0.2,11,0,0.299992,0.0017063,0
0.2,11.1,0,0.299996,0.00170891,0
0.2,11.2,0,0.299996,0.00171423,0
0.2,11.3,0,0.299995,0.00171805,0
0.2,11.4,0,0.299998,0.00171998,0
0.2,11.5,0,0.299997,0.0017238,0
0.2,11.6,0,0.299997,0.00172616,0
0.2,11.7,0,0.299999,0.00172775,0
0.2,11.8,0,0.299998,0.00173014,0
0.2,11.9,0,0.299998,0.00173149,0
0.2,12,0,0.3,0.00173266,0
0.2,12.1,0,0.299999,0.00173409,0
0.2,12.2,0,0.299999,0.00173472,0
0.2,12.3,0,0.3,0.00173541,0
0.2,12.4,0,0.299999,0.00173624,0
0.2,12.5,0,0.3,0.00173632,0
0.2,12.6,0,0.3,0.00179501,0
0.2,12.7,0,0.3,0.00205946,0
0.3,0,0,0.299998,-0.00305852,0
0.3,0.1,0,0.299998,-0.00293667,0
0.3,0.2,0,0.299997,-0.00293556,0
0.3,0.3,0,0.299996,-0.0029341,0
0.3,0.4,0,0.299995,-0.00293075,0
0.3,0.5,0,0.299993,-0.00292838,0
0.3,0.6,0,0.299993,-0.00292325,0
0.3,0.7,0,0.299991,-0.00291757,0
0.3,0.8,0,0.29999,-0.00291297,0
0.3,0.9,0,0.299988,-0.00290474,0
0.3,1,0,0.299985,-0.00289856,0
0.3,1.1,0,0.299985,-0.00288871,0
0.3,1.2,0,0.299983,-0.00287763,0
0.3,1.3,0,0.299982,-0.00286925,0
0.3,1.4,0,0.29998,-0.00285492,0
0.3,1.5,0,0.299975,-0.00284411,0
0.3,1.6,0,0.299976,-0.00282807,0
0.3,1.7,0,0.299973,-0.00281001,0
0.3,1.8,0,0.299972,-0.00279677,0
0.3,1.9,0,0.299968,-0.00277444,0
0.3,2,0,0.299961,-0.00275758,0
0.3,2.1,0,0.299964,-0.00273354,0
0.3,2.2,0,0.29996,-0.00270637,0
0.3,2.3,0,0.299959,-0.00268694,0
0.3,2.4,0,0.299954,-0.00265431,0
0.3,2.5,0,0.299943,-0.00262943,0
0.3,2.6,0,0.299949,-0.00259559,0
0.3,2.7,0,0.299944,-0.00255691,0
0.3,2.8,0,0.299943,-0.00252987,0
0.3,2.9,0,0.299938,-0.00248458,0
0.3,3,0,0.299922,-0.00244949,0
0.3,3.1,0,0.299931,-0.00240437,0
0.3,3.2,0,0.299925,-0.002352,0
0.3,3.3,0,0.299924,-0.00231598,0
0.3,3.4,0,0.299918,-0.00225617,0
0.3,3.5,0,0.299897,-0.0022091,0
0.3,3.6,0,0.299911,-0.00215164,0
0.3,3.7,0,0.299905,-0.00208415,0
0.3,3.8,0,0.299903,-0.00203829,0
0.3,3.9,0,0.299897,-0.00196306,0
0.3,4,0,0.299871,-0.00190329,0
0.3,4.1,0,0.29989,-0.00183319,0
0.3,4.2,0,0.299884,-0.00175031,0
0.3,4.3,0,0.299882,-0.00169471,0
0.3,4.4,0,0.299877,-0.00160448,0
0.3,4.5,0,0.299848,-0.00153235,0
0.3,4.6,0,0.29987,-0.00145086,0
0.3,4.7,0,0.299865,-0.00135387,0
0.3,4.8,0,0.299863,-0.00129066,0
0.3,4.9,0,0.29986,-0.00119285,0
0.3,5,0,0.299831,-0.00111495,0
0.3,5.1,0,0.299854,-0.001015,0
0.3,5.2,0,0.299825,-0.000919487,0
0.3,5.3,0,0.299849,-0.000822867,0
0.3,5.4,0,0.299821,-0.000728481,0
0.3,5.5,0,0.299846,-0.000629882,0
0.3,5.6,0,0.299817,-0.00053296,0
0.3,5.7,0,0.299843,-0.00043322,0
0.3,5.8,0,0.299816,-0.000334481,0
0.3,5.9,0,0.299842,-0.000234379,0
0.3,6,0,0.299815,-0.000134557,0
0.3,6.1,0,0.299842,-3.48801e-05,0
0.3,6.2,0,0.299816,6.52314e-05,0
0.3,6.3,0,0.299844,0.000163693,0
0.3,6.4,0,0.299818,0.00026328,0
0.3,6.5,0,0.299847,0.000359805,0
0.3,6.6,0,0.299821,0.000458088,0
0.3,6.7,0,0.29985,0.000551985,0
0.3,6.8,0,0.299826,0.000648089,0
0.3,6.9,0,0.299855,0.000745903,0
0.3,7,0,0.299832,0.000849138,0
0.3,7.1,0,0.299861,0.000921011,0
0.3,7.2,0,0.299864,0.00101484,0
0.3,7.3,0,0.29985,0.0010848,0
0.3,7.4,0,0.29987,0.00116595,0
0.3,7.5,0,0.299875,0.00126027,0
0.3,7.6,0,0.299871,0.00132036,0
0.3,7.7,0,0.299882,0.00140151,0
0.3,7.8,0,0.299888,0.00148777,0
0.3,7.9,0,0.299889,0.00153668,0
0.3,8,0,0.299895,0.0016142,0
0.3,8.1,0,0.299901,0.00169148,0
0.3,8.2,0,0.299902,0.00173405,0
0.3,8.3,0,0.299909,0.00180257,0
0.3,8.4,0,0.299907,0.00186645,0
0.3,8.5,0,0.299916,0.00190673,0
0.3,8.6,0,0.299922,0.00196627,0
0.3,8.7,0,0.299915,0.00201818,0
0.3,8.8,0,0.299928,0.00205501,0
0.3,8.9,0,0.299934,0.00210585,0
0.3,9,0,0.299926,0.00214666,0
0.3,9.1,0,0.29994,0.00217992,0
0.3,9.2,0,0.299946,0.00222255,0
0.3,9.3,0,0.299943,0.00225258,0
0.3,9.4,0,0.299951,0.0022831,0
0.3,9.5,0,0.299956,0.0023182,0
0.3,9.6,0,0.299956,0.00233931,0
0.3,9.7,0,0.299961,0.00236663,0
0.3,9.8,0,0.299966,0.002395,0
0.3,9.9,0,0.299966,0.00241037,0
0.3,10,0,0.29997,0.00243285,0
0.3,10.1,0,0.299972,0.00245488,0
0.3,10.2,0,0.299974,0.00246673,0
0.3,10.3,0,0.299977,0.00248419,0
0.3,10.4,0,0.299978,0.00250038,0
0.3,10.5,0,0.29998,0.00250977,0
0.3,10.6,0,0.299983,0.00252304,0
0.3,10.7,0,0.299982,0.00253461,0
0.3,10.8,0,0.299986,0.00254183,0
0.3,10.9,0,0.299988,0.00255166,0
0.3,11,0,0.299987,0.00255932,0
0.3,11.1,0,0.29999,0.00256504,0
0.3,11.2,0,0.299991,0.00257213,0
0.3,11.3,0,0.299992,0.00257685,0
0.3,11.4,0,0.299993,0.00258132,0
0.3,11.5,0,0.299994,0.00258628,0
0.3,11.6,0,0.299995,0.00258899,0
0.3,11.7,0,0.299996,0.0025923,0
0.3,11.8,0,0.299997,0.00259563,0
0.3,11.9,0,0.299997,0.00259723,0
0.3,12,0,0.299997,0.00259932,0
0.3,12.1,0,0.299998,0.00260134,0
0.3,12.2,0,0.299998,0.00260221,0
0.3,12.3,0,0.299999,0.00260336,0
0.3,12.4,0,0.299999,0.00260442,0
0.3,12.5,0,0.299999,0.00260469,0
0.3,12.6,0,0.299999,0.00260506,0
0.3,12.7,0,0.3,0.00271294,0
0.4,0,0,0.299997,-0.00391873,0
0.4,0.1,0,0.299997,-0.00391706,0
0.4,0.2,0,0.299996,-0.00391596,0
0.4,0.3,0,0.299993,-0.00391298,0
0.4,0.4,0,0.299992,-0.00390963,0
0.4,0.5,0,0.299988,-0.00390601,0
0.4,0.6,0,0.299987,-0.00389913,0
0.4,0.7,0,0.299985,-0.00389344,0
0.4,0.8,0,0.299982,-0.00388421,0
0.4,0.9,0,0.29998,-0.00387598,0
0.4,1,0,0.299975,-0.00386644,0
0.4,1.1,0,0.299975,-0.00385353,0
0.4,1.2,0,0.299973,-0.00384245,0
0.4,1.3,0,0.299969,-0.00382558,0
0.4,1.4,0,0.299966,-0.00381125,0
0.4,1.5,0,0.299959,-0.00379414,0
0.4,1.6,0,0.299959,-0.00377351,0
0.4,1.7,0,0.299956,-0.00375545,0
0.4,1.8,0,0.29995,-0.00372851,0
0.4,1.9,0,0.299947,-0.00370618,0
0.4,2,0,0.299936,-0.00367909,0
0.4,2.1,0,0.299937,-0.00364831,0
0.4,2.2,0,0.299934,-0.00362114,0
0.4,2.3,0,0.299926,-0.00358098,0
0.4,2.4,0,0.299922,-0.00354835,0
0.4,2.5,0,0.299908,-0.0035086,0
0.4,2.6,0,0.29991,-0.00346465,0
0.4,2.7,0,0.299905,-0.00342597,0
0.4,2.8,0,0.299896,-0.00336923,0
0.4,2.9,0,0.299891,-0.00332394,0
0.4,3,0,0.299874,-0.00326914,0
0.4,3.1,0,0.299875,-0.00320898,0
0.4,3.2,0,0.299869,-0.00315661,0
0.4,3.3,0,0.299859,-0.00308055,0
0.4,3.4,0,0.299853,-0.00302073,0
0.4,3.5,0,0.299834,-0.00294906,0
0.4,3.6,0,0.299836,-0.00287073,0
0.4,3.7,0,0.29983,-0.00280325,0
0.4,3.8,0,0.29982,-0.0027064,0
0.4,3.9,0,0.299814,-0.00263117,0
0.4,4,0,0.299792,-0.00254144,0
0.4,4.1,0,0.299798,-0.00244477,0
0.4,4.2,0,0.299792,-0.0023619,0
0.4,4.3,0,0.299783,-0.00224424,0
0.4,4.4,0,0.299778,-0.00215401,0
0.4,4.5,0,0.299754,-0.00204647,0
0.4,4.6,0,0.299766,-0.00193294,0
0.4,4.7,0,0.299762,-0.00183596,0
0.4,4.8,0,0.299756,-0.00170042,0
0.4,4.9,0,0.299752,-0.00160261,0
0.4,5,0,0.299725,-0.00148906,0
0.4,5.1,0,0.299744,-0.00135613,0
0.4,5.2,0,0.299715,-0.00122797,0
0.4,5.3,0,0.299737,-0.00110065,0
0.4,5.4,0,0.299707,-0.000972844,0
0.4,5.5,0,0.299732,-0.000842418,0
0.4,5.6,0,0.299702,-0.000711639,0
0.4,5.7,0,0.299728,-0.000579163,0
0.4,5.8,0,0.299698,-0.000446449,0
0.4,5.9,0,0.299726,-0.000312945,0
0.4,6,0,0.299698,-0.000179314,0
0.4,6.1,0,0.299727,-4.58412e-05,0
0.4,6.2,0,0.299699,8.76393e-05,0
0.4,6.3,0,0.299728,0.000219992,0
0.4,6.4,0,0.299702,0.000352251,0
0.4,6.5,0,0.299733,0.00048245,0
0.4,6.6,0,0.299708,0.000612497,0
0.4,6.7,0,0.299738,0.0007395,0
0.4,6.8,0,0.299716,0.000866273,0
0.4,6.9,0,0.299745,0.000996236,0
0.4,7,0,0.299727,0.00113484,0
0.4,7.1,0,0.299754,0.00124446,0
0.4,7.2,0,0.299757,0.00133829,0
0.4,7.3,0,0.29975,0.00146279,0
0.4,7.4,0,0.299768,0.00157022,0
0.4,7.5,0,0.299773,0.00166454,0
0.4,7.6,0,0.299777,0.00178868,0
0.4,7.7,0,0.299787,0.00188,0
0.4,7.8,0,0.299793,0.00196625,0
0.4,7.9,0,0.299803,0.00208216,0
0.4,8,0,0.299809,0.00215968,0
0.4,8.1,0,0.299815,0.00223744,0
0.4,8.2,0,0.299827,0.00233914,0
0.4,8.3,0,0.299833,0.00240766,0
0.4,8.4,0,0.299836,0.00248082,0
0.4,8.5,0,0.299851,0.00256403,0
0.4,8.6,0,0.299857,0.00262356,0
0.4,8.7,0,0.299858,0.00269064,0
0.4,8.8,0,0.299874,0.00275716,0
0.4,8.9,0,0.29988,0.00280799,0
0.4,9,0,0.299881,0.00286781,0
0.4,9.1,0,0.299896,0.0029198,0
0.4,9.2,0,0.299901,0.00296244,0
0.4,9.3,0,0.299906,0.00301439,0
0.4,9.4,0,0.299916,0.00305405,0
0.4,9.5,0,0.299921,0.00308915,0
0.4,9.6,0,0.299928,0.00313323,0
0.4,9.7,0,0.299933,0.00316262,0
0.4,9.8,0,0.299938,0.00319099,0
0.4,9.9,0,0.299945,0.00322612,0
0.4,10,0,0.299948,0.00324861,0
0.4,10.1,0,0.299951,0.00327155,0
0.4,10.2,0,0.299957,0.0032978,0
0.4,10.3,0,0.29996,0.00331526,0
0.4,10.4,0,0.299962,0.00333406,0
0.4,10.5,0,0.299968,0.00335249,0
0.4,10.6,0,0.29997,0.00336575,0
0.4,10.7,0,0.299971,0.00338085,0
0.4,10.8,0,0.299976,0.0033932,0
0.4,10.9,0,0.299978,0.00340303,0
0.4,11,0,0.29998,0.00341457,0
0.4,11.1,0,0.299983,0.0034227,0
0.4,11.2,0,0.299985,0.00342979,0
0.4,11.3,0,0.299987,0.00343813,0
0.4,11.4,0,0.299988,0.00344342,0
0.4,11.5,0,0.29999,0.00344837,0
0.4,11.6,0,0.299992,0.0034541,0
0.4,11.7,0,0.299993,0.00345743,0
0.4,11.8,0,0.299994,0.00346076,0
0.4,11.9,0,0.299995,0.00346432,0
0.4,12,0,0.299995,0.00346642,0
0.4,12.1,0,0.299996,0.00346863,0
0.4,12.2,0,0.299997,0.00347048,0
0.4,12.3,0,0.299998,0.00347163,0
0.4,12.4,0,0.299998,0.00347296,0
0.4,12.5,0,0.299999,0.00347351,0
0.4,12.6,0,0.299999,0.00347387,0
0.4,12.7,0,0.299999,0.00347441,0
0.5,0,0,0.299995,-0.00490104,0
0.5,0.1,0,0.299996,-0.00489836,0
0.5,0.2,0,0.299993,-0.00489739,0
0.5,0.3,0,0.29999,-0.00489411,0
0.5,0.4,0,0.299988,-0.00488927,0
0.5,0.5,0,0.299982,-0.00488514,0
0.5,0.6,0,0.299982,-0.00487611,0
0.5,0.7,0,0.299976,-0.00486897,0
0.5,0.8,0,0.299973,-0.00485883,0
0.5,0.9,0,0.299972,-0.00484792,0
0.5,1,0,0.299961,-0.00483602,0
0.5,1.1,0,0.299964,-0.00481979,0
0.5,1.2,0,0.299956,-0.00480518,0
0.5,1.3,0,0.299951,-0.00478665,0
0.5,1.4,0,0.299952,-0.00476826,0
0.5,1.5,0,0.299935,-0.00474616,0
0.5,1.6,0,0.299941,-0.00472088,0
0.5,1.7,0,0.299929,-0.00469637,0
0.5,1.8,0,0.299923,-0.00466673,0
0.5,1.9,0,0.299924,-0.00463859,0
0.5,2,0,0.2999,-0.00460292,0
0.5,2.1,0,0.29991,-0.00456565,0
0.5,2.2,0,0.299894,-0.00452828,0
0.5,2.3,0,0.299885,-0.00448402,0
0.5,2.4,0,0.299888,-0.00444302,0
0.5,2.5,0,0.299857,-0.00439046,0
0.5,2.6,0,0.29987,-0.00433702,0
0.5,2.7,0,0.299849,-0.00428397,0
0.5,2.8,0,0.299838,-0.00422132,0
0.5,2.9,0,0.299841,-0.00416384,0
0.5,3,0,0.299803,-0.00409195,0
0.5,3.1,0,0.299818,-0.00401775,0
0.5,3.2,0,0.299794,-0.00394676,0
0.5,3.3,0,0.299781,-0.00386271,0
0.5,3.4,0,0.299785,-0.00378564,0
0.5,3.5,0,0.299742,-0.00369263,0
0.5,3.6,0,0.29976,-0.00359476,0
0.5,3.7,0,0.299733,-0.0035041,0
0.5,3.8,0,0.299721,-0.00339706,0
0.5,3.9,0,0.299726,-0.00329915,0
0.5,4,0,0.299678,-0.0031833,0
0.5,4.1,0,0.299703,-0.00306182,0
0.5,4.2,0,0.299673,-0.00295068,0
0.5,4.3,0,0.299663,-0.00282058,0
0.5,4.4,0,0.299676,-0.00270263,0
0.5,4.5,0,0.299617,-0.00256391,0
0.5,4.6,0,0.299659,-0.00242061,0
0.5,4.7,0,0.299623,-0.00229075,0
0.5,4.8,0,0.299616,-0.00213995,0
0.5,4.9,0,0.299639,-0.00200753,0
0.5,5,0,0.299569,-0.00186563,0
0.5,5.1,0,0.299633,-0.00169488,0
0.5,5.2,0,0.299552,-0.00153845,0
0.5,5.3,0,0.299624,-0.00137932,0
0.5,5.4,0,0.29954,-0.00121874,0
0.5,5.5,0,0.299618,-0.00105557,0
0.5,5.6,0,0.299531,-0.000891345,0
0.5,5.7,0,0.299613,-0.000725473,0
0.5,5.8,0,0.299526,-0.000558892,0
0.5,5.9,0,0.29961,-0.000391625,0
0.5,6,0,0.299524,-0.000223974,0
0.5,6.1,0,0.299611,-5.66437e-05,0
0.5,6.2,0,0.299526,0.000110711,0
0.5,6.3,0,0.299613,0.000276713,0
0.5,6.4,0,0.299532,0.000442433,0
0.5,6.5,0,0.299619,0.000605753,0
0.5,6.6,0,0.299542,0.000768619,0
0.5,6.7,0,0.299625,0.000927958,0
0.5,6.8,0,0.299555,0.00108661,0
0.5,6.9,0,0.299635,0.00124194,0
0.5,7,0,0.299572,0.0014232,0
0.5,7.1,0,0.299634,0.00155582,0
0.5,7.2,0,0.299633,0.00167919,0
0.5,7.3,0,0.299606,0.00182866,0
0.5,7.4,0,0.299663,0.00197395,0
0.5,7.5,0,0.299652,0.00209504,0
0.5,7.6,0,0.299645,0.00223216,0
0.5,7.7,0,0.299692,0.00236195,0
0.5,7.8,0,0.299678,0.00247474,0
0.5,7.9,0,0.299686,0.00259814,0
0.5,8,0,0.299723,0.0027088,0
0.5,8.1,0,0.29971,0.00281476,0
0.5,8.2,0,0.299728,0.00292391,0
0.5,8.3,0,0.299757,0.00301644,0
0.5,8.4,0,0.299744,0.00311367,0
0.5,8.5,0,0.29977,0.00320869,0
0.5,8.6,0,0.29979,0.00328746,0
0.5,8.7,0,0.299778,0.00337152,0
0.5,8.8,0,0.29981,0.00345301,0
0.5,8.9,0,0.299822,0.00351899,0
0.5,9,0,0.299813,0.00358957,0
0.5,9.1,0,0.299847,0.00365841,0
0.5,9.2,0,0.299851,0.00371219,0
0.5,9.3,0,0.29985,0.00377034,0
0.5,9.4,0,0.29988,0.00382744,0
0.5,9.5,0,0.299878,0.00387016,0
0.5,9.6,0,0.299882,0.00391728,0
0.5,9.7,0,0.299906,0.00396117,0
0.5,9.8,0,0.299902,0.00399673,0
0.5,9.9,0,0.29991,0.00403408,0
0.5,10,0,0.299927,0.00406658,0
0.5,10.1,0,0.299922,0.00409604,0
0.5,10.2,0,0.299932,0.00412481,0
0.5,10.3,0,0.299944,0.00414835,0
0.5,10.4,0,0.29994,0.00417224,0
0.5,10.5,0,0.299951,0.0041936,0
0.5,10.6,0,0.299957,0.00421089,0
0.5,10.7,0,0.299955,0.00422928,0
0.5,10.8,0,0.299965,0.00424442,0
0.5,10.9,0,0.299968,0.00425694,0
0.5,11,0,0.299968,0.00427046,0
0.5,11.1,0,0.299976,0.00428093,0
0.5,11.2,0,0.299978,0.00428988,0
0.5,11.3,0,0.299978,0.00429927,0
0.5,11.4,0,0.299984,0.00430627,0
0.5,11.5,0,0.299984,0.00431264,0
0.5,11.6,0,0.299986,0.0043188,0
0.5,11.7,0,0.29999,0.00432313,0
0.5,11.8,0,0.29999,0.00432771,0
0.5,11.9,0,0.299992,0.00433144,0
0.5,12,0,0.299994,0.00433395,0
0.5,12.1,0,0.299994,0.00433707,0
0.5,12.2,0,0.299995,0.00433898,0
0.5,12.3,0,0.299996,0.00434029,0
0.5,12.4,0,0.299997,0.00434218,0
0.5,12.5,0,0.299998,0.00434267,0
0.5,12.6,0,0.299999,0.00434308,0
0.5,12.7,0,0.299999,0.00434388,0
0.6,0,0,0.299993,-0.00588334,0
0.6,0.1,0,0.299993,-0.00588079,0
0.6,0.2,0,0.29999,-0.00587888,0
0.6,0.3,0,0.299986,-0.0058756,0
0.6,0.4,0,0.299982,-0.00586912,0
0.6,0.5,0,0.299975,-0.00586427,0
0.6,0.6,0,0.299973,-0.00585463,0
0.6,0.7,0,0.299966,-0.00584419,0
0.6,0.8,0,0.299963,-0.00583405,0
0.6,0.9,0,0.299957,-0.00581871,0
0.6,1,0,0.299948,-0.0058056,0
0.6,1.1,0,0.299947,-0.00578779,0
0.6,1.2,0,0.299938,-0.00576713,0
0.6,1.3,0,0.299933,-0.0057486,0
0.6,1.4,0,0.299926,-0.00572203,0
0.6,1.5,0,0.299912,-0.00569818,0
0.6,1.6,0,0.299913,-0.00566994,0
0.6,1.7,0,0.2999,-0.00563582,0
0.6,1.8,0,0.299893,-0.00560618,0
0.6,1.9,0,0.299885,-0.00556485,0
0.6,2,0,0.299865,-0.00552675,0
0.6,2.1,0,0.299868,-0.00548474,0
0.6,2.2,0,0.29985,-0.00543305,0
0.6,2.3,0,0.299842,-0.00538879,0
0.6,2.4,0,0.299832,-0.00532835,0
0.6,2.5,0,0.299805,-0.00527231,0
0.6,2.6,0,0.299809,-0.00521222,0
0.6,2.7,0,0.299788,-0.00513864,0
0.6,2.8,0,0.299777,-0.00507599,0
0.6,2.9,0,0.299765,-0.0049918,0
0.6,3,0,0.299733,-0.00491476,0
0.6,3.1,0,0.299738,-0.00483202,0
0.6,3.2,0,0.299713,-0.00473264,0
0.6,3.3,0,0.299701,-0.00464859,0
0.6,3.4,0,0.299688,-0.00453664,0
0.6,3.5,0,0.299651,-0.00443619,0
0.6,3.6,0,0.299657,-0.00432782,0
0.6,3.7,0,0.29963,-0.0041997,0
0.6,3.8,0,0.299618,-0.00409266,0
0.6,3.9,0,0.299605,-0.00395091,0
0.6,4,0,0.299564,-0.00382517,0
0.6,4.1,0,0.299576,-0.00369093,0
0.6,4.2,0,0.299548,-0.00353308,0
0.6,4.3,0,0.299538,-0.00340299,0
0.6,4.4,0,0.299528,-0.0032322,0
0.6,4.5,0,0.299481,-0.00308135,0
0.6,4.6,0,0.299505,-0.00292327,0
0.6,4.7,0,0.299476,-0.00273815,0
0.6,4.8,0,0.299469,-0.00258735,0
0.6,4.9,0,0.299468,-0.00239983,0
0.6,5,0,0.299413,-0.0022422,0
0.6,5.1,0,0.29945,-0.00204079,0
0.6,5.2,0,0.29939,-0.00184893,0
0.6,5.3,0,0.299434,-0.00165727,0
0.6,5.4,0,0.299373,-0.00146464,0
0.6,5.5,0,0.299421,-0.0012682,0
0.6,5.6,0,0.299361,-0.00107105,0
0.6,5.7,0,0.299413,-0.000871429,0
0.6,5.8,0,0.299353,-0.000671335,0
0.6,5.9,0,0.299409,-0.000470113,0
0.6,6,0,0.299351,-0.000268635,0
0.6,6.1,0,0.29941,-6.74339e-05,0
0.6,6.2,0,0.299354,0.000133783,0
0.6,6.3,0,0.299414,0.000333293,0
0.6,6.4,0,0.299362,0.000532616,0
0.6,6.5,0,0.299423,0.00072883,0
0.6,6.6,0,0.299376,0.000924741,0
0.6,6.7,0,0.299436,0.00111607,0
0.6,6.8,0,0.299394,0.00130695,0
0.6,6.9,0,0.299453,0.00150061,0
0.6,7,0,0.299418,0.00171156,0
0.6,7.1,0,0.299471,0.00185466,0
0.6,7.2,0,0.299487,0.00204367,0
0.6,7.3,0,0.299462,0.00219454,0
0.6,7.4,0,0.299506,0.00235471,0
0.6,7.5,0,0.29952,0.00253852,0
0.6,7.6,0,0.299513,0.00267564,0
0.6,7.7,0,0.29955,0.00282834,0
0.6,7.8,0,0.29956,0.00298888,0
0.6,7.9,0,0.299567,0.00311227,0
0.6,8,0,0.299598,0.00325476,0
0.6,8.1,0,0.299604,0.00339207,0
0.6,8.2,0,0.299623,0.00350122,0
0.6,8.3,0,0.29965,0.00363161,0
0.6,8.4,0,0.299652,0.00374653,0
0.6,8.5,0,0.299678,0.00384155,0
0.6,8.6,0,0.299701,0.0039585,0
0.6,8.7,0,0.299699,0.00405241,0
0.6,8.8,0,0.29973,0.0041356,0
0.6,8.9,0,0.29975,0.00423663,0
0.6,9,0,0.299746,0.00431133,0
0.6,9.1,0,0.299776,0.00438389,0
0.6,9.2,0,0.299795,0.00446814,0
0.6,9.3,0,0.299793,0.00452629,0
0.6,9.4,0,0.299819,0.00458821,0
0.6,9.5,0,0.299832,0.00465421,0
0.6,9.6,0,0.299836,0.00470132,0
0.6,9.7,0,0.299857,0.00475285,0
0.6,9.8,0,0.299865,0.0048034,0
0.6,9.9,0,0.299873,0.00484075,0
0.6,10,0,0.299889,0.0048826,0
0.6,10.1,0,0.299894,0.00492052,0
0.6,10.2,0,0.299904,0.0049493,0
0.6,10.3,0,0.299916,0.00498252,0
0.6,10.4,0,0.299918,0.00501042,0
0.6,10.5,0,0.299929,0.00503178,0
0.6,10.6,0,0.299938,0.00505757,0
0.6,10.7,0,0.299939,0.00507772,0
0.6,10.8,0,0.299948,0.0050934,0
0.6,10.9,0,0.299956,0.00511239,0
0.6,11,0,0.299956,0.00512635,0
0.6,11.1,0,0.299964,0.0051377,0
0.6,11.2,0,0.299969,0.00515102,0
0.6,11.3,0,0.29997,0.00516041,0
0.6,11.4,0,0.299975,0.00516846,0
0.6,11.5,0,0.299979,0.00517735,0
0.6,11.6,0,0.299981,0.0051835,0
0.6,11.7,0,0.299984,0.00518901,0
0.6,11.8,0,0.299986,0.00519473,0
0.6,11.9,0,0.299988,0.00519846,0
0.6,12,0,0.299991,0.005202,0
0.6,12.1,0,0.299992,0.00520551,0
0.6,12.2,0,0.299993,0.00520742,0
0.6,12.3,0,0.299995,0.00520943,0
0.6,12.4,0,0.299996,0.00521139,0
0.6,12.5,0,0.299997,0.0052119,0
0.6,12.6,0,0.299998,0.00521257,0
0.6,12.7,0,0.299998,0.00521334,0
0.7,0,0,0.29999,-0.00686565,0
0.7,0.1,0,0.299988,-0.0068634,0
0.7,0.2,0,0.299985,-0.00686115,0
0.7,0.3,0,0.299981,-0.0068567,0
0.7,0.4,0,0.299975,-0.00685005,0
0.7,0.5,0,0.299969,-0.0068434,0
0.7,0.6,0,0.299962,-0.00683224,0
0.7,0.7,0,0.299956,-0.00682109,0
0.7,0.8,0,0.299949,-0.00680744,0
0.7,0.9,0,0.299941,-0.00679131,0
0.7,1,0,0.299934,-0.00677518,0
0.7,1.1,0,0.299925,-0.00675342,0
0.7,1.2,0,0.299917,-0.00673166,0
0.7,1.3,0,0.299908,-0.00670666,0
0.7,1.4,0,0.299898,-0.00667843,0
0.7,1.5,0,0.299889,-0.0066502,0
0.7,1.6,0,0.299877,-0.00661453,0
0.7,1.7,0,0.299866,-0.00657887,0
0.7,1.8,0,0.299854,-0.00653894,0
0.7,1.9,0,0.299841,-0.00649476,0
0.7,2,0,0.299829,-0.00645057,0
0.7,2.1,0,0.299814,-0.00639672,0
0.7,2.2,0,0.2998,-0.00634287,0
0.7,2.3,0,0.299785,-0.00628359,0
0.7,2.4,0,0.299769,-0.00621888,0
0.7,2.5,0,0.299753,-0.00615417,0
0.7,2.6,0,0.299736,-0.00607743,0
0.7,2.7,0,0.299718,-0.00600068,0
0.7,2.8,0,0.2997,-0.00591736,0
0.7,2.9,0,0.299681,-0.00582746,0
0.7,3,0,0.299662,-0.00573756,0
0.7,3.1,0,0.299642,-0.0056335,0
0.7,3.2,0,0.299622,-0.00552944,0
0.7,3.3,0,0.299602,-0.00541788,0
0.7,3.4,0,0.299581,-0.00529882,0
0.7,3.5,0,0.29956,-0.00517976,0
0.7,3.6,0,0.299538,-0.00504512,0
0.7,3.7,0,0.299516,-0.00491049,0
0.7,3.8,0,0.299494,-0.00476795,0
0.7,3.9,0,0.299472,-0.00461749,0
0.7,4,0,0.29945,-0.00446703,0
0.7,4.1,0,0.299428,-0.00430091,0
0.7,4.2,0,0.299407,-0.00413479,0
0.7,4.3,0,0.299385,-0.00396115,0
0.7,4.4,0,0.299365,-0.00377997,0
0.7,4.5,0,0.299344,-0.0035988,0
0.7,4.6,0,0.299325,-0.00340375,0
0.7,4.7,0,0.299306,-0.00320871,0
0.7,4.8,0,0.299289,-0.0030127,0
0.7,4.9,0,0.299273,-0.00281574,0
0.7,5,0,0.299257,-0.00261877,0
0.7,5.1,0,0.299243,-0.00238909,0
0.7,5.2,0,0.299228,-0.00215941,0
0.7,5.3,0,0.299217,-0.00193497,0
0.7,5.4,0,0.299206,-0.00171054,0
0.7,5.5,0,0.299198,-0.00148065,0
0.7,5.6,0,0.29919,-0.00125076,0
0.7,5.7,0,0.299185,-0.00101727,0
0.7,5.8,0,0.29918,-0.000783778,0
0.7,5.9,0,0.299179,-0.000548537,0
0.7,6,0,0.299177,-0.000313295,0
0.7,6.1,0,0.299179,-7.822e-05,0
0.7,6.2,0,0.299182,0.000156855,0
0.7,6.3,0,0.299187,0.000389827,0
0.7,6.4,0,0.299192,0.000622798,0
0.7,6.5,0,0.299201,0.00085183,0
0.7,6.6,0,0.29921,0.00108086,0
0.7,6.7,0,0.299221,0.00130407,0
0.7,6.8,0,0.299233,0.00152729,0
0.7,6.9,0,0.299248,0.0017636,0
0.7,7,0,0.299264,0.00199992,0
0.7,7.1,0,0.29928,0.00218894,0
0.7,7.2,0,0.299296,0.00237795,0
0.7,7.3,0,0.299313,0.00256706,0
0.7,7.4,0,0.299333,0.00275669,0
0.7,7.5,0,0.299353,0.00294633,0
0.7,7.6,0,0.299373,0.00313098,0
0.7,7.7,0,0.299395,0.003304,0
0.7,7.8,0,0.299416,0.00347703,0
0.7,7.9,0,0.299438,0.00364199,0
0.7,8,0,0.299461,0.00379709,0
0.7,8.1,0,0.299483,0.00395219,0
0.7,8.2,0,0.299506,0.00409627,0
0.7,8.3,0,0.299528,0.00423299,0
0.7,8.4,0,0.299551,0.00436972,0
0.7,8.5,0,0.299573,0.0044928,0
0.7,8.6,0,0.299594,0.00461133,0
0.7,8.7,0,0.299616,0.00472985,0
0.7,8.8,0,0.299637,0.00483264,0