x,y,z,U_0,U_1,U_2
0,0,0,0.3,-0.000639607,0
0,0.1,0,0.3,-0.000383764,0
0,0.2,0,0.3,-0.000127921,0
0,0.3,0,0.3,0,0
0,0.4,0,0.3,0,0
0,0.5,0,0.3,-2.94398e-19,0
0,0.6,0,0.3,0,0
0,0.7,0,0.3,0,0
0,0.8,0,0.3,0,0
0,0.9,0,0.3,0,0
0,1,0,0.3,0,0
0,1.1,0,0.3,0,0
0,1.2,0,0.3,0,0
0,1.3,0,0.3,0,0
0,1.4,0,0.3,0,0
0,1.5,0,0.3,0,0
0,1.6,0,0.3,0,0
0,1.7,0,0.3,0,0
0,1.8,0,0.3,0,0
0,1.9,0,0.3,0,0
0,2,0,0.3,0,0
0,2.1,0,0.3,0,0
0,2.2,0,0.3,0,0
0,2.3,0,0.3,0,0
0,2.4,0,0.3,0,0
0,2.5,0,0.3,0,0
0,2.6,0,0.3,0,0
0,2.7,0,0.3,0,0
0,2.8,0,0.3,0,0
0,2.9,0,0.3,0,0
0,3,0,0.3,0,0
0,3.1,0,0.3,0,0
0,3.2,0,0.3,0,0
0,3.3,0,0.3,0,0
0,3.4,0,0.3,0,0
0,3.5,0,0.3,0,0
0,3.6,0,0.3,0,0
0,3.7,0,0.3,0,0
0,3.8,0,0.3,0,0
0,3.9,0,0.3,0,0
0,4,0,0.3,0,0
0,4.1,0,0.3,0,0
0,4.2,0,0.3,0,0
0,4.3,0,0.3,0,0
0,4.4,0,0.3,0,0
0,4.5,0,0.3,0,0
0,4.6,0,0.3,0,0
0,4.7,0,0.3,0,0
0,4.8,0,0.3,0,0
0,4.9,0,0.3,0,0
0,5,0,0.3,-9.84522e-20,0
0,5.1,0,0.3,0,0
0,5.2,0,0.3,0,0
0,5.3,0,0.3,0,0
0,5.4,0,0.3,-6.58862e-20,0
0,5.5,0,0.3,0,0
0,5.6,0,0.3,0,0
0,5.7,0,0.3,0,0
0,5.8,0,0.3,-3.32723e-20,0
0,5.9,0,0.3,0,0
0,6,0,0.3,0,0
0,6.1,0,0.3,0,0
0,6.2,0,0.3,-3.25912e-22,0
0,6.3,0,0.3,0,0
0,6.4,0,0.3,1.60508e-20,0
0,6.5,0,0.3,0,0
0,6.6,0,0.3,0,0
0,6.7,0,0.3,0,0
0,6.8,0,0.3,0,0
0,6.9,0,0.3,0,0
0,7,0,0.3,0,0
0,7.1,0,0.3,0,0
0,7.2,0,0.3,0,0
0,7.3,0,0.3,0,0
0,7.4,0,0.3,0,0
0,7.5,0,0.3,0,0
0,7.6,0,0.3,0,0
0,7.7,0,0.3,0,0
0,7.8,0,0.3,0,0
0,7.9,0,0.3,0,0
0,8,0,0.3,0,0
0,8.1,0,0.3,0,0
0,8.2,0,0.3,0,0
0,8.3,0,0.3,0,0
0,8.4,0,0.3,0,0
0,8.5,0,0.3,0,0
0,8.6,0,0.3,0,0
0,8.7,0,0.3,0,0
0,8.8,0,0.3,0,0
0,8.9,0,0.3,0,0
0,9,0,0.3,0,0
0,9.1,0,0.3,0,0
0,9.2,0,0.3,0,0
0,9.3,0,0.3,0,0
0,9.4,0,0.3,0,0
0,9.5,0,0.3,0,0
0,9.6,0,0.3,0,0
0,9.7,0,0.3,0,0
0,9.8,0,0.3,0,0
0,9.9,0,0.3,0,0
0,10,0,0.3,0,0
0,10.1,0,0.3,0,0
0,10.2,0,0.3,0,0
0,10.3,0,0.3,0,0
0,10.4,0,0.3,0,0
0,10.5,0,0.3,0,0
0,10.6,0,0.3,0,0
0,10.7,0,0.3,0,0
0,10.8,0,0.3,0,0
0,10.9,0,0.3,0,0
0,11,0,0.3,0,0
0,11.1,0,0.3,0,0
0,11.2,0,0.3,0,0
0,11.3,0,0.3,0,0
0,11.4,0,0.3,0,0
0,11.5,0,0.3,0,0
0,11.6,0,0.3,0,0
0,11.7,0,0.3,0,0
0,11.8,0,0.3,0,0
0,11.9,0,0.3,0,0
0,12,0,0.3,0,0
0,12.1,0,0.3,0,0
0,12.2,0,0.3,0,0
0,12.3,0,0.3,0,0
0,12.4,0,0.3,0,0
0,12.5,0,0.3,0.000178839,0
0,12.6,0,0.3,0.000389238,0
0,12.7,0,0.3,0.000599637,0
0.1,0,0,0.299999,-0.00109046,0
0.1,0.1,0,0.299999,-0.000828318,0
0.1,0.2,0,0.299999,-0.000587225,0
0.1,0.3,0,0.299999,-0.000585161,0
0.1,0.4,0,0.299999,-0.000584396,0
0.1,0.5,0,0.299996,-0.000589268,0
0.1,0.6,0,0.299999,-0.000579889,0
0.1,0.7,0,0.299998,-0.000580364,0
0.1,0.8,0,0.299997,-0.000574348,0
0.1,0.9,0,0.299998,-0.000573204,0
0.1,1,0,0.299993,-0.000578159,0
0.1,1.1,0,0.299998,-0.000564431,0
0.1,1.2,0,0.299997,-0.000564967,0
0.1,1.3,0,0.299997,-0.000555267,0
0.1,1.4,0,0.299997,-0.000553653,0
0.1,1.5,0,0.299989,-0.000559486,0
0.1,1.6,0,0.299997,-0.000540956,0
0.1,1.7,0,0.299996,-0.000541577,0
0.1,1.8,0,0.299997,-0.000528497,0
0.1,1.9,0,0.299998,-0.000526422,0
0.1,2,0,0.299985,-0.000532786,0
0.1,2.1,0,0.299999,-0.000510124,0
0.1,2.2,0,0.299998,-0.000510737,0
0.1,2.3,0,0.3,-0.000494509,0
0.1,2.4,0,0.300001,-0.000492093,0
0.1,2.5,0,0.299981,-0.000497505,0
0.1,2.6,0,0.300004,-0.000472302,0
0.1,2.7,0,0.300002,-0.000472724,0
0.1,2.8,0,0.300006,-0.000453236,0
0.1,2.9,0,0.300009,-0.000450649,0
0.1,3,0,0.299976,-0.000453281,0
0.1,3.1,0,0.300014,-0.00042695,0
0.1,3.2,0,0.30001,-0.000427038,0
0.1,3.3,0,0.300015,-0.00040371,0
0.1,3.4,0,0.30002,-0.00040103,0
0.1,3.5,0,0.299971,-0.000400231,0
0.1,3.6,0,0.300025,-0.000372777,0
0.1,3.7,0,0.30002,-0.000372557,0
0.1,3.8,0,0.300023,-0.000345072,0
0.1,3.9,0,0.300029,-0.000342239,0
0.1,4,0,0.299966,-0.000338951,0
0.1,4.1,0,0.300032,-0.000309657,0
0.1,4.2,0,0.300025,-0.000309238,0
0.1,4.3,0,0.300024,-0.000278444,0
0.1,4.4,0,0.300031,-0.000275442,0
0.1,4.5,0,0.299963,-0.000270207,0
0.1,4.6,0,0.300029,-0.000240104,0
0.1,4.7,0,0.300022,-0.00023943,0
0.1,4.8,0,0.300019,-0.000206983,0
0.1,4.9,0,0.300025,-0.000204052,0
0.1,5,0,0.299962,-0.000197062,0
0.1,5.1,0,0.300021,-0.00017074,0
0.1,5.2,0,0.299961,-0.00016386,0
0.1,5.3,0,0.300018,-0.000140434,0
0.1,5.4,0,0.299961,-0.000131878,0
0.1,5.5,0,0.300016,-0.00010998,0
0.1,5.6,0,0.299961,-9.94045e-05,0
0.1,5.7,0,0.300014,-7.94956e-05,0
0.1,5.8,0,0.299961,-6.65978e-05,0
0.1,5.9,0,0.300013,-4.89653e-05,0
0.1,6,0,0.299961,-3.36214e-05,0
0.1,6.1,0,0.300013,-1.83865e-05,0
0.1,6.2,0,0.299961,-6.52344e-07,0
0.1,6.3,0,0.300014,1.22229e-05,0
0.1,6.4,0,0.299961,3.21273e-05,0
0.1,6.5,0,0.300016,4.28573e-05,0
0.1,6.6,0,0.299961,6.45582e-05,0
0.1,6.7,0,0.300019,7.35476e-05,0
0.1,6.8,0,0.299961,9.64928e-05,0
0.1,6.9,0,0.300022,0.000104115,0
0.1,7,0,0.299961,0.000130905,0
0.1,7.1,0,0.300025,0.000140024,0
0.1,7.2,0,0.300025,0.000140024,0
0.1,7.3,0,0.299978,0.000173391,0
0.1,7.4,0,0.300029,0.000180704,0
0.1,7.5,0,0.300029,0.000180704,0
0.1,7.6,0,0.299995,0.00021638,0
0.1,7.7,0,0.30003,0.000220358,0
0.1,7.8,0,0.300022,0.000224573,0
0.1,7.9,0,0.30001,0.000256582,0
0.1,8,0,0.300029,0.00025829,0
0.1,8.1,0,0.300006,0.000269851,0
0.1,8.2,0,0.300021,0.000293629,0
0.1,8.3,0,0.300024,0.000293849,0
0.1,8.4,0,0.299991,0.000312394,0
0.1,8.5,0,0.300019,0.000326703,0
0.1,8.6,0,0.300019,0.000326703,0
0.1,8.7,0,0.29998,0.000351965,0
0.1,8.8,0,0.300012,0.000356825,0
0.1,8.9,0,0.300012,0.000356825,0
0.1,9,0,0.299978,0.00038605,0
0.1,9.1,0,0.300007,0.000384403,0
0.1,9.2,0,0.300007,0.000384403,0
0.1,9.3,0,0.299986,0.000411878,0
0.1,9.4,0,0.300003,0.000409682,0
0.1,9.5,0,0.300003,0.000409682,0
0.1,9.6,0,0.299991,0.000434616,0
0.1,9.7,0,0.3,0.000432841,0
0.1,9.8,0,0.299996,0.000438141,0
0.1,9.9,0,0.299995,0.000454803,0
0.1,10,0,0.299998,0.000453947,0
0.1,10.1,0,0.299992,0.000464094,0
0.1,10.2,0,0.299998,0.000472982,0
0.1,10.3,0,0.299998,0.000472982,0
0.1,10.4,0,0.29999,0.000486547,0
0.1,10.5,0,0.299997,0.00048988,0
0.1,10.6,0,0.299997,0.00048988,0
0.1,10.7,0,0.29999,0.000505373,0
0.1,10.8,0,0.299998,0.000504587,0
0.1,10.9,0,0.299998,0.000504587,0
0.1,11,0,0.299992,0.000518239,0
0.1,11.1,0,0.299998,0.00051708,0
0.1,11.2,0,0.299998,0.00051708,0
0.1,11.3,0,0.299995,0.000527877,0
0.1,11.4,0,0.299999,0.000527373,0
0.1,11.5,0,0.299998,0.00052783,0
0.1,11.6,0,0.299997,0.000535716,0
0.1,11.7,0,0.299999,0.000535516,0
0.1,11.8,0,0.299998,0.000537423,0
0.1,11.9,0,0.299999,0.000541635,0
0.1,12,0,0.299999,0.000541564,0
0.1,12.1,0,0.299998,0.000544108,0
0.1,12.2,0,0.3,0.000545564,0
0.1,12.3,0,0.3,0.000545564,0
0.1,12.4,0,0.299999,0.000548162,0
0.1,12.5,0,0.3,0.000593146,0
0.1,12.6,0,0.3,0.000803546,0
0.1,12.7,0,0.299999,0.00101621,0
0.2,0,0,0.299998,-0.00154131,0
0.2,0.1,0,0.299999,-0.00127413,0
0.2,0.2,0,0.299997,-0.00117928,0
0.2,0.3,0,0.299997,-0.00117721,0
0.2,0.4,0,0.299998,-0.00116977,0
0.2,0.5,0,0.299992,-0.00117854,0
0.2,0.6,0,0.299997,-0.00116165,0
0.2,0.7,0,0.299993,-0.00116501,0
0.2,0.8,0,0.299992,-0.00115899,0
0.2,0.9,0,0.299995,-0.0011474,0
0.2,1,0,0.299985,-0.00115632,0
0.2,1.1,0,0.299995,-0.00113161,0
0.2,1.2,0,0.299988,-0.00113476,0
0.2,1.3,0,0.299987,-0.00112506,0
0.2,1.4,0,0.299993,-0.00110847,0
0.2,1.5,0,0.299978,-0.00111897,0
0.2,1.6,0,0.299993,-0.00108562,0
0.2,1.7,0,0.299983,-0.00108875,0
0.2,1.8,0,0.299984,-0.00107567,0
0.2,1.9,0,0.299993,-0.00105412,0
0.2,2,0,0.29997,-0.00106557,0
0.2,2.1,0,0.299995,-0.00102478,0
0.2,2.2,0,0.299981,-0.00102699,0
0.2,2.3,0,0.299983,-0.00101076,0
0.2,2.4,0,0.299999,-0.000985269,0
0.2,2.5,0,0.299962,-0.00099501,0
0.2,2.6,0,0.300004,-0.000949645,0
0.2,2.7,0,0.29998,-0.000949241,0
0.2,2.8,0,0.299984,-0.000929753,0
0.2,2.9,0,0.300011,-0.000901824,0
0.2,3,0,0.299952,-0.000906562,0
0.2,3.1,0,0.300021,-0.000859166,0
0.2,3.2,0,0.299983,-0.000854867,0
0.2,3.3,0,0.299989,-0.000831539,0
0.2,3.4,0,0.30003,-0.0008019,0
0.2,3.5,0,0.299941,-0.000800463,0
0.2,3.6,0,0.30004,-0.000751045,0
0.2,3.7,0,0.299988,-0.00074313,0
0.2,3.8,0,0.299991,-0.000715645,0
0.2,3.9,0,0.300046,-0.00068382,0
0.2,4,0,0.299932,-0.000677902,0
0.2,4.1,0,0.30005,-0.000625173,0
0.2,4.2,0,0.299989,-0.000614698,0
0.2,4.3,0,0.299988,-0.000583904,0
0.2,4.4,0,0.300049,-0.000549837,0
0.2,4.5,0,0.299926,-0.000540414,0
0.2,4.6,0,0.300045,-0.000486229,0
0.2,4.7,0,0.299984,-0.000472793,0
0.2,4.8,0,0.299981,-0.000440346,0
0.2,4.9,0,0.300037,-0.000406706,0
0.2,5,0,0.299923,-0.000394124,0
0.2,5.1,0,0.300043,-0.000341479,0
0.2,5.2,0,0.299923,-0.00032772,0
0.2,5.3,0,0.300036,-0.000280868,0
0.2,5.4,0,0.299923,-0.000263756,0
0.2,5.5,0,0.300031,-0.00021996,0
0.2,5.6,0,0.299923,-0.000198809,0
0.2,5.7,0,0.300028,-0.000158991,0
0.2,5.8,0,0.299923,-0.000133196,0
0.2,5.9,0,0.300026,-9.79307e-05,0
0.2,6,0,0.299923,-6.72427e-05,0
0.2,6.1,0,0.300026,-3.67731e-05,0
0.2,6.2,0,0.299922,-1.30469e-06,0
0.2,6.3,0,0.300028,2.44458e-05,0
0.2,6.4,0,0.299922,6.42546e-05,0
0.2,6.5,0,0.300032,8.57147e-05,0
0.2,6.6,0,0.299922,0.000129116,0
0.2,6.7,0,0.300037,0.000147095,0
0.2,6.8,0,0.299922,0.000192986,0
0.2,6.9,0,0.300044,0.000208229,0
0.2,7,0,0.299923,0.000261809,0
0.2,7.1,0,0.300024,0.000276208,0
0.2,7.2,0,0.300009,0.000300506,0
0.2,7.3,0,0.29994,0.000344512,0
0.2,7.4,0,0.300045,0.000359643,0
0.2,7.5,0,0.299999,0.000390124,0
0.2,7.6,0,0.299958,0.000429179,0
0.2,7.7,0,0.30006,0.000440716,0
0.2,7.8,0,0.299986,0.000476965,0
0.2,7.9,0,0.299975,0.000508974,0
0.2,8,0,0.300058,0.00051658,0
0.2,8.1,0,0.299973,0.000559523,0
0.2,8.2,0,0.299988,0.000583301,0
0.2,8.3,0,0.300047,0.000588505,0
0.2,8.4,0,0.299961,0.000636883,0
0.2,8.5,0,0.299997,0.000651599,0
0.2,8.6,0,0.300025,0.0006613,0
0.2,8.7,0,0.299953,0.000708666,0
0.2,8.8,0,0.300002,0.000713578,0
0.2,8.9,0,0.300006,0.000728333,0
0.2,9,0,0.299954,0.000772241,0
0.2,9.1,0,0.300003,0.000769417,0
0.2,9.2,0,0.299993,0.000789797,0
0.2,9.3,0,0.299965,0.00082477,0
0.2,9.4,0,0.300004,0.000819702,0
0.2,9.5,0,0.299985,0.000845776,0
0.2,9.6,0,0.299972,0.000871423,0
0.2,9.7,0,0.3,0.000865683,0
0.2,9.8,0,0.299979,0.000896153,0
0.2,9.9,0,0.299978,0.000912815,0
0.2,10,0,0.299996,0.000907893,0
0.2,10.1,0,0.299977,0.000940724,0
0.2,10.2,0,0.299983,0.000949516,0
0.2,10.3,0,0.299994,0.000948051,0
0.2,10.4,0,0.299977,0.000979354,0
0.2,10.5,0,0.299987,0.000981917,0
0.2,10.6,0,0.299992,0.000985514,0
0.2,10.7,0,0.299978,0.00101207,0
0.2,10.8,0,0.299991,0.00101023,0
0.2,10.9,0,0.299991,0.0010172,0
0.2,11,0,0.299983,0.0010367,0
0.2,11.1,0,0.299994,0.00103452,0
0.2,11.2,0,0.299992,0.00104324,0
0.2,11.3,0,0.299987,0.00105608,0
0.2,11.4,0,0.299997,0.00105477,0
0.2,11.5,0,0.299992,0.00106389,0
0.2,11.6,0,0.299991,0.00107177,0
0.2,11.7,0,0.299997,0.00107103,0
0.2,11.8,0,0.299993,0.00107953,0
0.2,11.9,0,0.299994,0.00108374,0
0.2,12,0,0.299998,0.00108313,0
0.2,12.1,0,0.299995,0.0010905,0
0.2,12.2,0,0.299997,0.00109187,0
0.2,12.3,0,0.299999,0.00109176,0
0.2,12.4,0,0.299997,0.00109713,0
0.2,12.5,0,0.299999,0.00109605,0
0.2,12.6,0,0.3,0.00121881,0
0.2,12.7,0,0.299998,0.00143279,0
0.3,0,0,0.299997,-0.00199216,0
0.3,0.1,0,0.299997,-0.00176923,0
0.3,0.2,0,0.299995,-0.00177133,0
0.3,0.3,0,0.299995,-0.00176927,0
0.3,0.4,0,0.299994,-0.00176133,0
0.3,0.5,0,0.299989,-0.0017678,0
0.3,0.6,0,0.299992,-0.00175235,0
0.3,0.7,0,0.299987,-0.00174965,0
0.3,0.8,0,0.299986,-0.00174363,0
0.3,0.9,0,0.299986,-0.00172899,0
0.3,1,0,0.299978,-0.00173448,0
0.3,1.1,0,0.299985,-0.00171137,0
0.3,1.2,0,0.299979,-0.00170455,0
0.3,1.3,0,0.299978,-0.00169485,0
0.3,1.4,0,0.29998,-0.0016728,0
0.3,1.5,0,0.299967,-0.00167846,0
0.3,1.6,0,0.299979,-0.00164697,0
0.3,1.7,0,0.29997,-0.00163593,0
0.3,1.8,0,0.299971,-0.00162285,0
0.3,1.9,0,0.299975,-0.00159313,0
0.3,2,0,0.299955,-0.00159836,0
0.3,2.1,0,0.299976,-0.0015594,0
0.3,2.2,0,0.299964,-0.00154324,0
0.3,2.3,0,0.299966,-0.00152701,0
0.3,2.4,0,0.299974,-0.00149002,0
0.3,2.5,0,0.299943,-0.00149251,0
0.3,2.6,0,0.299977,-0.00144841,0
0.3,2.7,0,0.299959,-0.00142576,0
0.3,2.8,0,0.299963,-0.00140627,0
0.3,2.9,0,0.299978,-0.00136287,0
0.3,3,0,0.299928,-0.00135984,0
0.3,3.1,0,0.299985,-0.00131271,0
0.3,3.2,0,0.299957,-0.0012827,0
0.3,3.3,0,0.299962,-0.00125937,0
0.3,3.4,0,0.299987,-0.00121017,0
0.3,3.5,0,0.299912,-0.00120069,0
0.3,3.6,0,0.299993,-0.00115061,0
0.3,3.7,0,0.299956,-0.0011137,0
0.3,3.8,0,0.299959,-0.00108622,0
0.3,3.9,0,0.299993,-0.00103127,0
0.3,4,0,0.299897,-0.00101685,0
0.3,4.1,0,0.299995,-0.000962865,0
0.3,4.2,0,0.299953,-0.000920158,0
0.3,4.3,0,0.299953,-0.000889364,0
0.3,4.4,0,0.299991,-0.000829049,0
0.3,4.5,0,0.299889,-0.000810621,0
0.3,4.6,0,0.299987,-0.000754413,0
0.3,4.7,0,0.299946,-0.000706156,0
0.3,4.8,0,0.299943,-0.000673709,0
0.3,4.9,0,0.29998,-0.000612561,0
0.3,5,0,0.299885,-0.000591186,0
0.3,5.1,0,0.299974,-0.000526801,0
0.3,5.2,0,0.299884,-0.00049158,0
0.3,5.3,0,0.29997,-0.000432454,0
0.3,5.4,0,0.299884,-0.000395634,0
0.3,5.5,0,0.299965,-0.000338432,0
0.3,5.6,0,0.299884,-0.000298213,0
0.3,5.7,0,0.299963,-0.000243745,0
0.3,5.8,0,0.299884,-0.000199793,0
0.3,5.9,0,0.299961,-0.000148612,0
0.3,6,0,0.299884,-0.000100864,0
0.3,6.1,0,0.299961,-5.32851e-05,0
0.3,6.2,0,0.299884,-1.95703e-06,0
0.3,6.3,0,0.299963,4.19406e-05,0
0.3,6.4,0,0.299884,9.63819e-05,0
0.3,6.5,0,0.299966,0.0001368,0
0.3,6.6,0,0.299883,0.000193675,0
0.3,6.7,0,0.29997,0.00023111,0
0.3,6.8,0,0.299883,0.000289478,0
0.3,6.9,0,0.299975,0.00032672,0
0.3,7,0,0.299884,0.000392714,0
0.3,7.1,0,0.29998,0.000409567,0
0.3,7.2,0,0.299971,0.000471627,0
0.3,7.3,0,0.299902,0.000515633,0
0.3,7.4,0,0.299987,0.000540899,0
0.3,7.5,0,0.299962,0.000602923,0
0.3,7.6,0,0.299921,0.000641977,0
0.3,7.7,0,0.299991,0.000671616,0
0.3,7.8,0,0.299951,0.000729356,0
0.3,7.9,0,0.29994,0.000761366,0
0.3,8,0,0.299992,0.000795453,0
0.3,8.1,0,0.29994,0.000849194,0
0.3,8.2,0,0.299956,0.000872972,0
0.3,8.3,0,0.29999,0.000911014,0
0.3,8.4,0,0.299931,0.000961371,0
0.3,8.5,0,0.299967,0.000976087,0
0.3,8.6,0,0.299986,0.00101748,0
0.3,8.7,0,0.299926,0.00106537,0
0.3,8.8,0,0.299975,0.00107028,0
0.3,8.9,0,0.299982,0.00111452,0
0.3,9,0,0.299929,0.00115843,0
0.3,9.1,0,0.299975,0.00116011,0
0.3,9.2,0,0.299971,0.00120269,0
0.3,9.3,0,0.299943,0.00123766,0
0.3,9.4,0,0.299973,0.0012433,0
0.3,9.5,0,0.299965,0.00128258,0
0.3,9.6,0,0.299953,0.00130823,0
0.3,9.7,0,0.299973,0.00131787,0
0.3,9.8,0,0.299962,0.00135417,0
0.3,9.9,0,0.299961,0.00137083,0
0.3,10,0,0.299974,0.00138411,0
0.3,10.1,0,0.299962,0.00141735,0
0.3,10.2,0,0.299968,0.00142615,0
0.3,10.3,0,0.299976,0.0014423,0
0.3,10.4,0,0.299964,0.00147216,0
0.3,10.5,0,0.299974,0.00147472,0
0.3,10.6,0,0.299979,0.00149268,0
0.3,10.7,0,0.299967,0.00151877,0
0.3,10.8,0,0.29998,0.00151693,0
0.3,10.9,0,0.299982,0.00153566,0
0.3,11,0,0.299973,0.00155515,0
0.3,11.1,0,0.299984,0.00155561,0
0.3,11.2,0,0.299984,0.00157144,0
0.3,11.3,0,0.29998,0.00158429,0
0.3,11.4,0,0.299987,0.00158709,0
0.3,11.5,0,0.299986,0.00159995,0
0.3,11.6,0,0.299985,0.00160783,0
0.3,11.7,0,0.29999,0.00161166,0
0.3,11.8,0,0.299989,0.00162163,0
0.3,11.9,0,0.29999,0.00162584,0
0.3,12,0,0.299993,0.00162957,0
0.3,12.1,0,0.299992,0.0016369,0
0.3,12.2,0,0.299994,0.00163827,0
0.3,12.3,0,0.299997,0.00164099,0
0.3,12.4,0,0.299996,0.0016461,0
0.3,12.5,0,0.299998,0.00164501,0
0.3,12.6,0,0.299999,0.00164601,0
0.3,12.7,0,0.299998,0.00184936,0
0.4,0,0,0.299996,-0.00244301,0
0.4,0.1,0,0.299995,-0.00236758,0
0.4,0.2,0,0.299993,-0.0023659,0
0.4,0.3,0,0.299992,-0.00236327,0
0.4,0.4,0,0.299989,-0.00235825,0
0.4,0.5,0,0.299985,-0.00235707,0
0.4,0.6,0,0.299984,-0.00234637,0
0.4,0.7,0,0.29998,-0.00233804,0
0.4,0.8,0,0.299979,-0.00233025,0
0.4,0.9,0,0.299975,-0.00231859,0
0.4,1,0,0.29997,-0.00231264,0
0.4,1.1,0,0.299971,-0.00229489,0
0.4,1.2,0,0.299967,-0.00227983,0
0.4,1.3,0,0.299966,-0.00226698,0
0.4,1.4,0,0.299962,-0.00224842,0
0.4,1.5,0,0.299956,-0.00223794,0
0.4,1.6,0,0.299958,-0.00221267,0
0.4,1.7,0,0.299954,-0.00219051,0
0.4,1.8,0,0.299953,-0.00217257,0
0.4,1.9,0,0.299949,-0.00214667,0
0.4,2,0,0.29994,-0.00213114,0
0.4,2.1,0,0.299945,-0.00209832,0
0.4,2.2,0,0.299941,-0.00206855,0
0.4,2.3,0,0.299941,-0.00204542,0
0.4,2.4,0,0.299937,-0.00201168,0
0.4,2.5,0,0.299924,-0.00199002,0
0.4,2.6,0,0.299932,-0.00195013,0
0.4,2.7,0,0.299928,-0.00191236,0
0.4,2.8,0,0.299928,-0.00188384,0
0.4,2.9,0,0.299924,-0.00184201,0
0.4,3,0,0.299904,-0.00181312,0
0.4,3.1,0,0.29992,-0.00176687,0
0.4,3.2,0,0.299915,-0.00172106,0
0.4,3.3,0,0.299916,-0.00168688,0
0.4,3.4,0,0.299911,-0.0016372,0
0.4,3.5,0,0.299882,-0.00160093,0
0.4,3.6,0,0.299906,-0.00154864,0
0.4,3.7,0,0.299902,-0.00149526,0
0.4,3.8,0,0.299902,-0.00145548,0
0.4,3.9,0,0.299898,-0.00139856,0
0.4,4,0,0.299863,-0.0013558,0
0.4,4.1,0,0.299894,-0.00129762,0
0.4,4.2,0,0.299891,-0.00123734,0
0.4,4.3,0,0.299889,-0.00119273,0
0.4,4.4,0,0.299887,-0.00112927,0
0.4,4.5,0,0.299851,-0.00108083,0
0.4,4.6,0,0.299883,-0.00101788,0
0.4,4.7,0,0.299882,-0.00095156,0
0.4,4.8,0,0.299879,-0.000904276,0
0.4,4.9,0,0.299879,-0.000838934,0
0.4,5,0,0.299847,-0.000788247,0
0.4,5.1,0,0.299876,-0.000716983,0
0.4,5.2,0,0.299846,-0.00065544,0
0.4,5.3,0,0.299874,-0.000587758,0
0.4,5.4,0,0.299846,-0.000527511,0
0.4,5.5,0,0.299873,-0.000459734,0
0.4,5.6,0,0.299845,-0.000397618,0
0.4,5.7,0,0.299872,-0.000330252,0
0.4,5.8,0,0.299845,-0.000266391,0
0.4,5.9,0,0.299871,-0.000199866,0
0.4,6,0,0.299845,-0.000134485,0
0.4,6.1,0,0.299871,-6.91723e-05,0
0.4,6.2,0,0.299845,-2.60938e-06,0
0.4,6.3,0,0.299871,6.11926e-05,0
0.4,6.4,0,0.299845,0.000128509,0
0.4,6.5,0,0.299872,0.000190628,0
0.4,6.6,0,0.299844,0.000258233,0
0.4,6.7,0,0.299873,0.000318613,0
0.4,6.8,0,0.299845,0.000385971,0
0.4,6.9,0,0.299875,0.000450003,0
0.4,7,0,0.299846,0.000523619,0
0.4,7.1,0,0.299878,0.00057157,0
0.4,7.2,0,0.299879,0.000635069,0
0.4,7.3,0,0.299864,0.000686753,0
0.4,7.4,0,0.299883,0.000744115,0
0.4,7.5,0,0.299884,0.000809922,0
0.4,7.6,0,0.299884,0.000854776,0
0.4,7.7,0,0.299888,0.000916448,0
0.4,7.8,0,0.299891,0.000978963,0
0.4,7.9,0,0.299891,0.00102036,0
0.4,8,0,0.299895,0.00107923,0
0.4,8.1,0,0.299899,0.00113809,0
0.4,8.2,0,0.299898,0.00117635,0
0.4,8.3,0,0.299903,0.00123132,0
0.4,8.4,0,0.299901,0.00128586,0
0.4,8.5,0,0.299906,0.0013211,0
0.4,8.6,0,0.29991,0.00137196,0
0.4,8.7,0,0.299898,0.00142207,0
0.4,8.8,0,0.299914,0.00145403,0
0.4,8.9,0,0.299918,0.00150059,0
0.4,9,0,0.299905,0.00154462,0
0.4,9.1,0,0.299922,0.00157479,0
0.4,9.2,0,0.299926,0.00161695,0
0.4,9.3,0,0.299921,0.00165055,0
0.4,9.4,0,0.299929,0.00168332,0
0.4,9.5,0,0.299933,0.00172108,0
0.4,9.6,0,0.299933,0.00174636,0
0.4,9.7,0,0.299936,0.00177984,0
0.4,9.8,0,0.29994,0.00181333,0
0.4,9.9,0,0.29994,0.00183541,0
0.4,10,0,0.299943,0.0018648,0
0.4,10.1,0,0.299947,0.0018942,0
0.4,10.2,0,0.299948,0.00191321,0
0.4,10.3,0,0.299951,0.00193875,0
0.4,10.4,0,0.299951,0.00196497,0
0.4,10.5,0,0.299955,0.00198037,0
0.4,10.6,0,0.299957,0.0020023,0
0.4,10.7,0,0.299956,0.00202547,0
0.4,10.8,0,0.299962,0.0020375,0
0.4,10.9,0,0.299965,0.00205606,0
0.4,11,0,0.299964,0.00207361,0
0.4,11.1,0,0.299969,0.0020852,0
0.4,11.2,0,0.299971,0.00210059,0
0.4,11.3,0,0.299972,0.00211249,0
0.4,11.4,0,0.299975,0.00212398,0
0.4,11.5,0,0.299977,0.00213638,0
0.4,11.6,0,0.299978,0.00214476,0
0.4,11.7,0,0.299981,0.0021543,0
0.4,11.8,0,0.299983,0.00216385,0
0.4,11.9,0,0.299984,0.00216973,0
0.4,12,0,0.299987,0.00217651,0
0.4,12.1,0,0.299989,0.0021833,0
0.4,12.2,0,0.29999,0.00218673,0
0.4,12.3,0,0.299993,0.00219079,0
0.4,12.4,0,0.299994,0.00219507,0
0.4,12.5,0,0.299995,0.00219589,0
0.4,12.6,0,0.299996,0.00219725,0
0.4,12.7,0,0.299997,0.00226594,0
0.5,0,0,0.299993,-0.00296734,0
0.5,0.1,0,0.299993,-0.00296687,0
0.5,0.2,0,0.299991,-0.00296519,0
0.5,0.3,0,0.299987,-0.00296111,0
0.5,0.4,0,0.299984,-0.00295609,0
0.5,0.5,0,0.299978,-0.00294842,0
0.5,0.6,0,0.299976,-0.00294131,0
0.5,0.7,0,0.299972,-0.00293299,0
0.5,0.8,0,0.299968,-0.00292078,0
0.5,0.9,0,0.299964,-0.00290911,0
0.5,1,0,0.299956,-0.00289235,0
0.5,1.1,0,0.299956,-0.00287937,0
0.5,1.2,0,0.299953,-0.00286431,0
0.5,1.3,0,0.299948,-0.00284358,0
0.5,1.4,0,0.299945,-0.00282503,0
0.5,1.5,0,0.299935,-0.00279832,0
0.5,1.6,0,0.299936,-0.0027794,0
0.5,1.7,0,0.299933,-0.00275724,0
0.5,1.8,0,0.299927,-0.00272716,0
0.5,1.9,0,0.299924,-0.00270126,0
0.5,2,0,0.299912,-0.00266417,0
0.5,2.1,0,0.299914,-0.00263832,0
0.5,2.2,0,0.29991,-0.00260855,0
0.5,2.3,0,0.299904,-0.0025682,0
0.5,2.4,0,0.2999,-0.00253446,0
0.5,2.5,0,0.299888,-0.0024874,0
0.5,2.6,0,0.299888,-0.00245298,0
0.5,2.7,0,0.299883,-0.0024152,0
0.5,2.8,0,0.299874,-0.00236411,0
0.5,2.9,0,0.29987,-0.00232229,0
0.5,3,0,0.299861,-0.00226634,0
0.5,3.1,0,0.299855,-0.00222213,0
0.5,3.2,0,0.29985,-0.00217631,0
0.5,3.3,0,0.29984,-0.00211496,0
0.5,3.4,0,0.299835,-0.00206529,0
0.5,3.5,0,0.299833,-0.00200135,0
0.5,3.6,0,0.29982,-0.00194768,0
0.5,3.7,0,0.299815,-0.00189429,0
0.5,3.8,0,0.299806,-0.00182372,0
0.5,3.9,0,0.299802,-0.0017668,0
0.5,4,0,0.299807,-0.00169498,0
0.5,4.1,0,0.299792,-0.00163328,0
0.5,4.2,0,0.299789,-0.001573,0
0.5,4.3,0,0.299785,-0.00149381,0
0.5,4.4,0,0.299783,-0.00143035,0
0.5,4.5,0,0.299789,-0.00135109,0
0.5,4.6,0,0.299779,-0.00128209,0
0.5,4.7,0,0.299778,-0.00121577,0
0.5,4.8,0,0.299778,-0.00112937,0
0.5,4.9,0,0.299777,-0.00106402,0
0.5,5,0,0.299779,-0.000985287,0
0.5,5.1,0,0.299778,-0.000905662,0
0.5,5.2,0,0.299776,-0.00081922,0
0.5,5.3,0,0.299779,-0.000743346,0
0.5,5.4,0,0.299775,-0.000659272,0
0.5,5.5,0,0.29978,-0.000581244,0
0.5,5.6,0,0.299773,-0.000496915,0
0.5,5.7,0,0.29978,-0.000416884,0
0.5,5.8,0,0.299773,-0.000332932,0
0.5,5.9,0,0.299781,-0.000251164,0
0.5,6,0,0.299772,-0.000168119,0
0.5,6.1,0,0.29978,-8.50081e-05,0
0.5,6.2,0,0.299772,-3.33591e-06,0
0.5,6.3,0,0.29978,8.05827e-05,0
0.5,6.4,0,0.299773,0.000160534,0
0.5,6.5,0,0.299778,0.000244667,0
0.5,6.6,0,0.299774,0.000322718,0
0.5,6.7,0,0.299777,0.000406402,0
0.5,6.8,0,0.299775,0.000482475,0
0.5,6.9,0,0.299776,0.000570523,0
0.5,7,0,0.299778,0.000654628,0
0.5,7.1,0,0.299776,0.000731142,0
0.5,7.2,0,0.299777,0.000794641,0
0.5,7.3,0,0.29978,0.000873601,0
0.5,7.4,0,0.299778,0.000948298,0
0.5,7.5,0,0.29978,0.00101411,0
0.5,7.6,0,0.299783,0.00109899,0
0.5,7.7,0,0.299785,0.0011624,0
0.5,7.8,0,0.299788,0.00122491,0
0.5,7.9,0,0.299794,0.00130533,0
0.5,8,0,0.299798,0.00136419,0
0.5,8.1,0,0.299801,0.00142306,0
0.5,8.2,0,0.29981,0.00149793,0
0.5,8.3,0,0.299815,0.0015529,0
0.5,8.4,0,0.299821,0.00160803,0
0.5,8.5,0,0.29983,0.00167693,0
0.5,8.6,0,0.299834,0.00172779,0
0.5,8.7,0,0.299842,0.00177832,0
0.5,8.8,0,0.29985,0.00184148,0
0.5,8.9,0,0.299854,0.00188805,0
0.5,9,0,0.29986,0.00193522,0
0.5,9.1,0,0.299869,0.00199087,0
0.5,9.2,0,0.299873,0.00203303,0
0.5,9.3,0,0.299879,0.0020813,0
0.5,9.4,0,0.299886,0.00212472,0
0.5,9.5,0,0.299889,0.00216248,0
0.5,9.6,0,0.299897,0.00220967,0
0.5,9.7,0,0.2999,0.00224315,0
0.5,9.8,0,0.299904,0.00227663,0
0.5,9.9,0,0.29991,0.00231736,0
0.5,10,0,0.299913,0.00234675,0
0.5,10.1,0,0.299916,0.00237615,0
0.5,10.2,0,0.299922,0.00241084,0
0.5,10.3,0,0.299925,0.00243639,0
0.5,10.4,0,0.299926,0.00246107,0
0.5,10.5,0,0.299933,0.0024911,0
0.5,10.6,0,0.299936,0.00251304,0
0.5,10.7,0,0.299935,0.00253365,0
0.5,10.8,0,0.299943,0.00255911,0
0.5,10.9,0,0.299946,0.00257767,0
0.5,11,0,0.299947,0.00259676,0
0.5,11.1,0,0.299953,0.00261575,0
0.5,11.2,0,0.299956,0.00263114,0
0.5,11.3,0,0.299959,0.0026486,0
0.5,11.4,0,0.299963,0.00266179,0
0.5,11.5,0,0.299965,0.00267419,0
0.5,11.6,0,0.299969,0.00268829,0
0.5,11.7,0,0.299971,0.00269784,0
0.5,11.8,0,0.299974,0.00270738,0
0.5,11.9,0,0.299978,0.00271753,0
0.5,12,0,0.29998,0.00272431,0
0.5,12.1,0,0.299982,0.00273113,0
0.5,12.2,0,0.299986,0.00273738,0
0.5,12.3,0,0.299989,0.00274144,0
0.5,12.4,0,0.299991,0.00274585,0
0.5,12.5,0,0.299994,0.00274799,0
0.5,12.6,0,0.299995,0.00274935,0
0.5,12.7,0,0.299995,0.00275111,0
0.6,0,0,0.29999,-0.00356513,0
0.6,0.1,0,0.299992,-0.00356709,0
0.6,0.2,0,0.299988,-0.00356326,0
0.6,0.3,0,0.299982,-0.0035586,0
0.6,0.4,0,0.299979,-0.00355485,0
0.6,0.5,0,0.299967,-0.00354186,0
0.6,0.6,0,0.299968,-0.00353719,0
0.6,0.7,0,0.29996,-0.00352433,0
0.6,0.8,0,0.299954,-0.00351036,0
0.6,0.9,0,0.299953,-0.00350057,0
0.6,1,0,0.299936,-0.00347363,0
0.6,1.1,0,0.299942,-0.00346479,0
0.6,1.2,0,0.299932,-0.00344184,0
0.6,1.3,0,0.299926,-0.00341798,0
0.6,1.4,0,0.299927,-0.00340263,0
0.6,1.5,0,0.299904,-0.00335958,0
0.6,1.6,0,0.299915,-0.00334714,0
0.6,1.7,0,0.299903,-0.00331329,0
0.6,1.8,0,0.299895,-0.00327838,0
0.6,1.9,0,0.299898,-0.00325692,0
0.6,2,0,0.299871,-0.00319743,0
0.6,2.1,0,0.299883,-0.00317941,0
0.6,2.2,0,0.29987,-0.00313475,0
0.6,2.3,0,0.299861,-0.00308751,0
0.6,2.4,0,0.299863,-0.00305835,0
0.6,2.5,0,0.299836,-0.00298465,0
0.6,2.6,0,0.299843,-0.00295695,0
0.6,2.7,0,0.299831,-0.00290253,0
0.6,2.8,0,0.299818,-0.00284241,0
0.6,2.9,0,0.299815,-0.00280368,0
0.6,3,0,0.2998,-0.00271949,0
0.6,3.1,0,0.29979,-0.00267847,0
0.6,3.2,0,0.299785,-0.00261563,0
0.6,3.3,0,0.29977,-0.0025434,0
0.6,3.4,0,0.299759,-0.00249443,0
0.6,3.5,0,0.299763,-0.00240195,0
0.6,3.6,0,0.299732,-0.00234772,0
0.6,3.7,0,0.299736,-0.00227695,0
0.6,3.8,0,0.299723,-0.00219404,0
0.6,3.9,0,0.299706,-0.002136,0
0.6,4,0,0.299729,-0.00203437,0
0.6,4.1,0,0.299689,-0.00196986,0
0.6,4.2,0,0.299698,-0.00189107,0
0.6,4.3,0,0.299693,-0.00179802,0
0.6,4.4,0,0.299678,-0.00173228,0
0.6,4.5,0,0.299701,-0.0016214,0
0.6,4.6,0,0.299675,-0.00154703,0
0.6,4.7,0,0.29968,-0.00146178,0
0.6,4.8,0,0.299682,-0.00135892,0
0.6,4.9,0,0.299676,-0.00128783,0
0.6,5,0,0.299682,-0.0011823,0
0.6,5.1,0,0.29968,-0.00109284,0
0.6,5.2,0,0.299676,-0.00098292,0
0.6,5.3,0,0.299683,-0.000899217,0
0.6,5.4,0,0.299671,-0.000790914,0
0.6,5.5,0,0.299687,-0.000702962,0
0.6,5.6,0,0.299668,-0.000596105,0
0.6,5.7,0,0.299689,-0.000503642,0
0.6,5.8,0,0.299667,-0.000399417,0
0.6,5.9,0,0.299691,-0.000302506,0
0.6,6,0,0.299666,-0.000201765,0
0.6,6.1,0,0.29969,-0.000100793,0
0.6,6.2,0,0.299666,-4.13662e-06,0
0.6,6.3,0,0.299688,0.000100111,0
0.6,6.4,0,0.299668,0.000192456,0
0.6,6.5,0,0.299684,0.000298917,0
0.6,6.6,0,0.299671,0.00038713,0
0.6,6.7,0,0.29968,0.000494477,0
0.6,6.8,0,0.299675,0.000578989,0
0.6,6.9,0,0.299677,0.000688279,0
0.6,7,0,0.299681,0.000785741,0
0.6,7.1,0,0.299673,0.000888285,0
0.6,7.2,0,0.299676,0.000954031,0
0.6,7.3,0,0.299688,0.00104497,0
0.6,7.4,0,0.299674,0.00115345,0
0.6,7.5,0,0.299683,0.00122235,0
0.6,7.6,0,0.299697,0.00131198,0
0.6,7.7,0,0.299682,0.00140947,0
0.6,7.8,0,0.299699,0.00147546,0
0.6,7.9,0,0.299709,0.00156498,0
0.6,8,0,0.2997,0.00165036,0
0.6,8.1,0,0.299722,0.00171235,0
0.6,8.2,0,0.299729,0.00180249,0
0.6,8.3,0,0.299727,0.00187575,0
0.6,8.4,0,0.299749,0.00193236,0
0.6,8.5,0,0.299755,0.00202372,0
0.6,8.6,0,0.299758,0.00208495,0
0.6,8.7,0,0.299775,0.00213453,0
0.6,8.8,0,0.299785,0.00222775,0
0.6,8.9,0,0.29979,0.00227689,0
0.6,9,0,0.299797,0.00232065,0
0.6,9.1,0,0.299816,0.00240836,0
0.6,9.2,0,0.299819,0.00244924,0
0.6,9.3,0,0.299822,0.0024934,0
0.6,9.4,0,0.299842,0.0025675,0
0.6,9.5,0,0.299842,0.00260217,0
0.6,9.6,0,0.299846,0.00264742,0
0.6,9.7,0,0.299865,0.00270779,0
0.6,9.8,0,0.29986,0.00273653,0
0.6,9.9,0,0.299868,0.00278263,0
0.6,10,0,0.299883,0.00282997,0
0.6,10.1,0,0.299876,0.00285371,0
0.6,10.2,0,0.299889,0.00289944,0
0.6,10.3,0,0.2999,0.0029352,0
0.6,10.4,0,0.299891,0.0029552,0
0.6,10.5,0,0.299908,0.00299874,0
0.6,10.6,0,0.299914,0.00302487,0
0.6,10.7,0,0.299905,0.00304235,0
0.6,10.8,0,0.299925,0.00308174,0
0.6,10.9,0,0.299928,0.00310018,0
0.6,11,0,0.299922,0.00311779,0
0.6,11.1,0,0.299938,0.00314728,0
0.6,11.2,0,0.299939,0.00316257,0
0.6,11.3,0,0.299938,0.00317981,0
0.6,11.4,0,0.299951,0.00320053,0
0.6,11.5,0,0.299951,0.00321328,0
0.6,11.6,0,0.299953,0.00322833,0
0.6,11.7,0,0.299962,0.00324226,0
0.6,11.8,0,0.299962,0.00325276,0
0.6,11.9,0,0.299967,0.00326428,0
0.6,12,0,0.299973,0.00327298,0
0.6,12.1,0,0.299974,0.00328121,0
0.6,12.2,0,0.299981,0.00328832,0
0.6,12.3,0,0.299985,0.00329295,0
0.6,12.4,0,0.299986,0.00329866,0
0.6,12.5,0,0.299992,0.00330092,0
0.6,12.6,0,0.299994,0.0033023,0
0.6,12.7,0,0.299992,0.00330487,0
0.7,0,0,0.299986,-0.00416292,0
0.7,0.1,0,0.299989,-0.00416561,0
0.7,0.2,0,0.299982,-0.00415992,0
0.7,0.3,0,0.299976,-0.00415525,0
0.7,0.4,0,0.29997,-0.00414988,0
0.7,0.5,0,0.299957,-0.00413529,0
0.7,0.6,0,0.299958,-0.00413135,0
0.7,0.7,0,0.299945,-0.00411265,0
0.7,0.8,0,0.299939,-0.00409868,0
0.7,0.9,0,0.299936,-0.0040849,0
0.7,1,0,0.299915,-0.00405491,0
0.7,1.1,0,0.299923,-0.00404732,0
0.7,1.2,0,0.299906,-0.0040141,0
0.7,1.3,0,0.2999,-0.00399024,0
0.7,1.4,0,0.2999,-0.00396879,0
0.7,1.5,0,0.299873,-0.00392085,0
0.7,1.6,0,0.299887,-0.00391035,0
0.7,1.7,0,0.299866,-0.00386156,0
0.7,1.8,0,0.299859,-0.00382665,0
0.7,1.9,0,0.299862,-0.0037969,0
0.7,2,0,0.299829,-0.0037307,0
0.7,2.1,0,0.299845,-0.00371502,0
0.7,2.2,0,0.299823,-0.00365101,0
0.7,2.3,0,0.299814,-0.00360377,0
0.7,2.4,0,0.299815,-0.0035636,0
0.7,2.5,0,0.299784,-0.00348191,0
0.7,2.6,0,0.299793,-0.00345622,0
0.7,2.7,0,0.299774,-0.00337876,0
0.7,2.8,0,0.299761,-0.00331864,0
0.7,2.9,0,0.299756,-0.0032653,0
0.7,3,0,0.299738,-0.00317264,0
0.7,3.1,0,0.299727,-0.00313258,0
0.7,3.2,0,0.299719,-0.00304359,0
0.7,3.3,0,0.299704,-0.00297136,0
0.7,3.4,0,0.299687,-0.00290359,0
0.7,3.5,0,0.299693,-0.00280256,0
0.7,3.6,0,0.299657,-0.00274815,0
0.7,3.7,0,0.299662,-0.00264802,0
0.7,3.8,0,0.299649,-0.00256511,0
0.7,3.9,0,0.299622,-0.00248434,0
0.7,4,0,0.29965,-0.00237377,0
0.7,4.1,0,0.299604,-0.00230841,0
0.7,4.2,0,0.299615,-0.00219681,0
0.7,4.3,0,0.29961,-0.00210375,0
0.7,4.4,0,0.299585,-0.00201208,0
0.7,4.5,0,0.299613,-0.00189172,0
0.7,4.6,0,0.299582,-0.00181573,0
0.7,4.7,0,0.299587,-0.00169517,0
0.7,4.8,0,0.299589,-0.00159231,0
0.7,4.9,0,0.299577,-0.00149288,0
0.7,5,0,0.299585,-0.00137932,0
0.7,5.1,0,0.299581,-0.00127661,0
0.7,5.2,0,0.299575,-0.00114662,0
0.7,5.3,0,0.299585,-0.00105099,0
0.7,5.4,0,0.299568,-0.000922557,0
0.7,5.5,0,0.299588,-0.000821529,0
0.7,5.6,0,0.299563,-0.000695294,0
0.7,5.7,0,0.299591,-0.00058844,0
0.7,5.8,0,0.29956,-0.000465902,0
0.7,5.9,0,0.299592,-0.000353209,0
0.7,6,0,0.299559,-0.000235411,0
0.7,6.1,0,0.299591,-0.000117297,0
0.7,6.2,0,0.29956,-4.93733e-06,0
0.7,6.3,0,0.299589,0.000117655,0
0.7,6.4,0,0.299563,0.000224379,0
0.7,6.5,0,0.299586,0.000350125,0
0.7,6.6,0,0.299568,0.000451542,0
0.7,6.7,0,0.299581,0.000578746,0
0.7,6.8,0,0.299575,0.000675503,0
0.7,6.9,0,0.299578,0.000804065,0
0.7,7,0,0.299585,0.000916854,0
0.7,7.1,0,0.299576,0.00102145,0
0.7,7.2,0,0.299584,0.0011254,0
0.7,7.3,0,0.299596,0.00121634,0
0.7,7.4,0,0.299578,0.00133549,0
0.7,7.5,0,0.299596,0.00143535,0
0.7,7.6,0,0.29961,0.00152498,0
0.7,7.7,0,0.299587,0.00164158,0
0.7,7.8,0,0.299617,0.00172803,0
0.7,7.9,0,0.299628,0.00181755,0
0.7,8,0,0.299612,0.00193049,0
0.7,8.1,0,0.299646,0.00200211,0
0.7,8.2,0,0.299652,0.00209225,0