x,y,z,p
0,0,0,0.00176818
0,0.1,0,0.00347622
0,0.2,0,0.00518426
0,0.3,0,0.00723084
0,0.4,0,0.00961597
0,0.5,0,0.0120011
0,0.6,0,0.0143844
0,0.7,0,0.0167678
0,0.8,0,0.0191313
0,0.9,0,0.021475
0,1,0,0.0238187
0,1.1,0,0.0261234
0,1.2,0,0.028428
0,1.3,0,0.0307088
0,1.4,0,0.0329659
0,1.5,0,0.035223
0,1.6,0,0.0374296
0,1.7,0,0.0396362
0,1.8,0,0.0418116
0,1.9,0,0.0439555
0,2,0,0.0460996
0,2.1,0,0.0481741
0,2.2,0,0.0502486
0,2.3,0,0.0522832
0,2.4,0,0.0542778
0,2.5,0,0.0562723
0,2.6,0,0.0581801
0,2.7,0,0.0600878
0,2.8,0,0.0619487
0,2.9,0,0.0637628
0,3,0,0.0655768
0,3.1,0,0.067292
0,3.2,0,0.0690071
0,3.3,0,0.0706703
0,3.4,0,0.0722815
0,3.5,0,0.0738927
0,3.6,0,0.0753938
0,3.7,0,0.076895
0,3.8,0,0.0783389
0,3.9,0,0.0797255
0,4,0,0.0811122
0,4.1,0,0.0823782
0,4.2,0,0.0836441
0,4.3,0,0.0848469
0,4.4,0,0.0859864
0,4.5,0,0.0871259
0,4.6,0,0.0881331
0,4.7,0,0.0891403
0,4.8,0,0.0900016
0,4.9,0,0.090717
0,5,0,0.0914324
0,5.1,0,0.0926027
0,5.2,0,0.0933169
0,5.3,0,0.0939715
0,5.4,0,0.0945661
0,5.5,0,0.0951005
0,5.6,0,0.0955744
0,5.7,0,0.0959876
0,5.8,0,0.09634
0,5.9,0,0.0966313
0,6,0,0.0968615
0,6.1,0,0.0970306
0,6.2,0,0.0971381
0,6.3,0,0.0971839
0,6.4,0,0.0971682
0,6.5,0,0.0970907
0,6.6,0,0.0969515
0,6.7,0,0.0967506
0,6.8,0,0.0964879
0,6.9,0,0.0961637
0,7,0,0.095535
0,7.1,0,0.0951192
0,7.2,0,0.0947033
0,7.3,0,0.0942509
0,7.4,0,0.0935916
0,7.5,0,0.0929322
0,7.6,0,0.0922261
0,7.7,0,0.091411
0,7.8,0,0.0905959
0,7.9,0,0.0897126
0,8,0,0.088746
0,8.1,0,0.0877794
0,8.2,0,0.0867267
0,8.3,0,0.0856166
0,8.4,0,0.0845065
0,8.5,0,0.083304
0,8.6,0,0.0820708
0,8.7,0,0.0808375
0,8.8,0,0.0794859
0,8.9,0,0.0781211
0,9,0,0.0767489
0,9.1,0,0.0752359
0,9.2,0,0.073723
0,9.3,0,0.0721823
0,9.4,0,0.070531
0,9.5,0,0.0688796
0,9.6,0,0.0671867
0,9.7,0,0.0654165
0,9.8,0,0.0636464
0,9.9,0,0.0618234
0,10,0,0.0599475
0,10.1,0,0.0580716
0,10.2,0,0.0561305
0,10.3,0,0.0541544
0,10.4,0,0.0521783
0,10.5,0,0.0501296
0,10.6,0,0.0480628
0,10.7,0,0.0459959
0,10.8,0,0.0438509
0,10.9,0,0.0417018
0,11,0,0.0395463
0,11.1,0,0.0373327
0,11.2,0,0.035119
0,11.3,0,0.032892
0,11.4,0,0.0306249
0,11.5,0,0.0283579
0,11.6,0,0.0260758
0,11.7,0,0.0237712
0,11.8,0,0.0214667
0,11.9,0,0.0191353
0,12,0,0.016782
0,12.1,0,0.0144287
0,12.2,0,0.0120603
0,12.3,0,0.00968538
0,12.4,0,0.00731049
0,12.5,0,0.00549136
0,12.6,0,0.00377031
0,12.7,0,0.00204925
0.1,0,0,0.00158205
0.1,0.1,0,0.00330492
0.1,0.2,0,0.00501296
0.1,0.3,0,0.00722396
0.1,0.4,0,0.00960909
0.1,0.5,0,0.0120483
0.1,0.6,0,0.0143918
0.1,0.7,0,0.0167751
0.1,0.8,0,0.0191344
0.1,0.9,0,0.0214781
0.1,1,0,0.0239058
0.1,1.1,0,0.0261306
0.1,1.2,0,0.0284352
0.1,1.3,0,0.0307141
0.1,1.4,0,0.0329712
0.1,1.5,0,0.0353509
0.1,1.6,0,0.0374376
0.1,1.7,0,0.0396442
0.1,1.8,0,0.0418201
0.1,1.9,0,0.0439641
0.1,2,0,0.0462633
0.1,2.1,0,0.0481839
0.1,2.2,0,0.0502584
0.1,2.3,0,0.0522945
0.1,2.4,0,0.054289
0.1,2.5,0,0.0564674
0.1,2.6,0,0.0581917
0.1,2.7,0,0.0600994
0.1,2.8,0,0.0619618
0.1,2.9,0,0.0637759
0.1,3,0,0.0657973
0.1,3.1,0,0.0673049
0.1,3.2,0,0.06902
0.1,3.3,0,0.0706846
0.1,3.4,0,0.0722959
0.1,3.5,0,0.0741299
0.1,3.6,0,0.0754084
0.1,3.7,0,0.0769096
0.1,3.8,0,0.0783544
0.1,3.9,0,0.0797411
0.1,4,0,0.0813708
0.1,4.1,0,0.0823944
0.1,4.2,0,0.0836603
0.1,4.3,0,0.0848639
0.1,4.4,0,0.0860034
0.1,4.5,0,0.0874037
0.1,4.6,0,0.0881509
0.1,4.7,0,0.0891581
0.1,4.8,0,0.0900607
0.1,4.9,0,0.0907761
0.1,5,0,0.0917131
0.1,5.1,0,0.0928848
0.1,5.2,0,0.0935997
0.1,5.3,0,0.0942549
0.1,5.4,0,0.0948502
0.1,5.5,0,0.0953852
0.1,5.6,0,0.0958598
0.1,5.7,0,0.0962737
0.1,5.8,0,0.0966267
0.1,5.9,0,0.0969187
0.1,6,0,0.0971495
0.1,6.1,0,0.0973192
0.1,6.2,0,0.0974271
0.1,6.3,0,0.0974735
0.1,6.4,0,0.0974582
0.1,6.5,0,0.0973813
0.1,6.6,0,0.0972426
0.1,6.7,0,0.097042
0.1,6.8,0,0.0967799
0.1,6.9,0,0.0964561
0.1,7,0,0.0958276
0.1,7.1,0,0.0951683
0.1,7.2,0,0.0947524
0.1,7.3,0,0.0944086
0.1,7.4,0,0.0936155
0.1,7.5,0,0.0929561
0.1,7.6,0,0.0922488
0.1,7.7,0,0.0914337
0.1,7.8,0,0.0906187
0.1,7.9,0,0.0897353
0.1,8,0,0.0887687
0.1,8.1,0,0.0878021
0.1,8.2,0,0.0867471
0.1,8.3,0,0.085637
0.1,8.4,0,0.0845634
0.1,8.5,0,0.0833206
0.1,8.6,0,0.0820874
0.1,8.7,0,0.0810139
0.1,8.8,0,0.0795087
0.1,8.9,0,0.0781439
0.1,9,0,0.0769924
0.1,9.1,0,0.0752575
0.1,9.2,0,0.0737446
0.1,9.3,0,0.0722837
0.1,9.4,0,0.0705509
0.1,9.5,0,0.0688995
0.1,9.6,0,0.0672024
0.1,9.7,0,0.0654322
0.1,9.8,0,0.0636621
0.1,9.9,0,0.0618394
0.1,10,0,0.0599635
0.1,10.1,0,0.0580876
0.1,10.2,0,0.0561446
0.1,10.3,0,0.0541685
0.1,10.4,0,0.0522505
0.1,10.5,0,0.0501428
0.1,10.6,0,0.0480759
0.1,10.7,0,0.0461378
0.1,10.8,0,0.0438624
0.1,10.9,0,0.0417133
0.1,11,0,0.0396461
0.1,11.1,0,0.0373405
0.1,11.2,0,0.0351269
0.1,11.3,0,0.0329192
0.1,11.4,0,0.0306331
0.1,11.5,0,0.028366
0.1,11.6,0,0.0260788
0.1,11.7,0,0.0237743
0.1,11.8,0,0.0214697
0.1,11.9,0,0.0191468
0.1,12,0,0.0167935
0.1,12.1,0,0.0144402
0.1,12.2,0,0.0120552
0.1,12.3,0,0.00968032
0.1,12.4,0,0.00731324
0.1,12.5,0,0.00530028
0.1,12.6,0,0.00357923
0.1,12.7,0,0.00183354
0.2,0,0,0.00139593
0.2,0.1,0,0.00313362
0.2,0.2,0,0.00486042
0.2,0.3,0,0.00721939
0.2,0.4,0,0.00960221
0.2,0.5,0,0.0120956
0.2,0.6,0,0.0143991
0.2,0.7,0,0.0167883
0.2,0.8,0,0.0191437
0.2,0.9,0,0.0214812
0.2,1,0,0.0239929
0.2,1.1,0,0.0261378
0.2,1.2,0,0.0284525
0.2,1.3,0,0.0307297
0.2,1.4,0,0.0329765
0.2,1.5,0,0.0354788
0.2,1.6,0,0.0374455
0.2,1.7,0,0.039666
0.2,1.8,0,0.0418424
0.2,1.9,0,0.0439726
0.2,2,0,0.0464271
0.2,2.1,0,0.0481936
0.2,2.2,0,0.0502852
0.2,2.3,0,0.0523226
0.2,2.4,0,0.0543003
0.2,2.5,0,0.0566624
0.2,2.6,0,0.0582032
0.2,2.7,0,0.0601307
0.2,2.8,0,0.0619944
0.2,2.9,0,0.0637889
0.2,3,0,0.0660178
0.2,3.1,0,0.0673179
0.2,3.2,0,0.0690548
0.2,3.3,0,0.0707207
0.2,3.4,0,0.0723102
0.2,3.5,0,0.0743671
0.2,3.6,0,0.075423
0.2,3.7,0,0.0769477
0.2,3.8,0,0.0783935
0.2,3.9,0,0.0797566
0.2,4,0,0.0816295
0.2,4.1,0,0.0824106
0.2,4.2,0,0.0837016
0.2,4.3,0,0.0849059
0.2,4.4,0,0.0860205
0.2,4.5,0,0.0876816
0.2,4.6,0,0.0881686
0.2,4.7,0,0.089202
0.2,4.8,0,0.0901417
0.2,4.9,0,0.0908351
0.2,5,0,0.0919938
0.2,5.1,0,0.093167
0.2,5.2,0,0.0938824
0.2,5.3,0,0.0945383
0.2,5.4,0,0.0951342
0.2,5.5,0,0.0956699
0.2,5.6,0,0.0961452
0.2,5.7,0,0.0965597
0.2,5.8,0,0.0969134
0.2,5.9,0,0.097206
0.2,6,0,0.0974374
0.2,6.1,0,0.0976077
0.2,6.2,0,0.0977162
0.2,6.3,0,0.0977631
0.2,6.4,0,0.0977483
0.2,6.5,0,0.0976719
0.2,6.6,0,0.0975336
0.2,6.7,0,0.0973335
0.2,6.8,0,0.0970718
0.2,6.9,0,0.0967485
0.2,7,0,0.0961201
0.2,7.1,0,0.0952174
0.2,7.2,0,0.0948015
0.2,7.3,0,0.0947
0.2,7.4,0,0.0936395
0.2,7.5,0,0.0929801
0.2,7.6,0,0.0925363
0.2,7.7,0,0.0914565
0.2,7.8,0,0.0906845
0.2,7.9,0,0.0898873
0.2,8,0,0.0887914
0.2,8.1,0,0.0879913
0.2,8.2,0,0.0867675
0.2,8.3,0,0.0856573
0.2,8.4,0,0.0848028
0.2,8.5,0,0.0833372
0.2,8.6,0,0.0821039
0.2,8.7,0,0.0812701
0.2,8.8,0,0.0795316
0.2,8.9,0,0.0781668
0.2,9,0,0.0772802
0.2,9.1,0,0.0752791
0.2,9.2,0,0.0737662
0.2,9.3,0,0.0725482
0.2,9.4,0,0.0705708
0.2,9.5,0,0.0689194
0.2,9.6,0,0.0674098
0.2,9.7,0,0.0654479
0.2,9.8,0,0.0637481
0.2,9.9,0,0.0619255
0.2,10,0,0.0599795
0.2,10.1,0,0.0582631
0.2,10.2,0,0.0561586
0.2,10.3,0,0.0541825
0.2,10.4,0,0.0524391
0.2,10.5,0,0.050156
0.2,10.6,0,0.0480891
0.2,10.7,0,0.0463054
0.2,10.8,0,0.0438739
0.2,10.9,0,0.0417248
0.2,11,0,0.0397918
0.2,11.1,0,0.0373484
0.2,11.2,0,0.0351348
0.2,11.3,0,0.0330417
0.2,11.4,0,0.0306413
0.2,11.5,0,0.0283742
0.2,11.6,0,0.026145
0.2,11.7,0,0.0237774
0.2,11.8,0,0.0215054
0.2,11.9,0,0.0191678
0.2,12,0,0.0168051
0.2,12.1,0,0.0144851
0.2,12.2,0,0.0120501
0.2,12.3,0,0.00967525
0.2,12.4,0,0.00732381
0.2,12.5,0,0.0051092
0.2,12.6,0,0.00338815
0.2,12.7,0,0.00161783
0.3,0,0,0.00120981
0.3,0.1,0,0.00296232
0.3,0.2,0,0.00487666
0.3,0.3,0,0.00723564
0.3,0.4,0,0.00959533
0.3,0.5,0,0.0121428
0.3,0.6,0,0.0144065
0.3,0.7,0,0.0168538
0.3,0.8,0,0.0192092
0.3,0.9,0,0.0214843
0.3,1,0,0.02408
0.3,1.1,0,0.026145
0.3,1.2,0,0.02856
0.3,1.3,0,0.0308372
0.3,1.4,0,0.0329818
0.3,1.5,0,0.0356067
0.3,1.6,0,0.0374535
0.3,1.7,0,0.0398123
0.3,1.8,0,0.0419887
0.3,1.9,0,0.0439811
0.3,2,0,0.0465909
0.3,2.1,0,0.0482034
0.3,2.2,0,0.0504652
0.3,2.3,0,0.0525026
0.3,2.4,0,0.0543116
0.3,2.5,0,0.0568575
0.3,2.6,0,0.0582148
0.3,2.7,0,0.0603391
0.3,2.8,0,0.0622029
0.3,2.9,0,0.063802
0.3,3,0,0.0662382
0.3,3.1,0,0.0673308
0.3,3.2,0,0.0692854
0.3,3.3,0,0.0709513
0.3,3.4,0,0.0723246
0.3,3.5,0,0.0746043
0.3,3.6,0,0.0754376
0.3,3.7,0,0.0771983
0.3,3.8,0,0.078644
0.3,3.9,0,0.0797722
0.3,4,0,0.0818881
0.3,4.1,0,0.0824268
0.3,4.2,0,0.0839681
0.3,4.3,0,0.0851725
0.3,4.4,0,0.0860375
0.3,4.5,0,0.0879594
0.3,4.6,0,0.0881864
0.3,4.7,0,0.0894814
0.3,4.8,0,0.0904211
0.3,4.9,0,0.0908941
0.3,5,0,0.0922744
0.3,5.1,0,0.0934492
0.3,5.2,0,0.0941652
0.3,5.3,0,0.0948217
0.3,5.4,0,0.0954183
0.3,5.5,0,0.0959547
0.3,5.6,0,0.0964306
0.3,5.7,0,0.0968458
0.3,5.8,0,0.0972002
0.3,5.9,0,0.0974934
0.3,6,0,0.0977254
0.3,6.1,0,0.0978962
0.3,6.2,0,0.0980053
0.3,6.3,0,0.0980527
0.3,6.4,0,0.0980384
0.3,6.5,0,0.0979625
0.3,6.6,0,0.0978247
0.3,6.7,0,0.097625
0.3,6.8,0,0.0973638
0.3,6.9,0,0.0970409
0.3,7,0,0.0964127
0.3,7.1,0,0.0952665
0.3,7.2,0,0.094891
0.3,7.3,0,0.0949914
0.3,7.4,0,0.0936634
0.3,7.5,0,0.0931797
0.3,7.6,0,0.0928239
0.3,7.7,0,0.0914793
0.3,7.8,0,0.0909657
0.3,7.9,0,0.0901685
0.3,8,0,0.0888141
0.3,8.1,0,0.0882637
0.3,8.2,0,0.0870399
0.3,8.3,0,0.0856777
0.3,8.4,0,0.0850422
0.3,8.5,0,0.0834652
0.3,8.6,0,0.0821205
0.3,8.7,0,0.0815264
0.3,8.8,0,0.0795544
0.3,8.9,0,0.0781896
0.3,9,0,0.077568
0.3,9.1,0,0.0753008
0.3,9.2,0,0.0738687
0.3,9.3,0,0.0728126
0.3,9.4,0,0.0705907
0.3,9.5,0,0.0691275
0.3,9.6,0,0.0676555
0.3,9.7,0,0.0654637
0.3,9.8,0,0.0639746
0.3,9.9,0,0.062152
0.3,10,0,0.0599955
0.3,10.1,0,0.0584705
0.3,10.2,0,0.0563338
0.3,10.3,0,0.0541966
0.3,10.4,0,0.0526276
0.3,10.5,0,0.0502276
0.3,10.6,0,0.0481023
0.3,10.7,0,0.046473
0.3,10.8,0,0.0438854
0.3,10.9,0,0.0417363
0.3,11,0,0.0399376
0.3,11.1,0,0.0373563
0.3,11.2,0,0.0351999
0.3,11.3,0,0.0331642
0.3,11.4,0,0.0306494
0.3,11.5,0,0.0284718
0.3,11.6,0,0.0262426
0.3,11.7,0,0.0237804
0.3,11.8,0,0.0215738
0.3,11.9,0,0.0192362
0.3,12,0,0.0168166
0.3,12.1,0,0.0145299
0.3,12.2,0,0.0120784
0.3,12.3,0,0.00967018
0.3,12.4,0,0.00733437
0.3,12.5,0,0.00495173
0.3,12.6,0,0.00319706
0.3,12.7,0,0.00140212
0.4,0,0,0.00102368
0.4,0.1,0,0.00278806
0.4,0.2,0,0.00489291
0.4,0.3,0,0.00725189
0.4,0.4,0,0.00959927
0.4,0.5,0,0.01219
0.4,0.6,0,0.0144218
0.4,0.7,0,0.0169193
0.4,0.8,0,0.0192747
0.4,0.9,0,0.0215041
0.4,1,0,0.0241671
0.4,1.1,0,0.0261682
0.4,1.2,0,0.0286676
0.4,1.3,0,0.0309448
0.4,1.4,0,0.0330116
0.4,1.5,0,0.0357346
0.4,1.6,0,0.0374855
0.4,1.7,0,0.0399586
0.4,1.8,0,0.0421349
0.4,1.9,0,0.0440207
0.4,2,0,0.0467546
0.4,2.1,0,0.0482439
0.4,2.2,0,0.0506452
0.4,2.3,0,0.0526826
0.4,2.4,0,0.0543596
0.4,2.5,0,0.0570525
0.4,2.6,0,0.0582631
0.4,2.7,0,0.0605476
0.4,2.8,0,0.0624113
0.4,2.9,0,0.0638566
0.4,3,0,0.0664587
0.4,3.1,0,0.0673853
0.4,3.2,0,0.069516
0.4,3.3,0,0.0711819
0.4,3.4,0,0.0723836
0.4,3.5,0,0.0748416
0.4,3.6,0,0.0754967
0.4,3.7,0,0.0774489
0.4,3.8,0,0.0788946
0.4,3.9,0,0.0798363
0.4,4,0,0.0821468
0.4,4.1,0,0.0824915
0.4,4.2,0,0.0842347
0.4,4.3,0,0.085439
0.4,4.4,0,0.0861067
0.4,4.5,0,0.0882372
0.4,4.6,0,0.0882562
0.4,4.7,0,0.0897608
0.4,4.8,0,0.0907005
0.4,4.9,0,0.0909975
0.4,5,0,0.0925551
0.4,5.1,0,0.0937314
0.4,5.2,0,0.094448
0.4,5.3,0,0.0951051
0.4,5.4,0,0.0957024
0.4,5.5,0,0.0962394
0.4,5.6,0,0.096716
0.4,5.7,0,0.0971319
0.4,5.8,0,0.0974869
0.4,5.9,0,0.0977807
0.4,6,0,0.0980134
0.4,6.1,0,0.0981847
0.4,6.2,0,0.0982944
0.4,6.3,0,0.0983423
0.4,6.4,0,0.0983285
0.4,6.5,0,0.0982531
0.4,6.6,0,0.0981157
0.4,6.7,0,0.0979165
0.4,6.8,0,0.0976557
0.4,6.9,0,0.0973333
0.4,7,0,0.0967052
0.4,7.1,0,0.0954779
0.4,7.2,0,0.0951824
0.4,7.3,0,0.0952827
0.4,7.4,0,0.0937319
0.4,7.5,0,0.0934672
0.4,7.6,0,0.0931114
0.4,7.7,0,0.091502
0.4,7.8,0,0.091247
0.4,7.9,0,0.0904498
0.4,8,0,0.0888368
0.4,8.1,0,0.0885361
0.4,8.2,0,0.0873123
0.4,8.3,0,0.0856981
0.4,8.4,0,0.0852816
0.4,8.5,0,0.0837046
0.4,8.6,0,0.082217
0.4,8.7,0,0.0817827
0.4,8.8,0,0.0798107
0.4,8.9,0,0.0784333
0.4,9,0,0.0778559
0.4,9.1,0,0.0754555
0.4,9.2,0,0.0741332
0.4,9.3,0,0.0730771
0.4,9.4,0,0.0706106
0.4,9.5,0,0.0693732
0.4,9.6,0,0.0679012
0.4,9.7,0,0.0654794
0.4,9.8,0,0.0642011
0.4,9.9,0,0.0623785
0.4,10,0,0.0600115
0.4,10.1,0,0.058678
0.4,10.2,0,0.0565413
0.4,10.3,0,0.0542106
0.4,10.4,0,0.0528162
0.4,10.5,0,0.0504161
0.4,10.6,0,0.0481927
0.4,10.7,0,0.0466407
0.4,10.8,0,0.044027
0.4,10.9,0,0.0418821
0.4,11,0,0.0400833
0.4,11.1,0,0.0374101
0.4,11.2,0,0.0353224
0.4,11.3,0,0.0332867
0.4,11.4,0,0.0306576
0.4,11.5,0,0.0285694
0.4,11.6,0,0.0263402
0.4,11.7,0,0.0237835
0.4,11.8,0,0.0216422
0.4,11.9,0,0.0193046
0.4,12,0,0.0168282
0.4,12.1,0,0.0145748
0.4,12.2,0,0.0121232
0.4,12.3,0,0.00966771
0.4,12.4,0,0.00734494
0.4,12.5,0,0.00496229
0.4,12.6,0,0.00298956
0.4,12.7,0,0.00118641
0.5,0,0,0.000837558
0.5,0.1,0,0.00260193
0.5,0.2,0,0.00490916
0.5,0.3,0,0.00726813
0.5,0.4,0,0.00964649
0.5,0.5,0,0.0122372
0.5,0.6,0,0.0144691
0.5,0.7,0,0.0169848
0.5,0.8,0,0.0193402
0.5,0.9,0,0.0215912
0.5,1,0,0.0242542
0.5,1.1,0,0.0262553
0.5,1.2,0,0.0287752
0.5,1.3,0,0.0310524
0.5,1.4,0,0.0331395
0.5,1.5,0,0.0358625
0.5,1.6,0,0.0376134
0.5,1.7,0,0.0401049
0.5,1.8,0,0.0422812
0.5,1.9,0,0.0441844
0.5,2,0,0.0469184
0.5,2.1,0,0.0484077
0.5,2.2,0,0.0508252
0.5,2.3,0,0.0528627
0.5,2.4,0,0.0545547
0.5,2.5,0,0.0572475
0.5,2.6,0,0.0584581
0.5,2.7,0,0.060756
0.5,2.8,0,0.0626198
0.5,2.9,0,0.064077
0.5,3,0,0.0666792
0.5,3.1,0,0.0676058
0.5,3.2,0,0.0697466
0.5,3.3,0,0.0714125
0.5,3.4,0,0.0726208
0.5,3.5,0,0.0750788
0.5,3.6,0,0.0757339
0.5,3.7,0,0.0776994
0.5,3.8,0,0.0791451
0.5,3.9,0,0.080095
0.5,4,0,0.0824054
0.5,4.1,0,0.0827502
0.5,4.2,0,0.0845012
0.5,4.3,0,0.0857055
0.5,4.4,0,0.0863846
0.5,4.5,0,0.088515
0.5,4.6,0,0.088534
0.5,4.7,0,0.0900401
0.5,4.8,0,0.0909799
0.5,4.9,0,0.0912782
0.5,5,0,0.0928358
0.5,5.1,0,0.0940136
0.5,5.2,0,0.0947308
0.5,5.3,0,0.0953885
0.5,5.4,0,0.0959865
0.5,5.5,0,0.0965241
0.5,5.6,0,0.0970014
0.5,5.7,0,0.097418
0.5,5.8,0,0.0977736
0.5,5.9,0,0.0980681
0.5,6,0,0.0983014
0.5,6.1,0,0.0984732
0.5,6.2,0,0.0985834
0.5,6.3,0,0.0986319
0.5,6.4,0,0.0986186
0.5,6.5,0,0.0985437
0.5,6.6,0,0.0984068
0.5,6.7,0,0.098208
0.5,6.8,0,0.0979477
0.5,6.9,0,0.0976257
0.5,7,0,0.0969978
0.5,7.1,0,0.0957704
0.5,7.2,0,0.0954738
0.5,7.3,0,0.0955741
0.5,7.4,0,0.0940233
0.5,7.5,0,0.0937548
0.5,7.6,0,0.0933989
0.5,7.7,0,0.0917013
0.5,7.8,0,0.0915282
0.5,7.9,0,0.090731
0.5,8,0,0.0889858
0.5,8.1,0,0.0888085
0.5,8.2,0,0.0875847
0.5,8.3,0,0.0859009
0.5,8.4,0,0.085521
0.5,8.5,0,0.083944
0.5,8.6,0,0.0824733
0.5,8.7,0,0.082039
0.5,8.8,0,0.080067
0.5,8.9,0,0.0787211
0.5,9,0,0.0781437
0.5,9.1,0,0.0757433
0.5,9.2,0,0.0743976
0.5,9.3,0,0.0733415
0.5,9.4,0,0.0708751
0.5,9.5,0,0.069619
0.5,9.6,0,0.0681469
0.5,9.7,0,0.0656101
0.5,9.8,0,0.0644276
0.5,9.9,0,0.062605
0.5,10,0,0.0601232
0.5,10.1,0,0.0588854
0.5,10.2,0,0.0567487
0.5,10.3,0,0.0543992
0.5,10.4,0,0.0530047
0.5,10.5,0,0.0506047
0.5,10.6,0,0.0483603
0.5,10.7,0,0.0468083
0.5,10.8,0,0.0441946
0.5,10.9,0,0.0420278
0.5,11,0,0.0402291
0.5,11.1,0,0.0375558
0.5,11.2,0,0.0354449
0.5,11.3,0,0.0334091
0.5,11.4,0,0.030761
0.5,11.5,0,0.0286671
0.5,11.6,0,0.0264378
0.5,11.7,0,0.023829
0.5,11.8,0,0.0217105
0.5,11.9,0,0.0193729
0.5,12,0,0.0168619
0.5,12.1,0,0.0146197
0.5,12.2,0,0.0121681
0.5,12.3,0,0.00967828
0.5,12.4,0,0.0073555
0.5,12.5,0,0.00497286
0.5,12.6,0,0.00277385
0.5,12.7,0,0.000970699
0.6,0,0,0.000651434
0.6,0.1,0,0.00247207
0.6,0.2,0,0.0049254
0.6,0.3,0,0.00728438
0.6,0.4,0,0.00970066
0.6,0.5,0,0.0122845
0.6,0.6,0,0.0145337
0.6,0.7,0,0.0170504
0.6,0.8,0,0.0194058
0.6,0.9,0,0.0216971
0.6,1,0,0.0243413
0.6,1.1,0,0.0263725
0.6,1.2,0,0.0288828
0.6,1.3,0,0.03116
0.6,1.4,0,0.0332981
0.6,1.5,0,0.0359904
0.6,1.6,0,0.0377828
0.6,1.7,0,0.0402512
0.6,1.8,0,0.0424275
0.6,1.9,0,0.0443895
0.6,2,0,0.0470822
0.6,2.1,0,0.0486226
0.6,2.2,0,0.0510052
0.6,2.3,0,0.0530427
0.6,2.4,0,0.0548003
0.6,2.5,0,0.0574426
0.6,2.6,0,0.0587122
0.6,2.7,0,0.0609645
0.6,2.8,0,0.0628282
0.6,2.9,0,0.0643561
0.6,3,0,0.0668996
0.6,3.1,0,0.0678915
0.6,3.2,0,0.0699772
0.6,3.3,0,0.0716431
0.6,3.4,0,0.0729229
0.6,3.5,0,0.075316
0.6,3.6,0,0.0760419
0.6,3.7,0,0.07795
0.6,3.8,0,0.0793957
0.6,3.9,0,0.0804241
0.6,4,0,0.0826641
0.6,4.1,0,0.0830839
0.6,4.2,0,0.0847678
0.6,4.3,0,0.0859721
0.6,4.4,0,0.0867372
0.6,4.5,0,0.0887929
0.6,4.6,0,0.0888903
0.6,4.7,0,0.0903195
0.6,4.8,0,0.0912592
0.6,4.9,0,0.0916249
0.6,5,0,0.0931165
0.6,5.1,0,0.0942958
0.6,5.2,0,0.0950135
0.6,5.3,0,0.0956719
0.6,5.4,0,0.0962705
0.6,5.5,0,0.0968089
0.6,5.6,0,0.0972868
0.6,5.7,0,0.097704
0.6,5.8,0,0.0980604
0.6,5.9,0,0.0983554
0.6,6,0,0.0985893
0.6,6.1,0,0.0987618
0.6,6.2,0,0.0988725
0.6,6.3,0,0.0989215
0.6,6.4,0,0.0989087
0.6,6.5,0,0.0988343
0.6,6.6,0,0.0986978
0.6,6.7,0,0.0984995
0.6,6.8,0,0.0982396
0.6,6.9,0,0.0979181
0.6,7,0,0.0972903
0.6,7.1,0,0.096063
0.6,7.2,0,0.0957651
0.6,7.3,0,0.0958655
0.6,7.4,0,0.0944025
0.6,7.5,0,0.0940423
0.6,7.6,0,0.0936864
0.6,7.7,0,0.0922042
0.6,7.8,0,0.0918094
0.6,7.9,0,0.0910122
0.6,8,0,0.0895168
0.6,8.1,0,0.0890809
0.6,8.2,0,0.0878571
0.6,8.3,0,0.0863084
0.6,8.4,0,0.0857604
0.6,8.5,0,0.0841834
0.6,8.6,0,0.0827667
0.6,8.7,0,0.0822953
0.6,8.8,0,0.0803233
0.6,8.9,0,0.079009
0.6,9,0,0.0784315
0.6,9.1,0,0.0760311
0.6,9.2,0,0.0746621
0.6,9.3,0,0.0736059
0.6,9.4,0,0.0712524
0.6,9.5,0,0.0698647
0.6,9.6,0,0.0683927
0.6,9.7,0,0.0660666
0.6,9.8,0,0.0646541
0.6,9.9,0,0.0628315
0.6,10,0,0.0605411
0.6,10.1,0,0.0590928
0.6,10.2,0,0.0569561
0.6,10.3,0,0.0546844
0.6,10.4,0,0.0531932
0.6,10.5,0,0.0507932
0.6,10.6,0,0.0485279
0.6,10.7,0,0.0469759
0.6,10.8,0,0.0443623
0.6,10.9,0,0.0421736
0.6,11,0,0.0403749
0.6,11.1,0,0.0377207
0.6,11.2,0,0.0355673
0.6,11.3,0,0.0335316
0.6,11.4,0,0.0309431
0.6,11.5,0,0.0287647
0.6,11.6,0,0.0265355
0.6,11.7,0,0.0239919
0.6,11.8,0,0.0217789
0.6,11.9,0,0.0194413
0.6,12,0,0.0169541
0.6,12.1,0,0.0146645
0.6,12.2,0,0.0122129
0.6,12.3,0,0.00970549
0.6,12.4,0,0.00736607
0.6,12.5,0,0.00498342
0.6,12.6,0,0.00255814
0.6,12.7,0,0.000754988
0.7,0,0,0.00046531
0.7,0.1,0,0.0024735
0.7,0.2,0,0.00494165
0.7,0.3,0,0.00730062
0.7,0.4,0,0.00977101
0.7,0.5,0,0.0123317
0.7,0.6,0,0.0146391
0.7,0.7,0,0.0171159
0.7,0.8,0,0.0194713
0.7,0.9,0,0.0218466
0.7,1,0,0.0244284
0.7,1.1,0,0.02656
0.7,1.2,0,0.0289903
0.7,1.3,0,0.0312675
0.7,1.4,0,0.0335283
0.7,1.5,0,0.0361183
0.7,1.6,0,0.038049
0.7,1.7,0,0.0403975
0.7,1.8,0,0.0425738
0.7,1.9,0,0.0446911
0.7,2,0,0.0472459
0.7,2.1,0,0.0489566
0.7,2.2,0,0.0511852
0.7,2.3,0,0.0532227
0.7,2.4,0,0.0551641
0.7,2.5,0,0.0576376
0.7,2.6,0,0.0591041
0.7,2.7,0,0.0611729
0.7,2.8,0,0.0630367
0.7,2.9,0,0.0647719
0.7,3,0,0.0671201
0.7,3.1,0,0.0683296
0.7,3.2,0,0.0702078
0.7,3.3,0,0.0718737
0.7,3.4,0,0.0733763
0.7,3.5,0,0.0755532
0.7,3.6,0,0.0765151
0.7,3.7,0,0.0782005
0.7,3.8,0,0.0796462
0.7,3.9,0,0.0809178
0.7,4,0,0.0829227
0.7,4.1,0,0.0835929
0.7,4.2,0,0.0850343
0.7,4.3,0,0.0862386
0.7,4.4,0,0.0872646
0.7,4.5,0,0.0890707
0.7,4.6,0,0.0894298
0.7,4.7,0,0.0905989
0.7,4.8,0,0.0915386
0.7,4.9,0,0.0921259
0.7,5,0,0.0933971
0.7,5.1,0,0.094578
0.7,5.2,0,0.0952963
0.7,5.3,0,0.0959553
0.7,5.4,0,0.0965546
0.7,5.5,0,0.0970936
0.7,5.6,0,0.0975722
0.7,5.7,0,0.0979901
0.7,5.8,0,0.0983471
0.7,5.9,0,0.0986428
0.7,6,0,0.0988773
0.7,6.1,0,0.0990503
0.7,6.2,0,0.0991616
0.7,6.3,0,0.0992111
0.7,6.4,0,0.0991988
0.7,6.5,0,0.0991249
0.7,6.6,0,0.0989889
0.7,6.7,0,0.098791
0.7,6.8,0,0.0985316
0.7,6.9,0,0.0982105
0.7,7,0,0.0975829
0.7,7.1,0,0.0965574
0.7,7.2,0,0.0961377
0.7,7.3,0,0.0961568
0.7,7.4,0,0.0949575
0.7,7.5,0,0.0943298
0.7,7.6,0,0.0939739
0.7,7.7,0,0.0927502
0.7,7.8,0,0.0920907
0.7,7.9,0,0.0912935
0.7,8,0,0.0900477
0.7,8.1,0,0.0893533
0.7,8.2,0,0.0881295
0.7,8.3,0,0.0867998
0.7,8.4,0,0.0859997
0.7,8.5,0,0.0844228
0.7,8.6,0,0.0832458
0.7,8.7,0,0.0825516
0.7,8.8,0,0.080712
0.7,8.9,0,0.0794524
0.7,9,0,0.0787194
0.7,9.1,0,0.0765618
0.7,9.2,0,0.0749709
0.7,9.3,0,0.0738704
0.7,9.4,0,0.0717427
0.7,9.5,0,0.0701104
0.7,9.6,0,0.0686384
0.7,9.7,0,0.0665231
0.7,9.8,0,0.0648806
0.7,9.9,0,0.0630581
0.7,10,0,0.0609591
0.7,10.1,0,0.0593003
0.7,10.2,0,0.0571636
0.7,10.3,0,0.0550663
0.7,10.4,0,0.0533818
0.7,10.5,0,0.0510075
0.7,10.6,0,0.0488709
0.7,10.7,0,0.0471435
0.7,10.8,0,0.0446194
0.7,10.9,0,0.0423974
0.7,11,0,0.0405206
0.7,11.1,0,0.0379811
0.7,11.2,0,0.0356898
0.7,11.3,0,0.0336541
0.7,11.4,0,0.0311551
0.7,11.5,0,0.0288623
0.7,11.6,0,0.0266331
0.7,11.7,0,0.0241548
0.7,11.8,0,0.0218472
0.7,11.9,0,0.0195097
0.7,12,0,0.0170558
0.7,12.1,0,0.0147094
0.7,12.2,0,0.0122578
0.7,12.3,0,0.00976598
0.7,12.4,0,0.00737664
0.7,12.5,0,0.00498578
0.7,12.6,0,0.00251047
0.7,12.7,0,0.000539277
0.8,0,0,0.000279186
0.8,0.1,0,0.00247492
0.8,0.2,0,0.00495196
0.8,0.3,0,0.00733851
0.8,0.4,0,0.00984137
0.8,0.5,0,0.0123789
0.8,0.6,0,0.0147445
0.8,0.7,0,0.0171973
0.8,0.8,0,0.0195704
0.8,0.9,0,0.0219961
0.8,1,0,0.0245155
0.8,1.1,0,0.0267474
0.8,1.2,0,0.0291299
0.8,1.3,0,0.0314242
0.8,1.4,0,0.0337585
0.8,1.5,0,0.0362462
0.8,1.6,0,0.0383152
0.8,1.7,0,0.0405917
0.8,1.8,0,0.0427822
0.8,1.9,0,0.0449926
0.8,2,0,0.0474097
0.8,2.1,0,0.0492906
0.8,2.2,0,0.0514268
0.8,2.3,0,0.0534762
0.8,2.4,0,0.0555279
0.8,2.5,0,0.0578327
0.8,2.6,0,0.059496
0.8,2.7,0,0.0614547
0.8,2.8,0,0.0633281
0.8,2.9,0,0.0651878
0.8,3,0,0.0673405
0.8,3.1,0,0.0687677
0.8,3.2,0,0.0705214
0.8,3.3,0,0.0721934
0.8,3.4,0,0.0738298
0.8,3.5,0,0.0757904
0.8,3.6,0,0.0769883
0.8,3.7,0,0.0785401
0.8,3.8,0,0.079994
0.8,3.9,0,0.0814114
0.8,4,0,0.0831813
0.8,4.1,0,0.0841018
0.8,4.2,0,0.0853978
0.8,4.3,0,0.0866095
0.8,4.4,0,0.0877919
0.8,4.5,0,0.0893485
0.8,4.6,0,0.0899692
0.8,4.7,0,0.0909823
0.8,4.8,0,0.0919066
0.8,4.9,0,0.092627
0.8,5,0,0.0936778
0.8,5.1,0,0.0948602
0.8,5.2,0,0.0955791
0.8,5.3,0,0.0962387
0.8,5.4,0,0.0968387
0.8,5.5,0,0.0973784
0.8,5.6,0,0.0978576
0.8,5.7,0,0.0982762
0.8,5.8,0,0.0986339
0.8,5.9,0,0.0989301
0.8,6,0,0.0991653
0.8,6.1,0,0.0993388
0.8,6.2,0,0.0994507
0.8,6.3,0,0.0995008
0.8,6.4,0,0.0994889
0.8,6.5,0,0.0994155
0.8,6.6,0,0.0992799
0.8,6.7,0,0.0990825
0.8,6.8,0,0.0988235
0.8,6.9,0,0.098503
0.8,7,0,0.0978754
0.8,7.1,0,0.0970922
0.8,7.2,0,0.0966725
0.8,7.3,0,0.0964482
0.8,7.4,0,0.0955124
0.8,7.5,0,0.0948401
0.8,7.6,0,0.0942614
0.8,7.7,0,0.0932962
0.8,7.8,0,0.0924601
0.8,7.9,0,0.0915747
0.8,8,0,0.0905787
0.8,8.1,0,0.0896257
0.8,8.2,0,0.0885114
0.8,8.3,0,0.0872913
0.8,8.4,0,0.0862391
0.8,8.5,0,0.0849019
0.8,8.6,0,0.0837249
0.8,8.7,0,0.0828078
0.8,8.8,0,0.0812333
0.8,8.9,0,0.0799737
0.8,9,0,0.0790072
0.8,9.1,0,0.0770925
0.8,9.2,0,0.0755015
0.8,9.3,0,0.0741348
0.8,9.4,0,0.0722329
0.8,9.5,0,0.0705192
0.8,9.6,0,0.0688841
0.8,9.7,0,0.0669796
0.8,9.8,0,0.0651454
0.8,9.9,0,0.0633165
0.8,10,0,0.061377
0.8,10.1,0,0.0595077
0.8,10.2,0,0.0574873
0.8,10.3,0,0.0554482
0.8,10.4,0,0.0535703
0.8,10.5,0,0.0513505
0.8,10.6,0,0.0492139
0.8,10.7,0,0.0473112
0.8,10.8,0,0.0449213
0.8,10.9,0,0.0426993
0.8,11,0,0.0406664
0.8,11.1,0,0.0382414
0.8,11.2,0,0.0359502
0.8,11.3,0,0.0337765
0.8,11.4,0,0.031367
0.8,11.5,0,0.0290171
0.8,11.6,0,0.0267307
0.8,11.7,0,0.0243177
0.8,11.8,0,0.0219156
0.8,11.9,0,0.0195891
0.8,12,0,0.0171575
0.8,12.1,0,0.0147542
0.8,12.2,0,0.0123157
0.8,12.3,0,0.00982647
0.8,12.4,0,0.0073872
0.8,12.5,0,0.00497172
0.8,12.6,0,0.00249641
0.8,12.7,0,0.000323566
0.9,0,0,9.3062e-05
0.9,0.1,0,0.00247634
0.9,0.2,0,0.00495339
0.9,0.3,0,0.00740887
0.9,0.4,0,0.00991173
0.9,0.5,0,0.0124261
0.9,0.6,0,0.0148499
0.9,0.7,0,0.0173027
0.9,0.8,0,0.0197199
0.9,0.9,0,0.0221457
0.9,1,0,0.0246026
0.9,1.1,0,0.0269349
0.9,1.2,0,0.0293173
0.9,1.3,0,0.0316543
0.9,1.4,0,0.0339887
0.9,1.5,0,0.0363741
0.9,1.6,0,0.0385815
0.9,1.7,0,0.040858
0.9,1.8,0,0.0430838
0.9,1.9,0,0.0452942
0.9,2,0,0.0475735
0.9,2.1,0,0.0496246
0.9,2.2,0,0.0517609
0.9,2.3,0,0.05384
0.9,2.4,0,0.0558916
0.9,2.5,0,0.0580277
0.9,2.6,0,0.059888
0.9,2.7,0,0.0618466
0.9,2.8,0,0.0637439
0.9,2.9,0,0.0656036
0.9,3,0,0.067561
0.9,3.1,0,0.0692059
0.9,3.2,0,0.0709595
0.9,3.3,0,0.0726469
0.9,3.4,0,0.0742832
0.9,3.5,0,0.0760276
0.9,3.6,0,0.0774615
0.9,3.7,0,0.0790133
0.9,3.8,0,0.0804877
0.9,3.9,0,0.0819051
0.9,4,0,0.08344
0.9,4.1,0,0.0846108
0.9,4.2,0,0.0859068
0.9,4.3,0,0.0871368
0.9,4.4,0,0.0883192
0.9,4.5,0,0.0896263
0.9,4.6,0,0.0905086
0.9,4.7,0,0.0915217
0.9,4.8,0,0.0924076
0.9,4.9,0,0.093128
0.9,5,0,0.0939585
0.9,5.1,0,0.0951424
0.9,5.2,0,0.0958618
0.9,5.3,0,0.0965221
0.9,5.4,0,0.0971228
0.9,5.5,0,0.0976631
0.9,5.6,0,0.098143
0.9,5.7,0,0.0985623
0.9,5.8,0,0.0989206
0.9,5.9,0,0.0992175
0.9,6,0,0.0994533
0.9,6.1,0,0.0996273
0.9,6.2,0,0.0997397
0.9,6.3,0,0.0997904
0.9,6.4,0,0.099779
0.9,6.5,0,0.0997061
0.9,6.6,0,0.099571
0.9,6.7,0,0.099374
0.9,6.8,0,0.0991155
0.9,6.9,0,0.0987954
0.9,7,0,0.098168
0.9,7.1,0,0.0976271
0.9,7.2,0,0.0972073
0.9,7.3,0,0.0967396
0.9,7.4,0,0.0960673
0.9,7.5,0,0.0953951
0.9,7.6,0,0.0946782
0.9,7.7,0,0.0938421
0.9,7.8,0,0.0930061
0.9,7.9,0,0.0921056
0.9,8,0,0.0911096
0.9,8.1,0,0.0901136
0.9,8.2,0,0.0890028
0.9,8.3,0,0.0877827
0.9,8.4,0,0.0865625
0.9,8.5,0,0.0853809
0.9,8.6,0,0.084204
0.9,8.7,0,0.0830641
0.9,8.8,0,0.0817546
0.9,8.9,0,0.080495
0.9,9,0,0.079295
0.9,9.1,0,0.0776231
0.9,9.2,0,0.0760322
0.9,9.3,0,0.0744369
0.9,9.4,0,0.0727232
0.9,9.5,0,0.0710094
0.9,9.6,0,0.0692704
0.9,9.7,0,0.0674362
0.9,9.8,0,0.0656019
0.9,9.9,0,0.0637344
0.9,10,0,0.0617949
0.9,10.1,0,0.0598555
0.9,10.2,0,0.0578693
0.9,10.3,0,0.0558302
0.9,10.4,0,0.0537911
0.9,10.5,0,0.0516935
0.9,10.6,0,0.0495569
0.9,10.7,0,0.0474788
0.9,10.8,0,0.0452232
0.9,10.9,0,0.0430012
0.9,11,0,0.0408121
0.9,11.1,0,0.0385018
0.9,11.2,0,0.0362105
0.9,11.3,0,0.0339288
0.9,11.4,0,0.0315789
0.9,11.5,0,0.029229
0.9,11.6,0,0.0268827
0.9,11.7,0,0.0244806
0.9,11.8,0,0.0220785
0.9,11.9,0,0.0196908
0.9,12,0,0.0172591
0.9,12.1,0,0.0148275
0.9,12.2,0,0.0123761
0.9,12.3,0,0.00988696
0.9,12.4,0,0.00739777
0.9,12.5,0,0.00495765
0.9,12.6,0,0.00248234
0.9,12.7,0,0.000107855
1,0,0,0
1,0.1,0,0.00245962
1,0.2,0,0.00493667
1,0.3,0,0.00749057
1,0.4,0,0.00999343
1,0.5,0,0.0125089
1,0.6,0,0.0149571
1,0.7,0,0.0174099
1,0.8,0,0.0198748
1,0.9,0,0.0223005
1,1,0,0.0247614
1,1.1,0,0.0271284
1,1.2,0,0.0295109
1,1.3,0,0.0318911
1,1.4,0,0.0342254
1,1.5,0,0.0366087
1,1.6,0,0.0388564
1,1.7,0,0.0411329
1,1.8,0,0.0433941
1,1.9,0,0.0456045
1,2,0,0.0478763
1,2.1,0,0.0499694
1,2.2,0,0.0521056
1,2.3,0,0.0542152
1,2.4,0,0.0562669
1,2.5,0,0.0583925
1,2.6,0,0.0602928
1,2.7,0,0.0622515
1,2.8,0,0.0641728
1,2.9,0,0.0660325
1,3,0,0.0679831
1,3.1,0,0.0696588
1,3.2,0,0.0714125
1,3.3,0,0.0731164
1,3.4,0,0.0747527
1,3.5,0,0.0765051
1,3.6,0,0.0779408
1,3.7,0,0.0794927
1,3.8,0,0.0810105
1,3.9,0,0.0824279
1,4,0,0.0839218
1,4.1,0,0.0851225
1,4.2,0,0.0864185
1,4.3,0,0.0876912
1,4.4,0,0.0888736
1,4.5,0,0.0901586
1,4.6,0,0.0910655
1,4.7,0,0.0920786
1,4.8,0,0.0929683
1,4.9,0,0.0936886
1,5,0,0.0945139
1,5.1,0,0.0957016
1,5.2,0,0.0964239
1,5.3,0,0.0970868
1,5.4,0,0.0976899
1,5.5,0,0.0982325
1,5.6,0,0.0987145
1,5.7,0,0.0991358
1,5.8,0,0.0994959
1,5.9,0,0.0997943
1,6,0,0.100031
1,6.1,0,0.100207
1,6.2,0,0.10032
1,6.3,0,0.100372
1,6.4,0,0.100361
1,6.5,0,0.100288
1,6.6,0,0.100154
1,6.7,0,0.0999569
1,6.8,0,0.0996984
1,6.9,0,0.0993781
1,7,0,0.0987581
1,7.1,0,0.098213
1,7.2,0,0.0977932
1,7.3,0,0.0973192
1,7.4,0,0.0966469
1,7.5,0,0.0959746
1,7.6,0,0.0952486
1,7.7,0,0.0944126
1,7.8,0,0.0935766
1,7.9,0,0.0926601
1,8,0,0.0916641
1,8.1,0,0.0906681
1,8.2,0,0.089538
1,8.3,0,0.0883178
1,8.4,0,0.0870977
1,8.5,0,0.0858034
1,8.6,0,0.0846264
1,8.7,0,0.0835119
1,8.8,0,0.0823573
1,8.9,0,0.0810977
1,9,0,0.0798068
1,9.1,0,0.0781718
1,9.2,0,0.0765808
1,9.3,0,0.074946
1,9.4,0,0.0732323
1,9.5,0,0.0715186
1,9.6,0,0.0697442
1,9.7,0,0.0679099
1,9.8,0,0.0660757
1,9.9,0,0.0641666
1,10,0,0.0622272
1,10.1,0,0.0602877
1,10.2,0,0.0582668
1,10.3,0,0.0562277
1,10.4,0,0.0541886
1,10.5,0,0.0520501
1,10.6,0,0.0499136
1,10.7,0,0.0477995
1,10.8,0,0.045537
1,10.9,0,0.043315
1,11,0,0.0410797
1,11.1,0,0.0387709
1,11.2,0,0.0364797
1,11.3,0,0.0341495
1,11.4,0,0.0317996
1,11.5,0,0.0294497
1,11.6,0,0.0270525
1,11.7,0,0.0246504
1,11.8,0,0.0222483
1,11.9,0,0.0197944
1,12,0,0.0173628
1,12.1,0,0.0149311
1,12.2,0,0.0124519
1,12.3,0,0.00996273
1,12.4,0,0.00747354
1,12.5,0,0.00492415
1,12.6,0,0.00244884
1,12.7,0,0
1.1,0,0,0
1.1,0.1,0,0.00242478
1.1,0.2,0,0.00490182
1.1,0.3,0,0.00758361
1.1,0.4,0,0.0100865
1.1,0.5,0,0.0126273
1.1,0.6,0,0.0150661
1.1,0.7,0,0.017519
1.1,0.8,0,0.0200349
1.1,0.9,0,0.0224606
1.1,1,0,0.0249919
1.1,1.1,0,0.027328
1.1,1.2,0,0.0297105
1.1,1.3,0,0.0321345
1.1,1.4,0,0.0344688
1.1,1.5,0,0.03695
1.1,1.6,0,0.0391399
1.1,1.7,0,0.0414164
1.1,1.8,0,0.0437131
1.1,1.9,0,0.0459235
1.1,2,0,0.0483183
1.1,2.1,0,0.0503249
1.1,2.2,0,0.0524612
1.1,2.3,0,0.054602
1.1,2.4,0,0.0566537
1.1,2.5,0,0.058927
1.1,2.6,0,0.0607107
1.1,2.7,0,0.0626694
1.1,2.8,0,0.0646148
1.1,2.9,0,0.0664745
1.1,3,0,0.0686069
1.1,3.1,0,0.0701266
1.1,3.2,0,0.0718802
1.1,3.3,0,0.073602
1.1,3.4,0,0.0752383
1.1,3.5,0,0.0772227
1.1,3.6,0,0.0784264
1.1,3.7,0,0.0799782
1.1,3.8,0,0.0815626
1.1,3.9,0,0.08298
1.1,4,0,0.0846268
1.1,4.1,0,0.085637
1.1,4.2,0,0.086933
1.1,4.3,0,0.0882728
1.1,4.4,0,0.0894552
1.1,4.5,0,0.0909452
1.1,4.6,0,0.0916397
1.1,4.7,0,0.0926528
1.1,4.8,0,0.0935885
1.1,4.9,0,0.0943089
1.1,5,0,0.095344
1.1,5.1,0,0.0965379
1.1,5.2,0,0.0972651
1.1,5.3,0,0.0979327
1.1,5.4,0,0.0985401
1.1,5.5,0,0.0990866
1.1,5.6,0,0.0995722
1.1,5.7,0,0.0999967
1.1,5.8,0,0.10036
1.1,5.9,0,0.100661
1.1,6,0,0.1009
1.1,6.1,0,0.101077
1.1,6.2,0,0.101192
1.1,6.3,0,0.101245
1.1,6.4,0,0.101235
1.1,6.5,0,0.101163
1.1,6.6,0,0.101028
1.1,6.7,0,0.100831
1.1,6.8,0,0.100572
1.1,6.9,0,0.100251
1.1,7,0,0.0996457
1.1,7.1,0,0.09885
1.1,7.2,0,0.0984303
1.1,7.3,0,0.0981901
1.1,7.4,0,0.0972511
1.1,7.5,0,0.0965788
1.1,7.6,0,0.0959683
1.1,7.7,0,0.0950076
1.1,7.8,0,0.0941716
1.1,7.9,0,0.0932381
1.1,8,0,0.0922421
1.1,8.1,0,0.0912853
1.1,8.2,0,0.0901169
1.1,8.3,0,0.0888967
1.1,8.4,0,0.0878224
1.1,8.5,0,0.0861691
1.1,8.6,0,0.0849921
1.1,8.7,0,0.0842525
1.1,8.8,0,0.0830414
1.1,8.9,0,0.0817818
1.1,9,0,0.0805056
1.1,9.1,0,0.0787383
1.1,9.2,0,0.0771474
1.1,9.3,0,0.0755996
1.1,9.4,0,0.0737603
1.1,9.5,0,0.0720466
1.1,9.6,0,0.0702825
1.1,9.7,0,0.068401
1.1,9.8,0,0.0665668
1.1,9.9,0,0.0646132
1.1,10,0,0.0626737
1.1,10.1,0,0.0607658
1.1,10.2,0,0.0586799
1.1,10.3,0,0.0566408
1.1,10.4,0,0.0546669
1.1,10.5,0,0.0524204
1.1,10.6,0,0.0502839
1.1,10.7,0,0.0482375
1.1,10.8,0,0.0458628
1.1,10.9,0,0.0436408
1.1,11,0,0.0414631
1.1,11.1,0,0.0390489
1.1,11.2,0,0.0367577
1.1,11.3,0,0.0344424
1.1,11.4,0,0.0320291
1.1,11.5,0,0.0296792
1.1,11.6,0,0.0272435
1.1,11.7,0,0.0248271
1.1,11.8,0,0.022425