x,y,z,U_0,U_1,U_2
0,0,0,2.99861,-0.00765582,0
0,0.1,0,2.99917,-0.00459349,0
0,0.2,0,2.99972,-0.00153116,0
0,0.3,0,3,0,0
0,0.4,0,3,0,0
0,0.5,0,3,0,0
0,0.6,0,3,0,0
0,0.7,0,3,0,0
0,0.8,0,3,0,0
0,0.9,0,3,0,0
0,1,0,3,0,0
0,1.1,0,3,0,0
0,1.2,0,3,0,0
0,1.3,0,3,0,0
0,1.4,0,3,0,0
0,1.5,0,3,0,0
0,1.6,0,3,0,0
0,1.7,0,3,0,0
0,1.8,0,3,0,0
0,1.9,0,3,0,0
0,2,0,3,0,0
0,2.1,0,3,0,0
0,2.2,0,3,0,0
0,2.3,0,3,0,0
0,2.4,0,3,0,0
0,2.5,0,3,0,0
0,2.6,0,3,0,0
0,2.7,0,3,0,0
0,2.8,0,3,0,0
0,2.9,0,3,0,0
0,3,0,3,0,0
0,3.1,0,3,0,0
0,3.2,0,3,0,0
0,3.3,0,3,0,0
0,3.4,0,3,0,0
0,3.5,0,3,0,0
0,3.6,0,3,0,0
0,3.7,0,3,0,0
0,3.8,0,3,0,0
0,3.9,0,3,0,0
0,4,0,3,0,0
0,4.1,0,3,0,0
0,4.2,0,3,0,0
0,4.3,0,3,0,0
0,4.4,0,3,0,0
0,4.5,0,3,0,0
0,4.6,0,3,0,0
0,4.7,0,3,0,0
0,4.8,0,3,0,0
0,4.9,0,3,0,0
0,5,0,3,0,0
0,5.1,0,3,0,0
0,5.2,0,3,0,0
0,5.3,0,3,0,0
0,5.4,0,3,0,0
0,5.5,0,3,0,0
0,5.6,0,3,0,0
0,5.7,0,3,0,0
0,5.8,0,3,0,0
0,5.9,0,3,0,0
0,6,0,3,0,0
0,6.1,0,3,0,0
0,6.2,0,3,0,0
0,6.3,0,3,0,0
0,6.4,0,3,0,0
0,6.5,0,3,0,0
0,6.6,0,3,0,0
0,6.7,0,3,0,0
0,6.8,0,3,0,0
0,6.9,0,3,0,0
0,7,0,3,0,0
0,7.1,0,3,0,0
0,7.2,0,3,0,0
0,7.3,0,3,0,0
0,7.4,0,3,0,0
0,7.5,0,3,0,0
0,7.6,0,3,0,0
0,7.7,0,3,0,0
0,7.8,0,3,0,0
0,7.9,0,3,0,0
0,8,0,3,0,0
0,8.1,0,3,0,0
0,8.2,0,3,0,0
0,8.3,0,3,0,0
0,8.4,0,3,0,0
0,8.5,0,3,0,0
0,8.6,0,3,0,0
0,8.7,0,3,0,0
0,8.8,0,3,0,0
0,8.9,0,3,0,0
0,9,0,3,0,0
0,9.1,0,3,0,0
0,9.2,0,3,0,0
0,9.3,0,3,0,0
0,9.4,0,3,0,0
0,9.5,0,3,0,0
0,9.6,0,3,0,0
0,9.7,0,3,0,0
0,9.8,0,3,0,0
0,9.9,0,3,0,0
0,10,0,3,0,0
0,10.1,0,3,0,0
0,10.2,0,3,0,0
0,10.3,0,3,0,0
0,10.4,0,3,0,0
0,10.5,0,3,0,0
0,10.6,0,3,0,0
0,10.7,0,3,0,0
0,10.8,0,3,0,0
0,10.9,0,3,0,0
0,11,0,3,0,0
0,11.1,0,3,0,0
0,11.2,0,3,0,0
0,11.3,0,3,0,0
0,11.4,0,3,0,0
0,11.5,0,3,0,0
0,11.6,0,3,0,0
0,11.7,0,3,0,0
0,11.8,0,3,0,0
0,11.9,0,3,0,0
0,12,0,3,0,0
0,12.1,0,3,0,0
0,12.2,0,3,0,0
0,12.3,0,3,0,0
0,12.4,0,3,0,0
0,12.5,0,2.99953,0.00229676,0
0,12.6,0,2.99897,0.00499884,0
0,12.7,0,2.99841,0.00770091,0
0.1,0,0,2.99846,-0.0068273,0
0.1,0.1,0,2.99863,-0.0075561,0
0.1,0.2,0,2.99919,-0.00449377,0
0.1,0.3,0,2.99951,-0.00349891,0
0.1,0.4,0,2.99951,-0.00349891,0
0.1,0.5,0,2.99965,-0.000176813,0
0.1,0.6,0,2.99943,-0.00338171,0
0.1,0.7,0,2.99943,-0.00338171,0
0.1,0.8,0,2.99916,-0.00312516,0
0.1,0.9,0,2.99916,-0.00312516,0
0.1,1,0,2.9997,-0.000303722,0
0.1,1.1,0,2.99921,-0.00301175,0
0.1,1.2,0,2.99921,-0.00301175,0
0.1,1.3,0,2.99941,-0.00284895,0
0.1,1.4,0,2.99941,-0.00284895,0
0.1,1.5,0,2.9998,-0.000385765,0
0.1,1.6,0,2.99979,-0.00277539,0
0.1,1.7,0,2.99979,-0.00277539,0
0.1,1.8,0,3.00005,-0.00265989,0
0.1,1.9,0,3.00005,-0.00265989,0
0.1,2,0,2.99971,-0.000411692,0
0.1,2.1,0,2.99991,-0.00250691,0
0.1,2.2,0,2.99991,-0.00250691,0
0.1,2.3,0,2.99953,-0.00231564,0
0.1,2.4,0,2.99953,-0.00231564,0
0.1,2.5,0,2.99971,-0.000429712,0
0.1,2.6,0,2.99941,-0.00215347,0
0.1,2.7,0,2.99941,-0.00215347,0
0.1,2.8,0,2.99978,-0.00205755,0
0.1,2.9,0,2.99978,-0.00205755,0
0.1,3,0,2.99978,-0.000437711,0
0.1,3.1,0,3.00013,-0.00196292,0
0.1,3.2,0,3.00013,-0.00196292,0
0.1,3.3,0,2.9999,-0.00176957,0
0.1,3.4,0,2.9999,-0.00176957,0
0.1,3.5,0,2.99969,-0.000394735,0
0.1,3.6,0,2.99964,-0.00158491,0
0.1,3.7,0,2.99964,-0.00158491,0
0.1,3.8,0,2.99992,-0.00148244,0
0.1,3.9,0,2.99992,-0.00148244,0
0.1,4,0,2.99975,-0.000354696,0
0.1,4.1,0,3.00001,-0.00137077,0
0.1,4.2,0,3.00001,-0.00137077,0
0.1,4.3,0,2.99987,-0.00117799,0
0.1,4.4,0,2.99987,-0.00117799,0
0.1,4.5,0,2.99972,-0.000289461,0
0.1,4.6,0,2.9999,-0.00106414,0
0.1,4.7,0,2.9999,-0.00106414,0
0.1,4.8,0,2.99993,-0.000901234,0
0.1,4.9,0,2.99993,-0.000901234,0
0.1,5,0,2.99971,-0.000223083,0
0.1,5.1,0,2.99971,-0.00019986,0
0.1,5.2,0,2.99971,-0.000183418,0
0.1,5.3,0,2.99971,-0.000167079,0
0.1,5.4,0,2.99971,-0.00015071,0
0.1,5.5,0,2.99971,-0.000134268,0
0.1,5.6,0,2.99971,-0.000117728,0
0.1,5.7,0,2.99971,-0.000101081,0
0.1,5.8,0,2.99971,-8.43262e-05,0
0.1,5.9,0,2.99971,-6.74688e-05,0
0.1,6,0,2.99971,-5.05156e-05,0
0.1,6.1,0,2.99971,-3.34726e-05,0
0.1,6.2,0,2.99971,-1.63454e-05,0
0.1,6.3,0,2.99971,8.60947e-07,0
0.1,6.4,0,2.99971,1.81429e-05,0
0.1,6.5,0,2.99971,3.54997e-05,0
0.1,6.6,0,2.99971,5.29342e-05,0
0.1,6.7,0,2.99971,7.04562e-05,0
0.1,6.8,0,2.99971,8.80732e-05,0
0.1,6.9,0,2.99971,0.000105853,0
0.1,7,0,2.99972,0.000132136,0
0.1,7.1,0,2.99993,0.00048024,0
0.1,7.2,0,2.99993,0.00048024,0
0.1,7.3,0,2.99981,0.000416299,0
0.1,7.4,0,2.9999,0.000661792,0
0.1,7.5,0,2.9999,0.000661792,0
0.1,7.6,0,2.99993,0.000802619,0
0.1,7.7,0,2.99993,0.000802619,0
0.1,7.8,0,2.99993,0.000802619,0
0.1,7.9,0,2.99985,0.00100369,0
0.1,8,0,2.99985,0.00100369,0
0.1,8.1,0,2.99985,0.00100369,0
0.1,8.2,0,2.99979,0.00108588,0
0.1,8.3,0,2.99979,0.00108588,0
0.1,8.4,0,2.99977,0.000955673,0
0.1,8.5,0,3.00015,0.00138484,0
0.1,8.6,0,3.00015,0.00138484,0
0.1,8.7,0,2.99991,0.000700345,0
0.1,8.8,0,2.9999,0.00145798,0
0.1,8.9,0,2.9999,0.00145798,0
0.1,9,0,2.99971,0.000584853,0
0.1,9.1,0,2.99937,0.00153578,0
0.1,9.2,0,2.99937,0.00153578,0
0.1,9.3,0,2.99991,0.00136406,0
0.1,9.4,0,3.00008,0.001855,0
0.1,9.5,0,3.00008,0.001855,0
0.1,9.6,0,3.00051,0.00216606,0
0.1,9.7,0,3.00051,0.00216606,0
0.1,9.8,0,3.00051,0.00216606,0
0.1,9.9,0,2.99964,0.00217785,0
0.1,10,0,2.99964,0.00217785,0
0.1,10.1,0,2.99964,0.00217785,0
0.1,10.2,0,2.99891,0.00224777,0
0.1,10.3,0,2.99891,0.00224777,0
0.1,10.4,0,2.99916,0.00163343,0
0.1,10.5,0,2.99932,0.00246189,0
0.1,10.6,0,2.99932,0.00246189,0
0.1,10.7,0,2.99954,0.000719701,0
0.1,10.8,0,3.00012,0.00278657,0
0.1,10.9,0,3.00012,0.00278657,0
0.1,11,0,2.99992,0.00122609,0
0.1,11.1,0,3.00037,0.00294133,0
0.1,11.2,0,3.00037,0.00294133,0
0.1,11.3,0,2.99996,0.00261293,0
0.1,11.4,0,2.99999,0.00306251,0
0.1,11.5,0,2.99999,0.00306251,0
0.1,11.6,0,2.99903,0.00301297,0
0.1,11.7,0,2.99903,0.00301297,0
0.1,11.8,0,2.99903,0.00301297,0
0.1,11.9,0,2.99845,0.00320248,0
0.1,12,0,2.99845,0.00320248,0
0.1,12.1,0,2.99845,0.00320248,0
0.1,12.2,0,2.99873,0.00331499,0
0.1,12.3,0,2.99873,0.00331499,0
0.1,12.4,0,2.99914,0.00167874,0
0.1,12.5,0,2.99891,0.00525795,0
0.1,12.6,0,2.99836,0.00796003,0
0.1,12.7,0,2.99813,0.00683105,0
0.2,0,0,2.9983,-0.00599878,0
0.2,0.1,0,2.9981,-0.0105187,0
0.2,0.2,0,2.99867,-0.0071669,0
0.2,0.3,0,2.99904,-0.0066547,0
0.2,0.4,0,2.99902,-0.00699781,0
0.2,0.5,0,2.99931,-0.000353626,0
0.2,0.6,0,2.99887,-0.00676341,0
0.2,0.7,0,2.99889,-0.00644899,0
0.2,0.8,0,2.99836,-0.00596155,0
0.2,0.9,0,2.99832,-0.00625032,0
0.2,1,0,2.99939,-0.000607445,0
0.2,1.1,0,2.99842,-0.00602349,0
0.2,1.2,0,2.99848,-0.00575709,0
0.2,1.3,0,2.99886,-0.00544777,0
0.2,1.4,0,2.99883,-0.00569789,0
0.2,1.5,0,2.99961,-0.000771529,0
0.2,1.6,0,2.99957,-0.00555078,0
0.2,1.7,0,2.99957,-0.00531375,0
0.2,1.8,0,3.00008,-0.00509431,0
0.2,1.9,0,3.00011,-0.00531979,0
0.2,2,0,2.99943,-0.000823384,0
0.2,2.1,0,2.99982,-0.00501381,0
0.2,2.2,0,2.9998,-0.00480492,0
0.2,2.3,0,2.99908,-0.00444152,0
0.2,2.4,0,2.99906,-0.00463128,0
0.2,2.5,0,2.99943,-0.000859424,0
0.2,2.6,0,2.99882,-0.00430695,0
0.2,2.7,0,2.99886,-0.00413598,0
0.2,2.8,0,2.99956,-0.00395373,0
0.2,2.9,0,2.99956,-0.0041151,0
0.2,3,0,2.99956,-0.000875422,0
0.2,3.1,0,3.00026,-0.00392584,0
0.2,3.2,0,3.00021,-0.00377082,0
0.2,3.3,0,2.99978,-0.00340347,0
0.2,3.4,0,2.99981,-0.00353915,0
0.2,3.5,0,2.99937,-0.000789469,0
0.2,3.6,0,2.99928,-0.00316982,0
0.2,3.7,0,2.9993,-0.00304984,0
0.2,3.8,0,2.99982,-0.00285514,0
0.2,3.9,0,2.99984,-0.00296488,0
0.2,4,0,2.99951,-0.000709393,0
0.2,4.1,0,3.00003,-0.00274153,0
0.2,4.2,0,3,-0.00263619,0
0.2,4.3,0,2.99972,-0.0022699,0
0.2,4.4,0,2.99973,-0.00235597,0
0.2,4.5,0,2.99945,-0.000578923,0
0.2,4.6,0,2.99981,-0.00212828,0
0.2,4.7,0,2.99979,-0.00204735,0
0.2,4.8,0,2.99984,-0.00173783,0
0.2,4.9,0,2.99986,-0.00180247,0
0.2,5,0,2.99942,-0.000446167,0
0.2,5.1,0,2.99942,-0.00039972,0
0.2,5.2,0,2.99942,-0.000366837,0
0.2,5.3,0,2.99942,-0.000334157,0
0.2,5.4,0,2.99942,-0.000301419,0
0.2,5.5,0,2.99942,-0.000268537,0
0.2,5.6,0,2.99942,-0.000235456,0
0.2,5.7,0,2.99942,-0.000202162,0
0.2,5.8,0,2.99942,-0.000168652,0
0.2,5.9,0,2.99942,-0.000134938,0
0.2,6,0,2.99941,-0.000101031,0
0.2,6.1,0,2.99941,-6.69452e-05,0
0.2,6.2,0,2.99941,-3.26907e-05,0
0.2,6.3,0,2.99941,1.72189e-06,0
0.2,6.4,0,2.99941,3.62858e-05,0
0.2,6.5,0,2.99941,7.09994e-05,0
0.2,6.6,0,2.99942,0.000105868,0
0.2,6.7,0,2.99942,0.000140912,0
0.2,6.8,0,2.99942,0.000176146,0
0.2,6.9,0,2.99943,0.000211705,0
0.2,7,0,2.99943,0.000264273,0
0.2,7.1,0,2.99987,0.00096048,0
0.2,7.2,0,2.99987,0.00096048,0
0.2,7.3,0,2.99953,0.000587104,0
0.2,7.4,0,2.99979,0.00132358,0
0.2,7.5,0,2.99979,0.00132358,0
0.2,7.6,0,2.99965,0.00101177,0
0.2,7.7,0,2.99986,0.00160524,0
0.2,7.8,0,2.99983,0.0015133,0
0.2,7.9,0,2.99965,0.00163103,0
0.2,8,0,2.99971,0.00200738,0
0.2,8.1,0,2.99962,0.00152863,0
0.2,8.2,0,2.99958,0.00217176,0
0.2,8.3,0,2.99958,0.00217176,0
0.2,8.4,0,2.99946,0.0012603,0
0.2,8.5,0,3.00029,0.00276968,0
0.2,8.6,0,3.00029,0.00276968,0
0.2,8.7,0,2.99969,0.00105844,0
0.2,8.8,0,2.99979,0.00291595,0
0.2,8.9,0,2.99979,0.00291595,0
0.2,9,0,2.9995,0.000979521,0
0.2,9.1,0,2.99874,0.00307156,0
0.2,9.2,0,2.99874,0.00307156,0
0.2,9.3,0,2.99949,0.00174625,0
0.2,9.4,0,3.00016,0.00370999,0
0.2,9.5,0,3.00016,0.00370999,0
0.2,9.6,0,3.00027,0.00286951,0
0.2,9.7,0,3.00102,0.00433213,0
0.2,9.8,0,3.0008,0.00376397,0
0.2,9.9,0,2.99934,0.00378362,0
0.2,10,0,2.99928,0.00435571,0
0.2,10.1,0,2.99946,0.00292108,0
0.2,10.2,0,2.99782,0.00449554,0
0.2,10.3,0,2.99782,0.00449554,0
0.2,10.4,0,2.99883,0.00203817,0
0.2,10.5,0,2.99864,0.00492379,0
0.2,10.6,0,2.99864,0.00492379,0
0.2,10.7,0,2.99912,0.00109096,0
0.2,10.8,0,3.00024,0.00557314,0
0.2,10.9,0,3.00024,0.00557314,0
0.2,11,0,2.99961,0.00159456,0
0.2,11.1,0,3.00074,0.00588265,0
0.2,11.2,0,3.00074,0.00588265,0
0.2,11.3,0,2.99983,0.00297797,0
0.2,11.4,0,2.99997,0.00612501,0
0.2,11.5,0,2.99997,0.00612501,0
0.2,11.6,0,2.99865,0.00424321,0
0.2,11.7,0,2.99805,0.00602594,0
0.2,11.8,0,2.99845,0.00464845,0
0.2,11.9,0,2.99714,0.00591422,0
0.2,12,0,2.99691,0.00640497,0
0.2,12.1,0,2.9981,0.00337592,0
0.2,12.2,0,2.99746,0.00662998,0
0.2,12.3,0,2.99746,0.00662998,0
0.2,12.4,0,2.9987,0.00172124,0
0.2,12.5,0,2.9983,0.00821914,0
0.2,12.6,0,2.99774,0.0109212,0
0.2,12.7,0,2.99784,0.00596118,0
0.3,0,0,2.99815,-0.00517025,0
0.3,0.1,0,2.99756,-0.0134813,0
0.3,0.2,0,2.99836,-0.00723467,0
0.3,0.3,0,2.99872,-0.00672247,0
0.3,0.4,0,2.99853,-0.0104967,0
0.3,0.5,0,2.99896,-0.000530439,0
0.3,0.6,0,2.9983,-0.0101451,0
0.3,0.7,0,2.99853,-0.00668653,0
0.3,0.8,0,2.99801,-0.00619909,0
0.3,0.9,0,2.99747,-0.00937547,0
0.3,1,0,2.99909,-0.000911167,0
0.3,1.1,0,2.99763,-0.00903524,0
0.3,1.2,0,2.99824,-0.00610483,0
0.3,1.3,0,2.99862,-0.00579551,0
0.3,1.4,0,2.99824,-0.00854684,0
0.3,1.5,0,2.99941,-0.00115729,0
0.3,1.6,0,2.99936,-0.00832617,0
0.3,1.7,0,2.99936,-0.00571888,0
0.3,1.8,0,2.99987,-0.00549944,0
0.3,1.9,0,3.00016,-0.00797968,0
0.3,2,0,2.99914,-0.00123508,0
0.3,2.1,0,2.99973,-0.00752072,0
0.3,2.2,0,2.99947,-0.00522291,0
0.3,2.3,0,2.99875,-0.00485951,0
0.3,2.4,0,2.99859,-0.00694693,0
0.3,2.5,0,2.99914,-0.00128914,0
0.3,2.6,0,2.99823,-0.00646042,0
0.3,2.7,0,2.99865,-0.00457981,0
0.3,2.8,0,2.99935,-0.00439755,0
0.3,2.9,0,2.99934,-0.00617265,0
0.3,3,0,2.99933,-0.00131313,0
0.3,3.1,0,3.00039,-0.00588875,0
0.3,3.2,0,2.9999,-0.00418362,0
0.3,3.3,0,2.99947,-0.00381627,0
0.3,3.4,0,2.99971,-0.00530872,0
0.3,3.5,0,2.99906,-0.0011842,0
0.3,3.6,0,2.99893,-0.00475473,0
0.3,3.7,0,2.99906,-0.00343487,0
0.3,3.8,0,2.99959,-0.00324017,0
0.3,3.9,0,2.99975,-0.00444731,0
0.3,4,0,2.99926,-0.00106409,0
0.3,4.1,0,3.00004,-0.0041123,0
0.3,4.2,0,2.99971,-0.00295351,0
0.3,4.3,0,2.99943,-0.00258722,0
0.3,4.4,0,2.9996,-0.00353396,0
0.3,4.5,0,2.99917,-0.000868384,0
0.3,4.6,0,2.99971,-0.00319242,0
0.3,4.7,0,2.99951,-0.00230217,0
0.3,4.8,0,2.99956,-0.00199265,0
0.3,4.9,0,2.99979,-0.0027037,0
0.3,5,0,2.99913,-0.00066925,0
0.3,5.1,0,2.99913,-0.000599579,0
0.3,5.2,0,2.99912,-0.000550255,0
0.3,5.3,0,2.99913,-0.000501236,0
0.3,5.4,0,2.99913,-0.000452129,0
0.3,5.5,0,2.99913,-0.000402805,0
0.3,5.6,0,2.99913,-0.000353185,0
0.3,5.7,0,2.99912,-0.000303243,0
0.3,5.8,0,2.99912,-0.000252979,0
0.3,5.9,0,2.99912,-0.000202407,0
0.3,6,0,2.99912,-0.000151547,0
0.3,6.1,0,2.99912,-0.000100418,0
0.3,6.2,0,2.99912,-4.90361e-05,0
0.3,6.3,0,2.99912,2.58284e-06,0
0.3,6.4,0,2.99912,5.44287e-05,0
0.3,6.5,0,2.99912,0.000106499,0
0.3,6.6,0,2.99912,0.000158803,0
0.3,6.7,0,2.99913,0.000211369,0
0.3,6.8,0,2.99913,0.00026422,0
0.3,6.9,0,2.99914,0.000317558,0
0.3,7,0,2.99915,0.000396409,0
0.3,7.1,0,2.9998,0.00144072,0
0.3,7.2,0,2.99976,0.00138915,0
0.3,7.3,0,2.99925,0.00075791,0
0.3,7.4,0,2.99969,0.00198537,0
0.3,7.5,0,2.99958,0.00168362,0
0.3,7.6,0,2.99938,0.00122093,0
0.3,7.7,0,2.99979,0.00240786,0
0.3,7.8,0,2.99957,0.00176428,0
0.3,7.9,0,2.99939,0.00188201,0
0.3,8,0,2.99956,0.00301107,0
0.3,8.1,0,2.99935,0.00181419,0
0.3,8.2,0,2.99931,0.00245733,0
0.3,8.3,0,2.99937,0.00325765,0
0.3,8.4,0,2.99916,0.00156493,0
0.3,8.5,0,3.00021,0.00361441,0
0.3,8.6,0,3.00044,0.00415451,0
0.3,8.7,0,2.99948,0.00141654,0
0.3,8.8,0,2.99969,0.00437393,0
0.3,8.9,0,2.99969,0.00437393,0
0.3,9,0,2.99928,0.00137419,0
0.3,9.1,0,2.99811,0.00460734,0
0.3,9.2,0,2.99818,0.00422281,0
0.3,9.3,0,2.99907,0.00212843,0
0.3,9.4,0,3.00024,0.00556499,0
0.3,9.5,0,2.99985,0.00436159,0
0.3,9.6,0,2.99988,0.00328043,0
0.3,9.7,0,3.00153,0.00649819,0
0.3,9.8,0,3.00064,0.00422558,0
0.3,9.9,0,2.99919,0.00424523,0
0.3,10,0,2.99891,0.00653356,0
0.3,10.1,0,2.99932,0.00337738,0
0.3,10.2,0,2.99752,0.00525042,0
0.3,10.3,0,2.99673,0.00674331,0
0.3,10.4,0,2.9985,0.00244292,0
0.3,10.5,0,2.99808,0.00669997,0
0.3,10.6,0,2.99797,0.00738568,0
0.3,10.7,0,2.99871,0.00146222,0
0.3,10.8,0,3.00035,0.00835971,0
0.3,10.9,0,3.00035,0.00835971,0
0.3,11,0,2.99931,0.00196304,0
0.3,11.1,0,3.00111,0.00882398,0
0.3,11.2,0,3.00086,0.00753584,0
0.3,11.3,0,2.99969,0.00334302,0
0.3,11.4,0,2.99996,0.00918752,0
0.3,11.5,0,2.99989,0.00646389,0
0.3,11.6,0,2.99857,0.00458209,0
0.3,11.7,0,2.99708,0.00903891,0
0.3,11.8,0,2.99826,0.00490644,0
0.3,11.9,0,2.99694,0.00617221,0
0.3,12,0,2.99536,0.00960745,0
0.3,12.1,0,2.99774,0.00354936,0
0.3,12.2,0,2.99679,0.0078506,0
0.3,12.3,0,2.99619,0.00994497,0
0.3,12.4,0,2.99825,0.00176374,0
0.3,12.5,0,2.99772,0.0106939,0
0.3,12.6,0,2.99713,0.0138824,0
0.3,12.7,0,2.99756,0.00509132,0
0.4,0,0,2.99799,-0.00434173,0
0.4,0.1,0,2.9971,-0.0156857,0
0.4,0.2,0,2.99804,-0.00730243,0
0.4,0.3,0,2.99841,-0.00679023,0
0.4,0.4,0,2.99807,-0.0133312,0
0.4,0.5,0,2.99862,-0.000707253,0
0.4,0.6,0,2.99778,-0.0128858,0
0.4,0.7,0,2.99818,-0.00692406,0
0.4,0.8,0,2.99766,-0.00643662,0
0.4,0.9,0,2.99674,-0.0119363,0
0.4,1,0,2.99878,-0.00121489,0
0.4,1.1,0,2.99694,-0.0115054,0
0.4,1.2,0,2.998,-0.00645257,0
0.4,1.3,0,2.99838,-0.00614325,0
0.4,1.4,0,2.99773,-0.0109032,0
0.4,1.5,0,2.99922,-0.00154306,0
0.4,1.6,0,2.99914,-0.0106236,0
0.4,1.7,0,2.99914,-0.00612401,0
0.4,1.8,0,2.99966,-0.00590457,0
0.4,1.9,0,3.00015,-0.0101899,0
0.4,2,0,2.99886,-0.00164677,0
0.4,2.1,0,2.9996,-0.00960858,0
0.4,2.2,0,2.99914,-0.0056409,0
0.4,2.3,0,2.99842,-0.0052775,0
0.4,2.4,0,2.99816,-0.00888538,0
0.4,2.5,0,2.99886,-0.00171885,0
0.4,2.6,0,2.99769,-0.00826914,0
0.4,2.7,0,2.99844,-0.00502363,0
0.4,2.8,0,2.99914,-0.00484137,0
0.4,2.9,0,2.99912,-0.00790623,0
0.4,3,0,2.99911,-0.00175084,0
0.4,3.1,0,3.00044,-0.00754663,0
0.4,3.2,0,2.99959,-0.00459642,0
0.4,3.3,0,2.99916,-0.00422906,0
0.4,3.4,0,2.99957,-0.00680332,0
0.4,3.5,0,2.99875,-0.00157894,0
0.4,3.6,0,2.99858,-0.00610161,0
0.4,3.7,0,2.99883,-0.0038199,0
0.4,3.8,0,2.99935,-0.0036252,0
0.4,3.9,0,2.99964,-0.0057042,0
0.4,4,0,2.99902,-0.00141879,0
0.4,4.1,0,3,-0.00527985,0
0.4,4.2,0,2.99942,-0.00327082,0
0.4,4.3,0,2.99914,-0.00290454,0
0.4,4.4,0,2.99943,-0.00453424,0
0.4,4.5,0,2.99889,-0.00115785,0
0.4,4.6,0,2.99958,-0.00410162,0
0.4,4.7,0,2.99923,-0.002557,0
0.4,4.8,0,2.99928,-0.00224748,0
0.4,4.9,0,2.99968,-0.0034693,0
0.4,5,0,2.99884,-0.000892334,0
0.4,5.1,0,2.99883,-0.000799439,0
0.4,5.2,0,2.99883,-0.000733673,0
0.4,5.3,0,2.99883,-0.000668314,0
0.4,5.4,0,2.99883,-0.000602839,0
0.4,5.5,0,2.99883,-0.000537073,0
0.4,5.6,0,2.99883,-0.000470913,0
0.4,5.7,0,2.99883,-0.000404323,0
0.4,5.8,0,2.99883,-0.000337305,0
0.4,5.9,0,2.99883,-0.000269875,0
0.4,6,0,2.99883,-0.000202063,0
0.4,6.1,0,2.99883,-0.00013389,0
0.4,6.2,0,2.99883,-6.53815e-05,0
0.4,6.3,0,2.99883,3.44379e-06,0
0.4,6.4,0,2.99883,7.25716e-05,0
0.4,6.5,0,2.99883,0.000141999,0
0.4,6.6,0,2.99883,0.000211737,0
0.4,6.7,0,2.99884,0.000281825,0
0.4,6.8,0,2.99884,0.000352293,0
0.4,6.9,0,2.99885,0.000423411,0
0.4,7,0,2.99886,0.000528546,0
0.4,7.1,0,2.99959,0.00168889,0
0.4,7.2,0,2.99948,0.00155995,0
0.4,7.3,0,2.99897,0.000928716,0
0.4,7.4,0,2.99956,0.00256534,0
0.4,7.5,0,2.9993,0.00189277,0
0.4,7.6,0,2.9991,0.00143008,0
0.4,7.7,0,2.99971,0.00321048,0
0.4,7.8,0,2.99931,0.00201527,0
0.4,7.9,0,2.99913,0.00213299,0
0.4,8,0,2.99941,0.00401476,0
0.4,8.1,0,2.99907,0.00209975,0
0.4,8.2,0,2.99903,0.00274289,0
0.4,8.3,0,2.99916,0.00434353,0
0.4,8.4,0,2.99885,0.00186955,0
0.4,8.5,0,2.99991,0.00391904,0
0.4,8.6,0,3.00047,0.00519711,0
0.4,8.7,0,2.99927,0.00177464,0
0.4,8.8,0,2.99948,0.00473203,0
0.4,8.9,0,2.99949,0.00494582,0
0.4,9,0,2.99906,0.00176886,0
0.4,9.1,0,2.99769,0.00557256,0
0.4,9.2,0,2.99776,0.00460499,0
0.4,9.3,0,2.99865,0.00251062,0
0.4,9.4,0,3.00032,0.00741998,0
0.4,9.5,0,2.99946,0.00477251,0
0.4,9.6,0,2.9995,0.00369135,0
0.4,9.7,0,3.00204,0.00866425,0
0.4,9.8,0,3.00049,0.00468719,0
0.4,9.9,0,2.99903,0.00470684,0
0.4,10,0,2.99855,0.00871141,0
0.4,10.1,0,2.99917,0.00383368,0
0.4,10.2,0,2.99738,0.00570672,0
0.4,10.3,0,2.99565,0.00899107,0
0.4,10.4,0,2.99816,0.00284767,0
0.4,10.5,0,2.99775,0.00710471,0
0.4,10.6,0,2.99742,0.00880226,0
0.4,10.7,0,2.99829,0.00183349,0
0.4,10.8,0,3.00003,0.00913352,0
0.4,10.9,0,3.00005,0.00872818,0
0.4,11,0,2.999,0.00233151,0
0.4,11.1,0,3.00126,0.0109077,0
0.4,11.2,0,3.00072,0.00790088,0
0.4,11.3,0,2.99955,0.00370806,0
0.4,11.4,0,2.99994,0.01225,0
0.4,11.5,0,2.99981,0.00680277,0
0.4,11.6,0,2.99849,0.00492098,0
0.4,11.7,0,2.99611,0.0120519,0
0.4,11.8,0,2.99806,0.00516442,0
0.4,11.9,0,2.99675,0.0064302,0
0.4,12,0,2.99382,0.0128099,0
0.4,12.1,0,2.99738,0.0037228,0
0.4,12.2,0,2.99643,0.00802404,0
0.4,12.3,0,2.99505,0.0127145,0
0.4,12.4,0,2.9978,0.00180624,0
0.4,12.5,0,2.99727,0.0107364,0
0.4,12.6,0,2.99674,0.0142896,0
0.4,12.7,0,2.99728,0.00422145,0
0.5,0,0,2.99784,-0.00351321,0
0.5,0.1,0,2.99694,-0.0148572,0
0.5,0.2,0,2.99773,-0.0073702,0
0.5,0.3,0,2.99809,-0.006858,0
0.5,0.4,0,2.99772,-0.013508,0
0.5,0.5,0,2.99827,-0.000884066,0
0.5,0.6,0,2.99743,-0.0130627,0
0.5,0.7,0,2.99783,-0.00716159,0
0.5,0.8,0,2.9973,-0.00667415,0
0.5,0.9,0,2.99643,-0.0122401,0
0.5,1,0,2.99848,-0.00151861,0
0.5,1.1,0,2.99663,-0.0118091,0
0.5,1.2,0,2.99776,-0.00680031,0
0.5,1.3,0,2.99814,-0.00649099,0
0.5,1.4,0,2.99753,-0.0112889,0
0.5,1.5,0,2.99902,-0.00192882,0
0.5,1.6,0,2.99895,-0.0110094,0
0.5,1.7,0,2.99893,-0.00652914,0
0.5,1.8,0,2.99944,-0.0063097,0
0.5,1.9,0,2.99987,-0.0106016,0
0.5,2,0,2.99857,-0.00205846,0
0.5,2.1,0,2.99931,-0.0100203,0
0.5,2.2,0,2.99881,-0.00605889,0
0.5,2.3,0,2.99809,-0.00569549,0
0.5,2.4,0,2.99787,-0.00931509,0
0.5,2.5,0,2.99857,-0.00214856,0
0.5,2.6,0,2.99741,-0.00869885,0
0.5,2.7,0,2.99823,-0.00546745,0
0.5,2.8,0,2.99893,-0.0052852,0
0.5,2.9,0,2.99889,-0.00834394,0
0.5,3,0,2.99889,-0.00218856,0
0.5,3.1,0,3.00022,-0.00798434,0
0.5,3.2,0,2.99927,-0.00500922,0
0.5,3.3,0,2.99885,-0.00464186,0
0.5,3.4,0,2.99926,-0.00719806,0
0.5,3.5,0,2.99843,-0.00197367,0
0.5,3.6,0,2.99826,-0.00649635,0
0.5,3.7,0,2.9986,-0.00420494,0
0.5,3.8,0,2.99912,-0.00401024,0
0.5,3.9,0,2.99939,-0.0060589,0
0.5,4,0,2.99877,-0.00177348,0
0.5,4.1,0,2.99975,-0.00563455,0
0.5,4.2,0,2.99913,-0.00358814,0
0.5,4.3,0,2.99885,-0.00322186,0
0.5,4.4,0,2.99916,-0.0048237,0
0.5,4.5,0,2.99861,-0.00144731,0
0.5,4.6,0,2.9993,-0.00439108,0
0.5,4.7,0,2.99895,-0.00281183,0
0.5,4.8,0,2.999,-0.00250231,0
0.5,4.9,0,2.99939,-0.00369239,0
0.5,5,0,2.99855,-0.00111542,0
0.5,5.1,0,2.99854,-0.000999299,0
0.5,5.2,0,2.99854,-0.000917092,0
0.5,5.3,0,2.99854,-0.000835393,0
0.5,5.4,0,2.99854,-0.000753549,0
0.5,5.5,0,2.99854,-0.000671342,0
0.5,5.6,0,2.99854,-0.000588641,0
0.5,5.7,0,2.99854,-0.000505404,0
0.5,5.8,0,2.99854,-0.000421631,0
0.5,5.9,0,2.99854,-0.000337344,0
0.5,6,0,2.99854,-0.000252578,0
0.5,6.1,0,2.99854,-0.000167363,0
0.5,6.2,0,2.99853,-8.17268e-05,0
0.5,6.3,0,2.99853,4.30474e-06,0
0.5,6.4,0,2.99853,9.07145e-05,0
0.5,6.5,0,2.99854,0.000177498,0
0.5,6.6,0,2.99854,0.000264671,0
0.5,6.7,0,2.99854,0.000352281,0
0.5,6.8,0,2.99855,0.000440366,0
0.5,6.9,0,2.99856,0.000529264,0
0.5,7,0,2.99858,0.000660682,0
0.5,7.1,0,2.9993,0.00182103,0
0.5,7.2,0,2.99921,0.00173076,0
0.5,7.3,0,2.9987,0.00109952,0
0.5,7.4,0,2.99928,0.00273614,0
0.5,7.5,0,2.99902,0.00210193,0
0.5,7.6,0,2.99882,0.00163924,0
0.5,7.7,0,2.99951,0.00361745,0
0.5,7.8,0,2.99905,0.00226625,0
0.5,7.9,0,2.99887,0.00238398,0
0.5,8,0,2.9992,0.00465363,0
0.5,8.1,0,2.9988,0.00238532,0
0.5,8.2,0,2.99876,0.00302845,0
0.5,8.3,0,2.99887,0.00477836,0
0.5,8.4,0,2.99854,0.00217418,0
0.5,8.5,0,2.9996,0.00422366,0
0.5,8.6,0,3.00026,0.0055552,0
0.5,8.7,0,2.99905,0.00213274,0
0.5,8.8,0,2.99926,0.00509013,0
0.5,8.9,0,2.99927,0.00534048,0
0.5,9,0,2.99884,0.00216352,0
0.5,9.1,0,2.99747,0.00596723,0
0.5,9.2,0,2.99734,0.00498718,0
0.5,9.3,0,2.99823,0.00289281,0
0.5,9.4,0,2.9999,0.00780217,0
0.5,9.5,0,2.99908,0.00518344,0
0.5,9.6,0,2.99911,0.00410227,0
0.5,9.7,0,3.0021,0.00995275,0
0.5,9.8,0,3.00033,0.0051488,0
0.5,9.9,0,2.99888,0.00516845,0
0.5,10,0,2.9983,0.0100285,0
0.5,10.1,0,2.99903,0.00428998,0
0.5,10.2,0,2.99724,0.00616302,0
0.5,10.3,0,2.99531,0.00939582,0
0.5,10.4,0,2.99783,0.00325241,0
0.5,10.5,0,2.99742,0.00750946,0
0.5,10.6,0,2.997,0.00917352,0
0.5,10.7,0,2.99787,0.00220475,0
0.5,10.8,0,2.99961,0.00950478,0
0.5,10.9,0,2.99974,0.00909665,0
0.5,11,0,2.99869,0.00269998,0
0.5,11.1,0,3.00095,0.0112762,0
0.5,11.2,0,3.00058,0.00826593,0
0.5,11.3,0,2.99941,0.00407311,0
0.5,11.4,0,2.99982,0.0130646,0
0.5,11.5,0,2.99973,0.00714166,0
0.5,11.6,0,2.99841,0.00525986,0
0.5,11.7,0,2.99556,0.0137143,0
0.5,11.8,0,2.99787,0.00542241,0
0.5,11.9,0,2.99656,0.00668818,0
0.5,12,0,2.99306,0.0139931,0
0.5,12.1,0,2.99702,0.00389624,0
0.5,12.2,0,2.99608,0.00819748,0
0.5,12.3,0,2.99461,0.012757,0
0.5,12.4,0,2.99736,0.00184874,0
0.5,12.5,0,2.99683,0.0107789,0
0.5,12.6,0,2.99646,0.0134197,0
0.5,12.7,0,2.99699,0.00335159,0
0.6,0,0,2.99768,-0.00268468,0
0.6,0.1,0,2.99686,-0.0131602,0
0.6,0.2,0,2.99742,-0.00743797,0
0.6,0.3,0,2.99778,-0.00692577,0
0.6,0.4,0,2.99743,-0.0126555,0
0.6,0.5,0,2.99793,-0.00106088,0
0.6,0.6,0,2.99715,-0.0122962,0
0.6,0.7,0,2.99747,-0.00739912,0
0.6,0.8,0,2.99695,-0.00691168,0
0.6,0.9,0,2.99628,-0.0116775,0
0.6,1,0,2.99817,-0.00182233,0
0.6,1.1,0,2.99649,-0.0113136,0
0.6,1.2,0,2.99752,-0.00714805,0
0.6,1.3,0,2.99791,-0.00683873,0
0.6,1.4,0,2.99744,-0.0109243,0
0.6,1.5,0,2.99882,-0.00231459,0
0.6,1.6,0,2.99875,-0.0106841,0
0.6,1.7,0,2.99872,-0.00693428,0
0.6,1.8,0,2.99923,-0.00671484,0
0.6,1.9,0,2.9995,-0.0103369,0
0.6,2,0,2.99829,-0.00247015,0
0.6,2.1,0,2.99896,-0.00980529,0
0.6,2.2,0,2.99849,-0.00647688,0
0.6,2.3,0,2.99777,-0.00611348,0
0.6,2.4,0,2.99763,-0.00917551,0
0.6,2.5,0,2.99829,-0.00257827,0
0.6,2.6,0,2.99724,-0.00861567,0
0.6,2.7,0,2.99802,-0.00591128,0
0.6,2.8,0,2.99872,-0.00572902,0
0.6,2.9,0,2.99867,-0.00829753,0
0.6,3,0,2.99867,-0.00262627,0
0.6,3.1,0,2.99987,-0.00795702,0
0.6,3.2,0,2.99896,-0.00542201,0
0.6,3.3,0,2.99853,-0.00505466,0
0.6,3.4,0,2.99888,-0.00718576,0
0.6,3.5,0,2.99812,-0.00236841,0
0.6,3.6,0,2.99799,-0.00653112,0
0.6,3.7,0,2.99836,-0.00458997,0
0.6,3.8,0,2.99889,-0.00439527,0
0.6,3.9,0,2.9991,-0.00608437,0
0.6,4,0,2.99853,-0.00212818,0
0.6,4.1,0,2.99942,-0.00567321,0
0.6,4.2,0,2.99884,-0.00390546,0
0.6,4.3,0,2.99856,-0.00353918,0
0.6,4.4,0,2.99883,-0.00485496,0
0.6,4.5,0,2.99834,-0.00173677,0
0.6,4.6,0,2.99897,-0.00443775,0
0.6,4.7,0,2.99867,-0.00306665,0
0.6,4.8,0,2.99872,-0.00275713,0
0.6,4.9,0,2.99903,-0.00372155,0
0.6,5,0,2.99826,-0.0013385,0
0.6,5.1,0,2.99825,-0.00119916,0
0.6,5.2,0,2.99825,-0.00110051,0
0.6,5.3,0,2.99825,-0.00100247,0
0.6,5.4,0,2.99825,-0.000904258,0
0.6,5.5,0,2.99825,-0.00080561,0
0.6,5.6,0,2.99825,-0.000706369,0
0.6,5.7,0,2.99825,-0.000606485,0
0.6,5.8,0,2.99825,-0.000505957,0
0.6,5.9,0,2.99825,-0.000404813,0
0.6,6,0,2.99824,-0.000303094,0
0.6,6.1,0,2.99824,-0.000200836,0
0.6,6.2,0,2.99824,-9.80722e-05,0
0.6,6.3,0,2.99824,5.16568e-06,0
0.6,6.4,0,2.99824,0.000108857,0
0.6,6.5,0,2.99824,0.000212998,0
0.6,6.6,0,2.99825,0.000317605,0
0.6,6.7,0,2.99825,0.000422737,0
0.6,6.8,0,2.99826,0.000528439,0
0.6,6.9,0,2.99828,0.000635116,0
0.6,7,0,2.9983,0.000792818,0
0.6,7.1,0,2.99902,0.00195316,0
0.6,7.2,0,2.99893,0.00190156,0
0.6,7.3,0,2.99842,0.00127033,0
0.6,7.4,0,2.99894,0.00275607,0
0.6,7.5,0,2.99875,0.00231108,0
0.6,7.6,0,2.99855,0.00184839,0
0.6,7.7,0,2.99907,0.00336691,0
0.6,7.8,0,2.99879,0.00251723,0
0.6,7.9,0,2.99862,0.00263496,0
0.6,8,0,2.99882,0.00418648,0
0.6,8.1,0,2.99853,0.00267088,0
0.6,8.2,0,2.99848,0.00331401,0
0.6,8.3,0,2.99852,0.00454945,0
0.6,8.4,0,2.99823,0.00247881,0
0.6,8.5,0,2.99929,0.00452829,0
0.6,8.6,0,2.99997,0.00573327,0
0.6,8.7,0,2.99884,0.00249084,0
0.6,8.8,0,2.99905,0.00544823,0
0.6,8.9,0,2.99906,0.00573515,0
0.6,9,0,2.99862,0.00255819,0
0.6,9.1,0,2.99725,0.0063619,0
0.6,9.2,0,2.99692,0.00536937,0
0.6,9.3,0,2.99781,0.003275,0
0.6,9.4,0,2.99925,0.00746232,0
0.6,9.5,0,2.99869,0.00559436,0
0.6,9.6,0,2.99872,0.00451319,0
0.6,9.7,0,3.00105,0.00865921,0
0.6,9.8,0,3.00018,0.00561041,0
0.6,9.9,0,2.99872,0.00563006,0
0.6,10,0,2.99836,0.00876854,0
0.6,10.1,0,2.99889,0.00474629,0
0.6,10.2,0,2.99709,0.00661932,0
0.6,10.3,0,2.99545,0.00890483,0
0.6,10.4,0,2.9975,0.00365716,0
0.6,10.5,0,2.99708,0.00791421,0
0.6,10.6,0,2.99659,0.00954479,0
0.6,10.7,0,2.99746,0.00257601,0
0.6,10.8,0,2.99919,0.00987604,0
0.6,10.9,0,2.99943,0.00946512,0
0.6,11,0,2.99839,0.00306846,0
0.6,11.1,0,3.00056,0.0112153,0
0.6,11.2,0,3.00044,0.00863097,0
0.6,11.3,0,2.99927,0.00443815,0
0.6,11.4,0,2.99964,0.0116139,0
0.6,11.5,0,2.99965,0.00748054,0
0.6,11.6,0,2.99832,0.00559874,0
0.6,11.7,0,2.99627,0.0112982,0
0.6,11.8,0,2.99768,0.0056804,0
0.6,11.9,0,2.99637,0.00694617,0
0.6,12,0,2.99383,0.0117128,0
0.6,12.1,0,2.99666,0.00406968,0
0.6,12.2,0,2.99572,0.00837092,0
0.6,12.3,0,2.99446,0.0117524,0
0.6,12.4,0,2.99691,0.00189124,0
0.6,12.5,0,2.99638,0.0108214,0
0.6,12.6,0,2.99617,0.0125498,0
0.6,12.7,0,2.99671,0.00248173,0
0.7,0,0,2.99753,-0.00185616,0
0.7,0.1,0,2.99692,-0.00943684,0
0.7,0.2,0,2.9971,-0.00750574,0
0.7,0.3,0,2.99747,-0.00699354,0
0.7,0.4,0,2.99726,-0.00940116,0
0.7,0.5,0,2.99758,-0.00123769,0
0.7,0.6,0,2.99702,-0.00932886,0
0.7,0.7,0,2.99712,-0.00763666,0
0.7,0.8,0,2.99659,-0.00714922,0
0.7,0.9,0,2.99646,-0.0090936,0
0.7,1,0,2.99787,-0.00212606,0
0.7,1.1,0,2.99674,-0.00895334,0
0.7,1.2,0,2.99728,-0.00749579,0
0.7,1.3,0,2.99767,-0.00718647,0
0.7,1.4,0,2.99759,-0.00880888,0
0.7,1.5,0,2.99863,-0.00270035,0
0.7,1.6,0,2.99856,-0.00869959,0
0.7,1.7,0,2.9985,-0.00733941,0
0.7,1.8,0,2.99901,-0.00711997,0
0.7,1.9,0,2.99895,-0.00849382,0
0.7,2,0,2.998,-0.00288184,0
0.7,2.1,0,2.99844,-0.00812806,0
0.7,2.2,0,2.99816,-0.00689487,0
0.7,2.3,0,2.99744,-0.00653147,0
0.7,2.4,0,2.99749,-0.00770757,0
0.7,2.5,0,2.998,-0.00300798,0
0.7,2.6,0,2.99734,-0.00733573,0
0.7,2.7,0,2.99781,-0.0063551,0
0.7,2.8,0,2.99851,-0.00617285,0
0.7,2.9,0,2.99846,-0.00712152,0
0.7,3,0,2.99844,-0.00306398,0
0.7,3.1,0,2.9992,-0.00684461,0
0.7,3.2,0,2.99865,-0.00583481,0
0.7,3.3,0,2.99822,-0.00546746,0
0.7,3.4,0,2.99835,-0.00622372,0
0.7,3.5,0,2.99781,-0.00276314,0
0.7,3.6,0,2.9978,-0.00572597,0
0.7,3.7,0,2.99813,-0.004975,0
0.7,3.8,0,2.99865,-0.0047803,0
0.7,3.9,0,2.99871,-0.00534167,0
0.7,4,0,2.99828,-0.00248287,0
0.7,4.1,0,2.99887,-0.00497446,0
0.7,4.2,0,2.99856,-0.00422278,0
0.7,4.3,0,2.99828,-0.00385649,0
0.7,4.4,0,2.9984,-0.00428375,0
0.7,4.5,0,2.99806,-0.00202623,0
0.7,4.6,0,2.99851,-0.0039179,0
0.7,4.7,0,2.99839,-0.00332148,0
0.7,4.8,0,2.99845,-0.00301196,0
0.7,4.9,0,2.99853,-0.00329823,0
0.7,5,0,2.99797,-0.00156158,0
0.7,5.1,0,2.99796,-0.00139902,0
0.7,5.2,0,2.99796,-0.00128393,0
0.7,5.3,0,2.99796,-0.00116955,0
0.7,5.4,0,2.99796,-0.00105497,0
0.7,5.5,0,2.99796,-0.000939878,0
0.7,5.6,0,2.99796,-0.000824097,0
0.7,5.7,0,2.99796,-0.000707566,0
0.7,5.8,0,2.99796,-0.000590283,0
0.7,5.9,0,2.99795,-0.000472282,0
0.7,6,0,2.99795,-0.000353609,0
0.7,6.1,0,2.99795,-0.000234308,0
0.7,6.2,0,2.99795,-0.000114418,0
0.7,6.3,0,2.99795,6.02663e-06,0
0.7,6.4,0,2.99795,0.000127,0
0.7,6.5,0,2.99795,0.000248498,0
0.7,6.6,0,2.99796,0.00037054,0
0.7,6.7,0,2.99796,0.000493194,0
0.7,6.8,0,2.99797,0.000616512,0
0.7,6.9,0,2.99799,0.000740969,0
0.7,7,0,2.99801,0.000924955,0
0.7,7.1,0,2.99856,0.00182744,0
0.7,7.2,0,2.99858,0.00195634,0
0.7,7.3,0,2.99814,0.00144113,0
0.7,7.4,0,2.99849,0.00247424,0
0.7,7.5,0,2.99847,0.00252023,0
0.7,7.6,0,2.99827,0.00205754,0
0.7,7.7,0,2.99861,0.00302443,0
0.7,7.8,0,2.99853,0.00276822,0
0.7,7.9,0,2.99836,0.00288595,0
0.7,8,0,2.99843,0.00371934,0
0.7,8.1,0,2.99825,0.00295644,0
0.7,8.2,0,2.99821,0.00359958,0
0.7,8.3,0,2.99814,0.00405375,0
0.7,8.4,0,2.99792,0.00278344,0
0.7,8.5,0,2.99898,0.00483292,0
0.7,8.6,0,2.9993,0.00501115,0
0.7,8.7,0,2.99863,0.00284894,0
0.7,8.8,0,2.99878,0.00527467,0
0.7,8.9,0,2.99876,0.00539657,0
0.7,9,0,2.99841,0.00295286,0
0.7,9.1,0,2.99724,0.00560297,0
0.7,9.2,0,2.99657,0.00556137,0
0.7,9.3,0,2.99739,0.00365718,0
0.7,9.4,0,2.99836,0.00640043,0
0.7,9.5,0,2.9983,0.00600528,0
0.7,9.6,0,2.99833,0.00492412,0
0.7,9.7,0,2.99999,0.00736568,0
0.7,9.8,0,3.00002,0.00607201,0
0.7,9.9,0,2.99857,0.00609166,0
0.7,10,0,2.99843,0.0075086,0
0.7,10.1,0,2.99874,0.00520259,0
0.7,10.2,0,2.99695,0.00707562,0
0.7,10.3,0,2.99607,0.00751811,0
0.7,10.4,0,2.99717,0.00406191,0
0.7,10.5,0,2.99679,0.00797052,0
0.7,10.6,0,2.99652,0.0078589,0
0.7,10.7,0,2.99704,0.00294727,0
0.7,10.8,0,2.99849,0.00863524,0
0.7,10.9,0,2.99886,0.00862594,0
0.7,11,0,2.99808,0.00343693,0
0.7,11.1,0,2.99974,0.00900744,0
0.7,11.2,0,3.0003,0.00899602,0
0.7,11.3,0,2.99913,0.0048032,0
0.7,11.4,0,2.99943,0.00925536,0
0.7,11.5,0,2.99957,0.00781942,0
0.7,11.6,0,2.99824,0.00593762,0
0.7,11.7,0,2.99697,0.00888212,0
0.7,11.8,0,2.99749,0.00593839,0
0.7,11.9,0,2.99618,0.00720416,0
0.7,12,0,2.99483,0.00894169,0
0.7,12.1,0,2.9963,0.00424312,0
0.7,12.2,0,2.99536,0.00854436,0
0.7,12.3,0,2.99493,0.00865331,0