x,y,z,p
0,0,0,6.88984e-05
0,0.1,0,0.000148186
0,0.2,0,0.000227474
0,0.3,0,0.000320382
0,0.4,0,0.000426911
0,0.5,0,0.00053344
0,0.6,0,0.000639337
0,0.7,0,0.000745234
0,0.8,0,0.000850657
0,0.9,0,0.000955606
0,1,0,0.00106055
0,1.1,0,0.00116424
0,1.2,0,0.00126793
0,1.3,0,0.00137082
0,1.4,0,0.00147293
0,1.5,0,0.00157503
0,1.6,0,0.00167523
0,1.7,0,0.00177542
0,1.8,0,0.0018745
0,1.9,0,0.00197245
0,2,0,0.0020704
0,2.1,0,0.00216577
0,2.2,0,0.00226113
0,2.3,0,0.00235503
0,2.4,0,0.00244747
0,2.5,0,0.00253991
0,2.6,0,0.00262906
0,2.7,0,0.00271821
0,2.8,0,0.00280554
0,2.9,0,0.00289104
0,3,0,0.00297655
0,3.1,0,0.00305805
0,3.2,0,0.00313955
0,3.3,0,0.00321886
0,3.4,0,0.00329598
0,3.5,0,0.00337311
0,3.6,0,0.00344549
0,3.7,0,0.00351788
0,3.8,0,0.00358771
0,3.9,0,0.00365498
0,4,0,0.00372226
0,4.1,0,0.00378407
0,4.2,0,0.00384587
0,4.3,0,0.00390475
0,4.4,0,0.0039607
0,4.5,0,0.00401665
0,4.6,0,0.00406634
0,4.7,0,0.00411603
0,4.8,0,0.00415863
0,4.9,0,0.00419412
0,5,0,0.00422962
0,5.1,0,0.00428797
0,5.2,0,0.00432372
0,5.3,0,0.0043567
0,5.4,0,0.00438688
0,5.5,0,0.00441421
0,5.6,0,0.00443864
0,5.7,0,0.00446017
0,5.8,0,0.00447875
0,5.9,0,0.00449435
0,6,0,0.00450697
0,6.1,0,0.00451659
0,6.2,0,0.00452318
0,6.3,0,0.00452676
0,6.4,0,0.00452731
0,6.5,0,0.00452483
0,6.6,0,0.00451934
0,6.7,0,0.00451085
0,6.8,0,0.00449936
0,6.9,0,0.00448492
0,7,0,0.00445622
0,7.1,0,0.00443678
0,7.2,0,0.00441734
0,7.3,0,0.0043961
0,7.4,0,0.00436468
0,7.5,0,0.00433326
0,7.6,0,0.00429942
0,7.7,0,0.0042599
0,7.8,0,0.00422038
0,7.9,0,0.00417742
0,8,0,0.00413024
0,8.1,0,0.00408307
0,8.2,0,0.00403154
0,8.3,0,0.00397712
0,8.4,0,0.0039227
0,8.5,0,0.00386316
0,8.6,0,0.00380191
0,8.7,0,0.00374066
0,8.8,0,0.00367369
0,8.9,0,0.00360607
0,9,0,0.00353816
0,9.1,0,0.00346465
0,9.2,0,0.00339114
0,9.3,0,0.00331654
0,9.4,0,0.00323762
0,9.5,0,0.00315869
0,9.6,0,0.00307803
0,9.7,0,0.00299418
0,9.8,0,0.00291032
0,9.9,0,0.00282424
0,10,0,0.00273593
0,10.1,0,0.00264763
0,10.2,0,0.00255675
0,10.3,0,0.00246448
0,10.4,0,0.00237221
0,10.5,0,0.00227715
0,10.6,0,0.00218139
0,10.7,0,0.00208564
0,10.8,0,0.00198701
0,10.9,0,0.00188823
0,11,0,0.0017892
0,11.1,0,0.00168785
0,11.2,0,0.0015865
0,11.3,0,0.00148463
0,11.4,0,0.00138116
0,11.5,0,0.00127769
0,11.6,0,0.00117355
0,11.7,0,0.00106839
0,11.8,0,0.000963232
0,11.9,0,0.000857379
0,12,0,0.000750957
0,12.1,0,0.000644536
0,12.2,0,0.000537525
0,12.3,0,0.000430261
0,12.4,0,0.000322998
0,12.5,0,0.000238889
0,12.6,0,0.000158868
0,12.7,0,7.88458e-05
0.1,0,0,5.35876e-05
0.1,0.1,0,0.000132921
0.1,0.2,0,0.000213763
0.1,0.3,0,0.000320527
0.1,0.4,0,0.000427042
0.1,0.5,0,0.000533974
0.1,0.6,0,0.000639557
0.1,0.7,0,0.000745512
0.1,0.8,0,0.000851014
0.1,0.9,0,0.000955913
0.1,1,0,0.00106162
0.1,1.1,0,0.00116464
0.1,1.2,0,0.00126842
0.1,1.3,0,0.00137139
0.1,1.4,0,0.00147341
0.1,1.5,0,0.00157665
0.1,1.6,0,0.0016758
0.1,1.7,0,0.00177613
0.1,1.8,0,0.00187529
0.1,1.9,0,0.00197312
0.1,2,0,0.00207259
0.1,2.1,0,0.00216653
0.1,2.2,0,0.00226207
0.1,2.3,0,0.00235606
0.1,2.4,0,0.00244833
0.1,2.5,0,0.00254267
0.1,2.6,0,0.00263002
0.1,2.7,0,0.00271938
0.1,2.8,0,0.0028068
0.1,2.9,0,0.00289211
0.1,3,0,0.00297985
0.1,3.1,0,0.00305921
0.1,3.2,0,0.00314095
0.1,3.3,0,0.00322035
0.1,3.4,0,0.00329725
0.1,3.5,0,0.00337686
0.1,3.6,0,0.00344686
0.1,3.7,0,0.0035195
0.1,3.8,0,0.00358942
0.1,3.9,0,0.00365645
0.1,4,0,0.00372635
0.1,4.1,0,0.00378564
0.1,4.2,0,0.00384771
0.1,4.3,0,0.00390669
0.1,4.4,0,0.00396238
0.1,4.5,0,0.00402099
0.1,4.6,0,0.00406813
0.1,4.7,0,0.0041181
0.1,4.8,0,0.00416457
0.1,4.9,0,0.00420022
0.1,5,0,0.00423416
0.1,5.1,0,0.0042925
0.1,5.2,0,0.0043283
0.1,5.3,0,0.00436134
0.1,5.4,0,0.00439156
0.1,5.5,0,0.00441892
0.1,5.6,0,0.00444339
0.1,5.7,0,0.00446494
0.1,5.8,0,0.00448354
0.1,5.9,0,0.00449916
0.1,6,0,0.00451179
0.1,6.1,0,0.00452142
0.1,6.2,0,0.00452802
0.1,6.3,0,0.0045316
0.1,6.4,0,0.00453215
0.1,6.5,0,0.00452966
0.1,6.6,0,0.00452416
0.1,6.7,0,0.00451564
0.1,6.8,0,0.00450411
0.1,6.9,0,0.00448963
0.1,7,0,0.004461
0.1,7.1,0,0.00444173
0.1,7.2,0,0.00442229
0.1,7.3,0,0.00440038
0.1,7.4,0,0.00436732
0.1,7.5,0,0.0043359
0.1,7.6,0,0.00430304
0.1,7.7,0,0.00426239
0.1,7.8,0,0.00422315
0.1,7.9,0,0.00418042
0.1,8,0,0.0041326
0.1,8.1,0,0.00408622
0.1,8.2,0,0.00403389
0.1,8.3,0,0.00397935
0.1,8.4,0,0.00392624
0.1,8.5,0,0.00386525
0.1,8.6,0,0.003804
0.1,8.7,0,0.00374459
0.1,8.8,0,0.00367563
0.1,8.9,0,0.00360802
0.1,9,0,0.00354206
0.1,9.1,0,0.00346645
0.1,9.2,0,0.00339293
0.1,9.3,0,0.00331969
0.1,9.4,0,0.00323925
0.1,9.5,0,0.00316032
0.1,9.6,0,0.00308046
0.1,9.7,0,0.00299566
0.1,9.8,0,0.00291218
0.1,9.9,0,0.00282598
0.1,10,0,0.00273726
0.1,10.1,0,0.00264968
0.1,10.2,0,0.00255792
0.1,10.3,0,0.00246566
0.1,10.4,0,0.00237437
0.1,10.5,0,0.00227818
0.1,10.6,0,0.00218242
0.1,10.7,0,0.00208781
0.1,10.8,0,0.00198789
0.1,10.9,0,0.00188912
0.1,11,0,0.00179094
0.1,11.1,0,0.00168859
0.1,11.2,0,0.00158725
0.1,11.3,0,0.00148583
0.1,11.4,0,0.00138176
0.1,11.5,0,0.00127833
0.1,11.6,0,0.00117431
0.1,11.7,0,0.00106886
0.1,11.8,0,0.000963836
0.1,11.9,0,0.000857793
0.1,12,0,0.000751292
0.1,12.1,0,0.000645025
0.1,12.2,0,0.000537723
0.1,12.3,0,0.00043046
0.1,12.4,0,0.000323287
0.1,12.5,0,0.000221437
0.1,12.6,0,0.000141416
0.1,12.7,0,6.13245e-05
0.2,0,0,3.82769e-05
0.2,0.1,0,0.000117647
0.2,0.2,0,0.000214033
0.2,0.3,0,0.000320798
0.2,0.4,0,0.000427254
0.2,0.5,0,0.000534508
0.2,0.6,0,0.00063984
0.2,0.7,0,0.00074631
0.2,0.8,0,0.000851812
0.2,0.9,0,0.000956372
0.2,1,0,0.00106269
0.2,1.1,0,0.00116516
0.2,1.2,0,0.00126976
0.2,1.3,0,0.00137273
0.2,1.4,0,0.00147412
0.2,1.5,0,0.00157827
0.2,1.6,0,0.00167659
0.2,1.7,0,0.00177803
0.2,1.8,0,0.00187719
0.2,1.9,0,0.00197409
0.2,2,0,0.00207478
0.2,2.1,0,0.00216758
0.2,2.2,0,0.00226455
0.2,2.3,0,0.00235854
0.2,2.4,0,0.00244957
0.2,2.5,0,0.00254544
0.2,2.6,0,0.00263134
0.2,2.7,0,0.00272242
0.2,2.8,0,0.00280984
0.2,2.9,0,0.00289362
0.2,3,0,0.00298315
0.2,3.1,0,0.0030608
0.2,3.2,0,0.00314449
0.2,3.3,0,0.00322389
0.2,3.4,0,0.00329901
0.2,3.5,0,0.00338062
0.2,3.6,0,0.00344871
0.2,3.7,0,0.00352344
0.2,3.8,0,0.00359336
0.2,3.9,0,0.00365845
0.2,4,0,0.00373044
0.2,4.1,0,0.00378771
0.2,4.2,0,0.00385192
0.2,4.3,0,0.0039109
0.2,4.4,0,0.0039646
0.2,4.5,0,0.00402533
0.2,4.6,0,0.00407043
0.2,4.7,0,0.0041226
0.2,4.8,0,0.00416908
0.2,4.9,0,0.00420601
0.2,5,0,0.0042387
0.2,5.1,0,0.00429703
0.2,5.2,0,0.00433289
0.2,5.3,0,0.00436598
0.2,5.4,0,0.00439624
0.2,5.5,0,0.00442364
0.2,5.6,0,0.00444813
0.2,5.7,0,0.00446971
0.2,5.8,0,0.00448833
0.2,5.9,0,0.00450397
0.2,6,0,0.00451662
0.2,6.1,0,0.00452625
0.2,6.2,0,0.00453286
0.2,6.3,0,0.00453644
0.2,6.4,0,0.00453699
0.2,6.5,0,0.00453449
0.2,6.6,0,0.00452897
0.2,6.7,0,0.00452043
0.2,6.8,0,0.00450887
0.2,6.9,0,0.00449434
0.2,7,0,0.00446578
0.2,7.1,0,0.00444661
0.2,7.2,0,0.00442714
0.2,7.3,0,0.00440517
0.2,7.4,0,0.00437035
0.2,7.5,0,0.00434033
0.2,7.6,0,0.00430768
0.2,7.7,0,0.00426489
0.2,7.8,0,0.00422772
0.2,7.9,0,0.00418499
0.2,8,0,0.00413496
0.2,8.1,0,0.00409073
0.2,8.2,0,0.0040384
0.2,8.3,0,0.00398164
0.2,8.4,0,0.00393065
0.2,8.5,0,0.00386923
0.2,8.6,0,0.00380666
0.2,8.7,0,0.00374885
0.2,8.8,0,0.00367892
0.2,8.9,0,0.00361103
0.2,9,0,0.00354614
0.2,9.1,0,0.00346902
0.2,9.2,0,0.00339624
0.2,9.3,0,0.00332354
0.2,9.4,0,0.00324112
0.2,9.5,0,0.00316385
0.2,9.6,0,0.00308403
0.2,9.7,0,0.00299715
0.2,9.8,0,0.00291546
0.2,9.9,0,0.00282925
0.2,10,0,0.00273859
0.2,10.1,0,0.00265263
0.2,10.2,0,0.00256083
0.2,10.3,0,0.00246699
0.2,10.4,0,0.00237698
0.2,10.5,0,0.00228038
0.2,10.6,0,0.00218388
0.2,10.7,0,0.00209008
0.2,10.8,0,0.00198947
0.2,10.9,0,0.0018906
0.2,11,0,0.00179287
0.2,11.1,0,0.00168964
0.2,11.2,0,0.00158868
0.2,11.3,0,0.00148742
0.2,11.4,0,0.00138239
0.2,11.5,0,0.00127959
0.2,11.6,0,0.00117557
0.2,11.7,0,0.00106932
0.2,11.8,0,0.000964779
0.2,11.9,0,0.000858736
0.2,12,0,0.000751626
0.2,12.1,0,0.000645653
0.2,12.2,0,0.000538307
0.2,12.3,0,0.000430681
0.2,12.4,0,0.000323604
0.2,12.5,0,0.000215676
0.2,12.6,0,0.000123935
0.2,12.7,0,4.38032e-05
0.3,0,0,2.29661e-05
0.3,0.1,0,0.000106997
0.3,0.2,0,0.000214303
0.3,0.3,0,0.000321068
0.3,0.4,0,0.00042783
0.3,0.5,0,0.000535043
0.3,0.6,0,0.000640547
0.3,0.7,0,0.000747109
0.3,0.8,0,0.00085261
0.3,0.9,0,0.000957586
0.3,1,0,0.00106375
0.3,1.1,0,0.00116651
0.3,1.2,0,0.0012711
0.3,1.3,0,0.00137407
0.3,1.4,0,0.001476
0.3,1.5,0,0.00157989
0.3,1.6,0,0.0016786
0.3,1.7,0,0.00177994
0.3,1.8,0,0.0018791
0.3,1.9,0,0.00197666
0.3,2,0,0.00207698
0.3,2.1,0,0.00217029
0.3,2.2,0,0.00226703
0.3,2.3,0,0.00236102
0.3,2.4,0,0.00245282
0.3,2.5,0,0.0025482
0.3,2.6,0,0.00263473
0.3,2.7,0,0.00272546
0.3,2.8,0,0.00281288
0.3,2.9,0,0.00289751
0.3,3,0,0.00298646
0.3,3.1,0,0.00306482
0.3,3.2,0,0.00314803
0.3,3.3,0,0.00322743
0.3,3.4,0,0.00330345
0.3,3.5,0,0.00338437
0.3,3.6,0,0.00345323
0.3,3.7,0,0.00352738
0.3,3.8,0,0.0035973
0.3,3.9,0,0.00366328
0.3,4,0,0.00373453
0.3,4.1,0,0.0037926
0.3,4.2,0,0.00385614
0.3,4.3,0,0.00391512
0.3,4.4,0,0.0039697
0.3,4.5,0,0.00402968
0.3,4.6,0,0.00407559
0.3,4.7,0,0.00412711
0.3,4.8,0,0.00417359
0.3,4.9,0,0.00421007
0.3,5,0,0.00424323
0.3,5.1,0,0.00430156
0.3,5.2,0,0.00433748
0.3,5.3,0,0.00437061
0.3,5.4,0,0.00440092
0.3,5.5,0,0.00442835
0.3,5.6,0,0.00445288
0.3,5.7,0,0.00447448
0.3,5.8,0,0.00449312
0.3,5.9,0,0.00450878
0.3,6,0,0.00452144
0.3,6.1,0,0.00453108
0.3,6.2,0,0.0045377
0.3,6.3,0,0.00454128
0.3,6.4,0,0.00454182
0.3,6.5,0,0.00453932
0.3,6.6,0,0.00453379
0.3,6.7,0,0.00452522
0.3,6.8,0,0.00451363
0.3,6.9,0,0.00449904
0.3,7,0,0.00447056
0.3,7.1,0,0.00445138
0.3,7.2,0,0.00443192
0.3,7.3,0,0.00440995
0.3,7.4,0,0.00437577
0.3,7.5,0,0.00434497
0.3,7.6,0,0.00431232
0.3,7.7,0,0.00427056
0.3,7.8,0,0.0042323
0.3,7.9,0,0.00418957
0.3,8,0,0.00414059
0.3,8.1,0,0.00409523
0.3,8.2,0,0.00404291
0.3,8.3,0,0.00398712
0.3,8.4,0,0.00393506
0.3,8.5,0,0.00387364
0.3,8.6,0,0.00381148
0.3,8.7,0,0.00375312
0.3,8.8,0,0.00368318
0.3,8.9,0,0.0036151
0.3,9,0,0.00355022
0.3,9.1,0,0.00347342
0.3,9.2,0,0.00340009
0.3,9.3,0,0.00332739
0.3,9.4,0,0.00324574
0.3,9.5,0,0.00316743
0.3,9.6,0,0.00308761
0.3,9.7,0,0.00300158
0.3,9.8,0,0.00291873
0.3,9.9,0,0.00283253
0.3,10,0,0.00274256
0.3,10.1,0,0.00265558
0.3,10.2,0,0.00256378
0.3,10.3,0,0.0024703
0.3,10.4,0,0.0023796
0.3,10.5,0,0.00228299
0.3,10.6,0,0.0021864
0.3,10.7,0,0.00209235
0.3,10.8,0,0.00199174
0.3,10.9,0,0.00189253
0.3,11,0,0.00179479
0.3,11.1,0,0.00169177
0.3,11.2,0,0.00159027
0.3,11.3,0,0.00148901
0.3,11.4,0,0.0013843
0.3,11.5,0,0.00128085
0.3,11.6,0,0.00117683
0.3,11.7,0,0.00107076
0.3,11.8,0,0.000965721
0.3,11.9,0,0.000859679
0.3,12,0,0.000752575
0.3,12.1,0,0.000646282
0.3,12.2,0,0.000538935
0.3,12.3,0,0.000431134
0.3,12.4,0,0.000323921
0.3,12.5,0,0.000215993
0.3,12.6,0,0.000107816
0.3,12.7,0,2.62819e-05
0.4,0,0,7.65538e-06
0.4,0.1,0,0.000107221
0.4,0.2,0,0.000214555
0.4,0.3,0,0.0003215
0.4,0.4,0,0.000428503
0.4,0.5,0,0.000535577
0.4,0.6,0,0.00064166
0.4,0.7,0,0.000748033
0.4,0.8,0,0.000853713
0.4,0.9,0,0.000959144
0.4,1,0,0.00106482
0.4,1.1,0,0.00116853
0.4,1.2,0,0.00127271
0.4,1.3,0,0.00137587
0.4,1.4,0,0.00147847
0.4,1.5,0,0.00158151
0.4,1.6,0,0.00168155
0.4,1.7,0,0.00178226
0.4,1.8,0,0.00188161
0.4,1.9,0,0.00198008
0.4,2,0,0.00207917
0.4,2.1,0,0.0021742
0.4,2.2,0,0.00227008
0.4,2.3,0,0.00236426
0.4,2.4,0,0.00245721
0.4,2.5,0,0.00255097
0.4,2.6,0,0.00263957
0.4,2.7,0,0.00272922
0.4,2.8,0,0.00281682
0.4,2.9,0,0.00290279
0.4,3,0,0.00298976
0.4,3.1,0,0.0030705
0.4,3.2,0,0.00315243
0.4,3.3,0,0.00323197
0.4,3.4,0,0.00330948
0.4,3.5,0,0.00338813
0.4,3.6,0,0.00345956
0.4,3.7,0,0.00353228
0.4,3.8,0,0.00360229
0.4,3.9,0,0.00366984
0.4,4,0,0.00373863
0.4,4.1,0,0.00379934
0.4,4.2,0,0.00386137
0.4,4.3,0,0.0039204
0.4,4.4,0,0.00397658
0.4,4.5,0,0.00403403
0.4,4.6,0,0.00408266
0.4,4.7,0,0.00413265
0.4,4.8,0,0.00417747
0.4,4.9,0,0.00421302
0.4,5,0,0.00424777
0.4,5.1,0,0.00430609
0.4,5.2,0,0.00434207
0.4,5.3,0,0.00437525
0.4,5.4,0,0.00440559
0.4,5.5,0,0.00443306
0.4,5.6,0,0.00445762
0.4,5.7,0,0.00447925
0.4,5.8,0,0.00449791
0.4,5.9,0,0.00451359
0.4,6,0,0.00452626
0.4,6.1,0,0.00453592
0.4,6.2,0,0.00454254
0.4,6.3,0,0.00454612
0.4,6.4,0,0.00454666
0.4,6.5,0,0.00454415
0.4,6.6,0,0.0045386
0.4,6.7,0,0.00453001
0.4,6.8,0,0.00451839
0.4,6.9,0,0.00450375
0.4,7,0,0.00447534
0.4,7.1,0,0.00445599
0.4,7.2,0,0.00443657
0.4,7.3,0,0.00441474
0.4,7.4,0,0.00438256
0.4,7.5,0,0.00435091
0.4,7.6,0,0.00431696
0.4,7.7,0,0.00427728
0.4,7.8,0,0.00423766
0.4,7.9,0,0.00419459
0.4,8,0,0.00414731
0.4,8.1,0,0.00410003
0.4,8.2,0,0.00404839
0.4,8.3,0,0.00399381
0.4,8.4,0,0.00393947
0.4,8.5,0,0.00387953
0.4,8.6,0,0.00381806
0.4,8.7,0,0.00375738
0.4,8.8,0,0.00368942
0.4,8.9,0,0.00362151
0.4,9,0,0.0035543
0.4,9.1,0,0.00347956
0.4,9.2,0,0.00340568
0.4,9.3,0,0.00333124
0.4,9.4,0,0.00325152
0.4,9.5,0,0.00317217
0.4,9.6,0,0.00309128
0.4,9.7,0,0.00300695
0.4,9.8,0,0.00292261
0.4,9.9,0,0.00283627
0.4,10,0,0.00274745
0.4,10.1,0,0.00265864
0.4,10.2,0,0.00256749
0.4,10.3,0,0.00247468
0.4,10.4,0,0.00238221
0.4,10.5,0,0.00228655
0.4,10.6,0,0.00219025
0.4,10.7,0,0.00209462
0.4,10.8,0,0.00199506
0.4,10.9,0,0.00189574
0.4,11,0,0.00179672
0.4,11.1,0,0.00169455
0.4,11.2,0,0.00159268
0.4,11.3,0,0.0014906
0.4,11.4,0,0.00138655
0.4,11.5,0,0.00128256
0.4,11.6,0,0.00117816
0.4,11.7,0,0.00107249
0.4,11.8,0,0.000966832
0.4,11.9,0,0.00086073
0.4,12,0,0.000753812
0.4,12.1,0,0.000646911
0.4,12.2,0,0.000539636
0.4,12.3,0,0.000431881
0.4,12.4,0,0.000324239
0.4,12.5,0,0.000216252
0.4,12.6,0,0.000108064
0.4,12.7,0,8.76064e-06
0.5,0,0,0
0.5,0.1,0,0.000107497
0.5,0.2,0,0.000214831
0.5,0.3,0,0.000322305
0.5,0.4,0,0.000429309
0.5,0.5,0,0.000536639
0.5,0.6,0,0.000642992
0.5,0.7,0,0.000749364
0.5,0.8,0,0.000855575
0.5,0.9,0,0.000961007
0.5,1,0,0.00106694
0.5,1.1,0,0.00117093
0.5,1.2,0,0.00127511
0.5,1.3,0,0.00137883
0.5,1.4,0,0.00148143
0.5,1.5,0,0.00158472
0.5,1.6,0,0.00168508
0.5,1.7,0,0.00178578
0.5,1.8,0,0.00188571
0.5,1.9,0,0.00198418
0.5,2,0,0.00208353
0.5,2.1,0,0.00217887
0.5,2.2,0,0.00227475
0.5,2.3,0,0.00236951
0.5,2.4,0,0.00246246
0.5,2.5,0,0.00255651
0.5,2.6,0,0.00264538
0.5,2.7,0,0.00273503
0.5,2.8,0,0.00282317
0.5,2.9,0,0.00290914
0.5,3,0,0.0029965
0.5,3.1,0,0.00307735
0.5,3.2,0,0.00315928
0.5,3.3,0,0.00323928
0.5,3.4,0,0.00331679
0.5,3.5,0,0.00339604
0.5,3.6,0,0.00346727
0.5,3.7,0,0.00353998
0.5,3.8,0,0.00361034
0.5,3.9,0,0.00367789
0.5,4,0,0.00374762
0.5,4.1,0,0.00380766
0.5,4.2,0,0.00386969
0.5,4.3,0,0.00392895
0.5,4.4,0,0.00398513
0.5,4.5,0,0.00404401
0.5,4.6,0,0.00409149
0.5,4.7,0,0.00414148
0.5,4.8,0,0.00418668
0.5,4.9,0,0.00422223
0.5,5,0,0.00425864
0.5,5.1,0,0.00431724
0.5,5.2,0,0.00435339
0.5,5.3,0,0.00438672
0.5,5.4,0,0.0044172
0.5,5.5,0,0.0044448
0.5,5.6,0,0.00446947
0.5,5.7,0,0.00449119
0.5,5.8,0,0.00450994
0.5,5.9,0,0.00452569
0.5,6,0,0.00453842
0.5,6.1,0,0.00454812
0.5,6.2,0,0.00455477
0.5,6.3,0,0.00455836
0.5,6.4,0,0.0045589
0.5,6.5,0,0.00455637
0.5,6.6,0,0.00455078
0.5,6.7,0,0.00454213
0.5,6.8,0,0.00453043
0.5,6.9,0,0.0045157
0.5,7,0,0.00448712
0.5,7.1,0,0.00446578
0.5,7.2,0,0.00444635
0.5,7.3,0,0.00442522
0.5,7.4,0,0.00439193
0.5,7.5,0,0.00436028
0.5,7.6,0,0.00432626
0.5,7.7,0,0.00428648
0.5,7.8,0,0.00424686
0.5,7.9,0,0.00420369
0.5,8,0,0.00415641
0.5,8.1,0,0.00410913
0.5,8.2,0,0.00405733
0.5,8.3,0,0.00400275
0.5,8.4,0,0.00394858
0.5,8.5,0,0.00388823
0.5,8.6,0,0.00382676
0.5,8.7,0,0.00376643
0.5,8.8,0,0.00369778
0.5,8.9,0,0.00362987
0.5,9,0,0.0035628
0.5,9.1,0,0.0034875
0.5,9.2,0,0.00341362
0.5,9.3,0,0.00333887
0.5,9.4,0,0.00325896
0.5,9.5,0,0.00317961
0.5,9.6,0,0.00309814
0.5,9.7,0,0.00301381
0.5,9.8,0,0.00292948
0.5,9.9,0,0.00284251
0.5,10,0,0.00275369
0.5,10.1,0,0.00266487
0.5,10.2,0,0.00257305
0.5,10.3,0,0.00248025
0.5,10.4,0,0.00238764
0.5,10.5,0,0.00229143
0.5,10.6,0,0.00219514
0.5,10.7,0,0.00209917
0.5,10.8,0,0.00199926
0.5,10.9,0,0.00189994
0.5,11,0,0.00180044
0.5,11.1,0,0.00169807
0.5,11.2,0,0.00159619
0.5,11.3,0,0.00149351
0.5,11.4,0,0.0013894
0.5,11.5,0,0.00128541
0.5,11.6,0,0.00118036
0.5,11.7,0,0.0010747
0.5,11.8,0,0.000969034
0.5,11.9,0,0.000862298
0.5,12,0,0.00075538
0.5,12.1,0,0.000648462
0.5,12.2,0,0.000540582
0.5,12.3,0,0.000432827
0.5,12.4,0,0.000325017
0.5,12.5,0,0.000216575
0.5,12.6,0,0.000108387
0.5,12.7,0,0
0.6,0,0,0
0.6,0.1,0,0.000107824
0.6,0.2,0,0.000215444
0.6,0.3,0,0.000323163
0.6,0.4,0,0.000430247
0.6,0.5,0,0.000538228
0.6,0.6,0,0.000644541
0.6,0.7,0,0.000751408
0.6,0.8,0,0.000857866
0.6,0.9,0,0.000963173
0.6,1,0,0.00107011
0.6,1.1,0,0.00117373
0.6,1.2,0,0.00127862
0.6,1.3,0,0.00138259
0.6,1.4,0,0.00148487
0.6,1.5,0,0.00158953
0.6,1.6,0,0.00168917
0.6,1.7,0,0.00179082
0.6,1.8,0,0.00189101
0.6,1.9,0,0.00198894
0.6,2,0,0.00209006
0.6,2.1,0,0.00218431
0.6,2.2,0,0.00228138
0.6,2.3,0,0.00237641
0.6,2.4,0,0.00246857
0.6,2.5,0,0.00256484
0.6,2.6,0,0.00265216
0.6,2.7,0,0.0027433
0.6,2.8,0,0.00283169
0.6,2.9,0,0.00291657
0.6,3,0,0.00300669
0.6,3.1,0,0.00308538
0.6,3.2,0,0.00316917
0.6,3.3,0,0.00324939
0.6,3.4,0,0.00332538
0.6,3.5,0,0.0034081
0.6,3.6,0,0.00347636
0.6,3.7,0,0.00355141
0.6,3.8,0,0.00362194
0.6,3.9,0,0.00368742
0.6,4,0,0.00376152
0.6,4.1,0,0.00381756
0.6,4.2,0,0.00388252
0.6,4.3,0,0.00394191
0.6,4.4,0,0.00399535
0.6,4.5,0,0.00405964
0.6,4.6,0,0.00410208
0.6,4.7,0,0.0041556
0.6,4.8,0,0.00420275
0.6,4.9,0,0.0042377
0.6,5,0,0.00427585
0.6,5.1,0,0.004335
0.6,5.2,0,0.00437143
0.6,5.3,0,0.00440503
0.6,5.4,0,0.00443575
0.6,5.5,0,0.00446356
0.6,5.6,0,0.00448842
0.6,5.7,0,0.00451031
0.6,5.8,0,0.00452921
0.6,5.9,0,0.00454508
0.6,6,0,0.00455791
0.6,6.1,0,0.00456768
0.6,6.2,0,0.00457438
0.6,6.3,0,0.00457799
0.6,6.4,0,0.00457852
0.6,6.5,0,0.00457596
0.6,6.6,0,0.00457031
0.6,6.7,0,0.00456158
0.6,6.8,0,0.00454976
0.6,6.9,0,0.00453489
0.6,7,0,0.00450588
0.6,7.1,0,0.00448073
0.6,7.2,0,0.00446181
0.6,7.3,0,0.00444338
0.6,7.4,0,0.00440386
0.6,7.5,0,0.00437441
0.6,7.6,0,0.00434377
0.6,7.7,0,0.00429816
0.6,7.8,0,0.00426177
0.6,7.9,0,0.00421937
0.6,8,0,0.00416788
0.6,8.1,0,0.00412454
0.6,8.2,0,0.00407118
0.6,8.3,0,0.00401394
0.6,8.4,0,0.00396369
0.6,8.5,0,0.0039004
0.6,8.6,0,0.00383757
0.6,8.7,0,0.00378058
0.6,8.8,0,0.00370842
0.6,8.9,0,0.0036402
0.6,9,0,0.00357594
0.6,9.1,0,0.00349726
0.6,9.2,0,0.00342394
0.6,9.3,0,0.00335095
0.6,9.4,0,0.00326806
0.6,9.5,0,0.00318961
0.6,9.6,0,0.00310901
0.6,9.7,0,0.00302217
0.6,9.8,0,0.00293894
0.6,9.9,0,0.00285174
0.6,10,0,0.00276127
0.6,10.1,0,0.00267364
0.6,10.2,0,0.00258079
0.6,10.3,0,0.00248701
0.6,10.4,0,0.00239539
0.6,10.5,0,0.00229779
0.6,10.6,0,0.00220105
0.6,10.7,0,0.00210588
0.6,10.8,0,0.00200434
0.6,10.9,0,0.00190507
0.6,11,0,0.00180612
0.6,11.1,0,0.00170233
0.6,11.2,0,0.00160059
0.6,11.3,0,0.00149821
0.6,11.4,0,0.00139284
0.6,11.5,0,0.00128901
0.6,11.6,0,0.00118394
0.6,11.7,0,0.00107736
0.6,11.8,0,0.000971791
0.6,11.9,0,0.000864754
0.6,12,0,0.00075728
0.6,12.1,0,0.000650319
0.6,12.2,0,0.000542008
0.6,12.3,0,0.000433972
0.6,12.4,0,0.000325956
0.6,12.5,0,0.000217058
0.6,12.6,0,0.000108785
0.6,12.7,0,0
0.7,0,0,0
0.7,0.1,0,0.000107922
0.7,0.2,0,0.000216249
0.7,0.3,0,0.000323968
0.7,0.4,0,0.00043164
0.7,0.5,0,0.000539817
0.7,0.6,0,0.000646119
0.7,0.7,0,0.000753782
0.7,0.8,0,0.000860239
0.7,0.9,0,0.000966042
0.7,1,0,0.00107328
0.7,1.1,0,0.00117679
0.7,1.2,0,0.0012826
0.7,1.3,0,0.00138657
0.7,1.4,0,0.00148927
0.7,1.5,0,0.00159434
0.7,1.6,0,0.00169377
0.7,1.7,0,0.00179648
0.7,1.8,0,0.00189667
0.7,1.9,0,0.00199494
0.7,2,0,0.00209659
0.7,2.1,0,0.00219051
0.7,2.2,0,0.0022888
0.7,2.3,0,0.00238382
0.7,2.4,0,0.00247623
0.7,2.5,0,0.00257317
0.7,2.6,0,0.00266003
0.7,2.7,0,0.00275255
0.7,2.8,0,0.00284094
0.7,2.9,0,0.00292592
0.7,3,0,0.00301687
0.7,3.1,0,0.00309492
0.7,3.2,0,0.0031803
0.7,3.3,0,0.00326052
0.7,3.4,0,0.00333641
0.7,3.5,0,0.00342016
0.7,3.6,0,0.00348753
0.7,3.7,0,0.0035644
0.7,3.8,0,0.00363493
0.7,3.9,0,0.00370001
0.7,4,0,0.00377542
0.7,4.1,0,0.00383026
0.7,4.2,0,0.0038973
0.7,4.3,0,0.00395669
0.7,4.4,0,0.00400936
0.7,4.5,0,0.00407527
0.7,4.6,0,0.0041162
0.7,4.7,0,0.00417206
0.7,4.8,0,0.00421922
0.7,4.9,0,0.00425438
0.7,5,0,0.00429305
0.7,5.1,0,0.00435276
0.7,5.2,0,0.00438947
0.7,5.3,0,0.00442333
0.7,5.4,0,0.00445429
0.7,5.5,0,0.00448232
0.7,5.6,0,0.00450737
0.7,5.7,0,0.00452944
0.7,5.8,0,0.00454848
0.7,5.9,0,0.00456447
0.7,6,0,0.0045774
0.7,6.1,0,0.00458724
0.7,6.2,0,0.00459399
0.7,6.3,0,0.00459763
0.7,6.4,0,0.00459815
0.7,6.5,0,0.00459556
0.7,6.6,0,0.00458985
0.7,6.7,0,0.00458103
0.7,6.8,0,0.0045691
0.7,6.9,0,0.00455408
0.7,7,0,0.00452464
0.7,7.1,0,0.0044992
0.7,7.2,0,0.00447997
0.7,7.3,0,0.00446154
0.7,7.4,0,0.00442006
0.7,7.5,0,0.00439192
0.7,7.6,0,0.00436128
0.7,7.7,0,0.00431271
0.7,7.8,0,0.00427857
0.7,7.9,0,0.00423617
0.7,8,0,0.00418179
0.7,8.1,0,0.00414053
0.7,8.2,0,0.00408718
0.7,8.3,0,0.00402719
0.7,8.4,0,0.0039788
0.7,8.5,0,0.00391551
0.7,8.6,0,0.00385093
0.7,8.7,0,0.00379474
0.7,8.8,0,0.00372257
0.7,8.9,0,0.00365334
0.7,9,0,0.00358908
0.7,9.1,0,0.00350987
0.7,9.2,0,0.00343602
0.7,9.3,0,0.00336304
0.7,9.4,0,0.00327897
0.7,9.5,0,0.00320061
0.7,9.6,0,0.00312001
0.7,9.7,0,0.00303171
0.7,9.8,0,0.00294885
0.7,9.9,0,0.00286166
0.7,10,0,0.00276961
0.7,10.1,0,0.00268246
0.7,10.2,0,0.00258962
0.7,10.3,0,0.00249437
0.7,10.4,0,0.00240315
0.7,10.5,0,0.00230554
0.7,10.6,0,0.00220764
0.7,10.7,0,0.00211259
0.7,10.8,0,0.00201104
0.7,10.9,0,0.00191075
0.7,11,0,0.00181181
0.7,11.1,0,0.00170768
0.7,11.2,0,0.00160528
0.7,11.3,0,0.0015029
0.7,11.4,0,0.00139694
0.7,11.5,0,0.00129273
0.7,11.6,0,0.00118767
0.7,11.7,0,0.00108036
0.7,11.8,0,0.000974572
0.7,11.9,0,0.000867535
0.7,12,0,0.000759207
0.7,12.1,0,0.000652176
0.7,12.2,0,0.000543865
0.7,12.3,0,0.000434976
0.7,12.4,0,0.000326894
0.7,12.5,0,0.000217997
0.7,12.6,0,0.000108816
0.7,12.7,0,0
0.8,0,0,0
0.8,0.1,0,0.000108304
0.8,0.2,0,0.000217053
0.8,0.3,0,0.000324772
0.8,0.4,0,0.000433123
0.8,0.5,0,0.000541406
0.8,0.6,0,0.000648367
0.8,0.7,0,0.000756155
0.8,0.8,0,0.000862613
0.8,0.9,0,0.000969377
0.8,1,0,0.00107645
0.8,1.1,0,0.0011809
0.8,1.2,0,0.00128658
0.8,1.3,0,0.00139055
0.8,1.4,0,0.00149451
0.8,1.5,0,0.00159915
0.8,1.6,0,0.00169983
0.8,1.7,0,0.00180213
0.8,1.8,0,0.00190233
0.8,1.9,0,0.00200219
0.8,2,0,0.00210311
0.8,2.1,0,0.00219862
0.8,2.2,0,0.00229622
0.8,2.3,0,0.00239124
0.8,2.4,0,0.00248561
0.8,2.5,0,0.00258149
0.8,2.6,0,0.00267033
0.8,2.7,0,0.0027618
0.8,2.8,0,0.00285019
0.8,2.9,0,0.00293757
0.8,3,0,0.00302706
0.8,3.1,0,0.00310759
0.8,3.2,0,0.00319142
0.8,3.3,0,0.00327165
0.8,3.4,0,0.00335049
0.8,3.5,0,0.00343223
0.8,3.6,0,0.00350271
0.8,3.7,0,0.00357739
0.8,3.8,0,0.00364792
0.8,3.9,0,0.00371667
0.8,4,0,0.00378932
0.8,4.1,0,0.00384806
0.8,4.2,0,0.00391208
0.8,4.3,0,0.00397147
0.8,4.4,0,0.00402864
0.8,4.5,0,0.0040909
0.8,4.6,0,0.00413653
0.8,4.7,0,0.00418853
0.8,4.8,0,0.00423568
0.8,4.9,0,0.00427238
0.8,5,0,0.00431026
0.8,5.1,0,0.00437052
0.8,5.2,0,0.00440751
0.8,5.3,0,0.00444163
0.8,5.4,0,0.00447284
0.8,5.5,0,0.00450108
0.8,5.6,0,0.00452633
0.8,5.7,0,0.00454856
0.8,5.8,0,0.00456775
0.8,5.9,0,0.00458387
0.8,6,0,0.00459689
0.8,6.1,0,0.00460681
0.8,6.2,0,0.0046136
0.8,6.3,0,0.00461726
0.8,6.4,0,0.00461778
0.8,6.5,0,0.00461516
0.8,6.6,0,0.00460939
0.8,6.7,0,0.00460048
0.8,6.8,0,0.00458843
0.8,6.9,0,0.00457327
0.8,7,0,0.00454341
0.8,7.1,0,0.00451982
0.8,7.2,0,0.00449944
0.8,7.3,0,0.0044797
0.8,7.4,0,0.00444277
0.8,7.5,0,0.00441009
0.8,7.6,0,0.00437879
0.8,7.7,0,0.00433535
0.8,7.8,0,0.00429537
0.8,7.9,0,0.00425297
0.8,8,0,0.00420312
0.8,8.1,0,0.00415653
0.8,8.2,0,0.00410317
0.8,8.3,0,0.00404699
0.8,8.4,0,0.00399392
0.8,8.5,0,0.00393124
0.8,8.6,0,0.00386825
0.8,8.7,0,0.00380889
0.8,8.8,0,0.00373791
0.8,8.9,0,0.00366839
0.8,9,0,0.00360222
0.8,9.1,0,0.00352454
0.8,9.2,0,0.00344899
0.8,9.3,0,0.00337512
0.8,9.4,0,0.00329276
0.8,9.5,0,0.00321169
0.8,9.6,0,0.00313102
0.8,9.7,0,0.00304427
0.8,9.8,0,0.00295877
0.8,9.9,0,0.00287157
0.8,10,0,0.00278078
0.8,10.1,0,0.00269129
0.8,10.2,0,0.00259847
0.8,10.3,0,0.00250398
0.8,10.4,0,0.00241091
0.8,10.5,0,0.00231351
0.8,10.6,0,0.00221556
0.8,10.7,0,0.0021193
0.8,10.8,0,0.00201805
0.8,10.9,0,0.00191712
0.8,11,0,0.0018175
0.8,11.1,0,0.00171368
0.8,11.2,0,0.00161023
0.8,11.3,0,0.00150759
0.8,11.4,0,0.0014019
0.8,11.5,0,0.00129645
0.8,11.6,0,0.00119139
0.8,11.7,0,0.0010842
0.8,11.8,0,0.000977353
0.8,11.9,0,0.000870316
0.8,12,0,0.000761945
0.8,12.1,0,0.000654033
0.8,12.2,0,0.000545701
0.8,12.3,0,0.000436495
0.8,12.4,0,0.000327833
0.8,12.5,0,0.000218799
0.8,12.6,0,0.000109129
0.8,12.7,0,0
0.9,0,0,0
0.9,0.1,0,0.000108782
0.9,0.2,0,0.000217564
0.9,0.3,0,0.000326163
0.9,0.4,0,0.000434579
0.9,0.5,0,0.000542995
0.9,0.6,0,0.000650779
0.9,0.7,0,0.000758564
0.9,0.8,0,0.000865889
0.9,0.9,0,0.000972753
0.9,1,0,0.00107962
0.9,1.1,0,0.00118526
0.9,1.2,0,0.0012909
0.9,1.3,0,0.00139576
0.9,1.4,0,0.00149986
0.9,1.5,0,0.00160396
0.9,1.6,0,0.0017062
0.9,1.7,0,0.00180843
0.9,1.8,0,0.00190957
0.9,1.9,0,0.00200961
0.9,2,0,0.00210964
0.9,2.1,0,0.00220713
0.9,2.2,0,0.00230462
0.9,2.3,0,0.00240065
0.9,2.4,0,0.00249524
0.9,2.5,0,0.00258982
0.9,2.6,0,0.00268113
0.9,2.7,0,0.00277244
0.9,2.8,0,0.00286193
0.9,2.9,0,0.00294959
0.9,3,0,0.00303724
0.9,3.1,0,0.00312087
0.9,3.2,0,0.00320449
0.9,3.3,0,0.0032859
0.9,3.4,0,0.00336509
0.9,3.5,0,0.00344429
0.9,3.6,0,0.00351867
0.9,3.7,0,0.00359306
0.9,3.8,0,0.00366484
0.9,3.9,0,0.00373403
0.9,4,0,0.00380322
0.9,4.1,0,0.00386684
0.9,4.2,0,0.00393046
0.9,4.3,0,0.00399112
0.9,4.4,0,0.00404883
0.9,4.5,0,0.00410653
0.9,4.6,0,0.00415803
0.9,4.7,0,0.00420953
0.9,4.8,0,0.00425371
0.9,4.9,0,0.00429059
0.9,5,0,0.00432746
0.9,5.1,0,0.00438828
0.9,5.2,0,0.00442556
0.9,5.3,0,0.00445994
0.9,5.4,0,0.00449138
0.9,5.5,0,0.00451983
0.9,5.6,0,0.00454528
0.9,5.7,0,0.00456769
0.9,5.8,0,0.00458702
0.9,5.9,0,0.00460326
0.9,6,0,0.00461638
0.9,6.1,0,0.00462637
0.9,6.2,0,0.00463321
0.9,6.3,0,0.0046369
0.9,6.4,0,0.00463741
0.9,6.5,0,0.00463475
0.9,6.6,0,0.00462893
0.9,6.7,0,0.00461993
0.9,6.8,0,0.00460776
0.9,6.9,0,0.00459246
0.9,7,0,0.00456217
0.9,7.1,0,0.00454179
0.9,7.2,0,0.00452141
0.9,7.3,0,0.00449919
0.9,7.4,0,0.00446651
0.9,7.5,0,0.00443382
0.9,7.6,0,0.00439872
0.9,7.7,0,0.00435798
0.9,7.8,0,0.00431724
0.9,7.9,0,0.00427299
0.9,8,0,0.00422444
0.9,8.1,0,0.0041759
0.9,8.2,0,0.00412289
0.9,8.3,0,0.00406691
0.9,8.4,0,0.00401093
0.9,8.5,0,0.00394969
0.9,8.6,0,0.00388671
0.9,8.7,0,0.00382373
0.9,8.8,0,0.00375487
0.9,8.9,0,0.00368535
0.9,9,0,0.00361554
0.9,9.1,0,0.00354
0.9,9.2,0,0.00346445
0.9,9.3,0,0.00338781
0.9,9.4,0,0.00330674
0.9,9.5,0,0.00322568
0.9,9.6,0,0.00314288
0.9,9.7,0,0.00305682
0.9,9.8,0,0.00297077
0.9,9.9,0,0.00288247
0.9,10,0,0.00279194
0.9,10.1,0,0.00270141
0.9,10.2,0,0.00260831
0.9,10.3,0,0.00251381
0.9,10.4,0,0.00241932
0.9,10.5,0,0.00232206
0.9,10.6,0,0.00222411
0.9,10.7,0,0.00212615
0.9,10.8,0,0.00202537
0.9,10.9,0,0.00192443
0.9,11,0,0.00182325
0.9,11.1,0,0.0017198
0.9,11.2,0,0.00161635
0.9,11.3,0,0.00151239
0.9,11.4,0,0.00140687
0.9,11.5,0,0.00130136
0.9,11.6,0,0.00119519
0.9,11.7,0,0.00108804
0.9,11.8,0,0.000980886
0.9,11.9,0,0.000873061
0.9,12,0,0.000764684
0.9,12.1,0,0.000656308
0.9,12.2,0,0.000547351
0.9,12.3,0,0.000438145
0.9,12.4,0,0.00032894
0.9,12.5,0,0.000219339
0.9,12.6,0,0.00010967
0.9,12.7,0,0
1,0,0,0
1,0.1,0,0.000109395
1,0.2,0,0.00021825
1,0.3,0,0.000327853
1,0.4,0,0.000436307
1,0.5,0,0.000545665
1,0.6,0,0.000653621
1,0.7,0,0.000761521
1,0.8,0,0.000869861
1,0.9,0,0.000976723
1,1,0,0.00108496
1,1.1,0,0.00119038
1,1.2,0,0.00129618
1,1.3,0,0.0014021
1,1.4,0,0.00150616
1,1.5,0,0.0016121
1,1.6,0,0.0017137
1,1.7,0,0.00181614
1,1.8,0,0.00191839
1,1.9,0,0.00201835
1,2,0,0.00212072
1,2.1,0,0.00221715
1,2.2,0,0.0023149
1,2.3,0,0.00241213
1,2.4,0,0.00250658
1,2.5,0,0.00260403
1,2.6,0,0.00269386
1,2.7,0,0.00278548
1,2.8,0,0.00287625
1,2.9,0,0.00296374
1,3,0,0.00305473
1,3.1,0,0.0031365
1,3.2,0,0.00322047
1,3.3,0,0.00330326
1,3.4,0,0.00338225
1,3.5,0,0.00346513
1,3.6,0,0.00353741
1,3.7,0,0.00361217
1,3.8,0,0.00368541
1,3.9,0,0.00375438
1,4,0,0.00382736
1,4.1,0,0.00388882
1,4.2,0,0.00395281
1,4.3,0,0.00401491
1,4.4,0,0.0040724
1,4.5,0,0.0041337
1,4.6,0,0.00418305
1,4.7,0,0.00423489
1,4.8,0,0.0042844
1,4.9,0,0.00432152
1,5,0,0.00435679
1,5.1,0,0.00441812
1,5.2,0,0.00445576
1,5.3,0,0.00449049
1,5.4,0,0.00452225
1,5.5,0,0.00455101
1,5.6,0,0.00457673
1,5.7,0,0.00459938
1,5.8,0,0.00461893
1,5.9,0,0.00463537
1,6,0,0.00464865
1,6.1,0,0.00465877
1,6.2,0,0.00466571
1,6.3,0,0.00466947
1,6.4,0,0.00467002
1,6.5,0,0.00466738
1,6.6,0,0.00466153
1,6.7,0,0.00465249
1,6.8,0,0.00464025
1,6.9,0,0.00462484
1,7,0,0.00459444
1,7.1,0,0.00457419
1,7.2,0,0.00455381
1,7.3,0,0.00453032
1,7.4,0,0.0044954
1,7.5,0,0.00446272
1,7.6,0,0.00442808
1,7.7,0,0.00438567
1,7.8,0,0.00434518
1,7.9,0,0.00430015
1,8,0,0.00425061
1,8.1,0,0.00420278
1,8.2,0,0.00414758
1,8.3,0,0.00409141
1,8.4,0,0.0040366
1,8.5,0,0.00397244
1,8.6,0,0.00390946
1,8.7,0,0.00384807
1,8.8,0,0.00377581
1,8.9,0,0.0037063
1,9,0,0.00363802
1,9.1,0,0.00355912
1,9.2,0,0.00348357
1,9.3,0,0.00340753
1,9.4,0,0.00332406
1,9.5,0,0.003243
1,9.6,0,0.00315992
1,9.7,0,0.00307237
1,9.8,0,0.00298661
1,9.9,0,0.00289696
1,10,0,0.00280578
1,10.1,0,0.00271578
1,10.2,0,0.00262049
1,10.3,0,0.00252599
1,10.4,0,0.00243217
1,10.5,0,0.00233265
1,10.6,0,0.00223469
1,10.7,0,0.00213743
1,10.8,0,0.00203442
1,10.9,0,0.00193349
1,11,0,0.00183252
1,11.1,0,0.00172737
1,11.2,0,0.00162392
1,11.3,0,0.00151959
1,11.4,0,0.00141301
1,11.5,0,0.0013075
1,11.6,0,0.00120049
1,11.7,0,0.00109278
1,11.8,0,0.000985606
1,11.9,0,0.000876616
1,12,0,0.000768071
1,12.1,0,0.000659549
1,12.2,0,0.000549404
1,12.3,0,0.000440198
1,12.4,0,0.000330622
1,12.5,0,0.000220066
1,12.6,0,0.000110396
1,12.7,0,0
1.1,0,0,0
1.1,0.1,0,0.000109885
1.1,0.2,0,0.0002196
1.1,0.3,0,0.000329202
1.1,0.4,0,0.000438223
1.1,0.5,0,0.000548336
1.1,0.6,0,0.000656429
1.1,0.7,0,0.000765517
1.1,0.8,0,0.000873857
1.1,0.9,0,0.000980967
1.1,1,0,0.0010903
1.1,1.1,0,0.00119554
1.1,1.2,0,0.0013029
1.1,1.3,0,0.00140882
1.1,1.4,0,0.00151282
1.1,1.5,0,0.00162023
1.1,1.6,0,0.00172132
1.1,1.7,0,0.00182573
1.1,1.8,0,0.00192798
1.1,1.9,0,0.00202755
1.1,2,0,0.00213181
1.1,2.1,0,0.00222738
1.1,2.2,0,0.00232752
1.1,2.3,0,0.00242475
1.1,2.4,0,0.0025185
1.1,2.5,0,0.00261824
1.1,2.6,0,0.00270688
1.1,2.7,0,0.00280131
1.1,2.8,0,0.00289208
1.1,2.9,0,0.00297855
1.1,3,0,0.00307222
1.1,3.1,0,0.0031525
1.1,3.2,0,0.00323963
1.1,3.3,0,0.00332242
1.1,3.4,0,0.00340015
1.1,3.5,0,0.00348597
1.1,3.6,0,0.00355657
1.1,3.7,0,0.00363468
1.1,3.8,0,0.00370792
1.1,3.9,0,0.00377549
1.1,4,0,0.00385149
1.1,4.1,0,0.00391122
1.1,4.2,0,0.00397851
1.1,4.3,0,0.00404061
1.1,4.4,0,0.00409669