x,y,z,p
0,0,0,0.000118619
0,0.1,0,0.000255106
0,0.2,0,0.000391593
0,0.3,0,0.0005515
0,0.4,0,0.000734826
0,0.5,0,0.000918152
0,0.6,0,0.00110028
0,0.7,0,0.0012824
0,0.8,0,0.00146362
0,0.9,0,0.00164395
0,1,0,0.00182427
0,1.1,0,0.0020022
0,1.2,0,0.00218014
0,1.3,0,0.00235658
0,1.4,0,0.00253152
0,1.5,0,0.00270645
0,1.6,0,0.00287779
0,1.7,0,0.00304912
0,1.8,0,0.00321834
0,1.9,0,0.00338544
0,2,0,0.00355254
0,2.1,0,0.00371478
0,2.2,0,0.00387701
0,2.3,0,0.00403648
0,2.4,0,0.00419319
0,2.5,0,0.0043499
0,2.6,0,0.00450042
0,2.7,0,0.00465094
0,2.8,0,0.00479803
0,2.9,0,0.0049417
0,3,0,0.00508535
0,3.1,0,0.00522147
0,3.2,0,0.00535759
0,3.3,0,0.0054896
0,3.4,0,0.0056175
0,3.5,0,0.0057454
0,3.6,0,0.00586442
0,3.7,0,0.00598344
0,3.8,0,0.00609771
0,3.9,0,0.00620722
0,4,0,0.00631674
0,4.1,0,0.00641614
0,4.2,0,0.00651554
0,4.3,0,0.00660962
0,4.4,0,0.00669836
0,4.5,0,0.0067871
0,4.6,0,0.0068647
0,4.7,0,0.0069423
0,4.8,0,0.00701269
0,4.9,0,0.00707588
0,5,0,0.00713906
0,5.1,0,0.00719799
0,5.2,0,0.00725693
0,5.3,0,0.00730251
0,5.4,0,0.0073481
0,5.5,0,0.00738378
0,5.6,0,0.00741947
0,5.7,0,0.00744516
0,5.8,0,0.00747085
0,5.9,0,0.00748647
0,6,0,0.00750209
0,6.1,0,0.00750761
0,6.2,0,0.00751314
0,6.3,0,0.0075086
0,6.4,0,0.00750406
0,6.5,0,0.00748951
0,6.6,0,0.00747497
0,6.7,0,0.00745053
0,6.8,0,0.00742608
0,6.9,0,0.00738793
0,7,0,0.00734977
0,7.1,0,0.00730678
0,7.2,0,0.00726378
0,7.3,0,0.00721841
0,7.4,0,0.00715957
0,7.5,0,0.00710072
0,7.6,0,0.0070381
0,7.7,0,0.00696667
0,7.8,0,0.00689524
0,7.9,0,0.00681844
0,8,0,0.00673508
0,8.1,0,0.00665172
0,8.2,0,0.00656165
0,8.3,0,0.0064671
0,8.4,0,0.00637255
0,8.5,0,0.00627019
0,8.6,0,0.00616523
0,8.7,0,0.00606027
0,8.8,0,0.00594669
0,8.9,0,0.00583214
0,9,0,0.00571717
0,9.1,0,0.00559388
0,9.2,0,0.00547059
0,9.3,0,0.00534572
0,9.4,0,0.00521452
0,9.5,0,0.00508332
0,9.6,0,0.00494964
0,9.7,0,0.00481135
0,9.8,0,0.00467306
0,9.9,0,0.00453161
0,10,0,0.00438702
0,10.1,0,0.00424242
0,10.2,0,0.00409422
0,10.3,0,0.00394408
0,10.4,0,0.00379394
0,10.5,0,0.00363994
0,10.6,0,0.00348497
0,10.7,0,0.00333001
0,10.8,0,0.00317112
0,10.9,0,0.00301202
0,11,0,0.00285257
0,11.1,0,0.00269
0,11.2,0,0.00252742
0,11.3,0,0.00236413
0,11.4,0,0.0021987
0,11.5,0,0.00203326
0,11.6,0,0.00186693
0,11.7,0,0.00169924
0,11.8,0,0.00153155
0,11.9,0,0.00136294
0,12,0,0.00119356
0,12.1,0,0.00102419
0,12.2,0,0.000854038
0,12.3,0,0.00068355
0,12.4,0,0.000513063
0,12.5,0,0.000379443
0,12.6,0,0.00025233
0,12.7,0,0.000125216
0.1,0,0,9.22591e-05
0.1,0.1,0,0.000228835
0.1,0.2,0,0.000368004
0.1,0.3,0,0.000551778
0.1,0.4,0,0.000735075
0.1,0.5,0,0.000919213
0.1,0.6,0,0.00110069
0.1,0.7,0,0.00128293
0.1,0.8,0,0.0014643
0.1,0.9,0,0.00164453
0.1,1,0,0.00182635
0.1,1.1,0,0.00200295
0.1,1.2,0,0.00218107
0.1,1.3,0,0.00235766
0.1,1.4,0,0.00253243
0.1,1.5,0,0.00270953
0.1,1.6,0,0.00287888
0.1,1.7,0,0.00305046
0.1,1.8,0,0.00321983
0.1,1.9,0,0.00338671
0.1,2,0,0.00355659
0.1,2.1,0,0.00371622
0.1,2.2,0,0.00387876
0.1,2.3,0,0.00403839
0.1,2.4,0,0.00419482
0.1,2.5,0,0.00435487
0.1,2.6,0,0.00450223
0.1,2.7,0,0.00465312
0.1,2.8,0,0.00480038
0.1,2.9,0,0.0049437
0.1,3,0,0.00509121
0.1,3.1,0,0.00522366
0.1,3.2,0,0.00536019
0.1,3.3,0,0.00549237
0.1,3.4,0,0.00561988
0.1,3.5,0,0.00575212
0.1,3.6,0,0.00586698
0.1,3.7,0,0.00598646
0.1,3.8,0,0.00610088
0.1,3.9,0,0.00620995
0.1,4,0,0.00632432
0.1,4.1,0,0.00641903
0.1,4.2,0,0.00651894
0.1,4.3,0,0.00661315
0.1,4.4,0,0.00670139
0.1,4.5,0,0.00679553
0.1,4.6,0,0.00686786
0.1,4.7,0,0.00694602
0.1,4.8,0,0.00701793
0.1,4.9,0,0.00708072
0.1,5,0,0.00714814
0.1,5.1,0,0.00720174
0.1,5.2,0,0.00726624
0.1,5.3,0,0.0073047
0.1,5.4,0,0.00735758
0.1,5.5,0,0.00738599
0.1,5.6,0,0.00742909
0.1,5.7,0,0.00744739
0.1,5.8,0,0.00748054
0.1,5.9,0,0.00748871
0.1,6,0,0.00751181
0.1,6.1,0,0.00750986
0.1,6.2,0,0.00752284
0.1,6.3,0,0.00751083
0.1,6.4,0,0.00751368
0.1,6.5,0,0.00749172
0.1,6.6,0,0.00748447
0.1,6.7,0,0.00745271
0.1,6.8,0,0.00743541
0.1,6.9,0,0.00739183
0.1,7,0,0.00735888
0.1,7.1,0,0.00731274
0.1,7.2,0,0.00726974
0.1,7.3,0,0.0072261
0.1,7.4,0,0.00716365
0.1,7.5,0,0.0071048
0.1,7.6,0,0.00704435
0.1,7.7,0,0.00697056
0.1,7.8,0,0.00689966
0.1,7.9,0,0.00682334
0.1,8,0,0.00673875
0.1,8.1,0,0.00665678
0.1,8.2,0,0.00656529
0.1,8.3,0,0.00647052
0.1,8.4,0,0.00637813
0.1,8.5,0,0.00627336
0.1,8.6,0,0.0061684
0.1,8.7,0,0.00606625
0.1,8.8,0,0.00594959
0.1,8.9,0,0.00583505
0.1,9,0,0.00572294
0.1,9.1,0,0.00559652
0.1,9.2,0,0.00547323
0.1,9.3,0,0.00535028
0.1,9.4,0,0.00521689
0.1,9.5,0,0.00508569
0.1,9.6,0,0.00495308
0.1,9.7,0,0.00481346
0.1,9.8,0,0.00467569
0.1,9.9,0,0.00453406
0.1,10,0,0.00438889
0.1,10.1,0,0.00424529
0.1,10.2,0,0.00409586
0.1,10.3,0,0.00394572
0.1,10.4,0,0.00379692
0.1,10.5,0,0.00364135
0.1,10.6,0,0.00348639
0.1,10.7,0,0.00333298
0.1,10.8,0,0.00317232
0.1,10.9,0,0.00301322
0.1,11,0,0.00285494
0.1,11.1,0,0.002691
0.1,11.2,0,0.00252842
0.1,11.3,0,0.00236575
0.1,11.4,0,0.0021995
0.1,11.5,0,0.00203412
0.1,11.6,0,0.00186795
0.1,11.7,0,0.00169986
0.1,11.8,0,0.00153236
0.1,11.9,0,0.00136349
0.1,12,0,0.00119401
0.1,12.1,0,0.00102484
0.1,12.2,0,0.000854302
0.1,12.3,0,0.000683814
0.1,12.4,0,0.000513449
0.1,12.5,0,0.000351709
0.1,12.6,0,0.000224596
0.1,12.7,0,9.73906e-05
0.2,0,0,6.58993e-05
0.2,0.1,0,0.000202547
0.2,0.2,0,0.000368543
0.2,0.3,0,0.000552317
0.2,0.4,0,0.000735487
0.2,0.5,0,0.000920274
0.2,0.6,0,0.00110124
0.2,0.7,0,0.00128451
0.2,0.8,0,0.00146587
0.2,0.9,0,0.00164541
0.2,1,0,0.00182843
0.2,1.1,0,0.00200397
0.2,1.2,0,0.00218365
0.2,1.3,0,0.00236024
0.2,1.4,0,0.00253378
0.2,1.5,0,0.00271261
0.2,1.6,0,0.00288036
0.2,1.7,0,0.00305403
0.2,1.8,0,0.0032234
0.2,1.9,0,0.00338853
0.2,2,0,0.00356064
0.2,2.1,0,0.00371818
0.2,2.2,0,0.00388327
0.2,2.3,0,0.00404291
0.2,2.4,0,0.00419711
0.2,2.5,0,0.00435984
0.2,2.6,0,0.00450468
0.2,2.7,0,0.00465853
0.2,2.8,0,0.00480579
0.2,2.9,0,0.00494647
0.2,3,0,0.00509706
0.2,3.1,0,0.00522659
0.2,3.2,0,0.00536648
0.2,3.3,0,0.00549865
0.2,3.4,0,0.00562312
0.2,3.5,0,0.00575884
0.2,3.6,0,0.00587037
0.2,3.7,0,0.00599362
0.2,3.8,0,0.00610804
0.2,3.9,0,0.00621365
0.2,4,0,0.00633191
0.2,4.1,0,0.00642286
0.2,4.2,0,0.00652696
0.2,4.3,0,0.00662116
0.2,4.4,0,0.00670551
0.2,4.5,0,0.00680395
0.2,4.6,0,0.00687207
0.2,4.7,0,0.00695482
0.2,4.8,0,0.00702672
0.2,4.9,0,0.00708641
0.2,5,0,0.00715723
0.2,5.1,0,0.00720548
0.2,5.2,0,0.00727555
0.2,5.3,0,0.00730688
0.2,5.4,0,0.00736707
0.2,5.5,0,0.00738821
0.2,5.6,0,0.00743871
0.2,5.7,0,0.00744962
0.2,5.8,0,0.00749024
0.2,5.9,0,0.00749095
0.2,6,0,0.00752154
0.2,6.1,0,0.0075121
0.2,6.2,0,0.00753255
0.2,6.3,0,0.00751306
0.2,6.4,0,0.00752331
0.2,6.5,0,0.00749394
0.2,6.6,0,0.00749398
0.2,6.7,0,0.0074549
0.2,6.8,0,0.00744475
0.2,6.9,0,0.00739573
0.2,7,0,0.00736798
0.2,7.1,0,0.00732002
0.2,7.2,0,0.00727757
0.2,7.3,0,0.0072349
0.2,7.4,0,0.0071686
0.2,7.5,0,0.00711273
0.2,7.6,0,0.00705273
0.2,7.7,0,0.00697445
0.2,7.8,0,0.00690758
0.2,7.9,0,0.00683126
0.2,8,0,0.00674241
0.2,8.1,0,0.00666424
0.2,8.2,0,0.00657274
0.2,8.3,0,0.00647404
0.2,8.4,0,0.00638511
0.2,8.5,0,0.00627964
0.2,8.6,0,0.00617245
0.2,8.7,0,0.00607277
0.2,8.8,0,0.00595458
0.2,8.9,0,0.00583952
0.2,9,0,0.00572897
0.2,9.1,0,0.00560032
0.2,9.2,0,0.00547802
0.2,9.3,0,0.00535584
0.2,9.4,0,0.0052196
0.2,9.5,0,0.0050907
0.2,9.6,0,0.00495816
0.2,9.7,0,0.00481558
0.2,9.8,0,0.00468028
0.2,9.9,0,0.00453865
0.2,10,0,0.00439077
0.2,10.1,0,0.00424938
0.2,10.2,0,0.00409989
0.2,10.3,0,0.00394756
0.2,10.4,0,0.00380051
0.2,10.5,0,0.00364438
0.2,10.6,0,0.00348838
0.2,10.7,0,0.00333608
0.2,10.8,0,0.00317447
0.2,10.9,0,0.00301524
0.2,11,0,0.00285756
0.2,11.1,0,0.00269242
0.2,11.2,0,0.00253036
0.2,11.3,0,0.0023679
0.2,11.4,0,0.00220034
0.2,11.5,0,0.00203582
0.2,11.6,0,0.00186965
0.2,11.7,0,0.00170049
0.2,11.8,0,0.00153363
0.2,11.9,0,0.00136475
0.2,12,0,0.00119445
0.2,12.1,0,0.00102569
0.2,12.2,0,0.000855083
0.2,12.3,0,0.000684108
0.2,12.4,0,0.000513873
0.2,12.5,0,0.0003425
0.2,12.6,0,0.000196823
0.2,12.7,0,6.95647e-05
0.3,0,0,3.95396e-05
0.3,0.1,0,0.00018423
0.3,0.2,0,0.000369082
0.3,0.3,0,0.000552856
0.3,0.4,0,0.000736634
0.3,0.5,0,0.000921334
0.3,0.6,0,0.00110265
0.3,0.7,0,0.00128608
0.3,0.8,0,0.00146745
0.3,0.9,0,0.00164778
0.3,1,0,0.00183051
0.3,1.1,0,0.0020066
0.3,1.2,0,0.00218623
0.3,1.3,0,0.00236282
0.3,1.4,0,0.00253736
0.3,1.5,0,0.00271569
0.3,1.6,0,0.00288419
0.3,1.7,0,0.0030576
0.3,1.8,0,0.00322697
0.3,1.9,0,0.00339326
0.3,2,0,0.00356468
0.3,2.1,0,0.00372315
0.3,2.2,0,0.00388779
0.3,2.3,0,0.00404742
0.3,2.4,0,0.00420295
0.3,2.5,0,0.00436481
0.3,2.6,0,0.00451073
0.3,2.7,0,0.00466395
0.3,2.8,0,0.00481121
0.3,2.9,0,0.00495334
0.3,3,0,0.00510291
0.3,3.1,0,0.00523367
0.3,3.2,0,0.00537276
0.3,3.3,0,0.00550494
0.3,3.4,0,0.00563101
0.3,3.5,0,0.00576556
0.3,3.6,0,0.00587847
0.3,3.7,0,0.00600077
0.3,3.8,0,0.00611519
0.3,3.9,0,0.00622257
0.3,4,0,0.0063395
0.3,4.1,0,0.00643198
0.3,4.2,0,0.00653497
0.3,4.3,0,0.00662918
0.3,4.4,0,0.00671542
0.3,4.5,0,0.00681237
0.3,4.6,0,0.00688219
0.3,4.7,0,0.00696361
0.3,4.8,0,0.00703552
0.3,4.9,0,0.00709668
0.3,5,0,0.00716631
0.3,5.1,0,0.00721741
0.3,5.2,0,0.00728487
0.3,5.3,0,0.00731989
0.3,5.4,0,0.00737656
0.3,5.5,0,0.00740143
0.3,5.6,0,0.00744833
0.3,5.7,0,0.007463
0.3,5.8,0,0.00749994
0.3,5.9,0,0.0075044
0.3,6,0,0.00753127
0.3,6.1,0,0.00752555
0.3,6.2,0,0.00754225
0.3,6.3,0,0.00752644
0.3,6.4,0,0.00753294
0.3,6.5,0,0.00750718
0.3,6.6,0,0.00750348
0.3,6.7,0,0.00746794
0.3,6.8,0,0.00745408
0.3,6.9,0,0.00740761
0.3,7,0,0.00737709
0.3,7.1,0,0.00732935
0.3,7.2,0,0.00728637
0.3,7.3,0,0.0072437
0.3,7.4,0,0.00717876
0.3,7.5,0,0.00712111
0.3,7.6,0,0.00706111
0.3,7.7,0,0.00698482
0.3,7.8,0,0.0069155
0.3,7.9,0,0.00683918
0.3,8,0,0.00675209
0.3,8.1,0,0.00667169
0.3,8.2,0,0.0065802
0.3,8.3,0,0.00648293
0.3,8.4,0,0.00639209
0.3,8.5,0,0.00628662
0.3,8.6,0,0.00617986
0.3,8.7,0,0.00607928
0.3,8.8,0,0.00596109
0.3,8.9,0,0.00584555
0.3,9,0,0.00573501
0.3,9.1,0,0.00560682
0.3,9.2,0,0.00548358
0.3,9.3,0,0.0053614
0.3,9.4,0,0.00522623
0.3,9.5,0,0.00509578
0.3,9.6,0,0.00496324
0.3,9.7,0,0.00482184
0.3,9.8,0,0.00468488
0.3,9.9,0,0.00454324
0.3,10,0,0.00439628
0.3,10.1,0,0.00425348
0.3,10.2,0,0.00410398
0.3,10.3,0,0.00395213
0.3,10.4,0,0.00380411
0.3,10.5,0,0.00364797
0.3,10.6,0,0.00349183
0.3,10.7,0,0.00333919
0.3,10.8,0,0.00317758
0.3,10.9,0,0.00301786
0.3,11,0,0.00286018
0.3,11.1,0,0.00269532
0.3,11.2,0,0.00253251
0.3,11.3,0,0.00237005
0.3,11.4,0,0.00220292
0.3,11.5,0,0.00203752
0.3,11.6,0,0.00187135
0.3,11.7,0,0.00170242
0.3,11.8,0,0.00153489
0.3,11.9,0,0.00136602
0.3,12,0,0.00119572
0.3,12.1,0,0.00102653
0.3,12.2,0,0.000855926
0.3,12.3,0,0.000684715
0.3,12.4,0,0.000514298
0.3,12.5,0,0.000342925
0.3,12.6,0,0.00017122
0.3,12.7,0,4.17388e-05
0.4,0,0,1.31799e-05
0.4,0.1,0,0.00018468
0.4,0.2,0,0.000369585
0.4,0.3,0,0.00055372
0.4,0.4,0,0.000737985
0.4,0.5,0,0.000922395
0.4,0.6,0,0.00110486
0.4,0.7,0,0.00128791
0.4,0.8,0,0.00146962
0.4,0.9,0,0.00165086
0.4,1,0,0.00183259
0.4,1.1,0,0.00201051
0.4,1.2,0,0.00218935
0.4,1.3,0,0.00236627
0.4,1.4,0,0.00254211
0.4,1.5,0,0.00271878
0.4,1.6,0,0.00288975
0.4,1.7,0,0.00306196
0.4,1.8,0,0.00323165
0.4,1.9,0,0.00339962
0.4,2,0,0.00356873
0.4,2.1,0,0.00373027
0.4,2.2,0,0.00389334
0.4,2.3,0,0.00405327
0.4,2.4,0,0.0042108
0.4,2.5,0,0.00436978
0.4,2.6,0,0.0045193
0.4,2.7,0,0.00467062
0.4,2.8,0,0.00481816
0.4,2.9,0,0.00496261
0.4,3,0,0.00510877
0.4,3.1,0,0.00524362
0.4,3.2,0,0.00538052
0.4,3.3,0,0.00551296
0.4,3.4,0,0.00564165
0.4,3.5,0,0.00577228
0.4,3.6,0,0.00588979
0.4,3.7,0,0.0060096
0.4,3.8,0,0.0061243
0.4,3.9,0,0.00623459
0.4,4,0,0.00634709
0.4,4.1,0,0.0064447
0.4,4.2,0,0.00654487
0.4,4.3,0,0.00663935
0.4,4.4,0,0.00672882
0.4,4.5,0,0.00682079
0.4,4.6,0,0.00689624
0.4,4.7,0,0.00697451
0.4,4.8,0,0.00704601
0.4,4.9,0,0.00710971
0.4,5,0,0.00717539
0.4,5.1,0,0.00723206
0.4,5.2,0,0.00729418
0.4,5.3,0,0.00733651
0.4,5.4,0,0.00738605
0.4,5.5,0,0.00741833
0.4,5.6,0,0.00745795
0.4,5.7,0,0.00748008
0.4,5.8,0,0.00750964
0.4,5.9,0,0.00752158
0.4,6,0,0.007541
0.4,6.1,0,0.00754274
0.4,6.2,0,0.00755195
0.4,6.3,0,0.00754354
0.4,6.4,0,0.00754257
0.4,6.5,0,0.0075241
0.4,6.6,0,0.00751298
0.4,6.7,0,0.00748459
0.4,6.8,0,0.00746342
0.4,6.9,0,0.00742215
0.4,7,0,0.00738619
0.4,7.1,0,0.0073413
0.4,7.2,0,0.00729782
0.4,7.3,0,0.0072525
0.4,7.4,0,0.00719186
0.4,7.5,0,0.00713234
0.4,7.6,0,0.00706949
0.4,7.7,0,0.00699723
0.4,7.8,0,0.00692508
0.4,7.9,0,0.0068479
0.4,8,0,0.00676381
0.4,8.1,0,0.00667971
0.4,8.2,0,0.00658924
0.4,8.3,0,0.00649395
0.4,8.4,0,0.00639907
0.4,8.5,0,0.00629589
0.4,8.6,0,0.00619019
0.4,8.7,0,0.00608579
0.4,8.8,0,0.00597049
0.4,8.9,0,0.0058552
0.4,9,0,0.00574105
0.4,9.1,0,0.00561578
0.4,9.2,0,0.00549174
0.4,9.3,0,0.00536697
0.4,9.4,0,0.00523451
0.4,9.5,0,0.00510254
0.4,9.6,0,0.00496846
0.4,9.7,0,0.00482939
0.4,9.8,0,0.00469032
0.4,9.9,0,0.00454847
0.4,10,0,0.00440309
0.4,10.1,0,0.00425772
0.4,10.2,0,0.00410911
0.4,10.3,0,0.00395818
0.4,10.4,0,0.0038077
0.4,10.5,0,0.00365286
0.4,10.6,0,0.00349711
0.4,10.7,0,0.00334229
0.4,10.8,0,0.0031821
0.4,10.9,0,0.00302224
0.4,11,0,0.0028628
0.4,11.1,0,0.00269909
0.4,11.2,0,0.00253577
0.4,11.3,0,0.00237221
0.4,11.4,0,0.00220597
0.4,11.5,0,0.00203982
0.4,11.6,0,0.00187314
0.4,11.7,0,0.00170476
0.4,11.8,0,0.00153638
0.4,11.9,0,0.00136743
0.4,12,0,0.00119739
0.4,12.1,0,0.00102737
0.4,12.2,0,0.000856866
0.4,12.3,0,0.000685718
0.4,12.4,0,0.000514722
0.4,12.5,0,0.000343272
0.4,12.6,0,0.000171553
0.4,12.7,0,1.39129e-05
0.5,0,0,0
0.5,0.1,0,0.00018523
0.5,0.2,0,0.000370135
0.5,0.3,0,0.000555327
0.5,0.4,0,0.000739592
0.5,0.5,0,0.00092444
0.5,0.6,0,0.0011075
0.5,0.7,0,0.00129054
0.5,0.8,0,0.00147328
0.5,0.9,0,0.00165451
0.5,1,0,0.00183664
0.5,1.1,0,0.00201518
0.5,1.2,0,0.00219401
0.5,1.3,0,0.00237194
0.5,1.4,0,0.00254777
0.5,1.5,0,0.00272486
0.5,1.6,0,0.0028964
0.5,1.7,0,0.00306861
0.5,1.8,0,0.00323927
0.5,1.9,0,0.00340724
0.5,2,0,0.0035769
0.5,2.1,0,0.00373884
0.5,2.2,0,0.00390191
0.5,2.3,0,0.00406276
0.5,2.4,0,0.00422029
0.5,2.5,0,0.00438006
0.5,2.6,0,0.00452969
0.5,2.7,0,0.00468101
0.5,2.8,0,0.00482943
0.5,2.9,0,0.00497388
0.5,3,0,0.00512117
0.5,3.1,0,0.00525576
0.5,3.2,0,0.00539266
0.5,3.3,0,0.00552597
0.5,3.4,0,0.00565465
0.5,3.5,0,0.00578677
0.5,3.6,0,0.00590367
0.5,3.7,0,0.00602347
0.5,3.8,0,0.00613904
0.5,3.9,0,0.00624934
0.5,4,0,0.00636356
0.5,4.1,0,0.00646031
0.5,4.2,0,0.00656048
0.5,4.3,0,0.00665579
0.5,4.4,0,0.00674527
0.5,4.5,0,0.00683904
0.5,4.6,0,0.00691348
0.5,4.7,0,0.00699175
0.5,4.8,0,0.00706396
0.5,4.9,0,0.00712766
0.5,5,0,0.00719502
0.5,5.1,0,0.00725049
0.5,5.2,0,0.00731428
0.5,5.3,0,0.00735533
0.5,5.4,0,0.0074065
0.5,5.5,0,0.00743746
0.5,5.6,0,0.00747865
0.5,5.7,0,0.00749943
0.5,5.8,0,0.0075305
0.5,5.9,0,0.00754104
0.5,6,0,0.0075619
0.5,6.1,0,0.0075622
0.5,6.2,0,0.00757281
0.5,6.3,0,0.0075629
0.5,6.4,0,0.00756328
0.5,6.5,0,0.00754326
0.5,6.6,0,0.00753344
0.5,6.7,0,0.00750344
0.5,6.8,0,0.00748353
0.5,6.9,0,0.00744063
0.5,7,0,0.00740582
0.5,7.1,0,0.0073593
0.5,7.2,0,0.00731582
0.5,7.3,0,0.00727062
0.5,7.4,0,0.00720906
0.5,7.5,0,0.00714954
0.5,7.6,0,0.00708589
0.5,7.7,0,0.00701354
0.5,7.8,0,0.00694139
0.5,7.9,0,0.00686329
0.5,8,0,0.00677919
0.5,8.1,0,0.00669509
0.5,8.2,0,0.00660368
0.5,8.3,0,0.00650838
0.5,8.4,0,0.00641362
0.5,8.5,0,0.00630938
0.5,8.6,0,0.00620368
0.5,8.7,0,0.00609949
0.5,8.8,0,0.00598304
0.5,8.9,0,0.00586775
0.5,9,0,0.00575355
0.5,9.1,0,0.00562739
0.5,9.2,0,0.00550335
0.5,9.3,0,0.00537793
0.5,9.4,0,0.00524515
0.5,9.5,0,0.00511319
0.5,9.6,0,0.00497813
0.5,9.7,0,0.00483906
0.5,9.8,0,0.0047
0.5,9.9,0,0.00455716
0.5,10,0,0.00441178
0.5,10.1,0,0.0042664
0.5,10.2,0,0.0041168
0.5,10.3,0,0.00396587
0.5,10.4,0,0.00381519
0.5,10.5,0,0.00365955
0.5,10.6,0,0.00350381
0.5,10.7,0,0.00334849
0.5,10.8,0,0.00318781
0.5,10.9,0,0.00302795
0.5,11,0,0.00286782
0.5,11.1,0,0.00270385
0.5,11.2,0,0.00254054
0.5,11.3,0,0.00237613
0.5,11.4,0,0.00220981
0.5,11.5,0,0.00204367
0.5,11.6,0,0.0018761
0.5,11.7,0,0.00170772
0.5,11.8,0,0.00153934
0.5,11.9,0,0.00136953
0.5,12,0,0.00119949
0.5,12.1,0,0.00102945
0.5,12.2,0,0.000858133
0.5,12.3,0,0.000686985
0.5,12.4,0,0.000515759
0.5,12.5,0,0.000343703
0.5,12.6,0,0.000171984
0.5,12.7,0,0
0.6,0,0,0
0.6,0.1,0,0.00018588
0.6,0.2,0,0.000371317
0.6,0.3,0,0.000556994
0.6,0.4,0,0.000741454
0.6,0.5,0,0.00092747
0.6,0.6,0,0.00111056
0.6,0.7,0,0.00129448
0.6,0.8,0,0.00147768
0.6,0.9,0,0.00165875
0.6,1,0,0.00184266
0.6,1.1,0,0.00202059
0.6,1.2,0,0.00220071
0.6,1.3,0,0.0023791
0.6,1.4,0,0.00255436
0.6,1.5,0,0.00273396
0.6,1.6,0,0.00290415
0.6,1.7,0,0.00307812
0.6,1.8,0,0.00324924
0.6,1.9,0,0.00341612
0.6,2,0,0.0035892
0.6,2.1,0,0.00374885
0.6,2.2,0,0.00391428
0.6,2.3,0,0.00407557
0.6,2.4,0,0.00423141
0.6,2.5,0,0.00439566
0.6,2.6,0,0.00454189
0.6,2.7,0,0.00469626
0.6,2.8,0,0.00484511
0.6,2.9,0,0.00498716
0.6,3,0,0.00514012
0.6,3.1,0,0.00527009
0.6,3.2,0,0.00541076
0.6,3.3,0,0.00554449
0.6,3.4,0,0.00567003
0.6,3.5,0,0.00580902
0.6,3.6,0,0.0059201
0.6,3.7,0,0.00604435
0.6,3.8,0,0.00616034
0.6,3.9,0,0.00626681
0.6,4,0,0.00638891
0.6,4.1,0,0.00647881
0.6,4.2,0,0.00658394
0.6,4.3,0,0.00667965
0.6,4.4,0,0.00676476
0.6,4.5,0,0.00686711
0.6,4.6,0,0.00693391
0.6,4.7,0,0.00701746
0.6,4.8,0,0.00709064
0.6,4.9,0,0.00715051
0.6,5,0,0.00722521
0.6,5.1,0,0.00727271
0.6,5.2,0,0.00734517
0.6,5.3,0,0.00737637
0.6,5.4,0,0.00743791
0.6,5.5,0,0.00745883
0.6,5.6,0,0.00751043
0.6,5.7,0,0.00752103
0.6,5.8,0,0.00756251
0.6,5.9,0,0.00756276
0.6,6,0,0.00759399
0.6,6.1,0,0.00758392
0.6,6.2,0,0.00760482
0.6,6.3,0,0.00758451
0.6,6.4,0,0.00759506
0.6,6.5,0,0.00756465
0.6,6.6,0,0.00756485
0.6,6.7,0,0.0075245
0.6,6.8,0,0.00751442
0.6,6.9,0,0.00746306
0.6,7,0,0.00743598
0.6,7.1,0,0.00738335
0.6,7.2,0,0.00734067
0.6,7.3,0,0.0072997
0.6,7.4,0,0.00723037
0.6,7.5,0,0.00717339
0.6,7.6,0,0.00711363
0.6,7.7,0,0.00703375
0.6,7.8,0,0.00696541
0.6,7.9,0,0.00688801
0.6,8,0,0.00679824
0.6,8.1,0,0.00671896
0.6,8.2,0,0.00662527
0.6,8.3,0,0.00652625
0.6,8.4,0,0.00643649
0.6,8.5,0,0.00632801
0.6,8.6,0,0.00622034
0.6,8.7,0,0.00612058
0.6,8.8,0,0.00599894
0.6,8.9,0,0.00588321
0.6,9,0,0.00577282
0.6,9.1,0,0.00564163
0.6,9.2,0,0.00551836
0.6,9.3,0,0.0053954
0.6,9.4,0,0.00525818
0.6,9.5,0,0.00512748
0.6,9.6,0,0.00499361
0.6,9.7,0,0.00485086
0.6,9.8,0,0.00471332
0.6,9.9,0,0.00457013
0.6,10,0,0.00442234
0.6,10.1,0,0.00427858
0.6,10.2,0,0.00412752
0.6,10.3,0,0.0039752
0.6,10.4,0,0.00382584
0.6,10.5,0,0.00366826
0.6,10.6,0,0.00351192
0.6,10.7,0,0.00335761
0.6,10.8,0,0.00319473
0.6,10.9,0,0.00303493
0.6,11,0,0.00287548
0.6,11.1,0,0.00270961
0.6,11.2,0,0.00254646
0.6,11.3,0,0.0023824
0.6,11.4,0,0.00221446
0.6,11.5,0,0.00204848
0.6,11.6,0,0.00188086
0.6,11.7,0,0.00171129
0.6,11.8,0,0.00154299
0.6,11.9,0,0.00137279
0.6,12,0,0.00120204
0.6,12.1,0,0.0010319
0.6,12.2,0,0.000860025
0.6,12.3,0,0.000688515
0.6,12.4,0,0.000516993
0.6,12.5,0,0.000344344
0.6,12.6,0,0.000172513
0.6,12.7,0,0
0.7,0,0,0
0.7,0.1,0,0.000186074
0.7,0.2,0,0.000372855
0.7,0.3,0,0.000558531
0.7,0.4,0,0.000744134
0.7,0.5,0,0.0009305
0.7,0.6,0,0.00111359
0.7,0.7,0,0.00129899
0.7,0.8,0,0.0014822
0.7,0.9,0,0.00166424
0.7,1,0,0.00184868
0.7,1.1,0,0.00202643
0.7,1.2,0,0.00220825
0.7,1.3,0,0.00238665
0.7,1.4,0,0.0025627
0.7,1.5,0,0.00274306
0.7,1.6,0,0.00291284
0.7,1.7,0,0.0030888
0.7,1.8,0,0.00325992
0.7,1.9,0,0.0034274
0.7,2,0,0.00360149
0.7,2.1,0,0.00376046
0.7,2.2,0,0.00392821
0.7,2.3,0,0.00408951
0.7,2.4,0,0.00424567
0.7,2.5,0,0.00441126
0.7,2.6,0,0.00455648
0.7,2.7,0,0.00471353
0.7,2.8,0,0.00486238
0.7,2.9,0,0.0050044
0.7,3,0,0.00515907
0.7,3.1,0,0.00528765
0.7,3.2,0,0.00543137
0.7,3.3,0,0.00556511
0.7,3.4,0,0.00569022
0.7,3.5,0,0.00583127
0.7,3.6,0,0.00594061
0.7,3.7,0,0.00606818
0.7,3.8,0,0.00618417
0.7,3.9,0,0.0062898
0.7,4,0,0.00641426
0.7,4.1,0,0.0065021
0.7,4.2,0,0.0066107
0.7,4.3,0,0.00670642
0.7,4.4,0,0.00679026
0.7,4.5,0,0.00689517
0.7,4.6,0,0.00695968
0.7,4.7,0,0.00704669
0.7,4.8,0,0.00711987
0.7,4.9,0,0.0071785
0.7,5,0,0.00725539
0.7,5.1,0,0.00729908
0.7,5.2,0,0.00737606
0.7,5.3,0,0.00740246
0.7,5.4,0,0.00746932
0.7,5.5,0,0.00748532
0.7,5.6,0,0.00754222
0.7,5.7,0,0.00754778
0.7,5.8,0,0.00759452
0.7,5.9,0,0.00758964
0.7,6,0,0.00762608
0.7,6.1,0,0.00761081
0.7,6.2,0,0.00763683
0.7,6.3,0,0.00761127
0.7,6.4,0,0.00762684
0.7,6.5,0,0.00759115
0.7,6.6,0,0.00759627
0.7,6.7,0,0.00755061
0.7,6.8,0,0.00754532
0.7,6.9,0,0.00748954
0.7,7,0,0.00746614
0.7,7.1,0,0.00741302
0.7,7.2,0,0.00736975
0.7,7.3,0,0.00732879
0.7,7.4,0,0.00725699
0.7,7.5,0,0.00720113
0.7,7.6,0,0.00714137
0.7,7.7,0,0.00705765
0.7,7.8,0,0.00699164
0.7,7.9,0,0.00691424
0.7,8,0,0.00682041
0.7,8.1,0,0.00674356
0.7,8.2,0,0.00664987
0.7,8.3,0,0.00654675
0.7,8.4,0,0.00645936
0.7,8.5,0,0.00635088
0.7,8.6,0,0.00624038
0.7,8.7,0,0.00614167
0.7,8.8,0,0.00602003
0.7,8.9,0,0.00590249
0.7,9,0,0.0057921
0.7,9.1,0,0.00566012
0.7,9.2,0,0.00553583
0.7,9.3,0,0.00541287
0.7,9.4,0,0.0052739
0.7,9.5,0,0.00514316
0.7,9.6,0,0.0050093
0.7,9.7,0,0.00486437
0.7,9.8,0,0.00472727
0.7,9.9,0,0.00458407
0.7,10,0,0.00443398
0.7,10.1,0,0.00429084
0.7,10.2,0,0.00413978
0.7,10.3,0,0.00398533
0.7,10.4,0,0.00383649
0.7,10.5,0,0.00367891
0.7,10.6,0,0.00352087
0.7,10.7,0,0.00336672
0.7,10.8,0,0.00320384
0.7,10.9,0,0.00304258
0.7,11,0,0.00288313
0.7,11.1,0,0.00271682
0.7,11.2,0,0.00255272
0.7,11.3,0,0.00238867
0.7,11.4,0,0.00221996
0.7,11.5,0,0.00205343
0.7,11.6,0,0.0018858
0.7,11.7,0,0.00171528
0.7,11.8,0,0.00154667
0.7,11.9,0,0.00137647
0.7,12,0,0.0012046
0.7,12.1,0,0.00103435
0.7,12.2,0,0.000862471
0.7,12.3,0,0.000689842
0.7,12.4,0,0.000518227
0.7,12.5,0,0.000345578
0.7,12.6,0,0.000172555
0.7,12.7,0,0
0.8,0,0,0
0.8,0.1,0,0.000186785
0.8,0.2,0,0.000374392
0.8,0.3,0,0.000560069
0.8,0.4,0,0.000746904
0.8,0.5,0,0.00093353
0.8,0.6,0,0.00111779
0.8,0.7,0,0.00130351
0.8,0.8,0,0.00148672
0.8,0.9,0,0.00167048
0.8,1,0,0.0018547
0.8,1.1,0,0.00203415
0.8,1.2,0,0.0022158
0.8,1.3,0,0.00239419
0.8,1.4,0,0.00257257
0.8,1.5,0,0.00275216
0.8,1.6,0,0.00292429
0.8,1.7,0,0.00309948
0.8,1.8,0,0.0032706
0.8,1.9,0,0.00344113
0.8,2,0,0.00361379
0.8,2.1,0,0.00377589
0.8,2.2,0,0.00394215
0.8,2.3,0,0.00410344
0.8,2.4,0,0.00426352
0.8,2.5,0,0.00442686
0.8,2.6,0,0.00457613
0.8,2.7,0,0.00473081
0.8,2.8,0,0.00487966
0.8,2.9,0,0.00502656
0.8,3,0,0.00517802
0.8,3.1,0,0.00531163
0.8,3.2,0,0.00545199
0.8,3.3,0,0.00558572
0.8,3.4,0,0.00571666
0.8,3.5,0,0.00585352
0.8,3.6,0,0.00596878
0.8,3.7,0,0.00609202
0.8,3.8,0,0.006208
0.8,3.9,0,0.00632023
0.8,4,0,0.0064396
0.8,4.1,0,0.00653406
0.8,4.2,0,0.00663747
0.8,4.3,0,0.00673318
0.8,4.4,0,0.00682415
0.8,4.5,0,0.00692324
0.8,4.6,0,0.00699479
0.8,4.7,0,0.00707592
0.8,4.8,0,0.0071491
0.8,4.9,0,0.00721378
0.8,5,0,0.00728558
0.8,5.1,0,0.00733794
0.8,5.2,0,0.00740695
0.8,5.3,0,0.00744372
0.8,5.4,0,0.00750073
0.8,5.5,0,0.00752714
0.8,5.6,0,0.007574
0.8,5.7,0,0.00758997
0.8,5.8,0,0.00762653
0.8,5.9,0,0.00763202
0.8,6,0,0.00765816
0.8,6.1,0,0.00765318
0.8,6.2,0,0.00766884
0.8,6.3,0,0.00765345
0.8,6.4,0,0.00765863
0.8,6.5,0,0.00763295
0.8,6.6,0,0.00762768
0.8,6.7,0,0.00759185
0.8,6.8,0,0.00757621
0.8,6.9,0,0.00752816
0.8,7,0,0.0074963
0.8,7.1,0,0.0074461
0.8,7.2,0,0.00740093
0.8,7.3,0,0.00735787
0.8,7.4,0,0.00729133
0.8,7.5,0,0.00722969
0.8,7.6,0,0.00716911
0.8,7.7,0,0.00709141
0.8,7.8,0,0.00701788
0.8,7.9,0,0.00694048
0.8,8,0,0.00685219
0.8,8.1,0,0.00676816
0.8,8.2,0,0.00667447
0.8,8.3,0,0.00657618
0.8,8.4,0,0.00648224
0.8,8.5,0,0.00637457
0.8,8.6,0,0.00626605
0.8,8.7,0,0.00616276
0.8,8.8,0,0.00604273
0.8,8.9,0,0.00592458
0.8,9,0,0.00581138
0.8,9.1,0,0.00568152
0.8,9.2,0,0.00555462
0.8,9.3,0,0.00543034
0.8,9.4,0,0.00529374
0.8,9.5,0,0.00515897
0.8,9.6,0,0.00502498
0.8,9.7,0,0.00488221
0.8,9.8,0,0.00474121
0.8,9.9,0,0.00459802
0.8,10,0,0.00444962
0.8,10.1,0,0.0043031
0.8,10.2,0,0.00415208
0.8,10.3,0,0.00399861
0.8,10.4,0,0.00384714
0.8,10.5,0,0.00368983
0.8,10.6,0,0.00353166
0.8,10.7,0,0.00337584
0.8,10.8,0,0.00321333
0.8,10.9,0,0.00305117
0.8,11,0,0.00289079
0.8,11.1,0,0.00272485
0.8,11.2,0,0.00255934
0.8,11.3,0,0.00239493
0.8,11.4,0,0.00222652
0.8,11.5,0,0.00205837
0.8,11.6,0,0.00189075
0.8,11.7,0,0.00172033
0.8,11.8,0,0.00155035
0.8,11.9,0,0.00138014
0.8,12,0,0.00120818
0.8,12.1,0,0.00103679
0.8,12.2,0,0.000864887
0.8,12.3,0,0.000691824
0.8,12.4,0,0.000519461
0.8,12.5,0,0.000346631
0.8,12.6,0,0.000172963
0.8,12.7,0,0
0.9,0,0,0
0.9,0.1,0,0.000187672
0.9,0.2,0,0.000375345
0.9,0.3,0,0.000562657
0.9,0.4,0,0.000749608
0.9,0.5,0,0.00093656
0.9,0.6,0,0.00112228
0.9,0.7,0,0.00130801
0.9,0.8,0,0.00149284
0.9,0.9,0,0.00167678
0.9,1,0,0.00186072
0.9,1.1,0,0.00204231
0.9,1.2,0,0.00222389
0.9,1.3,0,0.002404
0.9,1.4,0,0.00258263
0.9,1.5,0,0.00276126
0.9,1.6,0,0.00293632
0.9,1.7,0,0.00311138
0.9,1.8,0,0.00328435
0.9,1.9,0,0.00345521
0.9,2,0,0.00362608
0.9,2.1,0,0.00379211
0.9,2.2,0,0.00395813
0.9,2.3,0,0.00412141
0.9,2.4,0,0.00428193
0.9,2.5,0,0.00444245
0.9,2.6,0,0.0045968
0.9,2.7,0,0.00475114
0.9,2.8,0,0.00490204
0.9,2.9,0,0.00504951
0.9,3,0,0.00519697
0.9,3.1,0,0.00533687
0.9,3.2,0,0.00547676
0.9,3.3,0,0.00561252
0.9,3.4,0,0.00574414
0.9,3.5,0,0.00587577
0.9,3.6,0,0.00599843
0.9,3.7,0,0.00612108
0.9,3.8,0,0.00623892
0.9,3.9,0,0.00635193
0.9,4,0,0.00646495
0.9,4.1,0,0.00656767
0.9,4.2,0,0.0066704
0.9,4.3,0,0.00676767
0.9,4.4,0,0.00685949
0.9,4.5,0,0.00695131
0.9,4.6,0,0.00703167
0.9,4.7,0,0.00711203
0.9,4.8,0,0.00718492
0.9,4.9,0,0.00725034
0.9,5,0,0.00731576
0.9,5.1,0,0.0073768
0.9,5.2,0,0.00743784
0.9,5.3,0,0.00748499
0.9,5.4,0,0.00753214
0.9,5.5,0,0.00756896
0.9,5.6,0,0.00760578
0.9,5.7,0,0.00763216
0.9,5.8,0,0.00765854
0.9,5.9,0,0.00767439
0.9,6,0,0.00769025
0.9,6.1,0,0.00769555
0.9,6.2,0,0.00770085
0.9,6.3,0,0.00769563
0.9,6.4,0,0.00769041
0.9,6.5,0,0.00767475
0.9,6.6,0,0.00765909
0.9,6.7,0,0.0076331
0.9,6.8,0,0.0076071
0.9,6.9,0,0.00756678
0.9,7,0,0.00752645
0.9,7.1,0,0.00748129
0.9,7.2,0,0.00743612
0.9,7.3,0,0.00738848
0.9,7.4,0,0.00732685
0.9,7.5,0,0.00726521
0.9,7.6,0,0.00719971
0.9,7.7,0,0.00712518
0.9,7.8,0,0.00705065
0.9,7.9,0,0.00697066
0.9,8,0,0.00688398
0.9,8.1,0,0.0067973
0.9,8.2,0,0.00670382
0.9,8.3,0,0.00660579
0.9,8.4,0,0.00650777
0.9,8.5,0,0.00640187
0.9,8.6,0,0.00629335
0.9,8.7,0,0.00618483
0.9,8.8,0,0.00606765
0.9,8.9,0,0.0059495
0.9,9,0,0.00583092
0.9,9.1,0,0.00570402
0.9,9.2,0,0.00557712
0.9,9.3,0,0.00544865
0.9,9.4,0,0.00531387
0.9,9.5,0,0.00517909
0.9,9.6,0,0.00504185
0.9,9.7,0,0.00490004
0.9,9.8,0,0.00475823
0.9,9.9,0,0.0046133
0.9,10,0,0.00446527
0.9,10.1,0,0.00431724
0.9,10.2,0,0.00416567
0.9,10.3,0,0.0040122
0.9,10.4,0,0.00385872
0.9,10.5,0,0.0037015
0.9,10.6,0,0.00354333
0.9,10.7,0,0.00338516
0.9,10.8,0,0.00322319
0.9,10.9,0,0.00306103
0.9,11,0,0.00289852
0.9,11.1,0,0.00273302
0.9,11.2,0,0.00256751
0.9,11.3,0,0.00240132
0.9,11.4,0,0.00223308
0.9,11.5,0,0.00206485
0.9,11.6,0,0.00189576
0.9,11.7,0,0.00172538
0.9,11.8,0,0.001555
0.9,11.9,0,0.00138374
0.9,12,0,0.00121176
0.9,12.1,0,0.00103978
0.9,12.2,0,0.000867038
0.9,12.3,0,0.000693975
0.9,12.4,0,0.000520913
0.9,12.5,0,0.000347336
0.9,12.6,0,0.000173668
0.9,12.7,0,0
1,0,0,0
1,0.1,0,0.000188828
1,0.2,0,0.000376643
1,0.3,0,0.000565828
1,0.4,0,0.000752845
1,0.5,0,0.000941656
1,0.6,0,0.00112761
1,0.7,0,0.00131356
1,0.8,0,0.0015003
1,0.9,0,0.00168423
1,1,0,0.00187089
1,1.1,0,0.00205193
1,1.2,0,0.00223383
1,1.3,0,0.00241596
1,1.4,0,0.00259449
1,1.5,0,0.0027767
1,1.6,0,0.00295051
1,1.7,0,0.00312597
1,1.8,0,0.0033011
1,1.9,0,0.00347181
1,2,0,0.00364705
1,2.1,0,0.00381119
1,2.2,0,0.00397769
1,2.3,0,0.00414328
1,2.4,0,0.00430359
1,2.5,0,0.00446919
1,2.6,0,0.00462109
1,2.7,0,0.00477597
1,2.8,0,0.00492928
1,2.9,0,0.00507647
1,3,0,0.0052296
1,3.1,0,0.00536651
1,3.2,0,0.00550699
1,3.3,0,0.00564512
1,3.4,0,0.00577642
1,3.5,0,0.00591423
1,3.6,0,0.00603325
1,3.7,0,0.00615655
1,3.8,0,0.00627657
1,3.9,0,0.00638918
1,4,0,0.00650891
1,4.1,0,0.00660718
1,4.2,0,0.0067106
1,4.3,0,0.00680972
1,4.4,0,0.00690105
1,4.5,0,0.00700009
1,4.6,0,0.00707506
1,4.7,0,0.00715616
1,4.8,0,0.00723198
1,4.9,0,0.00729698
1,5,0,0.00736824
1,5.1,0,0.00742345
1,5.2,0,0.00749154
1,5.3,0,0.00753082
1,5.4,0,0.00758675
1,5.5,0,0.00761541
1,5.6,0,0.00766105
1,5.7,0,0.00767902
1,5.8,0,0.0077142
1,5.9,0,0.00772146
1,6,0,0.00774605
1,6.1,0,0.00774261
1,6.2,0,0.00775652
1,6.3,0,0.00774248
1,6.4,0,0.00774568
1,6.5,0,0.00772118
1,6.6,0,0.0077137
1,6.7,0,0.0076789
1,6.8,0,0.00766081
1,6.9,0,0.00761358
1,7,0,0.0075789
1,7.1,0,0.00752894
1,7.2,0,0.00748378
1,7.3,0,0.00743749
1,7.4,0,0.00737075
1,7.5,0,0.00730912
1,7.6,0,0.00724485
1,7.7,0,0.00716689
1,7.8,0,0.00709287
1,7.9,0,0.00701172
1,8,0,0.00692321
1,8.1,0,0.00683778
1,8.2,0,0.00674067
1,8.3,0,0.00664233
1,8.4,0,0.00654613
1,8.5,0,0.00643555
1,8.6,0,0.00632703
1,8.7,0,0.00622076
1,8.8,0,0.00609838
1,8.9,0,0.00598023
1,9,0,0.00586362
1,9.1,0,0.00573179
1,9.2,0,0.00560489
1,9.3,0,0.00547696
1,9.4,0,0.00533872
1,9.5,0,0.00520394
1,9.6,0,0.00506599
1,9.7,0,0.00492206
1,9.8,0,0.0047806
1,9.9,0,0.00463355
1,10,0,0.0044846
1,10.1,0,0.00433721
1,10.2,0,0.00418246
1,10.3,0,0.00402899
1,10.4,0,0.00387632
1,10.5,0,0.0037159
1,10.6,0,0.00355774
1,10.7,0,0.0034004
1,10.8,0,0.00323537
1,10.9,0,0.0030732
1,11,0,0.00291092
1,11.1,0,0.0027431
1,11.2,0,0.00257759
1,11.3,0,0.00241085
1,11.4,0,0.00224119
1,11.5,0,0.00207296
1,11.6,0,0.00190273
1,11.7,0,0.0017316
1,11.8,0,0.00156119
1,11.9,0,0.00138838
1,12,0,0.00121618
1,12.1,0,0.00104401
1,12.2,0,0.000869714
1,12.3,0,0.000696651
1,12.4,0,0.000523105
1,12.5,0,0.000348282
1,12.6,0,0.000174614
1,12.7,0,0
1.1,0,0,0
1.1,0.1,0,0.000189753
1.1,0.2,0,0.000379221
1.1,0.3,0,0.000568406
1.1,0.4,0,0.000756454
1.1,0.5,0,0.000946753
1.1,0.6,0,0.00113288
1.1,0.7,0,0.00132117
1.1,0.8,0,0.00150792
1.1,0.9,0,0.00169222
1.1,1,0,0.00188106
1.1,1.1,0,0.00206167
1.1,1.2,0,0.00224661
1.1,1.3,0,0.00242873
1.1,1.4,0,0.00260708
1.1,1.5,0,0.00279214
1.1,1.6,0,0.00296495
1.1,1.7,0,0.00314414
1.1,1.8,0,0.00331927
1.1,1.9,0,0.00348927
1.1,2,0,0.00366801
1.1,2.1,0,0.00383066
1.1,2.2,0,0.00400152
1.1,2.3,0,0.00416711
1.1,2.4,0,0.00432626
1.1,2.5,0,0.00449592
1.1,2.6,0,0.00464587
1.1,2.7,0,0.00480564
1.1,2.8,0,0.00495895
1.1,2.9,0,0.00510457
1.1,3,0,0.00526223
1.1,3.1,0,0.00539674
1.1,3.2,0,0.00554256
1.1,3.3,0,0.00568069
1.1,3.4,0,0.00580993
1.1,3.5,0,0.00595269
1.1,3.6,0,0.0060688
1.1,3.7,0,0.00619782
1.1,3.8,0,0.00631784
1.1,3.9,0,0.00642777
1.1,4,0,0.00655286
1.1,4.1,0,0.00664757
1.1,4.2,0,0.00675707
1.1,4.3,0,0.0068562
1.1,4.4,0,0.00694406
1.1,4.5,0,0.00704887
1.1,4.6,0,0.00711953
1.1,4.7,0,0.00720699
1.1,4.8,0,0.0072828
1.1,4.9,0,0.00734479
1.1,5,0,0.00742072