/*--------------------------------*- C++ -*----------------------------------*\
| =========                 |                                                 |
| \\      /  F ield         | OpenFOAM: The Open Source CFD Toolbox           |
|  \\    /   O peration     | Version:  v1806                                 |
|   \\  /    A nd           | Web:      www.OpenFOAM.com                      |
|    \\/     M anipulation  |                                                 |
\*---------------------------------------------------------------------------*/
FoamFile
{
    version     2.0;
    format      ascii;
    class       volVectorField;
    location    "12";
    object      U;
}
// * * * * * * * * * * * * * * * * * * * * * * * * * * * * * * * * * * * * * //

dimensions      [0 1 -1 0 0 0 0];


internalField   nonuniform List<vector> 
2400
(
(2.99205 -0.0366408 0)
(3.00868 -0.0709591 0)
(2.99008 -0.221523 0)
(3.00997 -0.171614 0)
(2.9901 -0.393782 0)
(3.00505 -0.296404 0)
(3.00609 -0.535603 0)
(2.98268 -0.474723 0)
(3.04436 -0.630336 0)
(2.948 -0.658438 0)
(3.0783 -0.718803 0)
(2.93565 -0.828867 0)
(3.07134 -0.804377 0)
(2.97084 -0.994855 0)
(3.03154 -0.886219 0)
(3.02668 -1.10602 0)
(2.98896 -1.00479 0)
(3.08572 -1.17328 0)
(2.95961 -1.13241 0)
(3.13192 -1.24246 0)
(2.97351 -0.0336917 0)
(3.03617 -0.0776726 0)
(2.96508 -0.215164 0)
(3.03953 -0.178769 0)
(2.97548 -0.382451 0)
(3.01247 -0.315534 0)
(3.02033 -0.51301 0)
(2.96389 -0.505895 0)
(3.08359 -0.602667 0)
(2.91399 -0.680019 0)
(3.12923 -0.714708 0)
(2.90627 -0.81374 0)
(3.11264 -0.839984 0)
(2.97043 -0.955522 0)
(3.04424 -0.932434 0)
(3.06481 -1.06946 0)
(2.98475 -1.04969 0)
(3.14815 -1.14918 0)
(2.95428 -1.16691 0)
(3.2081 -1.24967 0)
(2.96603 -0.0414358 0)
(3.05057 -0.0776741 0)
(2.95917 -0.203705 0)
(3.04686 -0.200181 0)
(2.9874 -0.349971 0)
(2.99821 -0.354981 0)
(3.04269 -0.47913 0)
(2.95271 -0.538189 0)
(3.08459 -0.583103 0)
(2.93177 -0.695303 0)
(3.10263 -0.720355 0)
(2.94471 -0.801857 0)
(3.08776 -0.877125 0)
(3.00508 -0.91842 0)
(3.03044 -0.983443 0)
(3.09808 -1.04358 0)
(2.98488 -1.08742 0)
(3.16639 -1.14226 0)
(2.97981 -1.18932 0)
(3.20256 -1.25425 0)
(2.9698 -0.0508488 0)
(3.04104 -0.0753769 0)
(2.97803 -0.194324 0)
(3.02491 -0.219168 0)
(3.01905 -0.327113 0)
(2.97438 -0.378542 0)
(3.06227 -0.465491 0)
(2.95093 -0.547641 0)
(3.07149 -0.584338 0)
(2.96094 -0.698059 0)
(3.06588 -0.729032 0)
(2.97928 -0.801371 0)
(3.07068 -0.901846 0)
(3.01872 -0.897514 0)
(3.03858 -1.03159 0)
(3.11272 -1.01924 0)
(2.9931 -1.12956 0)
(3.18849 -1.13703 0)
(2.99714 -1.21183 0)
(3.21774 -1.26936 0)
(2.99338 -0.0536733 0)
(2.99937 -0.0845303 0)
(3.01821 -0.178556 0)
(2.97966 -0.244623 0)
(3.0556 -0.306383 0)
(2.95418 -0.395177 0)
(3.06693 -0.459806 0)
(2.96694 -0.541403 0)
(3.03971 -0.59663 0)
(3.00685 -0.691731 0)
(3.01388 -0.734681 0)
(3.02709 -0.815107 0)
(3.0391 -0.909903 0)
(3.03764 -0.891346 0)
(3.04959 -1.07832 0)
(3.10319 -0.992159 0)
(3.02948 -1.17801 0)
(3.16788 -1.1302 0)
(3.05439 -1.2388 0)
(3.17947 -1.28327 0)
(3.02638 -0.0444605 0)
(2.94692 -0.100101 0)
(3.05519 -0.168596 0)
(2.93582 -0.255875 0)
(3.07451 -0.308735 0)
(2.94317 -0.387202 0)
(3.06109 -0.477436 0)
(2.97472 -0.517052 0)
(3.02674 -0.622551 0)
(3.02112 -0.679061 0)
(2.99799 -0.7394 0)
(3.04828 -0.84136 0)
(3.02264 -0.895141 0)
(3.04877 -0.925159 0)
(3.06664 -1.08638 0)
(3.08034 -0.998506 0)
(3.07431 -1.20783 0)
(3.14098 -1.13564 0)
(3.10977 -1.25825 0)
(3.14833 -1.30217 0)
(3.04548 -0.0207963 0)
(2.92065 -0.1283 0)
(3.06226 -0.153528 0)
(2.92325 -0.272406 0)
(3.06472 -0.306074 0)
(2.94525 -0.391503 0)
(3.05025 -0.480378 0)
(2.97099 -0.511716 0)
(3.03149 -0.637298 0)
(3.01036 -0.67 0)
(3.00636 -0.753111 0)
(3.05543 -0.854869 0)
(3.00898 -0.887489 0)
(3.06817 -0.966151 0)
(3.06642 -1.08197 0)
(3.0668 -1.02049 0)
(3.11843 -1.23401 0)
(3.1057 -1.1497 0)
(3.17448 -1.27928 0)
(3.11611 -1.32704 0)
(3.04819 0.00499812 0)
(2.92835 -0.154056 0)
(3.04438 -0.138686 0)
(2.94063 -0.289933 0)
(3.03932 -0.29566 0)
(2.95581 -0.408183 0)
(3.03534 -0.470254 0)
(2.96368 -0.524599 0)
(3.03844 -0.639853 0)
(2.98457 -0.671652 0)
(3.02796 -0.768461 0)
(3.03676 -0.862382 0)
(3.01016 -0.88316 0)
(3.07555 -1.01669 0)
(3.05731 -1.05256 0)
(3.06675 -1.08248 0)
(3.14694 -1.23344 0)
(3.09337 -1.18827 0)
(3.21158 -1.29724 0)
(3.13407 -1.36176 0)
(3.05175 0.0242765 0)
(2.93848 -0.174345 0)
(3.03421 -0.118334 0)
(2.95304 -0.312879 0)
(3.02482 -0.268641 0)
(2.95929 -0.439442 0)
(3.02286 -0.439207 0)
(2.95152 -0.559745 0)
(3.04219 -0.617729 0)
(2.94504 -0.693174 0)
(3.05237 -0.77486 0)
(2.98766 -0.863006 0)
(3.02482 -0.898396 0)
(3.05659 -1.04418 0)
(3.04671 -1.04121 0)
(3.07225 -1.144 0)
(3.15365 -1.23926 0)
(3.10472 -1.22726 0)
(3.21683 -1.3301 0)
(3.20556 -1.40276 0)
(3.07779 0.0364136 0)
(2.91725 -0.185648 0)
(3.05291 -0.101879 0)
(2.93553 -0.327154 0)
(3.0318 -0.244838 0)
(2.94635 -0.463638 0)
(3.02045 -0.404141 0)
(2.93107 -0.601836 0)
(3.04794 -0.576131 0)
(2.89864 -0.734557 0)
(3.07465 -0.760815 0)
(2.92276 -0.875308 0)
(3.04851 -0.91589 0)
(3.01714 -1.06496 0)
(3.04156 -1.04468 0)
(3.07762 -1.20879 0)
(3.15274 -1.25142 0)
(3.11235 -1.26428 0)
(3.23743 -1.39433 0)
(3.2666 -1.43113 0)
(3.11099 0.047943 0)
(2.88206 -0.194293 0)
(3.08427 -0.0900376 0)
(2.90217 -0.334903 0)
(3.05742 -0.227278 0)
(2.91496 -0.484439 0)
(3.04373 -0.364692 0)
(2.89554 -0.651097 0)
(3.068 -0.520094 0)
(2.85764 -0.790523 0)
(3.09281 -0.731593 0)
(2.86871 -0.901323 0)
(3.07513 -0.936744 0)
(2.97273 -1.07781 0)
(3.03588 -1.07417 0)
(3.09652 -1.26627 0)
(3.12046 -1.27497 0)
(3.12882 -1.31145 0)
(3.28267 -1.48534 0)
(3.26565 -1.44847 0)
(3.1254 0.0620498 0)
(2.86598 -0.205624 0)
(3.10867 -0.077587 0)
(2.87334 -0.342891 0)
(3.09483 -0.210597 0)
(2.86914 -0.505264 0)
(3.08837 -0.327824 0)
(2.85364 -0.693535 0)
(3.08851 -0.467067 0)
(2.84362 -0.847324 0)
(3.08659 -0.684945 0)
(2.85177 -0.955852 0)
(3.08774 -0.932727 0)
(2.92084 -1.10367 0)
(3.04688 -1.1125 0)
(3.08586 -1.32226 0)
(3.06552 -1.2839 0)
(3.16609 -1.41701 0)
(3.2966 -1.55361 0)
(3.23229 -1.48905 0)
(3.12142 0.0727825 0)
(2.86831 -0.218096 0)
(3.13176 -0.0583631 0)
(2.84549 -0.355157 0)
(3.1458 -0.186859 0)
(2.80648 -0.522575 0)
(3.15273 -0.300966 0)
(2.79048 -0.711516 0)
(3.12384 -0.435221 0)
(2.82102 -0.883632 0)
(3.07102 -0.630581 0)
(2.85311 -1.02955 0)
(3.06984 -0.884987 0)
(2.86838 -1.16243 0)
(3.08109 -1.13875 0)
(2.99382 -1.3609 0)
(3.05423 -1.31296 0)
(3.19012 -1.55166 0)
(3.22945 -1.5786 0)
(3.27267 -1.59622 0)
(3.12436 0.0712337 0)
(2.86325 -0.217513 0)
(3.16228 -0.0455894 0)
(2.81137 -0.359472 0)
(3.19444 -0.16785 0)
(2.74573 -0.522616 0)
(3.21539 -0.292405 0)
(2.7171 -0.694564 0)
(3.17704 -0.438782 0)
(2.76467 -0.874957 0)
(3.07877 -0.603638 0)
(2.8385 -1.08311 0)
(3.02503 -0.804816 0)
(2.85314 -1.2709 0)
(3.08569 -1.10033 0)
(2.86975 -1.43152 0)
(3.13967 -1.37764 0)
(3.09075 -1.64941 0)
(3.20326 -1.61444 0)
(3.34889 -1.77611 0)
(3.14539 0.0580341 0)
(2.84577 -0.197877 0)
(3.18543 -0.0502648 0)
(2.78913 -0.346035 0)
(3.20763 -0.163342 0)
(2.72591 -0.50488 0)
(3.21993 -0.296427 0)
(2.69116 -0.658046 0)
(3.18449 -0.465434 0)
(2.71033 -0.828641 0)
(3.10267 -0.623426 0)
(2.77416 -1.07817 0)
(3.01048 -0.763833 0)
(2.83267 -1.3686 0)
(3.02546 -1.00165 0)
(2.81875 -1.59609 0)
(3.19062 -1.3882 0)
(2.88759 -1.75521 0)
(3.30548 -1.73549 0)
(3.28834 -1.97039 0)
(3.17239 0.038713 0)
(2.82425 -0.166593 0)
(3.19928 -0.0687813 0)
(2.78376 -0.311828 0)
(3.18741 -0.178065 0)
(2.75098 -0.462685 0)
(3.15413 -0.315642 0)
(2.73611 -0.604712 0)
(3.10197 -0.490325 0)
(2.712 -0.772736 0)
(3.06921 -0.653438 0)
(2.67862 -1.02739 0)
(3.02833 -0.791575 0)
(2.70308 -1.37163 0)
(2.97422 -0.942493 0)
(2.75044 -1.76445 0)
(3.07797 -1.27221 0)
(2.72875 -2.00846 0)
(3.37637 -1.85199 0)
(2.97513 -2.13966 0)
(3.15706 0.0201715 0)
(2.83857 -0.134847 0)
(3.17219 -0.0905406 0)
(2.81224 -0.263449 0)
(3.13656 -0.209131 0)
(2.79436 -0.392424 0)
(3.06968 -0.356892 0)
(2.77808 -0.529454 0)
(3.00633 -0.516838 0)
(2.70763 -0.715066 0)
(2.99398 -0.669646 0)
(2.58577 -0.959944 0)
(3.00072 -0.845906 0)
(2.49754 -1.27513 0)
(2.95796 -1.02156 0)
(2.53453 -1.7513 0)
(2.89875 -1.1864 0)
(2.6451 -2.31191 0)
(3.17257 -1.75347 0)
(2.64419 -2.49424 0)
(3.05638 0.0134835 0)
(2.94203 -0.11997 0)
(3.0579 -0.0958575 0)
(2.92055 -0.227057 0)
(3.02264 -0.222 0)
(2.87862 -0.332029 0)
(2.97364 -0.371767 0)
(2.80284 -0.461268 0)
(2.93879 -0.521201 0)
(2.66888 -0.645387 0)
(2.9187 -0.67651 0)
(2.50953 -0.869134 0)
(2.888 -0.88987 0)
(2.35424 -1.13635 0)
(2.84764 -1.16636 0)
(2.26532 -1.56028 0)
(2.74944 -1.39277 0)
(2.42715 -2.35204 0)
(2.69087 -1.5302 0)
(2.64315 -3.20997 0)
(2.9558 0.00870736 0)
(3.05472 -0.111808 0)
(2.93945 -0.0860453 0)
(3.03674 -0.21025 0)
(2.89723 -0.196167 0)
(2.97649 -0.313076 0)
(2.8554 -0.319141 0)
(2.86447 -0.442095 0)
(2.81832 -0.454631 0)
(2.70733 -0.602922 0)
(2.75468 -0.628191 0)
(2.544 -0.784911 0)
(2.6494 -0.869833 0)
(2.36874 -1.01488 0)
(2.55139 -1.20251 0)
(2.13949 -1.34946 0)
(2.50791 -1.65874 0)
(1.98306 -2.0199 0)
(2.30004 -1.91719 0)
(2.49774 -3.70691 0)
(2.97201 -0.0111253 0)
(3.03842 -0.0774366 0)
(2.94977 -0.0922662 0)
(3.01516 -0.171811 0)
(2.89327 -0.179154 0)
(2.95913 -0.278277 0)
(2.81815 -0.268109 0)
(2.87134 -0.409642 0)
(2.71312 -0.375258 0)
(2.76087 -0.563461 0)
(2.55872 -0.527374 0)
(2.6333 -0.741154 0)
(2.36269 -0.740903 0)
(2.4615 -0.980498 0)
(2.16316 -1.03398 0)
(2.17723 -1.32976 0)
(2.03954 -1.50987 0)
(1.63986 -1.78837 0)
(2.0465 -2.39639 0)
(1.51995 -3.24501 0)
(2.95153 -1.24113 0)
(3.13985 -1.30506 0)
(3.07035 -1.36158 0)
(3.06191 -1.36783 0)
(3.20239 -1.49262 0)
(3.05184 -1.43199 0)
(3.30068 -1.66822 0)
(3.08124 -1.55459 0)
(3.32555 -1.61243 0)
(3.20596 -1.71169 0)
(2.94196 -1.23114 0)
(3.22644 -1.391 0)
(3.10012 -1.30216 0)
(3.10376 -1.47341 0)
(3.29567 -1.46635 0)
(3.06501 -1.52301 0)
(3.40843 -1.66721 0)
(3.04389 -1.58502 0)
(3.45193 -1.70339 0)
(3.2236 -1.768 0)
(2.98619 -1.23238 0)
(3.22377 -1.44209 0)
(3.10173 -1.24401 0)
(3.13504 -1.56431 0)
(3.27955 -1.41555 0)
(3.06723 -1.57477 0)
(3.34798 -1.61109 0)
(3.05484 -1.60263 0)
(3.40621 -1.76644 0)
(3.2605 -1.76653 0)
(3.02905 -1.23888 0)
(3.22986 -1.48689 0)
(3.1377 -1.20852 0)
(3.17258 -1.66232 0)
(3.30757 -1.35937 0)
(3.05976 -1.64327 0)
(3.38819 -1.61246 0)
(3.07146 -1.65627 0)
(3.44984 -1.87138 0)
(3.29976 -1.79709 0)
(3.12557 -1.25207 0)
(3.16963 -1.51076 0)
(3.20205 -1.19951 0)
(3.18512 -1.72978 0)
(3.28229 -1.27583 0)
(3.079 -1.72208 0)
(3.35912 -1.57486 0)
(3.10584 -1.71079 0)
(3.41437 -1.96051 0)
(3.31806 -1.79354 0)
(3.21341 -1.27659 0)
(3.11894 -1.49473 0)
(3.28597 -1.26239 0)
(3.19969 -1.70988 0)
(3.25391 -1.23407 0)
(3.16384 -1.77178 0)
(3.3072 -1.55988 0)
(3.22036 -1.7915 0)
(3.34885 -2.01193 0)
(3.3798 -1.83358 0)
(3.30318 -1.29874 0)
(3.06907 -1.47887 0)
(3.39893 -1.35264 0)
(3.16514 -1.63331 0)
(3.26492 -1.25407 0)
(3.25029 -1.7842 0)
(3.19705 -1.51787 0)
(3.34184 -1.86238 0)
(3.16233 -1.99954 0)
(3.41801 -1.89252 0)
(3.33715 -1.32376 0)
(3.10013 -1.46894 0)
(3.47854 -1.4516 0)
(3.13996 -1.50272 0)
(3.34946 -1.36983 0)
(3.26486 -1.69729 0)
(3.14376 -1.54266 0)
(3.4099 -1.89497 0)
(2.9271 -1.91783 0)
(3.43264 -2.02819 0)
(3.3041 -1.34368 0)
(3.23617 -1.49864 0)
(3.47916 -1.4968 0)
(3.19322 -1.41352 0)
(3.42721 -1.45093 0)
(3.20277 -1.56666 0)
(3.22433 -1.61382 0)
(3.27343 -1.81152 0)
(2.75989 -1.8301 0)
(3.30863 -2.17348 0)
(3.28143 -1.3812 0)
(3.39924 -1.54899 0)
(3.44046 -1.49883 0)
(3.34032 -1.36747 0)
(3.41111 -1.43941 0)
(3.23413 -1.47008 0)
(3.29552 -1.61113 0)
(3.004 -1.58743 0)
(2.75115 -1.80511 0)
(3.01168 -2.18422 0)
(3.34399 -1.45313 0)
(3.48531 -1.60544 0)
(3.45665 -1.47825 0)
(3.46671 -1.34531 0)
(3.40843 -1.35336 0)
(3.3967 -1.44907 0)
(3.21636 -1.41174 0)
(2.82337 -1.37875 0)
(2.77339 -1.74151 0)
(2.53301 -1.93519 0)
(3.46378 -1.56674 0)
(3.50098 -1.64694 0)
(3.55827 -1.47429 0)
(3.53872 -1.30365 0)
(3.58136 -1.32299 0)
(3.54038 -1.33495 0)
(3.08261 -1.10328 0)
(2.85087 -1.23643 0)
(2.62337 -1.49121 0)
(2.05656 -1.522 0)
(3.53466 -1.69945 0)
(3.56012 -1.69957 0)
(3.69369 -1.49722 0)
(3.71855 -1.30922 0)
(3.90205 -1.30123 0)
(3.59354 -1.06626 0)
(3.12197 -0.813102 0)
(2.8659 -0.999355 0)
(2.38707 -1.07105 0)
(1.75698 -1.10207 0)
(3.55233 -1.82733 0)
(3.67916 -1.7988 0)
(3.89854 -1.59037 0)
(4.07854 -1.39507 0)
(4.19009 -1.16744 0)
(3.68592 -0.722538 0)
(3.24036 -0.506796 0)
(2.76993 -0.622515 0)
(2.2132 -0.622967 0)
(1.57945 -0.711537 0)
(3.54714 -1.96478 0)
(3.83512 -2.00034 0)
(4.19861 -1.80427 0)
(4.42357 -1.48665 0)
(4.33995 -0.935608 0)
(3.73347 -0.262491 0)
(3.23233 -0.0445479 0)
(2.61128 -0.171281 0)
(2.00628 -0.124302 0)
(1.36196 -0.309618 0)
(3.6427 -2.2552 0)
(4.00792 -2.40574 0)
(4.3691 -2.11781 0)
(4.36271 -1.46169 0)
(4.2122 -0.657609 0)
(3.59294 0.0828273 0)
(2.83894 0.415508 0)
(2.22371 0.360249 0)
(1.57685 0.332369 0)
(1.15124 -0.0992359 0)
(3.90444 -2.82115 0)
(3.83251 -2.88162 0)
(3.78589 -2.18576 0)
(3.41796 -1.27498 0)
(3.1403 -0.0710793 0)
(2.71423 0.826404 0)
(2.39813 0.945802 0)
(1.96306 0.723133 0)
(1.12549 0.856653 0)
(1.03359 0.130874 0)
(3.73116 -3.12234 0)
(2.36086 -2.65522 0)
(1.74624 -1.90153 0)
(0.994339 -0.867856 0)
(0.875392 -0.0420109 0)
(0.680085 0.708751 0)
(0.743456 1.07084 0)
(0.243699 1.40226 0)
(0.398673 1.05554 0)
(0.582509 0.120152 0)
(2.13796 -2.13764 0)
(-1.14943 -1.01225 0)
(-1.52801 -0.422631 0)
(-1.84317 -0.328985 0)
(-2.4218 0.399199 0)
(-0.960946 0.959671 0)
(-1.41386 1.17489 0)
(-0.562475 0.878358 0)
(0.228594 0.668968 0)
(0.46611 0.141632 0)
(0.684164 -0.0943395 0)
(-0.648066 -0.138734 0)
(-0.894395 -1.41859 0)
(-2.54387 -0.0632321 0)
(-1.64889 -0.777043 0)
(-2.84346 0.00220672 0)
(-0.628237 0.848869 0)
(-0.631311 0.119556 0)
(0.43303 0.244508 0)
(0.517649 -0.0299744 0)
(3.59489 -1.65093 0)
(3.90011 -2.04383 0)
(3.85025 -1.54417 0)
(3.21219 0.438427 0)
(3.3907 0.525378 0)
(4.1641 -1.21395 0)
(4.457 -1.40799 0)
(4.23219 0.0954008 0)
(4.06266 0.945028 0)
(3.71739 1.37214 0)
(3.52764 1.98081 0)
(3.52208 1.70656 0)
(3.43386 0.976497 0)
(3.01943 1.66179 0)
(3.24323 2.19725 0)
(3.32898 2.00281 0)
(3.69588 1.12094 0)
(3.25054 0.667614 0)
(3.75781 0.469829 0)
(3.52263 -0.222831 0)
(3.8535 -1.89479 0)
(4.2501 -2.07796 0)
(3.76966 -1.41751 0)
(3.40381 0.569304 0)
(3.87845 0.325721 0)
(4.36766 -1.46486 0)
(4.6214 -1.4641 0)
(4.44247 0.146303 0)
(4.16622 0.989705 0)
(3.74884 1.41555 0)
(3.53137 1.9894 0)
(3.50422 1.69405 0)
(3.43481 1.04072 0)
(3.01815 1.70923 0)
(3.25081 2.18632 0)
(3.33998 1.92133 0)
(3.61824 1.14871 0)
(3.33507 0.663436 0)
(3.76268 0.403732 0)
(3.48546 -0.167255 0)
(3.71771 -2.06417 0)
(4.45183 -1.9646 0)
(3.72097 -1.31404 0)
(3.67189 0.473607 0)
(4.1728 0.202118 0)
(4.37847 -1.46597 0)
(4.4272 -1.39242 0)
(4.34223 0.282817 0)
(4.13039 1.16278 0)
(3.72183 1.56272 0)
(3.49489 2.04076 0)
(3.48557 1.71504 0)
(3.41714 1.12155 0)
(3.02346 1.75306 0)
(3.25096 2.12178 0)
(3.29932 1.88515 0)
(3.63586 1.12928 0)
(3.35641 0.624627 0)
(3.72798 0.418926 0)
(3.47192 -0.14647 0)
(3.72041 -2.3246 0)
(4.78912 -2.02003 0)
(3.87127 -1.2548 0)
(3.88961 0.425051 0)
(4.42904 0.111269 0)
(4.58148 -1.5216 0)
(4.55688 -1.44366 0)
(4.39099 0.228037 0)
(4.15482 1.17744 0)
(3.71496 1.6303 0)
(3.4468 2.07401 0)
(3.47218 1.72753 0)
(3.39178 1.19597 0)
(2.9965 1.778 0)
(3.22977 2.07618 0)
(3.274 1.80137 0)
(3.58904 1.1282 0)
(3.41102 0.638491 0)
(3.72011 0.378095 0)
(3.42904 -0.106244 0)
(3.59346 -2.61171 0)
(4.8956 -1.93692 0)
(3.8569 -1.08487 0)
(4.02603 0.33362 0)
(4.5931 -0.0220168 0)
(4.51258 -1.50668 0)
(4.33579 -1.29329 0)
(4.24903 0.386499 0)
(4.09302 1.31064 0)
(3.6651 1.74969 0)
(3.39758 2.11406 0)
(3.44375 1.73454 0)
(3.33893 1.26045 0)
(2.96602 1.79443 0)
(3.20349 2.02342 0)
(3.26027 1.76971 0)
(3.59894 1.09823 0)
(3.40141 0.594801 0)
(3.65239 0.408914 0)
(3.3966 -0.0706413 0)
(3.43366 -2.88186 0)
(4.82869 -2.02657 0)
(3.96047 -1.04208 0)
(4.1484 0.235509 0)
(4.59094 -0.0834071 0)
(4.56077 -1.48353 0)
(4.29628 -1.31602 0)
(4.14243 0.339013 0)
(4.02035 1.33122 0)
(3.62539 1.82843 0)
(3.35989 2.14135 0)
(3.3798 1.73532 0)
(3.2584 1.32088 0)
(2.97169 1.81096 0)
(3.20226 1.98287 0)
(3.22826 1.69849 0)
(3.56741 1.08925 0)
(3.40515 0.621813 0)
(3.5974 0.386884 0)
(3.34402 -0.0451006 0)
(3.11899 -3.10944 0)
(4.46641 -2.02914 0)
(3.81055 -0.910938 0)
(4.01619 0.139466 0)
(4.54989 -0.180364 0)
(4.38607 -1.40597 0)
(4.07374 -1.12516 0)
(3.96162 0.454217 0)
(3.90042 1.41261 0)
(3.55844 1.93054 0)
(3.32102 2.17506 0)
(3.32865 1.74521 0)
(3.19004 1.38028 0)
(2.96197 1.82379 0)
(3.12878 1.94728 0)
(3.19546 1.65946 0)
(3.53461 1.05093 0)
(3.31959 0.594485 0)
(3.51241 0.42192 0)
(3.32035 -0.00685045 0)
(2.7307 -3.19747 0)
(3.79664 -2.14764 0)
(3.5355 -0.918657 0)
(3.74809 0.0507264 0)
(4.32341 -0.251769 0)
(4.07199 -1.38916 0)
(3.81117 -1.13167 0)
(3.75006 0.417791 0)
(3.76104 1.42905 0)
(3.44374 2.00314 0)
(3.26047 2.19691 0)
(3.29459 1.76461 0)
(3.13992 1.44172 0)
(2.86898 1.84859 0)
(3.03775 1.91024 0)
(3.1812 1.58157 0)
(3.46222 1.04954 0)
(3.25124 0.624014 0)
(3.44429 0.39339 0)
(3.28474 0.0008622 0)
(2.23569 -3.15347 0)
(2.83982 -2.17656 0)
(2.81646 -0.906236 0)
(3.14642 -0.0881876 0)
(3.91258 -0.342852 0)
(3.63985 -1.25853 0)
(3.52358 -0.960872 0)
(3.47331 0.469136 0)
(3.57858 1.46556 0)
(3.28051 2.06745 0)
(3.16847 2.20476 0)
(3.24068 1.7766 0)
(3.0372 1.51475 0)
(2.75937 1.86506 0)
(3.03159 1.84354 0)
(3.15372 1.53111 0)
(3.34499 1.03216 0)
(3.17432 0.603468 0)
(3.44961 0.407882 0)
(3.31559 0.0309583 0)
(1.67217 -2.91021 0)
(1.71682 -2.20495 0)
(1.83177 -0.979867 0)
(2.26405 -0.246283 0)
(3.1915 -0.465514 0)
(3.09223 -1.31602 0)
(3.18403 -0.997897 0)
(3.13468 0.429475 0)
(3.29082 1.46901 0)
(3.10032 2.11162 0)
(3.08292 2.18937 0)
(3.09771 1.79646 0)
(2.87724 1.58462 0)
(2.75802 1.84799 0)
(3.08053 1.77987 0)
(3.05622 1.49109 0)
(3.24152 1.03965 0)
(3.18652 0.594767 0)
(3.48016 0.362547 0)
(3.31778 0.0348706 0)
(1.18694 -2.55985 0)
(0.64961 -2.0997 0)
(0.704602 -1.02836 0)
(1.21523 -0.467823 0)
(2.38457 -0.655275 0)
(2.52065 -1.28528 0)
(2.73865 -0.917241 0)
(2.75937 0.438909 0)
(2.90525 1.46413 0)
(2.87706 2.13347 0)
(2.94183 2.1854 0)
(2.88105 1.83122 0)
(2.77253 1.61876 0)
(2.8276 1.80921 0)
(3.02481 1.74523 0)
(2.89525 1.48362 0)
(3.1973 1.00466 0)
(3.26299 0.54312 0)
(3.53856 0.365985 0)
(3.32656 0.0689731 0)
(0.910196 -2.19073 0)
(-0.0429302 -1.98297 0)
(-0.0870136 -1.09435 0)
(0.482445 -0.709112 0)
(1.55286 -0.909274 0)
(1.88979 -1.43768 0)
(2.20914 -0.9837 0)
(2.35351 0.409795 0)
(2.49316 1.4227 0)
(2.62319 2.10708 0)
(2.74735 2.1713 0)
(2.69674 1.84573 0)
(2.72663 1.62051 0)
(2.78173 1.78685 0)
(2.82305 1.7511 0)
(2.78107 1.44724 0)
(3.25575 0.939717 0)
(3.33418 0.499598 0)
(3.54279 0.352173 0)
(3.31917 0.093591 0)
(0.893409 -1.83429 0)
(-0.178881 -1.81114 0)
(-0.264451 -1.18386 0)
(0.14468 -0.941777 0)
(0.748754 -1.1062 0)
(1.30471 -1.51001 0)
(1.6123 -1.00062 0)
(1.92647 0.377442 0)
(2.07293 1.36853 0)
(2.36009 2.05875 0)
(2.56353 2.14073 0)
(2.63721 1.83218 0)
(2.70357 1.61077 0)
(2.6008 1.79396 0)
(2.61835 1.74168 0)
(2.79355 1.35977 0)
(3.32448 0.852483 0)
(3.36802 0.46339 0)
(3.52501 0.365906 0)
(3.28169 0.124699 0)
(1.01634 -1.54427 0)
(0.0833796 -1.6576 0)
(-0.189489 -1.21089 0)
(-0.19588 -1.0102 0)
(0.21955 -1.28018 0)
(0.653075 -1.67458 0)
(0.94181 -1.10438 0)
(1.53783 0.300651 0)
(1.65814 1.2896 0)
(2.0687 1.97535 0)
(2.44481 2.0747 0)
(2.66128 1.80575 0)
(2.63983 1.63961 0)
(2.39937 1.82047 0)
(2.55489 1.68787 0)
(2.88807 1.24341 0)
(3.37417 0.776958 0)
(3.36529 0.440086 0)
(3.47523 0.379897 0)
(3.24748 0.158916 0)
(1.11607 -1.36617 0)
(0.208699 -1.46301 0)
(-0.316821 -1.13215 0)
(-0.53118 -1.04257 0)
(-0.207315 -1.34474 0)
(-0.118134 -1.7322 0)
(0.324282 -1.2313 0)
(1.15688 0.194346 0)
(1.33159 1.19522 0)
(1.78801 1.83398 0)
(2.34015 1.95792 0)
(2.62771 1.77721 0)
(2.52977 1.68886 0)
(2.30871 1.82162 0)
(2.62853 1.59552 0)
(2.98704 1.12598 0)
(3.39118 0.715687 0)
(3.34211 0.434135 0)
(3.42022 0.401846 0)
(3.20599 0.184775 0)
(0.93364 -1.19072 0)
(-0.0776289 -1.23565 0)
(-0.52444 -0.985926 0)
(-0.834474 -1.02247 0)
(-0.80785 -1.39523 0)
(-0.669182 -1.83281 0)
(-0.319477 -1.41765 0)
(0.708375 0.0252974 0)
(1.0926 1.09087 0)
(1.58743 1.66735 0)
(2.23321 1.8125 0)
(2.51515 1.74871 0)
(2.419 1.73098 0)
(2.33699 1.79553 0)
(2.7439 1.49285 0)
(3.06563 1.02638 0)
(3.39742 0.676411 0)
(3.31702 0.434252 0)
(3.3663 0.421592 0)
(3.16404 0.213654 0)
(0.474693 -0.920538 0)
(-0.429077 -1.02939 0)
(-0.795428 -0.892278 0)
(-1.23721 -0.952652 0)
(-1.34326 -1.43106 0)
(-1.19815 -1.86645 0)
(-1.07996 -1.60687 0)
(0.299702 -0.200293 0)
(0.857714 0.945719 0)
(1.45443 1.49308 0)
(2.09459 1.68341 0)
(2.33868 1.73085 0)
(2.35355 1.74419 0)
(2.42246 1.73629 0)
(2.83926 1.38865 0)
(3.12752 0.942243 0)
(3.40117 0.645417 0)
(3.29033 0.442659 0)
(3.30449 0.448053 0)
(3.11567 0.238009 0)
(0.0552273 -0.723323 0)
(-0.478433 -0.846192 0)
(-1.11872 -0.761276 0)
(-1.49616 -0.874881 0)
(-1.73907 -1.43697 0)
(-1.76831 -1.91288 0)
(-1.58459 -1.84639 0)
(-0.152182 -0.506834 0)
(0.578276 0.750098 0)
(1.27935 1.30077 0)
(1.9196 1.5608 0)
(2.21492 1.68254 0)
(2.35272 1.7109 0)
(2.48438 1.66143 0)
(2.91142 1.29157 0)
(3.19454 0.869018 0)
(3.4049 0.628653 0)
(3.24868 0.462744 0)
(3.22665 0.475922 0)
(3.05924 0.261204 0)
(0.300447 -0.558553 0)
(-0.606933 -0.665447 0)
(-1.23322 -0.595556 0)
(-1.6856 -0.763414 0)
(-2.09717 -1.38005 0)
(-2.13544 -1.95025 0)
(-2.0275 -2.01791 0)
(-0.981423 -0.832155 0)
(0.295487 0.527451 0)
(1.01577 1.09056 0)
(1.70943 1.41923 0)
(2.08718 1.60772 0)
(2.29311 1.66433 0)
(2.50078 1.5785 0)
(2.98594 1.18816 0)
(3.24645 0.806593 0)
(3.36801 0.629014 0)
(3.16561 0.493411 0)
(3.12246 0.505541 0)
(2.99303 0.279639 0)
(0.381616 -0.327118 0)
(-0.737965 -0.403878 0)
(-1.25919 -0.448431 0)
(-1.92401 -0.616065 0)
(-2.32149 -1.33273 0)
(-2.44455 -1.94423 0)
(-2.49712 -2.0883 0)
(-1.83526 -1.18265 0)
(0.0367736 0.205878 0)
(0.753191 0.874821 0)
(1.47578 1.26291 0)
(1.89381 1.51192 0)
(2.17847 1.58755 0)
(2.51769 1.46426 0)
(3.05397 1.07866 0)
(3.25224 0.762511 0)
(3.27346 0.647374 0)
(3.03846 0.531512 0)
(2.99565 0.530093 0)
(2.92072 0.291268 0)
(-0.296609 -0.194786 0)
(-0.7314 -0.186981 0)
(-1.48555 -0.232699 0)
(-2.10939 -0.458964 0)
(-2.47712 -1.25646 0)
(-2.64631 -1.91143 0)
(-2.73233 -2.15545 0)
(-2.34121 -1.59171 0)
(-0.533584 -0.254344 0)
(0.425536 0.622973 0)
(1.23279 1.08775 0)
(1.71005 1.39291 0)
(2.10503 1.47322 0)
(2.59886 1.31615 0)
(3.11412 0.970131 0)
(3.16881 0.74798 0)
(3.07075 0.692302 0)
(2.84027 0.576551 0)
(2.83525 0.545643 0)
(2.83825 0.294065 0)
(-0.274171 0.00985847 0)
(-0.840051 0.0245949 0)
(-1.48011 -0.0194284 0)
(-2.18385 -0.283269 0)
(-2.52914 -1.17163 0)
(-2.6474 -1.87793 0)
(-2.81796 -2.19129 0)
(-2.59573 -1.88184 0)
(-1.49956 -0.735902 0)
(-0.108847 0.278942 0)
(0.892938 0.844434 0)
(1.53913 1.2131 0)
(2.10473 1.28593 0)
(2.66521 1.13293 0)
(2.97981 0.896165 0)
(2.84184 0.78496 0)
(2.71462 0.751286 0)
(2.58802 0.604758 0)
(2.66146 0.53538 0)
(2.7543 0.281532 0)
(-0.238246 0.183089 0)
(-0.785906 0.229817 0)
(-1.44402 0.215276 0)
(-2.14247 -0.101104 0)
(-2.44965 -1.0988 0)
(-2.57861 -1.83217 0)
(-2.76659 -2.16877 0)
(-2.71298 -1.98787 0)
(-2.21804 -1.11287 0)
(-0.791868 -0.177758 0)
(0.376185 0.515223 0)
(1.23169 0.950393 0)
(1.91169 1.06574 0)
(2.35955 1.00715 0)
(2.46717 0.902246 0)
(2.31767 0.840661 0)
(2.32908 0.774013 0)
(2.36237 0.591833 0)
(2.51124 0.494892 0)
(2.68211 0.254773 0)
(-0.107949 0.355546 0)
(-0.721257 0.451499 0)
(-1.30429 0.407305 0)
(-1.99878 0.0707268 0)
(-2.23494 -1.02093 0)
(-2.34887 -1.78457 0)
(-2.52726 -2.14278 0)
(-2.59449 -2.05941 0)
(-2.30274 -1.38915 0)
(-1.40548 -0.611982 0)
(-0.266882 0.152408 0)
(0.625978 0.679605 0)
(1.30278 0.892427 0)
(1.6615 0.943917 0)
(1.80071 0.909701 0)
(1.83016 0.838385 0)
(2.02698 0.733541 0)
(2.19131 0.540736 0)
(2.39026 0.430858 0)
(2.62324 0.216881 0)
(-0.131719 0.450268 0)
(-0.581459 0.638627 0)
(-1.04507 0.621168 0)
(-1.69382 0.221513 0)
(-1.88406 -0.940405 0)
(-1.9878 -1.73182 0)
(-2.04061 -2.08751 0)
(-2.25708 -2.0827 0)
(-2.12589 -1.54638 0)
(-1.6043 -0.882401 0)
(-0.789686 -0.166937 0)
(-0.0167017 0.432702 0)
(0.612628 0.727226 0)
(1.00057 0.850277 0)
(1.29631 0.848618 0)
(1.50237 0.767127 0)
(1.82346 0.647087 0)
(2.06775 0.466162 0)
(2.29738 0.350315 0)
(2.57811 0.1704 0)
(-0.0287706 0.636762 0)
(-0.377773 0.775582 0)
(-0.76406 0.758137 0)
(-1.33406 0.36451 0)
(-1.52078 -0.861297 0)
(-1.77827 -1.70285 0)
(-1.49018 -2.03388 0)
(-1.73018 -2.03035 0)
(-1.83847 -1.64799 0)
(-1.44706 -1.06746 0)
(-0.97704 -0.385538 0)
(-0.393875 0.211531 0)
(0.184894 0.549452 0)
(0.6081 0.712736 0)
(1.01254 0.736121 0)
(1.31122 0.658047 0)
(1.69315 0.536646 0)
(1.98168 0.378022 0)
(2.23038 0.258064 0)
(2.54567 0.117515 0)
(0.0735898 0.541948 0)
(-0.0812581 0.880038 0)
(-0.35005 0.919188 0)
(-0.939357 0.488181 0)
(-1.23157 -0.745409 0)
(-1.71311 -1.73667 0)
(-1.20586 -2.0784 0)
(-1.02172 -1.96676 0)
(-1.29528 -1.6651 0)
(-1.21902 -1.18119 0)
(-0.926091 -0.528969 0)
(-0.471138 0.032133 0)
(0.029608 0.379369 0)
(0.443769 0.561253 0)
(0.88072 0.60425 0)
(1.20857 0.53431 0)
(1.61293 0.414935 0)
(1.92239 0.28252 0)
(2.18274 0.15814 0)
(2.52297 0.060061 0)
(-0.219506 0.717631 0)
(0.205057 0.924365 0)
(0.0844283 1.04035 0)
(-0.465497 0.654236 0)
(-0.867435 -0.570928 0)
(-1.60784 -1.73199 0)
(-1.13587 -2.27678 0)
(-0.538136 -2.00105 0)
(-0.53055 -1.5904 0)
(-0.850615 -1.19598 0)
(-0.731956 -0.637162 0)
(-0.366755 -0.115718 0)
(0.0313387 0.232145 0)
(0.406841 0.415715 0)
(0.831081 0.47122 0)
(1.15596 0.408169 0)
(1.5626 0.289139 0)
(1.87909 0.183257 0)
(2.14892 0.0525654 0)
(2.50818 -0.00125703 0)
(0.379526 0.446993 0)
(0.486056 0.813375 0)
(0.574411 1.13495 0)
(0.0677635 0.818556 0)
(-0.430498 -0.32756 0)
(-1.30858 -1.63751 0)
(-0.904578 -2.4778 0)
(-0.511876 -2.19113 0)
(0.223065 -1.55813 0)
(-0.188748 -1.11686 0)
(-0.3621 -0.689449 0)
(-0.169666 -0.226044 0)
(0.129741 0.113841 0)
(0.446997 0.284435 0)
(0.835896 0.344108 0)
(1.14453 0.285089 0)
(1.54355 0.162679 0)
(1.85628 0.0816551 0)
(2.13475 -0.0577577 0)
(2.50429 -0.0660871 0)
(0.373296 0.560637 0)
(0.927163 0.786362 0)
(1.08439 1.19589 0)
(0.651862 1.00268 0)
(-0.0210191 -0.0547315 0)
(-0.864191 -1.53376 0)
(-0.59035 -2.55934 0)
(-0.361172 -2.43744 0)
(0.559835 -1.69186 0)
(0.676821 -1.00825 0)
(0.251493 -0.639579 0)
(0.153701 -0.27894 0)
(0.329185 0.0232821 0)
(0.574154 0.173798 0)
(0.912803 0.227815 0)
(1.19738 0.16995 0)
(1.57974 0.0394688 0)
(1.87289 -0.0201732 0)
(2.15571 -0.169346 0)
(2.51854 -0.132622 0)
(0.0860811 -0.0346218 0)
(1.06893 0.620325 0)
(1.57634 1.21498 0)
(1.23889 1.18788 0)
(0.268865 0.181488 0)
(-0.191247 -1.49393 0)
(-0.455721 -2.64719 0)
(0.286332 -2.59469 0)
(0.479097 -1.90108 0)
(1.29095 -1.02393 0)
(1.03636 -0.529518 0)
(0.675487 -0.254782 0)
(0.645186 -0.0201382 0)
(0.798623 0.0969086 0)
(1.07253 0.136691 0)
(1.32515 0.0770941 0)
(1.68253 -0.0632323 0)
(1.93794 -0.107208 0)
(2.21748 -0.265113 0)
(2.55334 -0.190598 0)
(-0.224544 -0.892832 0)
(1.24978 0.345103 0)
(1.99665 1.15802 0)
(1.68542 1.33425 0)
(0.718821 0.377818 0)
(0.608028 -1.35888 0)
(0.0229703 -2.69171 0)
(0.590483 -2.70656 0)
(0.690866 -2.01737 0)
(1.42332 -1.15333 0)
(1.68186 -0.470755 0)
(1.36869 -0.17814 0)
(1.15102 -0.0108359 0)
(1.18573 0.0519136 0)
(1.36613 0.0690838 0)
(1.56157 0.00307423 0)
(1.87184 -0.144604 0)
(2.05837 -0.177313 0)
(2.31752 -0.34285 0)
(2.60532 -0.238198 0)
(0.499012 -1.05536 0)
(1.54317 0.0626136 0)
(2.43095 1.0933 0)
(2.0746 1.50592 0)
(1.39447 0.526763 0)
(1.19121 -1.24702 0)
(0.753176 -2.62181 0)
(0.644526 -2.79214 0)
(1.14042 -2.12343 0)
(1.45198 -1.29799 0)
(2.02755 -0.509847 0)
(2.04162 -0.116742 0)
(1.84701 0.0350549 0)
(1.81226 0.0437198 0)
(1.8917 0.0281941 0)
(1.99 -0.0501392 0)
(2.21228 -0.20414 0)
(2.27705 -0.231123 0)
(2.48074 -0.406714 0)
(2.6848 -0.278887 0)
(1.78162 -1.32922 0)
(2.11248 -0.163006 0)
(2.89309 1.00031 0)
(2.46642 1.63047 0)
(2.11618 0.648948 0)
(1.73597 -1.16832 0)
(1.20107 -2.56448 0)
(0.971588 -2.8496 0)
(1.51095 -2.2136 0)
(1.5743 -1.40874 0)
(2.14041 -0.620523 0)
(2.47633 -0.12989 0)
(2.47683 0.0583922 0)
(2.50554 0.0457391 0)
(2.5698 0.0118763 0)
(2.58447 -0.0702208 0)
(2.70648 -0.226727 0)
(2.61357 -0.253262 0)
(2.72331 -0.444256 0)
(2.80047 -0.306656 0)
(2.8663 -1.25014 0)
(2.8296 -0.218408 0)
(3.3864 0.95631 0)
(2.95304 1.72135 0)
(2.70928 0.775616 0)
(2.42637 -1.00758 0)
(1.75299 -2.40499 0)
(1.36008 -2.90528 0)
(1.79029 -2.285 0)
(1.84305 -1.46813 0)
(2.14703 -0.747149 0)
(2.65796 -0.20957 0)
(2.90068 0.0363634 0)
(3.064 0.0270239 0)
(3.20782 -0.00333734 0)
(3.20359 -0.0693574 0)
(3.26664 -0.21421 0)
(3.03205 -0.238104 0)
(3.03371 -0.445278 0)
(2.95356 -0.315643 0)
(3.45019 -0.966133 0)
(3.17984 -0.233539 0)
(3.71349 0.933321 0)
(3.37512 1.79647 0)
(3.21512 0.857444 0)
(2.97757 -0.875103 0)
(2.28411 -2.26289 0)
(1.81185 -2.8883 0)
(1.96437 -2.35128 0)
(2.17489 -1.4987 0)
(2.22238 -0.834234 0)
(2.64352 -0.330341 0)
(3.0483 -0.0418061 0)
(3.35184 -0.0290827 0)
(3.64393 -0.0365491 0)
(3.70005 -0.0685081 0)
(3.77473 -0.182147 0)
(3.45824 -0.191633 0)
(3.37425 -0.410709 0)
(3.13458 -0.30253 0)
(3.78483 -0.673732 0)
(3.31335 -0.220688 0)
(3.88743 0.857429 0)
(3.83927 1.84019 0)
(3.72504 0.960662 0)
(3.50745 -0.741461 0)
(2.75906 -2.11091 0)
(2.22929 -2.84774 0)
(2.1879 -2.40212 0)
(2.42098 -1.52932 0)
(2.42296 -0.869448 0)
(2.62193 -0.431402 0)
(3.00882 -0.145537 0)
(3.34499 -0.125046 0)
(3.77707 -0.10766 0)
(3.95614 -0.0901824 0)
(4.12682 -0.155943 0)
(3.80912 -0.133259 0)
(3.69332 -0.345945 0)
(3.32428 -0.269399 0)
(3.92999 -0.369601 0)
(3.29454 -0.195829 0)
(3.93157 0.743441 0)
(4.28324 1.80846 0)
(4.068 1.02326 0)
(3.95536 -0.605307 0)
(3.30178 -1.89761 0)
(2.59354 -2.74365 0)
(2.46367 -2.42476 0)
(2.59059 -1.55918 0)
(2.6456 -0.881297 0)
(2.69051 -0.488954 0)
(2.94116 -0.230647 0)
(3.17936 -0.230901 0)
(3.66948 -0.211856 0)
(3.96725 -0.150143 0)
(4.28515 -0.14964 0)
(4.03754 -0.0789398 0)
(3.94865 -0.272751 0)
(3.49959 -0.219631 0)
(4.03257 -0.105913 0)
(3.22624 -0.178171 0)
(3.9308 0.575124 0)
(4.40961 1.77365 0)
(4.19037 1.09068 0)
(4.28382 -0.513777 0)
(3.66398 -1.73729 0)
(2.89794 -2.64032 0)