x,y,z,U_0,U_1,U_2
0,0,0,0.299986,-3.1565e-05,0
0,0.1,0,0.29999,-2.25465e-05,0
0,0.2,0,0.299994,-1.35279e-05,0
0,0.3,0,0.299998,-4.50929e-06,0
0,0.4,0,0.3,0,0
0,0.5,0,0.3,0,0
0,0.6,0,0.3,0,0
0,0.7,0,0.3,0,0
0,0.8,0,0.3,0,0
0,0.9,0,0.3,0,0
0,1,0,0.3,0,0
0,1.1,0,0.3,0,0
0,1.2,0,0.3,0,0
0,1.3,0,0.3,0,0
0,1.4,0,0.3,0,0
0,1.5,0,0.3,0,0
0,1.6,0,0.3,0,0
0,1.7,0,0.3,0,0
0,1.8,0,0.3,0,0
0,1.9,0,0.3,0,0
0,2,0,0.3,0,0
0,2.1,0,0.3,0,0
0,2.2,0,0.3,0,0
0,2.3,0,0.3,0,0
0,2.4,0,0.3,0,0
0,2.5,0,0.3,0,0
0,2.6,0,0.3,0,0
0,2.7,0,0.3,0,0
0,2.8,0,0.3,0,0
0,2.9,0,0.3,0,0
0,3,0,0.3,0,0
0,3.1,0,0.3,0,0
0,3.2,0,0.3,0,0
0,3.3,0,0.3,0,0
0,3.4,0,0.3,0,0
0,3.5,0,0.3,0,0
0,3.6,0,0.3,0,0
0,3.7,0,0.3,0,0
0,3.8,0,0.3,0,0
0,3.9,0,0.3,0,0
0,4,0,0.3,0,0
0,4.1,0,0.3,0,0
0,4.2,0,0.3,0,0
0,4.3,0,0.3,0,0
0,4.4,0,0.3,0,0
0,4.5,0,0.3,0,0
0,4.6,0,0.3,0,0
0,4.7,0,0.3,0,0
0,4.8,0,0.3,0,0
0,4.9,0,0.3,0,0
0,5,0,0.3,0,0
0,5.1,0,0.3,0,0
0,5.2,0,0.3,0,0
0,5.3,0,0.3,0,0
0,5.4,0,0.3,0,0
0,5.5,0,0.3,0,0
0,5.6,0,0.3,0,0
0,5.7,0,0.3,0,0
0,5.8,0,0.3,0,0
0,5.9,0,0.3,0,0
0,6,0,0.3,0,0
0,6.1,0,0.3,0,0
0,6.2,0,0.3,0,0
0,6.3,0,0.3,0,0
0,6.4,0,0.3,0,0
0,6.5,0,0.3,0,0
0,6.6,0,0.3,0,0
0,6.7,0,0.3,0,0
0,6.8,0,0.3,0,0
0,6.9,0,0.3,0,0
0,7,0,0.3,0,0
0,7.1,0,0.3,0,0
0,7.2,0,0.3,0,0
0,7.3,0,0.3,0,0
0,7.4,0,0.3,0,0
0,7.5,0,0.3,0,0
0,7.6,0,0.3,0,0
0,7.7,0,0.3,0,0
0,7.8,0,0.3,0,0
0,7.9,0,0.3,0,0
0,8,0,0.3,0,0
0,8.1,0,0.3,0,0
0,8.2,0,0.3,0,0
0,8.3,0,0.3,0,0
0,8.4,0,0.3,0,0
0,8.5,0,0.3,0,0
0,8.6,0,0.3,0,0
0,8.7,0,0.3,0,0
0,8.8,0,0.3,0,0
0,8.9,0,0.3,0,0
0,9,0,0.3,0,0
0,9.1,0,0.3,0,0
0,9.2,0,0.3,0,0
0,9.3,0,0.3,0,0
0,9.4,0,0.3,0,0
0,9.5,0,0.3,0,0
0,9.6,0,0.3,0,0
0,9.7,0,0.3,0,0
0,9.8,0,0.3,0,0
0,9.9,0,0.3,0,0
0,10,0,0.3,0,0
0,10.1,0,0.3,0,0
0,10.2,0,0.3,0,0
0,10.3,0,0.3,0,0
0,10.4,0,0.3,0,0
0,10.5,0,0.3,0,0
0,10.6,0,0.3,0,0
0,10.7,0,0.3,0,0
0,10.8,0,0.3,0,0
0,10.9,0,0.3,0,0
0,11,0,0.3,0,0
0,11.1,0,0.3,0,0
0,11.2,0,0.3,0,0
0,11.3,0,0.3,0,0
0,11.4,0,0.3,0,0
0,11.5,0,0.3,0,0
0,11.6,0,0.3,0,0
0,11.7,0,0.3,0,0
0,11.8,0,0.3,0,0
0,11.9,0,0.3,0,0
0,12,0,0.3,0,0
0,12.1,0,0.3,0,0
0,12.2,0,0.3,0,0
0,12.3,0,0.3,0,0
0,12.4,0,0.3,0,0
0,12.5,0,0.299994,3.10918e-06,0
0,12.6,0,0.299975,1.19926e-05,0
0,12.7,0,0.299957,2.08759e-05,0
0.1,0,0,0.299988,-3.59147e-05,0
0.1,0.1,0,0.299986,-3.37812e-05,0
0.1,0.2,0,0.299989,-2.47626e-05,0
0.1,0.3,0,0.299993,-1.5744e-05,0
0.1,0.4,0,0.299994,-1.44989e-05,0
0.1,0.5,0,0.299994,-1.44989e-05,0
0.1,0.6,0,0.299994,-1.44989e-05,0
0.1,0.7,0,0.3,-8.26061e-06,0
0.1,0.8,0,0.299993,-1.44394e-05,0
0.1,0.9,0,0.299993,-1.44394e-05,0
0.1,1,0,0.299993,-1.44394e-05,0
0.1,1.1,0,0.299993,-1.4247e-05,0
0.1,1.2,0,0.299993,-1.4247e-05,0
0.1,1.3,0,0.299993,-1.4247e-05,0
0.1,1.4,0,0.3,-8.8217e-06,0
0.1,1.5,0,0.299992,-1.38771e-05,0
0.1,1.6,0,0.299992,-1.38771e-05,0
0.1,1.7,0,0.299992,-1.38771e-05,0
0.1,1.8,0,0.299992,-1.33527e-05,0
0.1,1.9,0,0.299992,-1.33527e-05,0
0.1,2,0,0.299992,-1.33527e-05,0
0.1,2.1,0,0.299999,-8.86974e-06,0
0.1,2.2,0,0.299991,-1.26876e-05,0
0.1,2.3,0,0.299991,-1.26876e-05,0
0.1,2.4,0,0.299991,-1.26876e-05,0
0.1,2.5,0,0.299991,-1.19017e-05,0
0.1,2.6,0,0.299991,-1.19017e-05,0
0.1,2.7,0,0.299991,-1.19017e-05,0
0.1,2.8,0,0.299999,-8.34351e-06,0
0.1,2.9,0,0.29999,-1.10199e-05,0
0.1,3,0,0.29999,-1.10199e-05,0
0.1,3.1,0,0.29999,-1.10199e-05,0
0.1,3.2,0,0.29999,-1.00674e-05,0
0.1,3.3,0,0.29999,-1.00674e-05,0
0.1,3.4,0,0.29999,-1.00674e-05,0
0.1,3.5,0,0.299999,-7.30182e-06,0
0.1,3.6,0,0.299989,-9.06636e-06,0
0.1,3.7,0,0.299989,-9.06636e-06,0
0.1,3.8,0,0.299989,-9.06636e-06,0
0.1,3.9,0,0.299989,-8.03261e-06,0
0.1,4,0,0.299989,-8.03261e-06,0
0.1,4.1,0,0.299989,-8.03261e-06,0
0.1,4.2,0,0.299999,-5.82441e-06,0
0.1,4.3,0,0.299988,-6.97375e-06,0
0.1,4.4,0,0.299988,-6.97375e-06,0
0.1,4.5,0,0.299988,-6.97375e-06,0
0.1,4.6,0,0.299988,-5.88716e-06,0
0.1,4.7,0,0.299988,-5.88716e-06,0
0.1,4.8,0,0.299988,-5.88716e-06,0
0.1,4.9,0,0.299999,-4.01001e-06,0
0.1,5,0,0.299988,-4.75926e-06,0
0.1,5.1,0,0.299988,-4.75926e-06,0
0.1,5.2,0,0.299988,-4.75926e-06,0
0.1,5.3,0,0.299988,-3.56558e-06,0
0.1,5.4,0,0.299988,-3.56558e-06,0
0.1,5.5,0,0.299988,-3.56558e-06,0
0.1,5.6,0,0.299998,-1.99802e-06,0
0.1,5.7,0,0.299989,-2.27402e-06,0
0.1,5.8,0,0.299989,-2.27402e-06,0
0.1,5.9,0,0.299989,-2.27402e-06,0
0.1,6,0,0.29999,-8.52177e-07,0
0.1,6.1,0,0.29999,-8.52177e-07,0
0.1,6.2,0,0.29999,-8.52177e-07,0
0.1,6.3,0,0.299998,1.9529e-08,0
0.1,6.4,0,0.29999,7.37989e-07,0
0.1,6.5,0,0.29999,7.37989e-07,0
0.1,6.6,0,0.29999,7.37989e-07,0
0.1,6.7,0,0.299991,2.50145e-06,0
0.1,6.8,0,0.299991,2.50145e-06,0
0.1,6.9,0,0.299991,2.50145e-06,0
0.1,7,0,0.299997,1.71803e-06,0
0.1,7.1,0,0.299997,2.11785e-06,0
0.1,7.2,0,0.299997,2.35832e-06,0
0.1,7.3,0,0.299997,2.5909e-06,0
0.1,7.4,0,0.299997,2.81567e-06,0
0.1,7.5,0,0.299997,3.03306e-06,0
0.1,7.6,0,0.299997,3.24341e-06,0
0.1,7.7,0,0.299997,3.44706e-06,0
0.1,7.8,0,0.299997,3.64442e-06,0
0.1,7.9,0,0.299997,3.8361e-06,0
0.1,8,0,0.299997,4.08426e-06,0
0.1,8.1,0,0.299993,1.00558e-05,0
0.1,8.2,0,0.299993,1.00558e-05,0
0.1,8.3,0,0.299992,1.1442e-05,0
0.1,8.4,0,0.299992,1.1442e-05,0
0.1,8.5,0,0.299992,1.27636e-05,0
0.1,8.6,0,0.299992,1.27636e-05,0
0.1,8.7,0,0.299996,6.92368e-06,0
0.1,8.8,0,0.299991,1.39824e-05,0
0.1,8.9,0,0.299991,1.39824e-05,0
0.1,9,0,0.29999,1.50663e-05,0
0.1,9.1,0,0.29999,1.50663e-05,0
0.1,9.2,0,0.299989,1.59882e-05,0
0.1,9.3,0,0.299989,1.59882e-05,0
0.1,9.4,0,0.299994,1.06606e-05,0
0.1,9.5,0,0.299988,1.67262e-05,0
0.1,9.6,0,0.299988,1.67262e-05,0
0.1,9.7,0,0.299987,1.72644e-05,0
0.1,9.8,0,0.299987,1.72644e-05,0
0.1,9.9,0,0.299987,1.64732e-05,0
0.1,10,0,0.299986,1.75941e-05,0
0.1,10.1,0,0.29999,1.42279e-05,0
0.1,10.2,0,0.299984,1.77134e-05,0
0.1,10.3,0,0.299984,1.77134e-05,0
0.1,10.4,0,0.299983,1.76264e-05,0
0.1,10.5,0,0.299983,1.76264e-05,0
0.1,10.6,0,0.299988,1.42514e-05,0
0.1,10.7,0,0.299982,1.7343e-05,0
0.1,10.8,0,0.299984,1.63709e-05,0
0.1,10.9,0,0.299982,1.68772e-05,0
0.1,11,0,0.299982,1.68772e-05,0
0.1,11.1,0,0.299981,1.62463e-05,0
0.1,11.2,0,0.299981,1.62463e-05,0
0.1,11.3,0,0.299992,1.16311e-05,0
0.1,11.4,0,0.299981,1.54694e-05,0
0.1,11.5,0,0.299981,1.54694e-05,0
0.1,11.6,0,0.29998,1.45652e-05,0
0.1,11.7,0,0.29998,1.45652e-05,0
0.1,11.8,0,0.29998,1.3542e-05,0
0.1,11.9,0,0.29998,1.3542e-05,0
0.1,12,0,0.299998,9.4334e-06,0
0.1,12.1,0,0.29998,1.24398e-05,0
0.1,12.2,0,0.29998,1.24398e-05,0
0.1,12.3,0,0.29998,1.13233e-05,0
0.1,12.4,0,0.29998,1.13233e-05,0
0.1,12.5,0,0.299978,1.07102e-05,0
0.1,12.6,0,0.29996,1.95936e-05,0
0.1,12.7,0,0.299964,2.6982e-05,0
0.2,0,0,0.29999,-4.02644e-05,0
0.2,0.1,0,0.299981,-4.50159e-05,0
0.2,0.2,0,0.299985,-3.59973e-05,0
0.2,0.3,0,0.299991,-2.52202e-05,0
0.2,0.4,0,0.29999,-2.56071e-05,0
0.2,0.5,0,0.299987,-2.89978e-05,0
0.2,0.6,0,0.299987,-2.89978e-05,0
0.2,0.7,0,0.3,-1.65212e-05,0
0.2,0.8,0,0.299986,-2.88787e-05,0
0.2,0.9,0,0.299986,-2.88787e-05,0
0.2,1,0,0.299989,-2.59534e-05,0
0.2,1.1,0,0.299989,-2.56648e-05,0
0.2,1.2,0,0.299985,-2.8494e-05,0
0.2,1.3,0,0.299985,-2.8494e-05,0
0.2,1.4,0,0.299999,-1.76434e-05,0
0.2,1.5,0,0.299984,-2.77542e-05,0
0.2,1.6,0,0.299984,-2.77542e-05,0
0.2,1.7,0,0.299988,-2.52755e-05,0
0.2,1.8,0,0.299987,-2.4489e-05,0
0.2,1.9,0,0.299983,-2.67055e-05,0
0.2,2,0,0.299983,-2.67055e-05,0
0.2,2.1,0,0.299999,-1.77395e-05,0
0.2,2.2,0,0.299982,-2.53753e-05,0
0.2,2.3,0,0.299982,-2.53753e-05,0
0.2,2.4,0,0.299986,-2.33692e-05,0
0.2,2.5,0,0.299986,-2.21903e-05,0
0.2,2.6,0,0.299981,-2.38034e-05,0
0.2,2.7,0,0.299981,-2.38034e-05,0
0.2,2.8,0,0.299998,-1.6687e-05,0
0.2,2.9,0,0.29998,-2.20398e-05,0
0.2,3,0,0.29998,-2.20398e-05,0
0.2,3.1,0,0.299985,-2.04711e-05,0
0.2,3.2,0,0.299984,-1.90424e-05,0
0.2,3.3,0,0.299979,-2.01349e-05,0
0.2,3.4,0,0.299979,-2.01349e-05,0
0.2,3.5,0,0.299998,-1.46036e-05,0
0.2,3.6,0,0.299978,-1.81327e-05,0
0.2,3.7,0,0.299978,-1.81327e-05,0
0.2,3.8,0,0.299983,-1.69056e-05,0
0.2,3.9,0,0.299982,-1.5355e-05,0
0.2,4,0,0.299977,-1.60652e-05,0
0.2,4.1,0,0.299977,-1.60652e-05,0
0.2,4.2,0,0.299998,-1.16488e-05,0
0.2,4.3,0,0.299977,-1.39475e-05,0
0.2,4.4,0,0.299977,-1.39475e-05,0
0.2,4.5,0,0.299982,-1.29365e-05,0
0.2,4.6,0,0.299982,-1.13067e-05,0
0.2,4.7,0,0.299976,-1.17743e-05,0
0.2,4.8,0,0.299976,-1.17743e-05,0
0.2,4.9,0,0.299997,-8.02003e-06,0
0.2,5,0,0.299976,-9.51851e-06,0
0.2,5.1,0,0.299976,-9.51851e-06,0
0.2,5.2,0,0.299982,-8.64787e-06,0
0.2,5.3,0,0.299982,-6.85736e-06,0
0.2,5.4,0,0.299977,-7.13116e-06,0
0.2,5.5,0,0.299977,-7.13116e-06,0
0.2,5.6,0,0.299997,-3.99604e-06,0
0.2,5.7,0,0.299978,-4.54804e-06,0
0.2,5.8,0,0.299978,-4.54804e-06,0
0.2,5.9,0,0.299982,-3.89897e-06,0
0.2,6,0,0.299983,-1.7662e-06,0
0.2,6.1,0,0.299979,-1.70435e-06,0
0.2,6.2,0,0.299979,-1.70435e-06,0
0.2,6.3,0,0.299996,3.90581e-08,0
0.2,6.4,0,0.299981,1.47598e-06,0
0.2,6.5,0,0.299981,1.47598e-06,0
0.2,6.6,0,0.299984,1.59194e-06,0
0.2,6.7,0,0.299986,4.23713e-06,0
0.2,6.8,0,0.299982,5.0029e-06,0
0.2,6.9,0,0.299982,5.0029e-06,0
0.2,7,0,0.299994,3.43606e-06,0
0.2,7.1,0,0.299994,4.2357e-06,0
0.2,7.2,0,0.299994,4.71665e-06,0
0.2,7.3,0,0.299994,5.18179e-06,0
0.2,7.4,0,0.299994,5.63134e-06,0
0.2,7.5,0,0.299994,6.06612e-06,0
0.2,7.6,0,0.299994,6.48682e-06,0
0.2,7.7,0,0.299994,6.89412e-06,0
0.2,7.8,0,0.299994,7.28885e-06,0
0.2,7.9,0,0.299993,7.6722e-06,0
0.2,8,0,0.299993,8.16852e-06,0
0.2,8.1,0,0.299985,2.01116e-05,0
0.2,8.2,0,0.299987,1.76653e-05,0
0.2,8.3,0,0.299984,2.28839e-05,0
0.2,8.4,0,0.299984,2.28839e-05,0
0.2,8.5,0,0.299987,2.03099e-05,0
0.2,8.6,0,0.299983,2.55273e-05,0
0.2,8.7,0,0.299993,1.21674e-05,0
0.2,8.8,0,0.299982,2.79648e-05,0
0.2,8.9,0,0.299983,2.61862e-05,0
0.2,9,0,0.29998,3.01326e-05,0
0.2,9.1,0,0.29998,3.01326e-05,0
0.2,9.2,0,0.299986,2.31515e-05,0
0.2,9.3,0,0.299978,3.19765e-05,0
0.2,9.4,0,0.299992,1.70181e-05,0
0.2,9.5,0,0.299976,3.34523e-05,0
0.2,9.6,0,0.299976,3.34523e-05,0
0.2,9.7,0,0.299973,3.45287e-05,0
0.2,9.8,0,0.299973,3.45287e-05,0
0.2,9.9,0,0.299986,2.35313e-05,0
0.2,10,0,0.299971,3.51882e-05,0
0.2,10.1,0,0.29999,2.16147e-05,0
0.2,10.2,0,0.299969,3.54267e-05,0
0.2,10.3,0,0.299969,3.54267e-05,0
0.2,10.4,0,0.299966,3.52528e-05,0
0.2,10.5,0,0.299966,3.52528e-05,0
0.2,10.6,0,0.299989,2.222e-05,0
0.2,10.7,0,0.299965,3.4686e-05,0
0.2,10.8,0,0.299985,2.45763e-05,0
0.2,10.9,0,0.299963,3.37544e-05,0
0.2,11,0,0.299963,3.37544e-05,0
0.2,11.1,0,0.299962,3.24926e-05,0
0.2,11.2,0,0.299962,3.24926e-05,0
0.2,11.3,0,0.299994,2.01621e-05,0
0.2,11.4,0,0.299961,3.09389e-05,0
0.2,11.5,0,0.29998,2.48788e-05,0
0.2,11.6,0,0.299961,2.91304e-05,0
0.2,11.7,0,0.299961,2.91304e-05,0
0.2,11.8,0,0.299965,2.60359e-05,0
0.2,11.9,0,0.29996,2.70839e-05,0
0.2,12,0,0.3,1.80019e-05,0
0.2,12.1,0,0.29996,2.48797e-05,0
0.2,12.2,0,0.299975,2.22738e-05,0
0.2,12.3,0,0.29996,2.26466e-05,0
0.2,12.4,0,0.29996,2.26466e-05,0
0.2,12.5,0,0.29997,1.86029e-05,0
0.2,12.6,0,0.299944,2.71946e-05,0
0.2,12.7,0,0.299971,3.30881e-05,0
0.3,0,0,0.299992,-4.46141e-05,0
0.3,0.1,0,0.299976,-5.62506e-05,0
0.3,0.2,0,0.29998,-4.7232e-05,0
0.3,0.3,0,0.299991,-3.29377e-05,0
0.3,0.4,0,0.299991,-3.33247e-05,0
0.3,0.5,0,0.299981,-4.34967e-05,0
0.3,0.6,0,0.299981,-4.34967e-05,0
0.3,0.7,0,0.3,-2.47818e-05,0
0.3,0.8,0,0.299979,-4.33181e-05,0
0.3,0.9,0,0.299979,-4.33181e-05,0
0.3,1,0,0.299989,-3.4542e-05,0
0.3,1.1,0,0.299989,-3.42535e-05,0
0.3,1.2,0,0.299978,-4.2741e-05,0
0.3,1.3,0,0.299978,-4.2741e-05,0
0.3,1.4,0,0.299999,-2.64651e-05,0
0.3,1.5,0,0.299976,-4.16313e-05,0
0.3,1.6,0,0.299976,-4.16313e-05,0
0.3,1.7,0,0.299987,-3.41953e-05,0
0.3,1.8,0,0.299987,-3.34088e-05,0
0.3,1.9,0,0.299975,-4.00582e-05,0
0.3,2,0,0.299975,-4.00582e-05,0
0.3,2.1,0,0.299998,-2.66092e-05,0
0.3,2.2,0,0.299974,-3.80629e-05,0
0.3,2.3,0,0.299974,-3.80629e-05,0
0.3,2.4,0,0.299986,-3.20446e-05,0
0.3,2.5,0,0.299985,-3.08658e-05,0
0.3,2.6,0,0.299972,-3.57051e-05,0
0.3,2.7,0,0.299972,-3.57051e-05,0
0.3,2.8,0,0.299997,-2.50305e-05,0
0.3,2.9,0,0.29997,-3.30597e-05,0
0.3,3,0,0.29997,-3.30597e-05,0
0.3,3.1,0,0.299984,-2.83534e-05,0
0.3,3.2,0,0.299983,-2.69248e-05,0
0.3,3.3,0,0.299969,-3.02023e-05,0
0.3,3.4,0,0.299969,-3.02023e-05,0
0.3,3.5,0,0.299997,-2.19055e-05,0
0.3,3.6,0,0.299967,-2.71991e-05,0
0.3,3.7,0,0.299967,-2.71991e-05,0
0.3,3.8,0,0.299982,-2.35177e-05,0
0.3,3.9,0,0.299981,-2.1967e-05,0
0.3,4,0,0.299966,-2.40978e-05,0
0.3,4.1,0,0.299966,-2.40978e-05,0
0.3,4.2,0,0.299997,-1.74732e-05,0
0.3,4.3,0,0.299965,-2.09213e-05,0
0.3,4.4,0,0.299965,-2.09213e-05,0
0.3,4.5,0,0.299981,-1.78884e-05,0
0.3,4.6,0,0.29998,-1.62585e-05,0
0.3,4.7,0,0.299965,-1.76615e-05,0
0.3,4.8,0,0.299965,-1.76615e-05,0
0.3,4.9,0,0.299996,-1.203e-05,0
0.3,5,0,0.299965,-1.42778e-05,0
0.3,5.1,0,0.299965,-1.42778e-05,0
0.3,5.2,0,0.29998,-1.16658e-05,0
0.3,5.3,0,0.29998,-9.87533e-06,0
0.3,5.4,0,0.299965,-1.06967e-05,0
0.3,5.5,0,0.299965,-1.06967e-05,0
0.3,5.6,0,0.299995,-5.99406e-06,0
0.3,5.7,0,0.299967,-6.82206e-06,0
0.3,5.8,0,0.299967,-6.82206e-06,0
0.3,5.9,0,0.299981,-4.87484e-06,0
0.3,6,0,0.299981,-2.74208e-06,0
0.3,6.1,0,0.299969,-2.55653e-06,0
0.3,6.2,0,0.299969,-2.55653e-06,0
0.3,6.3,0,0.299993,5.85871e-08,0
0.3,6.4,0,0.299971,2.21397e-06,0
0.3,6.5,0,0.299971,2.21397e-06,0
0.3,6.6,0,0.299982,2.56187e-06,0
0.3,6.7,0,0.299983,5.20706e-06,0
0.3,6.8,0,0.299974,7.50434e-06,0
0.3,6.9,0,0.299974,7.50434e-06,0
0.3,7,0,0.299992,5.1541e-06,0
0.3,7.1,0,0.299991,6.35356e-06,0
0.3,7.2,0,0.299991,7.07497e-06,0
0.3,7.3,0,0.299991,7.77269e-06,0
0.3,7.4,0,0.299991,8.44701e-06,0
0.3,7.5,0,0.29999,9.09918e-06,0
0.3,7.6,0,0.29999,9.73024e-06,0
0.3,7.7,0,0.29999,1.03412e-05,0
0.3,7.8,0,0.29999,1.09333e-05,0
0.3,7.9,0,0.29999,1.15083e-05,0
0.3,8,0,0.29999,1.22528e-05,0
0.3,8.1,0,0.299978,3.01674e-05,0
0.3,8.2,0,0.299984,2.21126e-05,0
0.3,8.3,0,0.299977,3.36562e-05,0
0.3,8.4,0,0.299977,3.43259e-05,0
0.3,8.5,0,0.299984,2.51633e-05,0
0.3,8.6,0,0.299975,3.82909e-05,0
0.3,8.7,0,0.29999,1.74111e-05,0
0.3,8.8,0,0.299973,4.19472e-05,0
0.3,8.9,0,0.299981,3.18089e-05,0
0.3,9,0,0.299972,4.2185e-05,0
0.3,9.1,0,0.29997,4.51989e-05,0
0.3,9.2,0,0.299984,2.91452e-05,0
0.3,9.3,0,0.299967,4.79647e-05,0
0.3,9.4,0,0.299991,2.33756e-05,0
0.3,9.5,0,0.299963,5.01785e-05,0
0.3,9.6,0,0.299974,4.02721e-05,0
0.3,9.7,0,0.299967,4.60686e-05,0
0.3,9.8,0,0.29996,5.17931e-05,0
0.3,9.9,0,0.299985,3.05893e-05,0
0.3,10,0,0.299957,5.27823e-05,0
0.3,10.1,0,0.29999,2.90015e-05,0
0.3,10.2,0,0.299953,5.31401e-05,0
0.3,10.3,0,0.299965,4.54649e-05,0
0.3,10.4,0,0.299963,4.52706e-05,0
0.3,10.5,0,0.29995,5.28793e-05,0
0.3,10.6,0,0.29999,3.01886e-05,0
0.3,10.7,0,0.299947,5.2029e-05,0
0.3,10.8,0,0.299986,3.27816e-05,0
0.3,10.9,0,0.299945,5.06317e-05,0
0.3,11,0,0.299955,4.60297e-05,0
0.3,11.1,0,0.299963,4.09713e-05,0
0.3,11.2,0,0.299943,4.87389e-05,0
0.3,11.3,0,0.299996,2.86931e-05,0
0.3,11.4,0,0.299942,4.64083e-05,0
0.3,11.5,0,0.299982,3.3485e-05,0
0.3,11.6,0,0.299941,4.36955e-05,0
0.3,11.7,0,0.299948,4.17969e-05,0
0.3,11.8,0,0.299967,3.46521e-05,0
0.3,11.9,0,0.299941,4.06259e-05,0
0.3,12,0,0.300003,2.65705e-05,0
0.3,12.1,0,0.299941,3.73195e-05,0
0.3,12.2,0,0.299978,3.07629e-05,0
0.3,12.3,0,0.299941,3.39699e-05,0
0.3,12.4,0,0.299943,3.36775e-05,0
0.3,12.5,0,0.299973,2.68728e-05,0
0.3,12.6,0,0.299928,3.47956e-05,0
0.3,12.7,0,0.299978,3.91941e-05,0
0.4,0,0,0.299993,-4.89638e-05,0
0.4,0.1,0,0.299978,-6.06003e-05,0
0.4,0.2,0,0.299975,-5.84668e-05,0
0.4,0.3,0,0.299992,-4.06553e-05,0
0.4,0.4,0,0.299991,-4.10422e-05,0
0.4,0.5,0,0.299974,-5.79956e-05,0
0.4,0.6,0,0.299981,-5.17573e-05,0
0.4,0.7,0,0.3,-3.30424e-05,0
0.4,0.8,0,0.299979,-5.15787e-05,0
0.4,0.9,0,0.299972,-5.77575e-05,0
0.4,1,0,0.299989,-4.31307e-05,0
0.4,1.1,0,0.299989,-4.28421e-05,0
0.4,1.2,0,0.29997,-5.6988e-05,0
0.4,1.3,0,0.299977,-5.15627e-05,0
0.4,1.4,0,0.299999,-3.52868e-05,0
0.4,1.5,0,0.299976,-5.0453e-05,0
0.4,1.6,0,0.299968,-5.55083e-05,0
0.4,1.7,0,0.299987,-4.31151e-05,0
0.4,1.8,0,0.299986,-4.23286e-05,0
0.4,1.9,0,0.299966,-5.3411e-05,0
0.4,2,0,0.299974,-4.8928e-05,0
0.4,2.1,0,0.299998,-3.5479e-05,0
0.4,2.2,0,0.299973,-4.69327e-05,0
0.4,2.3,0,0.299965,-5.07506e-05,0
0.4,2.4,0,0.299985,-4.07201e-05,0
0.4,2.5,0,0.299984,-3.95412e-05,0
0.4,2.6,0,0.299963,-4.76069e-05,0
0.4,2.7,0,0.299971,-4.40487e-05,0
0.4,2.8,0,0.299997,-3.3374e-05,0
0.4,2.9,0,0.299969,-4.14032e-05,0
0.4,3,0,0.29996,-4.40796e-05,0
0.4,3.1,0,0.299983,-3.62358e-05,0
0.4,3.2,0,0.299982,-3.48072e-05,0
0.4,3.3,0,0.299958,-4.02698e-05,0
0.4,3.4,0,0.299968,-3.75042e-05,0
0.4,3.5,0,0.299996,-2.92073e-05,0
0.4,3.6,0,0.299966,-3.45009e-05,0
0.4,3.7,0,0.299957,-3.62654e-05,0
0.4,3.8,0,0.299981,-3.01297e-05,0
0.4,3.9,0,0.29998,-2.85791e-05,0
0.4,4,0,0.299954,-3.21304e-05,0
0.4,4.1,0,0.299965,-2.99222e-05,0
0.4,4.2,0,0.299995,-2.32976e-05,0
0.4,4.3,0,0.299964,-2.67457e-05,0
0.4,4.4,0,0.299954,-2.7895e-05,0
0.4,4.5,0,0.29998,-2.28402e-05,0
0.4,4.6,0,0.299979,-2.12103e-05,0
0.4,4.7,0,0.299953,-2.35486e-05,0
0.4,4.8,0,0.299963,-2.16715e-05,0
0.4,4.9,0,0.299995,-1.60401e-05,0
0.4,5,0,0.299963,-1.82878e-05,0
0.4,5.1,0,0.299953,-1.9037e-05,0
0.4,5.2,0,0.299979,-1.46838e-05,0
0.4,5.3,0,0.299979,-1.28933e-05,0
0.4,5.4,0,0.299954,-1.42623e-05,0
0.4,5.5,0,0.299963,-1.26948e-05,0
0.4,5.6,0,0.299993,-7.99209e-06,0
0.4,5.7,0,0.299965,-8.82008e-06,0
0.4,5.8,0,0.299956,-9.09608e-06,0
0.4,5.9,0,0.299979,-5.85071e-06,0
0.4,6,0,0.29998,-3.71795e-06,0
0.4,6.1,0,0.299958,-3.40871e-06,0
0.4,6.2,0,0.299966,-2.537e-06,0
0.4,6.3,0,0.299991,7.81162e-08,0
0.4,6.4,0,0.299969,2.23349e-06,0
0.4,6.5,0,0.299961,2.95195e-06,0
0.4,6.6,0,0.299979,3.53179e-06,0
0.4,6.7,0,0.299981,6.17698e-06,0
0.4,6.8,0,0.299965,1.00058e-05,0
0.4,6.9,0,0.299971,9.22237e-06,0
0.4,7,0,0.299989,6.87213e-06,0
0.4,7.1,0,0.299988,8.47141e-06,0
0.4,7.2,0,0.299988,9.4333e-06,0
0.4,7.3,0,0.299988,1.03636e-05,0
0.4,7.4,0,0.299988,1.12627e-05,0
0.4,7.5,0,0.299987,1.21322e-05,0
0.4,7.6,0,0.299987,1.29736e-05,0
0.4,7.7,0,0.299987,1.37882e-05,0
0.4,7.8,0,0.299987,1.45777e-05,0
0.4,7.9,0,0.299987,1.53444e-05,0
0.4,8,0,0.299987,1.6337e-05,0
0.4,8.1,0,0.29997,4.02232e-05,0
0.4,8.2,0,0.299981,2.65599e-05,0
0.4,8.3,0,0.299974,3.81034e-05,0
0.4,8.4,0,0.299973,4.00204e-05,0
0.4,8.5,0,0.299981,3.00168e-05,0
0.4,8.6,0,0.299966,5.10546e-05,0
0.4,8.7,0,0.299988,2.26548e-05,0
0.4,8.8,0,0.299963,5.59296e-05,0
0.4,8.9,0,0.299978,3.74317e-05,0
0.4,9,0,0.29997,4.78078e-05,0
0.4,9.1,0,0.299965,5.43776e-05,0
0.4,9.2,0,0.299982,3.5139e-05,0
0.4,9.3,0,0.299956,6.39529e-05,0
0.4,9.4,0,0.299989,2.97331e-05,0
0.4,9.5,0,0.299951,6.69046e-05,0
0.4,9.6,0,0.299973,4.69854e-05,0
0.4,9.7,0,0.299965,5.27818e-05,0
0.4,9.8,0,0.299952,6.47143e-05,0
0.4,9.9,0,0.299985,3.76473e-05,0
0.4,10,0,0.299942,7.03764e-05,0
0.4,10.1,0,0.299989,3.63883e-05,0
0.4,10.2,0,0.299941,6.87661e-05,0
0.4,10.3,0,0.299965,5.31578e-05,0
0.4,10.4,0,0.299963,5.29636e-05,0
0.4,10.5,0,0.299936,6.85536e-05,0
0.4,10.6,0,0.29999,3.81572e-05,0
0.4,10.7,0,0.299929,6.9372e-05,0
0.4,10.8,0,0.299987,4.0987e-05,0
0.4,10.9,0,0.299934,6.38187e-05,0
0.4,11,0,0.299957,5.44249e-05,0
0.4,11.1,0,0.299965,4.93665e-05,0
0.4,11.2,0,0.299924,6.49851e-05,0
0.4,11.3,0,0.299998,3.7224e-05,0
0.4,11.4,0,0.299922,6.18777e-05,0
0.4,11.5,0,0.299984,4.20912e-05,0
0.4,11.6,0,0.299936,5.43937e-05,0
0.4,11.7,0,0.299951,5.04131e-05,0
0.4,11.8,0,0.29997,4.32682e-05,0
0.4,11.9,0,0.299921,5.41678e-05,0
0.4,12,0,0.300005,3.5139e-05,0
0.4,12.1,0,0.299921,4.97593e-05,0
0.4,12.2,0,0.299981,3.9252e-05,0
0.4,12.3,0,0.29994,4.28208e-05,0
0.4,12.4,0,0.299946,4.19474e-05,0
0.4,12.5,0,0.299976,3.51427e-05,0
0.4,12.6,0,0.299912,4.23966e-05,0
0.4,12.7,0,0.299985,4.53002e-05,0
0.5,0,0,0.299995,-5.33135e-05,0
0.5,0.1,0,0.299979,-6.495e-05,0
0.5,0.2,0,0.299973,-6.79429e-05,0
0.5,0.3,0,0.299992,-4.83728e-05,0
0.5,0.4,0,0.299991,-4.87598e-05,0
0.5,0.5,0,0.299971,-6.91038e-05,0
0.5,0.6,0,0.299981,-6.00179e-05,0
0.5,0.7,0,0.300001,-4.13031e-05,0
0.5,0.8,0,0.299979,-5.98393e-05,0
0.5,0.9,0,0.299968,-6.92715e-05,0
0.5,1,0,0.299989,-5.17193e-05,0
0.5,1.1,0,0.299989,-5.14308e-05,0
0.5,1.2,0,0.299967,-6.84058e-05,0
0.5,1.3,0,0.299977,-6.03844e-05,0
0.5,1.4,0,0.299999,-4.41085e-05,0
0.5,1.5,0,0.299975,-5.92747e-05,0
0.5,1.6,0,0.299964,-6.69068e-05,0
0.5,1.7,0,0.299986,-5.20349e-05,0
0.5,1.8,0,0.299986,-5.12484e-05,0
0.5,1.9,0,0.299962,-6.45472e-05,0
0.5,2,0,0.299974,-5.77977e-05,0
0.5,2.1,0,0.299997,-4.43487e-05,0
0.5,2.2,0,0.299973,-5.58024e-05,0
0.5,2.3,0,0.29996,-6.14321e-05,0
0.5,2.4,0,0.299984,-4.93955e-05,0
0.5,2.5,0,0.299983,-4.82167e-05,0
0.5,2.6,0,0.299958,-5.78954e-05,0
0.5,2.7,0,0.29997,-5.23922e-05,0
0.5,2.8,0,0.299996,-4.17176e-05,0
0.5,2.9,0,0.299969,-4.97467e-05,0
0.5,3,0,0.299955,-5.35308e-05,0
0.5,3.1,0,0.299982,-4.41182e-05,0
0.5,3.2,0,0.299981,-4.26896e-05,0
0.5,3.3,0,0.299952,-4.92447e-05,0
0.5,3.4,0,0.299967,-4.4806e-05,0
0.5,3.5,0,0.299995,-3.65091e-05,0
0.5,3.6,0,0.299965,-4.18027e-05,0
0.5,3.7,0,0.299951,-4.41047e-05,0
0.5,3.8,0,0.29998,-3.67418e-05,0
0.5,3.9,0,0.299979,-3.51912e-05,0
0.5,4,0,0.299948,-3.94528e-05,0
0.5,4.1,0,0.299963,-3.57467e-05,0
0.5,4.2,0,0.299994,-2.91221e-05,0
0.5,4.3,0,0.299963,-3.25701e-05,0
0.5,4.4,0,0.299947,-3.38578e-05,0
0.5,4.5,0,0.299978,-2.7792e-05,0
0.5,4.6,0,0.299978,-2.61622e-05,0
0.5,4.7,0,0.299946,-2.89681e-05,0
0.5,4.8,0,0.299962,-2.56815e-05,0
0.5,4.9,0,0.299993,-2.00501e-05,0
0.5,5,0,0.299962,-2.22978e-05,0
0.5,5.1,0,0.299946,-2.29256e-05,0
0.5,5.2,0,0.299977,-1.77018e-05,0
0.5,5.3,0,0.299977,-1.59113e-05,0
0.5,5.4,0,0.299947,-1.75541e-05,0
0.5,5.5,0,0.299962,-1.46928e-05,0
0.5,5.6,0,0.299992,-9.99011e-06,0
0.5,5.7,0,0.299964,-1.08181e-05,0
0.5,5.8,0,0.299949,-1.0721e-05,0
0.5,5.9,0,0.299977,-6.82659e-06,0
0.5,6,0,0.299978,-4.69382e-06,0
0.5,6.1,0,0.299952,-4.32273e-06,0
0.5,6.2,0,0.299964,-2.51747e-06,0
0.5,6.3,0,0.299989,9.76452e-08,0
0.5,6.4,0,0.299966,2.25302e-06,0
0.5,6.5,0,0.299955,3.80591e-06,0
0.5,6.6,0,0.299977,4.50172e-06,0
0.5,6.7,0,0.299978,7.1469e-06,0
0.5,6.8,0,0.299959,1.17415e-05,0
0.5,6.9,0,0.299968,1.09404e-05,0
0.5,7,0,0.299986,8.59016e-06,0
0.5,7.1,0,0.299985,1.05893e-05,0
0.5,7.2,0,0.299985,1.17916e-05,0
0.5,7.3,0,0.299985,1.29545e-05,0
0.5,7.4,0,0.299984,1.40783e-05,0
0.5,7.5,0,0.299984,1.51653e-05,0
0.5,7.6,0,0.299984,1.62171e-05,0
0.5,7.7,0,0.299984,1.72353e-05,0
0.5,7.8,0,0.299984,1.82221e-05,0
0.5,7.9,0,0.299984,1.91805e-05,0
0.5,8,0,0.299984,2.04213e-05,0
0.5,8.1,0,0.299965,4.71027e-05,0
0.5,8.2,0,0.299977,3.10071e-05,0
0.5,8.3,0,0.299971,4.25507e-05,0
0.5,8.4,0,0.29997,4.48738e-05,0
0.5,8.5,0,0.299978,3.48702e-05,0
0.5,8.6,0,0.29996,6.14982e-05,0
0.5,8.7,0,0.299985,2.78985e-05,0
0.5,8.8,0,0.299959,6.33115e-05,0
0.5,8.9,0,0.299976,4.30545e-05,0
0.5,9,0,0.299967,5.34305e-05,0
0.5,9.1,0,0.299963,6.03713e-05,0
0.5,9.2,0,0.299979,4.11327e-05,0
0.5,9.3,0,0.299946,7.91215e-05,0
0.5,9.4,0,0.299987,3.60906e-05,0
0.5,9.5,0,0.299949,7.34827e-05,0
0.5,9.6,0,0.299972,5.36986e-05,0
0.5,9.7,0,0.299964,5.94951e-05,0
0.5,9.8,0,0.299951,7.17724e-05,0
0.5,9.9,0,0.299984,4.47054e-05,0
0.5,10,0,0.299928,8.79705e-05,0
0.5,10.1,0,0.299989,4.37751e-05,0
0.5,10.2,0,0.29994,7.61529e-05,0
0.5,10.3,0,0.299966,6.08508e-05,0
0.5,10.4,0,0.299963,6.06565e-05,0
0.5,10.5,0,0.299937,7.65221e-05,0
0.5,10.6,0,0.299991,4.61258e-05,0
0.5,10.7,0,0.299911,8.6715e-05,0
0.5,10.8,0,0.299988,4.91923e-05,0
0.5,10.9,0,0.299935,7.20241e-05,0
0.5,11,0,0.299958,6.28202e-05,0
0.5,11.1,0,0.299966,5.77618e-05,0
0.5,11.2,0,0.299925,7.36803e-05,0
0.5,11.3,0,0.299999,4.5755e-05,0
0.5,11.4,0,0.299905,7.67566e-05,0
0.5,11.5,0,0.299986,5.06974e-05,0
0.5,11.6,0,0.299938,6.3e-05,0
0.5,11.7,0,0.299953,5.90293e-05,0
0.5,11.8,0,0.299972,5.18844e-05,0
0.5,11.9,0,0.299918,6.39533e-05,0
0.5,12,0,0.300008,4.37075e-05,0
0.5,12.1,0,0.299908,6.10048e-05,0
0.5,12.2,0,0.299984,4.77411e-05,0
0.5,12.3,0,0.299943,5.13099e-05,0
0.5,12.4,0,0.299949,5.02173e-05,0
0.5,12.5,0,0.299979,4.34126e-05,0
0.5,12.6,0,0.299909,4.92025e-05,0
0.5,12.7,0,0.299992,5.14063e-05,0
0.6,0,0,0.299997,-5.76632e-05,0
0.6,0.1,0,0.299981,-6.92997e-05,0
0.6,0.2,0,0.299973,-7.56605e-05,0
0.6,0.3,0,0.299992,-5.60904e-05,0
0.6,0.4,0,0.299992,-5.64774e-05,0
0.6,0.5,0,0.299971,-7.68214e-05,0
0.6,0.6,0,0.299981,-6.82785e-05,0
0.6,0.7,0,0.300001,-4.95637e-05,0
0.6,0.8,0,0.299979,-6.81e-05,0
0.6,0.9,0,0.299968,-7.78601e-05,0
0.6,1,0,0.299989,-6.0308e-05,0
0.6,1.1,0,0.299989,-6.00194e-05,0
0.6,1.2,0,0.299966,-7.69944e-05,0
0.6,1.3,0,0.299977,-6.92061e-05,0
0.6,1.4,0,0.299998,-5.29302e-05,0
0.6,1.5,0,0.299975,-6.80964e-05,0
0.6,1.6,0,0.299963,-7.58266e-05,0
0.6,1.7,0,0.299986,-6.09547e-05,0
0.6,1.8,0,0.299985,-6.01682e-05,0
0.6,1.9,0,0.299962,-7.3467e-05,0
0.6,2,0,0.299973,-6.66674e-05,0
0.6,2.1,0,0.299996,-5.32184e-05,0
0.6,2.2,0,0.299972,-6.46721e-05,0
0.6,2.3,0,0.299959,-7.01076e-05,0
0.6,2.4,0,0.299984,-5.8071e-05,0
0.6,2.5,0,0.299983,-5.68921e-05,0
0.6,2.6,0,0.299957,-6.65709e-05,0
0.6,2.7,0,0.299969,-6.07357e-05,0
0.6,2.8,0,0.299995,-5.00611e-05,0
0.6,2.9,0,0.299968,-5.80903e-05,0
0.6,3,0,0.299954,-6.14132e-05,0
0.6,3.1,0,0.299981,-5.20006e-05,0
0.6,3.2,0,0.29998,-5.0572e-05,0
0.6,3.3,0,0.299951,-5.71271e-05,0
0.6,3.4,0,0.299965,-5.21078e-05,0
0.6,3.5,0,0.299994,-4.38109e-05,0
0.6,3.6,0,0.299964,-4.91045e-05,0
0.6,3.7,0,0.299949,-5.07167e-05,0
0.6,3.8,0,0.299979,-4.33539e-05,0
0.6,3.9,0,0.299978,-4.18033e-05,0
0.6,4,0,0.299947,-4.60649e-05,0
0.6,4.1,0,0.299962,-4.15711e-05,0
0.6,4.2,0,0.299993,-3.49465e-05,0
0.6,4.3,0,0.299962,-3.83945e-05,0
0.6,4.4,0,0.299946,-3.88096e-05,0
0.6,4.5,0,0.299977,-3.27439e-05,0
0.6,4.6,0,0.299977,-3.1114e-05,0
0.6,4.7,0,0.299945,-3.392e-05,0
0.6,4.8,0,0.299961,-2.96915e-05,0
0.6,4.9,0,0.299992,-2.40601e-05,0
0.6,5,0,0.299961,-2.63078e-05,0
0.6,5.1,0,0.299945,-2.59436e-05,0
0.6,5.2,0,0.299976,-2.07198e-05,0
0.6,5.3,0,0.299976,-1.89292e-05,0
0.6,5.4,0,0.299946,-2.05721e-05,0
0.6,5.5,0,0.29996,-1.66908e-05,0
0.6,5.6,0,0.29999,-1.19881e-05,0
0.6,5.7,0,0.299962,-1.28161e-05,0
0.6,5.8,0,0.299947,-1.16969e-05,0
0.6,5.9,0,0.299975,-7.80246e-06,0
0.6,6,0,0.299976,-5.6697e-06,0
0.6,6.1,0,0.29995,-5.29861e-06,0
0.6,6.2,0,0.299962,-2.49794e-06,0
0.6,6.3,0,0.299987,1.17174e-07,0
0.6,6.4,0,0.299964,2.27255e-06,0
0.6,6.5,0,0.299953,4.77583e-06,0
0.6,6.6,0,0.299974,5.47164e-06,0
0.6,6.7,0,0.299976,8.11683e-06,0
0.6,6.8,0,0.299957,1.27114e-05,0
0.6,6.9,0,0.299965,1.26584e-05,0
0.6,7,0,0.299983,1.03082e-05,0
0.6,7.1,0,0.299983,1.27071e-05,0
0.6,7.2,0,0.299982,1.41499e-05,0
0.6,7.3,0,0.299982,1.55454e-05,0
0.6,7.4,0,0.299981,1.6894e-05,0
0.6,7.5,0,0.299981,1.81984e-05,0
0.6,7.6,0,0.299981,1.94605e-05,0
0.6,7.7,0,0.299981,2.06824e-05,0
0.6,7.8,0,0.299981,2.18665e-05,0
0.6,7.9,0,0.29998,2.30166e-05,0
0.6,8,0,0.29998,2.45055e-05,0
0.6,8.1,0,0.299962,5.11869e-05,0
0.6,8.2,0,0.299974,3.54544e-05,0
0.6,8.3,0,0.299967,4.6998e-05,0
0.6,8.4,0,0.299967,4.97273e-05,0
0.6,8.5,0,0.299975,3.97236e-05,0
0.6,8.6,0,0.299958,6.52272e-05,0
0.6,8.7,0,0.299982,3.31421e-05,0
0.6,8.8,0,0.299956,6.85552e-05,0
0.6,8.9,0,0.299973,4.86773e-05,0
0.6,9,0,0.299965,5.90533e-05,0
0.6,9.1,0,0.299961,6.63651e-05,0
0.6,9.2,0,0.299977,4.71264e-05,0
0.6,9.3,0,0.299948,8.13324e-05,0
0.6,9.4,0,0.299986,4.24481e-05,0
0.6,9.5,0,0.299948,7.98402e-05,0
0.6,9.6,0,0.299971,6.04119e-05,0
0.6,9.7,0,0.299963,6.62084e-05,0
0.6,9.8,0,0.29995,7.88304e-05,0
0.6,9.9,0,0.299983,5.17634e-05,0
0.6,10,0,0.299934,9.00438e-05,0
0.6,10.1,0,0.299989,5.11619e-05,0
0.6,10.2,0,0.29994,8.35398e-05,0
0.6,10.3,0,0.299966,6.85437e-05,0
0.6,10.4,0,0.299963,6.83495e-05,0
0.6,10.5,0,0.299938,8.44907e-05,0
0.6,10.6,0,0.299992,5.40944e-05,0
0.6,10.7,0,0.299922,9.01476e-05,0
0.6,10.8,0,0.29999,5.73977e-05,0
0.6,10.9,0,0.299936,8.02294e-05,0
0.6,11,0,0.29996,7.12154e-05,0
0.6,11.1,0,0.299967,6.6157e-05,0
0.6,11.2,0,0.299927,8.22112e-05,0
0.6,11.3,0,0.300001,5.4286e-05,0
0.6,11.4,0,0.299915,8.24401e-05,0
0.6,11.5,0,0.299989,5.93037e-05,0
0.6,11.6,0,0.29994,7.16062e-05,0
0.6,11.7,0,0.299955,6.76455e-05,0
0.6,11.8,0,0.299975,6.05006e-05,0
0.6,11.9,0,0.29992,7.25218e-05,0
0.6,12,0,0.30001,5.22761e-05,0
0.6,12.1,0,0.299915,6.88168e-05,0
0.6,12.2,0,0.299986,5.62302e-05,0
0.6,12.3,0,0.299946,5.97989e-05,0
0.6,12.4,0,0.299951,5.84872e-05,0
0.6,12.5,0,0.299982,5.16824e-05,0
0.6,12.6,0,0.299916,5.53085e-05,0
0.6,12.7,0,0.299999,5.75123e-05,0
0.7,0,0,0.299998,-6.20129e-05,0
0.7,0.1,0,0.299983,-7.36494e-05,0
0.7,0.2,0,0.29998,-7.6493e-05,0
0.7,0.3,0,0.299993,-6.3808e-05,0
0.7,0.4,0,0.299992,-6.41949e-05,0
0.7,0.5,0,0.299978,-7.83006e-05,0
0.7,0.6,0,0.299981,-7.65391e-05,0
0.7,0.7,0,0.300001,-5.78243e-05,0
0.7,0.8,0,0.299979,-7.63606e-05,0
0.7,0.9,0,0.299975,-8.027e-05,0
0.7,1,0,0.299989,-6.88966e-05,0
0.7,1.1,0,0.299988,-6.86081e-05,0
0.7,1.2,0,0.299974,-8.01578e-05,0
0.7,1.3,0,0.299977,-7.80278e-05,0
0.7,1.4,0,0.299998,-6.17519e-05,0
0.7,1.5,0,0.299975,-7.69181e-05,0
0.7,1.6,0,0.299971,-7.9691e-05,0
0.7,1.7,0,0.299986,-6.98745e-05,0
0.7,1.8,0,0.299985,-6.9088e-05,0
0.7,1.9,0,0.299969,-7.79038e-05,0
0.7,2,0,0.299972,-7.55372e-05,0
0.7,2.1,0,0.299996,-6.20882e-05,0
0.7,2.2,0,0.299971,-7.35419e-05,0
0.7,2.3,0,0.299967,-7.49651e-05,0
0.7,2.4,0,0.299983,-6.67465e-05,0
0.7,2.5,0,0.299982,-6.55676e-05,0
0.7,2.6,0,0.299965,-7.16881e-05,0
0.7,2.7,0,0.299969,-6.90792e-05,0
0.7,2.8,0,0.299994,-5.84046e-05,0
0.7,2.9,0,0.299967,-6.64338e-05,0
0.7,3,0,0.299962,-6.66192e-05,0
0.7,3.1,0,0.29998,-5.9883e-05,0
0.7,3.2,0,0.299979,-5.84543e-05,0
0.7,3.3,0,0.29996,-6.22439e-05,0
0.7,3.4,0,0.299964,-5.94096e-05,0
0.7,3.5,0,0.299993,-5.11127e-05,0
0.7,3.6,0,0.299963,-5.64064e-05,0
0.7,3.7,0,0.299958,-5.55643e-05,0
0.7,3.8,0,0.299978,-4.9966e-05,0
0.7,3.9,0,0.299977,-4.84153e-05,0
0.7,4,0,0.299956,-5.04687e-05,0
0.7,4.1,0,0.299961,-4.73955e-05,0
0.7,4.2,0,0.299992,-4.07709e-05,0
0.7,4.3,0,0.299961,-4.42189e-05,0
0.7,4.4,0,0.299955,-4.26121e-05,0
0.7,4.5,0,0.299976,-3.76957e-05,0
0.7,4.6,0,0.299976,-3.60658e-05,0
0.7,4.7,0,0.299954,-3.69947e-05,0
0.7,4.8,0,0.299959,-3.37015e-05,0
0.7,4.9,0,0.299991,-2.80701e-05,0
0.7,5,0,0.299959,-3.03178e-05,0
0.7,5.1,0,0.299954,-2.82123e-05,0
0.7,5.2,0,0.299974,-2.37377e-05,0
0.7,5.3,0,0.299975,-2.19472e-05,0
0.7,5.4,0,0.299954,-2.20225e-05,0
0.7,5.5,0,0.299959,-1.86888e-05,0
0.7,5.6,0,0.299988,-1.39861e-05,0
0.7,5.7,0,0.29996,-1.48141e-05,0
0.7,5.8,0,0.299955,-1.23968e-05,0
0.7,5.9,0,0.299973,-8.77833e-06,0
0.7,6,0,0.299974,-6.64557e-06,0
0.7,6.1,0,0.299956,-5.40277e-06,0
0.7,6.2,0,0.29996,-2.47842e-06,0
0.7,6.3,0,0.299984,1.36703e-07,0
0.7,6.4,0,0.299962,2.29208e-06,0
0.7,6.5,0,0.299957,5.0273e-06,0
0.7,6.6,0,0.299972,6.44156e-06,0
0.7,6.7,0,0.299973,9.08675e-06,0