/*--------------------------------*- C++ -*----------------------------------*\
| =========                 |                                                 |
| \\      /  F ield         | OpenFOAM: The Open Source CFD Toolbox           |
|  \\    /   O peration     | Version:  v1806                                 |
|   \\  /    A nd           | Web:      www.OpenFOAM.com                      |
|    \\/     M anipulation  |                                                 |
\*---------------------------------------------------------------------------*/
FoamFile
{
    version     2.0;
    format      ascii;
    class       volVectorField;
    location    "410";
    object      U;
}
// * * * * * * * * * * * * * * * * * * * * * * * * * * * * * * * * * * * * * //

dimensions      [0 1 -1 0 0 0 0];


internalField   nonuniform List<vector> 
5735
(
(0.263198 0.1881 0.000460538)
(0.263213 0.187982 5.42532e-08)
(0.263218 0.187998 7.82183e-11)
(0.263213 0.187982 -5.41278e-08)
(0.263198 0.1881 -0.000460538)
(0.248176 0.178851 0.000786869)
(0.248214 0.178865 4.03507e-08)
(0.248223 0.1789 7.29268e-11)
(0.248214 0.178865 -4.02435e-08)
(0.248176 0.178851 -0.00078687)
(0.223071 0.181987 0.00102978)
(0.223102 0.182229 -1.67462e-06)
(0.223093 0.182262 3.13096e-11)
(0.223102 0.182229 1.67466e-06)
(0.223071 0.181987 -0.00102978)
(0.228708 -0.0144424 0.00182845)
(0.22857 -0.0144255 1.75099e-06)
(0.228553 -0.0144254 -9.09779e-11)
(0.22857 -0.0144255 -1.75113e-06)
(0.228708 -0.0144424 -0.00182845)
(0.211782 -0.00851156 0.00201821)
(0.211676 -0.00853663 1.66083e-06)
(0.211661 -0.00854079 -5.90865e-11)
(0.211676 -0.00853663 -1.66092e-06)
(0.211782 -0.00851156 -0.00201821)
(0.209579 0.0107597 0.0020252)
(0.209421 0.0107498 1.79869e-06)
(0.209406 0.0107485 -3.40082e-11)
(0.209421 0.0107498 -1.79875e-06)
(0.209579 0.0107597 -0.0020252)
(0.230225 0.00720595 0.0018193)
(0.230124 0.00722274 1.33184e-06)
(0.230113 0.00722539 -6.01075e-11)
(0.230124 0.00722274 -1.33194e-06)
(0.230225 0.00720595 -0.0018193)
(0.248276 -0.0219591 0.001577)
(0.248199 -0.0219963 1.16857e-06)
(0.248191 -0.0220031 -2.3976e-10)
(0.248199 -0.0219963 -1.1689e-06)
(0.248276 -0.0219591 -0.001577)
(0.245379 -0.00580355 0.00163658)
(0.245273 -0.00585411 1.41587e-06)
(0.245261 -0.00586061 -2.24137e-10)
(0.245273 -0.00585411 -1.41618e-06)
(0.245379 -0.00580355 -0.00163658)
(0.186769 -0.178748 0.00148627)
(0.186796 -0.178934 -6.71118e-07)
(0.186775 -0.178972 -4.24791e-10)
(0.186796 -0.178934 6.70548e-07)
(0.186769 -0.178748 -0.00148627)
(0.204133 -0.155871 0.00149923)
(0.204151 -0.156076 5.41676e-07)
(0.204154 -0.156105 -1.16432e-09)
(0.204151 -0.156076 -5.42996e-07)
(0.204133 -0.155871 -0.00149922)
(0.238945 -0.178097 0.000897843)
(0.239258 -0.178297 -2.66699e-06)
(0.239293 -0.178328 -3.9321e-09)
(0.239258 -0.178297 2.66412e-06)
(0.238945 -0.178097 -0.000897836)
(0.233494 -0.184664 0.000702495)
(0.233856 -0.184759 -3.61517e-06)
(0.23387 -0.184783 -9.93842e-10)
(0.233856 -0.184759 3.61362e-06)
(0.233494 -0.184664 -0.000702492)
(-0.0156044 -0.00104165 -2.07806e-05)
(-0.0155751 -0.00104103 1.5494e-07)
(-0.015565 -0.00104121 4.5207e-12)
(-0.0155751 -0.00104103 -1.54948e-07)
(-0.0156044 -0.00104165 2.07806e-05)
(-0.0142578 -0.0014981 3.53485e-06)
(-0.0142216 -0.00149261 1.06198e-07)
(-0.0142117 -0.00149095 3.41904e-12)
(-0.0142216 -0.00149261 -1.062e-07)
(-0.0142578 -0.0014981 -3.53485e-06)
(-0.0148015 -0.0024179 2.921e-05)
(-0.0147907 -0.00241194 1.61519e-07)
(-0.0147833 -0.00240999 2.40503e-12)
(-0.0147907 -0.00241194 -1.61517e-07)
(-0.0148015 -0.0024179 -2.921e-05)
(-0.0146696 -0.0178593 9.14093e-05)
(-0.0146614 -0.0178848 1.56959e-07)
(-0.0146572 -0.0178855 2.0818e-11)
(-0.0146614 -0.0178848 -1.56927e-07)
(-0.0146696 -0.0178593 -9.14093e-05)
(-0.0103247 -0.0137081 9.85362e-05)
(-0.0102775 -0.013731 2.09095e-07)
(-0.0102704 -0.013729 1.34063e-11)
(-0.0102775 -0.013731 -2.09081e-07)
(-0.0103247 -0.0137081 -9.85362e-05)
(-0.0106813 -0.0123271 8.92744e-05)
(-0.0106732 -0.0123261 1.28246e-07)
(-0.0106668 -0.0123209 4.29842e-12)
(-0.0106732 -0.0123261 -1.28243e-07)
(-0.0106813 -0.0123271 -8.92744e-05)
(0.0859229 -0.0572305 0.00291309)
(0.0853439 -0.0575951 3.07282e-06)
(0.0853122 -0.0576258 -1.9553e-11)
(0.0853439 -0.0575951 -3.07287e-06)
(0.0859229 -0.0572305 -0.00291309)
(0.134247 -0.00681876 0.00273844)
(0.133901 -0.00681018 2.58628e-06)
(0.133906 -0.00680902 -1.56317e-11)
(0.133901 -0.00681018 -2.5863e-06)
(0.134247 -0.00681876 -0.00273844)
(0.151608 -0.0211775 0.00253589)
(0.151274 -0.0211566 2.69782e-06)
(0.15126 -0.021155 -4.47391e-11)
(0.151274 -0.0211566 -2.69788e-06)
(0.151608 -0.0211775 -0.00253589)
(0.12899 -0.0621433 0.00257724)
(0.128532 -0.0623607 2.67161e-06)
(0.1285 -0.0623776 -3.98051e-11)
(0.128532 -0.0623607 -2.67167e-06)
(0.12899 -0.0621433 -0.00257724)
(-0.0151496 0.0192177 9.03475e-05)
(-0.0151344 0.0192439 2.0028e-07)
(-0.0151279 0.0192434 2.01383e-11)
(-0.0151344 0.019244 -2.00259e-07)
(-0.0151496 0.0192177 -9.03476e-05)
(-0.0116394 0.0141102 8.89646e-05)
(-0.0116268 0.0141148 2.29241e-07)
(-0.0116185 0.014109 1.71783e-10)
(-0.0116268 0.0141148 -2.29081e-07)
(-0.0116394 0.0141102 -8.89649e-05)
(-0.0104385 0.0140969 9.39222e-05)
(-0.0103879 0.0141074 1.81026e-07)
(-0.0103797 0.0141026 3.62e-11)
(-0.0103879 0.0141074 -1.8098e-07)
(-0.0104385 0.0140969 -9.39223e-05)
(0.23998 0.126168 -0.000389565)
(0.240035 0.125928 -4.03027e-06)
(0.239995 0.125915 4.46406e-11)
(0.240035 0.125928 4.03034e-06)
(0.23998 0.126168 0.000389565)
(0.259898 0.131341 -0.000330911)
(0.259813 0.131167 -1.35178e-06)
(0.259766 0.13115 3.78002e-11)
(0.259813 0.131167 1.35184e-06)
(0.259898 0.131341 0.000330911)
(0.300752 0.162804 -0.000250017)
(0.300953 0.16282 -2.98475e-06)
(0.300964 0.162834 7.23613e-11)
(0.300953 0.16282 2.98485e-06)
(0.300752 0.162804 0.000250016)
(0.175354 -0.0679778 -0.000460957)
(0.175218 -0.067617 -1.19236e-06)
(0.175187 -0.0675815 -1.60685e-11)
(0.175218 -0.067617 1.19236e-06)
(0.175354 -0.0679778 0.000460957)
(0.265367 -0.113208 -0.000362738)
(0.265387 -0.11307 -5.81147e-07)
(0.26539 -0.113057 -2.109e-11)
(0.265387 -0.11307 5.81139e-07)
(0.265367 -0.113208 0.000362738)
(0.193785 -0.0746216 -0.000315205)
(0.193634 -0.0743353 1.00082e-06)
(0.193612 -0.0742962 -7.54506e-12)
(0.193634 -0.0743353 -1.00081e-06)
(0.193785 -0.0746216 0.000315205)
(0.235809 -0.048445 0.00165315)
(0.235703 -0.0485554 1.50487e-06)
(0.235689 -0.0485709 -4.11856e-11)
(0.235703 -0.0485554 -1.50493e-06)
(0.235809 -0.048445 -0.00165315)
(0.249 -0.0353394 0.00151231)
(0.248921 -0.0353773 1.01942e-06)
(0.248915 -0.0353861 -1.40316e-10)
(0.248921 -0.0353773 -1.01959e-06)
(0.249 -0.0353394 -0.00151231)
(0.256625 -0.0340845 0.00143678)
(0.256579 -0.0341085 1.03881e-06)
(0.256571 -0.0341176 -5.57505e-10)
(0.256579 -0.0341085 -1.03929e-06)
(0.256625 -0.0340845 -0.00143678)
(-0.0232698 -0.012798 9.32779e-05)
(-0.0232581 -0.0128064 1.21364e-07)
(-0.0232542 -0.0128079 2.81858e-11)
(-0.0232581 -0.0128064 -1.21325e-07)
(-0.0232698 -0.012798 -9.32779e-05)
(-0.0183697 -0.0146429 9.75049e-05)
(-0.0183568 -0.0146542 1.30841e-07)
(-0.0183527 -0.0146556 4.34822e-11)
(-0.0183568 -0.0146542 -1.30784e-07)
(-0.0183697 -0.0146429 -9.7505e-05)
(-0.0281328 0.0164247 8.17267e-05)
(-0.0281175 0.0164311 1.24288e-07)
(-0.0281129 0.0164321 -7.41336e-11)
(-0.0281175 0.0164311 -1.24369e-07)
(-0.0281328 0.0164247 -8.17265e-05)
(-0.0274117 0.0116972 8.74102e-05)
(-0.0273986 0.0116914 1.46965e-07)
(-0.0273941 0.0116911 -8.65748e-12)
(-0.0273986 0.0116914 -1.46989e-07)
(-0.0274117 0.0116972 -8.74102e-05)
(-0.0112494 0.00127487 0.000103698)
(-0.0112353 0.00126467 1.0666e-07)
(-0.0112319 0.00126318 1.56462e-12)
(-0.0112353 0.00126467 -1.06652e-07)
(-0.0112494 0.00127487 -0.000103698)
(-0.0177251 0.000418978 0.000102792)
(-0.017712 0.000426154 1.59216e-07)
(-0.0177078 0.000426281 5.66955e-12)
(-0.017712 0.000426154 -1.592e-07)
(-0.0177251 0.000418978 -0.000102792)
(-0.0132942 -0.0157195 9.97295e-05)
(-0.0132647 -0.0157246 1.4228e-07)
(-0.013259 -0.0157248 2.00892e-11)
(-0.0132647 -0.0157246 -1.42249e-07)
(-0.0132942 -0.0157195 -9.97296e-05)
(-0.0064879 -0.00620753 0.000116587)
(-0.00646691 -0.00620339 1.9057e-07)
(-0.00646344 -0.00620266 8.59259e-12)
(-0.00646691 -0.00620339 -1.9056e-07)
(-0.0064879 -0.00620753 -0.000116587)
(-0.022593 -0.000733657 9.72082e-05)
(-0.0225796 -0.00073895 9.34522e-08)
(-0.0225757 -0.000739904 9.76179e-12)
(-0.0225796 -0.00073895 -9.34327e-08)
(-0.022593 -0.000733657 -9.72083e-05)
(-0.00643699 0.00785287 0.000117041)
(-0.00641737 0.0078413 2.03871e-07)
(-0.00641389 0.00783849 2.19991e-12)
(-0.00641737 0.0078413 -2.03862e-07)
(-0.00643699 0.00785287 -0.000117041)
(-0.0138769 0.00928823 0.00011044)
(-0.0138561 0.00928719 2.55036e-07)
(-0.0138516 0.00928655 -4.47921e-12)
(-0.0138561 0.00928719 -2.55036e-07)
(-0.0138769 0.00928823 -0.00011044)
(-0.0199292 0.00757978 0.00010062)
(-0.0199157 0.00758706 1.32444e-07)
(-0.0199116 0.00758795 1.26475e-12)
(-0.0199157 0.00758706 -1.32441e-07)
(-0.0199292 0.00757978 -0.00010062)
(-0.0230454 0.00551447 0.000101502)
(-0.0230221 0.00551603 2.4331e-07)
(-0.0230169 0.00551624 1.40902e-11)
(-0.0230221 0.00551603 -2.43303e-07)
(-0.0230454 0.00551447 -0.000101502)
(-0.0271194 0.00810699 8.65312e-05)
(-0.0270984 0.00811197 7.64219e-08)
(-0.0270932 0.0081125 1.41613e-11)
(-0.0270984 0.00811197 -7.64193e-08)
(-0.0271194 0.00810699 -8.65312e-05)
(-0.0273823 0.00316818 8.88722e-05)
(-0.0273634 0.0031694 1.12181e-07)
(-0.0273588 0.00316917 1.91989e-11)
(-0.0273634 0.0031694 -1.12161e-07)
(-0.0273823 0.00316818 -8.88722e-05)
(-0.0270868 -0.000449838 9.13471e-05)
(-0.0270802 -0.000447077 1.31894e-07)
(-0.0270773 -0.000447218 1.387e-11)
(-0.0270802 -0.000447077 -1.31871e-07)
(-0.0270868 -0.000449838 -9.13472e-05)
(-0.0133206 0.0170179 9.6564e-05)
(-0.0132963 0.0170189 1.76054e-07)
(-0.0132911 0.0170174 -3.76143e-12)
(-0.0132963 0.0170189 -1.76063e-07)
(-0.0133206 0.0170179 -9.6564e-05)
(-0.0269137 -0.00604329 9.10045e-05)
(-0.0268983 -0.00604839 1.41469e-07)
(-0.0268944 -0.00604945 5.6786e-12)
(-0.0268983 -0.00604839 -1.41457e-07)
(-0.0269137 -0.00604329 -9.10045e-05)
(-0.021656 -0.00684868 9.97177e-05)
(-0.0216351 -0.00684971 1.79944e-07)
(-0.0216305 -0.00685014 1.26789e-11)
(-0.0216351 -0.00684971 -1.79914e-07)
(-0.021656 -0.00684868 -9.97178e-05)
(-0.0156369 -0.0073471 0.000107968)
(-0.0156226 -0.00735194 2.01566e-07)
(-0.0156188 -0.0073524 1.48288e-11)
(-0.0156226 -0.00735194 -2.01536e-07)
(-0.0156369 -0.0073471 -0.000107968)
(-0.0178528 0.0161725 9.59627e-05)
(-0.0178354 0.0161823 1.41098e-07)
(-0.0178305 0.0161828 -2.77522e-11)
(-0.0178354 0.0161823 -1.41129e-07)
(-0.0178528 0.0161725 -9.59627e-05)
(-0.0227939 0.0137323 9.32324e-05)
(-0.0227852 0.0137282 1.38804e-07)
(-0.0227815 0.0137272 -1.47187e-11)
(-0.0227852 0.0137282 -1.38824e-07)
(-0.0227939 0.0137323 -9.32324e-05)
(-0.0277207 -0.0109496 8.69429e-05)
(-0.0277114 -0.0109555 1.12156e-07)
(-0.0277081 -0.0109569 2.89719e-12)
(-0.0277114 -0.0109555 -1.12151e-07)
(-0.0277207 -0.0109496 -8.69429e-05)
(-0.0319513 -0.0095269 7.9369e-05)
(-0.0319426 -0.0095331 1.09175e-07)
(-0.0319394 -0.00953461 -1.75843e-11)
(-0.0319426 -0.0095331 -1.09199e-07)
(-0.0319513 -0.0095269 -7.9369e-05)
(-0.0316326 -0.00532696 8.23504e-05)
(-0.03162 -0.00533058 1.3513e-07)
(-0.0316162 -0.00533156 6.66506e-12)
(-0.03162 -0.00533058 -1.35124e-07)
(-0.0316326 -0.00532696 -8.23505e-05)
(-0.0317342 -0.001259 8.2652e-05)
(-0.031722 -0.0012622 1.1946e-07)
(-0.0317183 -0.00126306 3.25982e-11)
(-0.031722 -0.0012622 -1.19425e-07)
(-0.0317342 -0.001259 -8.2652e-05)
(-0.0319688 0.00279421 8.17413e-05)
(-0.0319597 0.00278926 1.48343e-07)
(-0.0319562 0.00278834 4.07017e-11)
(-0.0319597 0.00278926 -1.48291e-07)
(-0.0319688 0.00279421 -8.17414e-05)
(-0.0322864 0.0071116 8.07524e-05)
(-0.032281 0.00711184 1.51458e-07)
(-0.0322776 0.00711221 1.48135e-11)
(-0.032281 0.00711184 -1.51435e-07)
(-0.0322864 0.0071116 -8.07525e-05)
(-0.0323007 0.0110586 7.86708e-05)
(-0.03229 0.0110646 1.36135e-07)
(-0.0322862 0.0110658 1.51389e-11)
(-0.03229 0.0110646 -1.36116e-07)
(-0.0323007 0.0110586 -7.86708e-05)
(-0.0176793 0.0210898 9.28626e-05)
(-0.0176655 0.0211078 2.20624e-07)
(-0.0176599 0.0211092 -6.49752e-11)
(-0.0176655 0.0211078 -2.20694e-07)
(-0.0176793 0.0210898 -9.28624e-05)
(-0.0203891 0.0203173 9.1416e-05)
(-0.0203691 0.0203272 1.95261e-07)
(-0.0203632 0.0203285 -1.80703e-10)
(-0.0203691 0.0203272 -1.95428e-07)
(-0.0203891 0.0203173 -9.14157e-05)
(-0.02406 0.0184913 8.75666e-05)
(-0.0240394 0.018497 1.71935e-07)
(-0.0240339 0.0184977 -3.95566e-11)
(-0.0240394 0.018497 -1.72003e-07)
(-0.02406 0.0184913 -8.75664e-05)
(-0.0324409 0.0147008 7.47559e-05)
(-0.0324318 0.0147092 1.23877e-07)
(-0.0324281 0.0147107 8.8741e-11)
(-0.0324318 0.0147092 -1.23818e-07)
(-0.0324409 0.0147008 -7.4756e-05)
(-0.0206606 -0.0189717 9.26172e-05)
(-0.0206476 -0.0189828 1.62105e-07)
(-0.0206436 -0.018985 1.90813e-10)
(-0.0206476 -0.0189828 -1.61901e-07)
(-0.0206606 -0.0189717 -9.26176e-05)
(-0.024252 -0.0170616 8.8743e-05)
(-0.0242391 -0.0170678 1.47454e-07)
(-0.0242352 -0.0170694 8.93892e-11)
(-0.0242391 -0.0170678 -1.47344e-07)
(-0.024252 -0.0170616 -8.87432e-05)
(-0.0280704 -0.0150569 8.30631e-05)
(-0.0280584 -0.015061 1.28388e-07)
(-0.0280547 -0.0150624 -1.29849e-11)
(-0.0280584 -0.015061 -1.28403e-07)
(-0.0280704 -0.0150569 -8.3063e-05)
(-0.0319476 -0.0133226 7.606e-05)
(-0.0319369 -0.0133276 1.12727e-07)
(-0.0319335 -0.013329 -4.26781e-11)
(-0.0319369 -0.0133276 -1.12784e-07)
(-0.0319476 -0.0133226 -7.60599e-05)
(-0.0357398 -0.0118447 6.79644e-05)
(-0.0357295 -0.0118494 9.91897e-08)
(-0.0357263 -0.0118507 3.06246e-10)
(-0.0357295 -0.0118494 -9.91278e-08)
(-0.0357398 -0.0118447 -6.79648e-05)
(-0.0358215 -0.0083709 7.09064e-05)
(-0.0358117 -0.00837511 9.94167e-08)
(-0.0358085 -0.00837624 -6.22362e-11)
(-0.0358117 -0.00837511 -9.94818e-08)
(-0.0358215 -0.0083709 -7.09062e-05)
(-0.0355615 -0.00483635 7.31458e-05)
(-0.0355492 -0.00483784 1.10771e-07)
(-0.0355454 -0.00483849 2.68123e-11)
(-0.0355492 -0.00483784 -1.10751e-07)
(-0.0355615 -0.00483635 -7.31458e-05)
(-0.0355456 -0.00124493 7.35951e-05)
(-0.0355341 -0.00124497 1.00142e-07)
(-0.0355305 -0.00124523 1.38314e-10)
(-0.0355341 -0.00124497 -1.00074e-07)
(-0.0355456 -0.00124493 -7.35953e-05)
(-0.0357244 0.00233659 7.29277e-05)
(-0.0357085 0.00233641 1.09076e-07)
(-0.0357041 0.00233643 1.64949e-10)
(-0.0357085 0.00233641 -1.08918e-07)
(-0.0357244 0.00233659 -7.2928e-05)
(-0.0360501 0.00596476 7.16861e-05)
(-0.0360347 0.00596393 9.76802e-08)
(-0.0360304 0.00596416 -3.59185e-12)
(-0.0360347 0.00596393 -9.76569e-08)
(-0.0360501 0.00596476 -7.16862e-05)
(-0.0363535 0.00950682 6.93764e-05)
(-0.0363412 0.00950725 1.1301e-07)
(-0.0363372 0.0095077 -1.6781e-11)
(-0.0363412 0.00950725 -1.13024e-07)
(-0.0363535 0.00950682 -6.93764e-05)
(-0.0364961 0.0129503 6.58449e-05)
(-0.0364859 0.0129555 1.03467e-07)
(-0.0364821 0.0129566 -7.80524e-11)
(-0.0364859 0.0129555 -1.03526e-07)
(-0.0364961 0.0129503 -6.58447e-05)
(-0.0176872 -0.0198524 9.40464e-05)
(-0.0176774 -0.019869 1.78746e-07)
(-0.0176736 -0.0198712 5.79178e-11)
(-0.0176774 -0.019869 -1.78649e-07)
(-0.0176872 -0.0198524 -9.40466e-05)
(-0.0360535 0.0163847 6.1461e-05)
(-0.0360448 0.0163917 9.85549e-08)
(-0.0360412 0.0163934 -5.69854e-10)
(-0.0360448 0.0163917 -9.87423e-08)
(-0.0360535 0.0163847 -6.14602e-05)
(-0.0320413 0.0183268 6.97502e-05)
(-0.0320327 0.0183386 1.13567e-07)
(-0.0320291 0.0183411 7.11863e-10)
(-0.0320327 0.0183386 -1.13322e-07)
(-0.0320413 0.0183268 -6.97511e-05)
(-0.0280998 0.0203305 7.64007e-05)
(-0.0280905 0.0203414 1.24671e-07)
(-0.0280869 0.0203436 -5.32899e-10)
(-0.0280905 0.0203414 -1.24938e-07)
(-0.0280998 0.0203305 -7.63999e-05)
(-0.0248108 0.0221266 8.1447e-05)
(-0.024803 0.0221424 1.28592e-07)
(-0.0247992 0.022145 1.41625e-10)
(-0.024803 0.0221424 -1.28679e-07)
(-0.0248108 0.0221266 -8.1447e-05)
(-0.0223191 0.0236784 8.39698e-05)
(-0.0223147 0.023697 1.22887e-07)
(-0.022311 0.0236998 -1.37456e-09)
(-0.0223147 0.023697 -1.23517e-07)
(-0.0223191 0.0236784 -8.39678e-05)
(-0.0205995 0.0240161 8.44586e-05)
(-0.0206028 0.0240356 1.15187e-07)
(-0.0206002 0.0240381 -1.94464e-10)
(-0.0206028 0.0240356 -1.15353e-07)
(-0.0205995 0.0240161 -8.44583e-05)
(-0.0199451 -0.0224196 8.83208e-05)
(-0.0199461 -0.0224377 1.00757e-07)
(-0.0199443 -0.0224406 1.11225e-10)
(-0.0199461 -0.0224377 -1.00577e-07)
(-0.0199451 -0.0224196 -8.83211e-05)
(-0.0218086 -0.0220846 8.73185e-05)
(-0.0218067 -0.022101 1.09666e-07)
(-0.0218044 -0.0221042 1.14939e-09)
(-0.0218067 -0.022101 -1.09032e-07)
(-0.0218086 -0.0220846 -8.73203e-05)
(-0.0244513 -0.020476 8.39991e-05)
(-0.0244467 -0.0204891 1.17475e-07)
(-0.024444 -0.0204921 3.13473e-10)
(-0.0244467 -0.0204891 -1.17177e-07)
(-0.0244513 -0.020476 -8.39997e-05)
(-0.0276864 -0.0186186 7.8772e-05)
(-0.0276783 -0.0186292 1.14404e-07)
(-0.0276753 -0.0186319 -1.35233e-10)
(-0.0276783 -0.0186292 -1.14501e-07)
(-0.0276864 -0.0186186 -7.87718e-05)
(-0.0312598 -0.0168677 7.21263e-05)
(-0.0312505 -0.0168769 1.04112e-07)
(-0.0312474 -0.0168793 -4.8303e-10)
(-0.0312505 -0.0168769 -1.04376e-07)
(-0.0312598 -0.0168677 -7.21256e-05)
(-0.035007 -0.0152532 6.43327e-05)
(-0.0349977 -0.015261 9.20665e-08)
(-0.0349947 -0.015263 -6.66734e-10)
(-0.0349977 -0.015261 -9.23749e-08)
(-0.035007 -0.0152532 -6.43317e-05)
(-0.0386589 -0.0138547 5.57372e-05)
(-0.0386501 -0.0138609 7.82885e-08)
(-0.0386473 -0.0138626 -5.1131e-11)
(-0.0386501 -0.0138609 -7.83508e-08)
(-0.0386589 -0.0138547 -5.57371e-05)
(-0.0393249 -0.0105319 5.92861e-05)
(-0.0393155 -0.0105367 8.45707e-08)
(-0.0393125 -0.0105379 9.4152e-11)
(-0.0393155 -0.0105367 -8.45812e-08)
(-0.0393249 -0.0105319 -5.92862e-05)
(-0.0392926 -0.00736251 6.21061e-05)
(-0.0392834 -0.00736704 8.85812e-08)
(-0.0392804 -0.00736816 -7.92554e-10)
(-0.0392834 -0.00736704 -8.89272e-08)
(-0.0392926 -0.00736251 -6.21049e-05)
(-0.039002 -0.00427757 6.404e-05)
(-0.0389919 -0.00427958 9.97868e-08)
(-0.0389886 -0.0042803 1.20794e-10)
(-0.0389919 -0.00427958 -9.97462e-08)
(-0.039002 -0.00427757 -6.40402e-05)
(-0.0388984 -0.00122302 6.45763e-05)
(-0.038889 -0.00122265 9.53574e-08)
(-0.0388859 -0.00122296 -5.63614e-10)
(-0.038889 -0.00122265 -9.55098e-08)
(-0.0388984 -0.00122302 -6.45756e-05)
(-0.0390742 0.00184509 6.38944e-05)
(-0.0390638 0.00184426 9.59592e-08)
(-0.0390605 0.00184416 1.00722e-09)
(-0.0390638 0.00184426 -9.55167e-08)
(-0.0390742 0.00184509 -6.38959e-05)
(-0.0394544 0.00501362 6.2803e-05)
(-0.0394462 0.00501174 9.65291e-08)
(-0.0394432 0.00501195 -2.51467e-10)
(-0.0394462 0.00501174 -9.65404e-08)
(-0.0394544 0.00501362 -6.28027e-05)
(-0.0399571 0.00814662 6.04524e-05)
(-0.039947 0.0081476 1.0385e-07)
(-0.0399437 0.00814828 -5.64151e-11)
(-0.039947 0.0081476 -1.0389e-07)
(-0.0399571 0.00814662 -6.04523e-05)
(-0.0402678 0.0113179 5.70373e-05)
(-0.0402585 0.0113229 9.54954e-08)
(-0.0402553 0.0113242 1.42084e-11)
(-0.0402585 0.0113229 -9.54956e-08)
(-0.0402678 0.0113179 -5.70373e-05)
(-0.0181925 -0.019992 8.61567e-05)
(-0.0182013 -0.0200024 8.49844e-08)
(-0.0181999 -0.0200029 2.82117e-11)
(-0.0182013 -0.0200024 -8.49395e-08)
(-0.0181925 -0.019992 -8.61568e-05)
(-0.0399809 0.0145765 5.25805e-05)
(-0.0399721 0.014583 8.74845e-08)
(-0.0399689 0.0145846 7.49241e-10)
(-0.0399721 0.014583 -8.71768e-08)
(-0.0399809 0.0145765 -5.25815e-05)
(0.173243 -0.0327219 0.00233343)
(0.172999 -0.0327193 1.92784e-06)
(0.172983 -0.0327218 -5.93184e-11)
(0.172999 -0.0327193 -1.92793e-06)
(0.173243 -0.0327219 -0.00233343)
(0.170598 -0.00714109 0.00238166)
(0.170326 -0.00714968 2.39194e-06)
(0.170306 -0.00715175 -5.04793e-11)
(0.170326 -0.00714968 -2.39202e-06)
(0.170598 -0.00714109 -0.00238166)
(0.172882 -0.0574366 0.00232135)
(0.172524 -0.0575761 3.01323e-06)
(0.172499 -0.0575919 -6.93047e-11)
(0.172524 -0.0575761 -3.01333e-06)
(0.172882 -0.0574366 -0.00232135)
(0.15521 0.00853117 0.0024817)
(0.154921 0.00838263 2.16726e-06)
(0.154901 0.00836729 -2.60496e-11)
(0.154921 0.00838263 -2.1673e-06)
(0.15521 0.00853117 -0.0024817)
(0.190001 0.0155443 0.00224574)
(0.189828 0.0155156 1.93765e-06)
(0.189816 0.0155166 -2.42344e-11)
(0.189828 0.0155156 -1.93769e-06)
(0.190001 0.0155443 -0.00224574)
(0.19165 -0.00412175 0.00221356)
(0.191477 -0.00414079 1.74795e-06)
(0.19146 -0.00414184 -4.38411e-11)
(0.191477 -0.00414079 -1.74802e-06)
(0.19165 -0.00412175 -0.00221356)
(0.19061 -0.0258489 0.00220821)
(0.190464 -0.0259035 1.90957e-06)
(0.190452 -0.0259115 -4.97423e-11)
(0.190464 -0.0259035 -1.90965e-06)
(0.19061 -0.0258489 -0.00220821)
(0.196153 -0.0381424 0.00211618)
(0.195931 -0.0382709 1.7623e-06)
(0.195917 -0.0382857 -5.74248e-11)
(0.195931 -0.0382709 -1.76238e-06)
(0.196153 -0.0381424 -0.00211618)
(0.207638 -0.0248363 0.00204175)
(0.20756 -0.0248437 1.47487e-06)
(0.207547 -0.0248482 -5.18842e-11)
(0.20756 -0.0248437 -1.47495e-06)
(0.207638 -0.0248363 -0.00204175)
(0.145275 0.0488752 0.00256076)
(0.144859 0.0490047 3.43461e-06)
(0.144826 0.0490134 -1.06122e-11)
(0.144859 0.0490047 -3.43462e-06)
(0.145275 0.0488752 -0.00256076)
(0.185673 0.0412578 0.00224975)
(0.185394 0.0414059 2.30861e-06)
(0.185372 0.0414232 -5.2933e-12)
(0.185394 0.0414059 -2.30862e-06)
(0.185673 0.0412578 -0.00224975)
(0.210516 0.029606 0.00199867)
(0.210357 0.0296344 2.01904e-06)
(0.210339 0.029639 -4.88465e-12)
(0.210357 0.0296344 -2.01906e-06)
(0.210516 0.029606 -0.00199867)
(0.085181 0.0722975 0.00284987)
(0.0844867 0.0726267 2.83402e-06)
(0.0844604 0.0726495 -1.35446e-11)
(0.0844867 0.0726267 -2.83404e-06)
(0.085181 0.0722975 -0.00284987)
(0.198054 -0.0811993 0.00198511)
(0.197865 -0.0814874 9.80713e-07)
(0.197851 -0.081523 -7.84821e-11)
(0.197865 -0.0814874 -9.80845e-07)
(0.198054 -0.0811993 -0.00198511)
(0.175203 -0.11532 0.0020566)
(0.175207 -0.115586 4.25893e-07)
(0.175214 -0.115614 -1.04158e-10)
(0.175207 -0.115586 -4.26091e-07)
(0.175203 -0.11532 -0.0020566)
(0.146102 -0.142222 0.00200513)
(0.14621 -0.142571 -1.54614e-06)
(0.146218 -0.142616 -4.97207e-11)
(0.14621 -0.142571 1.54606e-06)
(0.146102 -0.142222 -0.00200513)
(0.212234 -0.0571988 0.00193327)
(0.212223 -0.0573586 6.3008e-07)
(0.212227 -0.0573753 -6.11391e-11)
(0.212223 -0.0573586 -6.30167e-07)
(0.212234 -0.0571988 -0.00193327)
(0.229019 -0.065928 0.00167098)
(0.229037 -0.0659785 3.69706e-07)
(0.229041 -0.0659899 -5.30974e-11)
(0.229037 -0.0659785 -3.69784e-07)
(0.229019 -0.065928 -0.00167098)
(0.220241 -0.0869433 0.00171257)
(0.220093 -0.0870711 1.24325e-06)
(0.220081 -0.0870997 -1.36107e-10)
(0.220093 -0.0870711 -1.24348e-06)
(0.220241 -0.0869433 -0.00171257)
(0.203394 -0.118125 0.00171971)
(0.203315 -0.118176 1.05265e-06)
(0.203314 -0.118191 -3.80095e-10)
(0.203315 -0.118176 -1.05328e-06)
(0.203394 -0.118125 -0.0017197)
(0.221427 -0.0395466 0.00187291)
(0.221355 -0.0396206 1.54836e-06)
(0.221339 -0.039634 -6.16344e-11)
(0.221355 -0.0396206 -1.54845e-06)
(0.221427 -0.0395466 -0.00187291)
(0.234322 -0.0262927 0.00174659)
(0.234167 -0.0263647 1.7133e-06)
(0.234154 -0.0263764 -1.03947e-10)
(0.234167 -0.0263647 -1.71346e-06)
(0.234322 -0.0262927 -0.00174659)
(0.231499 0.0244428 0.00178229)
(0.23137 0.0244801 1.58415e-06)
(0.231354 0.0244889 -2.71974e-11)
(0.23137 0.0244801 -1.58421e-06)
(0.231499 0.0244428 -0.00178229)
(-0.0189366 0.0213842 8.10666e-05)
(-0.0189469 0.0213951 7.18829e-08)
(-0.0189444 0.021395 -1.24221e-11)
(-0.0189469 0.0213951 -7.1896e-08)
(-0.0189366 0.0213842 -8.10665e-05)
(0.191741 0.0828588 0.0020984)
(0.191707 0.0830459 1.15431e-06)
(0.191716 0.083062 2.4969e-12)
(0.191707 0.0830459 -1.15431e-06)
(0.191741 0.0828588 -0.0020984)
(0.199877 0.0676436 0.00197538)
(0.199763 0.067786 7.15455e-07)
(0.199746 0.0678097 4.6045e-12)
(0.199763 0.067786 -7.15453e-07)
(0.199877 0.0676436 -0.00197538)
(0.223175 0.0497805 0.00183892)
(0.223134 0.049856 1.36505e-06)
(0.223132 0.049868 2.52536e-12)
(0.223134 0.049856 -1.36505e-06)
(0.223175 0.0497805 -0.00183892)
(0.23588 0.0409361 0.00167404)
(0.235779 0.0410129 1.14248e-06)
(0.235765 0.0410271 -7.63552e-12)
(0.235779 0.0410129 -1.14249e-06)
(0.23588 0.0409361 -0.00167404)
(0.154888 0.121956 0.0020614)
(0.154587 0.122431 1.19968e-07)
(0.154553 0.122479 -1.61442e-12)
(0.154587 0.122431 -1.1997e-07)
(0.154888 0.121956 -0.0020614)
(-0.0145086 -0.0138783 8.10686e-05)
(-0.0145266 -0.0138569 4.56323e-08)
(-0.014525 -0.0138508 1.20552e-11)
(-0.0145266 -0.0138569 -4.56322e-08)
(-0.0145086 -0.0138783 -8.10686e-05)
(0.244674 0.0063558 0.00164227)
(0.244582 0.00633779 1.48993e-06)
(0.244569 0.00633679 -9.30483e-11)
(0.244582 0.00633779 -1.4901e-06)
(0.244674 0.0063558 -0.00164227)
(0.246674 0.020064 0.00160013)
(0.246573 0.020084 1.51909e-06)
(0.24656 0.020088 -1.35499e-10)
(0.246573 0.020084 -1.51929e-06)
(0.246674 0.020064 -0.00160013)
(0.251433 0.0323613 0.0015179)
(0.251358 0.0324194 1.39111e-06)
(0.251351 0.0324287 4.87335e-11)
(0.251358 0.0324194 -1.39109e-06)
(0.251433 0.0323613 -0.0015179)
(-0.0150927 0.0151837 7.53118e-05)
(-0.0151181 0.0151597 5.1224e-08)
(-0.0151154 0.0151533 5.8565e-11)
(-0.0151181 0.0151597 -5.11636e-08)
(-0.0150927 0.0151837 -7.5312e-05)
(-0.0196883 -0.0209887 8.61492e-05)
(-0.0196901 -0.0209807 1.27096e-07)
(-0.0196884 -0.0209788 1.80703e-11)
(-0.0196901 -0.0209807 -1.2707e-07)
(-0.0196883 -0.0209887 -8.61492e-05)
(-0.020212 -0.0235249 8.63511e-05)
(-0.0202086 -0.0235242 1.15527e-07)
(-0.0202063 -0.0235242 1.83042e-11)
(-0.0202086 -0.0235242 -1.15441e-07)
(-0.020212 -0.0235249 -8.63512e-05)
(-0.0212573 -0.0238739 8.41404e-05)
(-0.0212534 -0.0238752 1.01704e-07)
(-0.0212508 -0.0238757 1.90382e-10)
(-0.0212534 -0.0238752 -1.01342e-07)
(-0.0212573 -0.0238739 -8.41409e-05)
(-0.0232669 -0.0230178 8.01061e-05)
(-0.0232619 -0.0230189 9.54709e-08)
(-0.0232591 -0.0230194 1.05912e-09)
(-0.0232619 -0.0230189 -9.49493e-08)
(-0.0232669 -0.0230178 -8.01077e-05)
(-0.0260871 -0.0216939 7.45958e-05)
(-0.0260799 -0.0216948 8.39618e-08)
(-0.0260771 -0.0216954 -8.09123e-10)
(-0.0260799 -0.0216948 -8.4253e-08)
(-0.0260871 -0.0216939 -7.45947e-05)
(-0.0294467 -0.0202562 6.78562e-05)
(-0.029439 -0.0202567 7.54917e-08)
(-0.0294363 -0.0202573 9.58873e-11)
(-0.029439 -0.0202567 -7.54901e-08)
(-0.0294467 -0.0202562 -6.78563e-05)
(-0.0330672 -0.0188326 6.00928e-05)
(-0.0330599 -0.0188341 6.82544e-08)
(-0.0330573 -0.0188349 8.02098e-11)
(-0.0330599 -0.0188341 -6.81668e-08)
(-0.0330672 -0.0188326 -6.0093e-05)
(-0.0367733 -0.0173982 5.16295e-05)
(-0.0367666 -0.0173999 6.23636e-08)
(-0.0367642 -0.0174008 1.93488e-11)
(-0.0367666 -0.0173999 -6.23326e-08)
(-0.0367733 -0.0173982 -5.16295e-05)
(-0.0404494 -0.0158781 4.28638e-05)
(-0.0404443 -0.0158804 5.46106e-08)
(-0.0404421 -0.0158814 1.09647e-11)
(-0.0404443 -0.0158804 -5.45983e-08)
(-0.0404494 -0.0158781 -4.28638e-05)
(-0.0421454 -0.0124423 4.71619e-05)
(-0.0421386 -0.0124471 6.47957e-08)
(-0.0421361 -0.0124486 -3.66928e-12)
(-0.0421386 -0.0124471 -6.48014e-08)
(-0.0421454 -0.0124423 -4.71619e-05)
(-0.0425926 -0.00932706 5.06652e-05)
(-0.0425848 -0.00933138 7.23874e-08)
(-0.0425821 -0.0093325 3.66964e-12)
(-0.0425848 -0.00933138 -7.2388e-08)
(-0.0425926 -0.00932706 -5.06652e-05)
(-0.0423536 -0.00644782 5.33497e-05)
(-0.0423452 -0.00645149 7.749e-08)
(-0.0423423 -0.00645241 -1.89527e-11)
(-0.0423452 -0.00645149 -7.74832e-08)
(-0.0423536 -0.00644782 -5.33497e-05)
(-0.0419455 -0.00375373 5.50084e-05)
(-0.0419358 -0.00375515 8.53953e-08)
(-0.0419326 -0.00375571 9.39307e-10)
(-0.0419358 -0.00375515 -8.49684e-08)
(-0.0419455 -0.00375373 -5.50098e-05)
(-0.0417414 -0.00114969 5.55346e-05)
(-0.0417322 -0.00114952 8.13891e-08)
(-0.041729 -0.00114977 -3.56644e-11)
(-0.0417322 -0.00114952 -8.13465e-08)
(-0.0417414 -0.00114969 -5.55346e-05)
(-0.041911 0.00149881 5.50131e-05)
(-0.0419019 0.00149748 8.12778e-08)
(-0.0418986 0.0014974 6.5609e-11)
(-0.0419019 0.00149748 -8.11414e-08)
(-0.041911 0.00149881 -5.50133e-05)
(-0.0424006 0.00420752 5.39768e-05)
(-0.0423913 0.00420626 8.70521e-08)
(-0.042388 0.00420652 6.208e-10)
(-0.0423913 0.00420626 -8.67836e-08)
(-0.0424006 0.00420752 -5.39777e-05)
(-0.0430974 0.00689165 5.16822e-05)
(-0.0430867 0.00689324 8.81693e-08)
(-0.0430834 0.0068939 -2.0032e-10)
(-0.0430867 0.00689324 -8.82675e-08)
(-0.0430974 0.00689165 -5.16819e-05)
(-0.0436417 0.00975811 4.83324e-05)
(-0.0436315 0.00976236 8.25585e-08)
(-0.0436283 0.00976342 -6.63548e-10)
(-0.0436315 0.00976236 -8.28711e-08)
(-0.0436417 0.00975811 -4.83314e-05)
(-0.0435698 0.0128045 4.39262e-05)
(-0.0435604 0.0128098 7.5943e-08)
(-0.0435573 0.0128111 -5.04186e-12)
(-0.0435604 0.0128098 -7.59539e-08)
(-0.0435698 0.0128045 -4.39262e-05)
(-0.0423655 0.0161 3.86322e-05)
(-0.0423564 0.0161057 6.99861e-08)
(-0.0423535 0.016107 4.30885e-12)
(-0.0423564 0.0161057 -6.99695e-08)
(-0.0423655 0.0161 -3.86322e-05)
(-0.0386062 0.0179556 4.76119e-05)
(-0.0385986 0.0179606 7.6569e-08)
(-0.0385956 0.0179617 -3.74176e-11)
(-0.0385986 0.0179606 -7.65058e-08)
(-0.0386062 0.0179556 -4.76119e-05)
(-0.0346961 0.0197381 5.64263e-05)
(-0.0346907 0.019741 8.21061e-08)
(-0.0346877 0.0197419 -7.39521e-11)
(-0.0346907 0.019741 -8.20923e-08)
(-0.0346961 0.0197381 -5.64262e-05)
(-0.0306424 0.021653 6.42435e-05)
(-0.0306375 0.0216544 7.69162e-08)
(-0.0306345 0.0216551 -8.17931e-11)
(-0.0306375 0.0216544 -7.70236e-08)
(-0.0306424 0.021653 -6.42433e-05)
(-0.0269378 0.0233916 7.10855e-05)
(-0.0269294 0.0233918 9.11719e-08)
(-0.0269259 0.0233919 -2.21843e-10)
(-0.0269294 0.0233918 -9.14306e-08)
(-0.0269378 0.0233916 -7.1085e-05)
(-0.0240464 0.024747 7.64168e-05)
(-0.0240369 0.0247462 1.05699e-07)
(-0.024033 0.0247459 5.04699e-11)
(-0.0240369 0.0247462 -1.05694e-07)
(-0.0240464 0.024747 -7.64168e-05)
(-0.0221374 0.0254733 8.00259e-05)
(-0.0221289 0.0254703 1.22373e-07)
(-0.0221248 0.0254696 6.08564e-12)
(-0.0221289 0.0254703 -1.22471e-07)
(-0.0221374 0.0254733 -8.00258e-05)
(-0.0210555 0.0250575 8.19743e-05)
(-0.0210526 0.0250504 1.38714e-07)
(-0.0210492 0.0250489 1.18124e-10)
(-0.0210526 0.0250504 -1.38577e-07)
(-0.0210555 0.0250575 -8.19746e-05)
(-0.0203208 0.0221417 8.16107e-05)
(-0.0203172 0.0221236 1.37082e-07)
(-0.0203136 0.0221195 2.39361e-11)
(-0.0203172 0.0221236 -1.3704e-07)