/*--------------------------------*- C++ -*----------------------------------*\
| =========                 |                                                 |
| \\      /  F ield         | OpenFOAM: The Open Source CFD Toolbox           |
|  \\    /   O peration     | Version:  v1806                                 |
|   \\  /    A nd           | Web:      www.OpenFOAM.com                      |
|    \\/     M anipulation  |                                                 |
\*---------------------------------------------------------------------------*/
FoamFile
{
    version     2.0;
    format      ascii;
    class       surfaceScalarField;
    location    "390";
    object      phi;
}
// * * * * * * * * * * * * * * * * * * * * * * * * * * * * * * * * * * * * * //

dimensions      [0 3 -1 0 0 0 0];
oriented        oriented;


internalField   nonuniform List<scalar> 
4680
(
0.0750003
-0.000229073
0.0750013
-0.000686938
0.0750033
-0.00114365
0.0750063
-0.00159784
0.0750109
-0.00204827
0.0750173
-0.00249345
0.0750261
-0.00293154
0.0750378
-0.00336034
0.075053
-0.00377723
0.0750724
-0.00417911
0.0750968
-0.00456246
0.075127
-0.00492333
0.0751635
-0.0052574
0.0752072
-0.00556009
0.0752585
-0.00582672
0.0753177
-0.00605266
0.0753851
-0.00623354
0.0754604
-0.00636552
0.075543
-0.00644542
-0.00647204
0.0756343
0.0750008
-0.000229862
0.0750032
-0.000689353
0.0750074
-0.00114784
0.0750137
-0.00160417
0.0750227
-0.00205725
0.075035
-0.00250571
0.0750513
-0.00294786
0.0750725
-0.0033816
0.0750997
-0.0038044
0.0751338
-0.00421322
0.0751759
-0.00460455
0.0752269
-0.00497438
0.0752878
-0.00531827
0.0753592
-0.00563146
0.0754414
-0.00590897
0.0755346
-0.00614581
0.0756382
-0.00633716
0.0757515
-0.00647877
0.075873
-0.006567
-0.00659961
0.0760006
0.0750012
-0.000231081
0.0750049
-0.000693051
0.0750113
-0.00115425
0.075021
-0.00161383
0.0750346
-0.00207089
0.0750532
-0.0025243
0.0750779
-0.00297253
0.0751099
-0.00341366
0.0751508
-0.00384527
0.075202
-0.00426438
0.0752649
-0.00466748
0.075341
-0.00505046
0.0754314
-0.00540866
0.0755369
-0.00573698
0.0756579
-0.00602996
0.0757941
-0.00628205
0.0759446
-0.00648769
0.0761078
-0.00664192
0.076281
-0.00674022
-0.00677958
0.076461
0.0750015
-0.000232617
0.0750062
-0.000697715
0.0750143
-0.00116238
0.0750266
-0.00162613
0.0750441
-0.00208839
0.0750681
-0.00254829
0.0751002
-0.00300458
0.0751421
-0.00345555
0.0751957
-0.00389894
0.0752633
-0.00433189
0.0753466
-0.00475085
0.0754478
-0.00515159
0.0755682
-0.00552914
0.0757092
-0.00587794
0.0758711
-0.00619185
0.0760535
-0.00646447
0.076255
-0.00668922
0.0764732
-0.00686008
0.0767043
-0.00697134
-0.00701919
0.0769439
0.0750017
-0.000234318
0.0750069
-0.000702898
0.075016
-0.00117147
0.0750299
-0.00164005
0.0750499
-0.00210844
0.0750778
-0.00257616
0.0751155
-0.00304227
0.0751654
-0.0035054
0.0752299
-0.0039635
0.0753119
-0.00441388
0.075414
-0.00485298
0.0755389
-0.00527646
0.0756887
-0.00567895
0.0758651
-0.00605431
0.0760687
-0.00639549
0.0762993
-0.006695
0.0765549
-0.00694483
0.0768323
-0.0071375
0.0771266
-0.00726565
-0.00732424
0.0774317
0.0750017
-0.000235988
0.0750068
-0.000708008
0.0750159
-0.00118055
0.07503
-0.00165423
0.0750509
-0.00212932
0.0750806
-0.00260583
0.0751216
-0.00308325
0.0751768
-0.00356063
0.0752495
-0.00403623
0.0753433
-0.00450765
0.0754617
-0.00497136
0.0756082
-0.00542294
0.0757858
-0.00585659
0.075997
-0.00626551
0.076243
-0.00664148
0.0765236
-0.00697561
0.0768367
-0.00725799
0.0771784
-0.00747915
0.0775422
-0.00762941
-0.00770196
0.0779199
0.0750014
-0.000237385
0.0750057
-0.000712319
0.0750136
-0.0011884
0.0750263
-0.00166698
0.0750459
-0.00214889
0.0750748
-0.00263472
0.075116
-0.00312451
0.0751733
-0.0036179
0.0752506
-0.00411356
0.0753525
-0.00460957
0.0754837
-0.00510247
0.0756487
-0.005588
0.0758519
-0.00605975
0.0760967
-0.00651037
0.0763854
-0.00693012
0.0767182
-0.00730846
0.0770931
-0.00763289
0.0775053
-0.00789131
0.0779467
-0.00807077
-0.0081619
0.0784066
0.0750008
-0.000238221
0.0750035
-0.000714964
0.0750087
-0.0011936
0.075018
-0.00167628
0.0750336
-0.00216451
0.0750585
-0.00265964
0.0750963
-0.00316231
0.0751514
-0.00367301
0.0752288
-0.0041909
0.0753341
-0.0047149
0.0754732
-0.00524161
0.0756526
-0.00576737
0.0758778
-0.00628495
0.0761543
-0.00678687
0.0764854
-0.0072612
0.0768727
-0.00769578
0.0773143
-0.00807453
0.0778049
-0.00838189
0.0783345
-0.00860036
-0.00871675
0.0788893
0.0749999
-0.000238162
0.0749999
-0.000714943
0.0750008
-0.00119445
0.0750043
-0.00167977
0.0750129
-0.00217311
0.07503
-0.00267677
0.0750598
-0.00319211
0.0751076
-0.00372078
0.0751791
-0.00426243
0.0752817
-0.0048175
0.0754225
-0.00538241
0.0756103
-0.00595517
0.0758523
-0.00652697
0.076157
-0.00709158
0.0765292
-0.00763338
0.0769731
-0.00813968
0.0774872
-0.00858862
0.0780661
-0.0089608
0.0786978
-0.00923204
-0.00938332
0.0793644
0.0749987
-0.000236836
0.0749949
-0.000711137
0.0749895
-0.00118908
0.0749845
-0.00167475
0.0749825
-0.00217114
0.0749874
-0.00268169
0.0750038
-0.0032085
0.0750379
-0.00375489
0.0750964
-0.00432094
0.0751885
-0.00490954
0.0753225
-0.00551645
0.0755107
-0.00614334
0.0757618
-0.00677806
0.0760893
-0.00741911
0.0764992
-0.00804327
0.0770012
-0.00864171
0.0775937
-0.00918112
0.0782734
-0.00964045
0.0790254
-0.00998401
-0.0101842
0.0798262
0.074997
-0.00023384
0.0749882
-0.000702335
0.0749746
-0.00117543
0.0749581
-0.00165826
0.0749416
-0.00215463
0.0749292
-0.00266933
0.0749259
-0.00320523
0.0749389
-0.00376787
0.0749755
-0.00435757
0.0750472
-0.00498119
0.0751634
-0.00563268
0.0753411
-0.00632099
0.0755898
-0.00702686
0.0759319
-0.00776116
0.0763724
-0.00848379
0.0769332
-0.00920246
0.077609
-0.00985694
0.0784052
-0.0104366
0.0793014
-0.0108802
-0.0111501
0.0802673
0.0749949
-0.000228759
0.0749799
-0.000687277
0.0749558
-0.00115135
0.0749247
-0.00162716
0.0748894
-0.00211933
0.0748542
-0.00263415
0.0748242
-0.00317524
0.0748074
-0.00375101
0.0748115
-0.00436175
0.0748506
-0.00502024
0.0749348
-0.00571687
0.0750873
-0.00647349
0.0753174
-0.00725695
0.0756615
-0.0081053
0.0761193
-0.00894153
0.0767381
-0.00982127
0.0774977
-0.0106165
0.0784316
-0.0113706
0.0795019
-0.0119505
-0.0123248
0.0806766
0.0749924
-0.000221182
0.0749699
-0.000664719
0.0749332
-0.0011147
0.0748843
-0.00157828
0.0748259
-0.00206084
0.074762
-0.00257026
0.0746976
-0.00311093
0.0746412
-0.00369456
0.0746007
-0.0043213
0.0745923
-0.00501181
0.0746267
-0.00575123
0.0747345
-0.00658128
0.074923
-0.00744545
0.0752503
-0.00843259
0.0757019
-0.00939316
0.0763762
-0.0104956
0.077209
-0.0114493
0.0783136
-0.0124753
0.0795883
-0.0132251
-0.0137734
0.0810369
0.0749896
-0.000210737
0.0749584
-0.000633522
0.0749072
-0.0010635
0.0748375
-0.00150861
0.0747516
-0.00197494
0.0746531
-0.00247179
0.0745466
-0.00300445
0.0744401
-0.003588
0.0743415
-0.00422274
0.074268
-0.00493828
0.074231
-0.0057142
0.0742679
-0.00661825
0.0743846
-0.00756207
0.0746651
-0.00871313
0.0750736
-0.00980171
0.0757944
-0.0112164
0.0766686
-0.0123234
0.0780028
-0.0138096
0.0794935
-0.0147158
-0.0156054
0.0813254
0.0749864
-0.00019712
0.0749456
-0.000592757
0.0748782
-0.000996111
0.0747852
-0.00141559
0.0746681
-0.00185789
0.0745297
-0.00233336
0.0743736
-0.00284836
0.0742063
-0.00342072
0.0740356
-0.00405196
0.0738771
-0.00477978
0.0737439
-0.005581
0.0736756
-0.00655
0.0736823
-0.00756879
0.0738682
-0.00889902
0.0741828
-0.0101163
0.0749156
-0.0119492
0.0757698
-0.0131775
0.0774276
-0.0154673
0.0790917
-0.0163799
-0.0180614
0.0815477
0.074983
-0.000180138
0.0749321
-0.000541828
0.0748474
-0.000911418
0.0747292
-0.00129741
0.0745782
-0.00170689
0.0743956
-0.00215069
0.0741835
-0.0026363
0.0739459
-0.00318316
0.0736893
-0.0037953
0.0734252
-0.00451566
0.0731684
-0.00532429
0.0729529
-0.00633446
0.0728022
-0.00741808
0.0728194
-0.0089162
0.0729801
-0.010277
0.0736294
-0.0125985
0.0743842
-0.0139323
0.0764274
-0.0175105
0.0781391
-0.0180916
-0.0217821
0.0818598
0.0749796
-0.000159749
0.0749184
-0.000480582
0.074816
-0.000809071
0.074672
-0.00115337
0.0744857
-0.00152062
0.0742564
-0.00192139
0.0739842
-0.00236407
0.0736693
-0.00286827
0.0733153
-0.00344129
0.0729269
-0.00412731
0.0725186
-0.00491594
0.07211
-0.0059259
0.0717424
-0.00705043
0.0714866
-0.00866043
0.0714137
-0.0102042
0.071792
-0.0129768
0.072411
-0.0145513
0.0746515
-0.019751
0.076239
-0.0196791
-0.0281316
0.0825885
0.0749764
-0.000136099
0.0749052
-0.00040941
0.0747858
-0.000689651
0.0746166
-0.000984164
0.0743956
-0.00129967
0.0741198
-0.00164564
0.0737866
-0.0020308
0.0733916
-0.00247327
0.0729335
-0.00298324
0.0724083
-0.00360206
0.0718238
-0.00433146
0.071181
-0.00528306
0.0705253
-0.00639474
0.0698798
-0.00801495
0.0694144
-0.00973878
0.0692487
-0.0128112
0.0697186
-0.0150212
0.0716014
-0.0216338
0.0734001
-0.0214778
-0.0381782
0.0834467
0.0749735
-0.000109587
0.0748934
-0.000329283
0.0747585
-0.0005548
0.0745665
-0.000792119
0.0743138
-0.00104699
0.0739949
-0.00132678
0.0736042
-0.00164007
0.0731323
-0.00200132
0.0725716
-0.0024226
0.0719072
-0.00293765
0.0711346
-0.00355887
0.0702311
-0.00437954
0.0692215
-0.00538518
0.0680775
-0.00687095
0.0669778
-0.00863903
0.0659149
-0.0117483
0.0658054
-0.0149117
0.0664468
-0.0222752
0.070663
-0.025694
-0.0486345
0.0811193
0.0749713
-8.08978e-05
0.0748836
-0.000241605
0.0747361
-0.000407271
0.0745252
-0.000581233
0.0742461
-0.000767839
0.0738908
-0.000971559
0.0734511
-0.00120036
0.0729124
-0.00146262
0.0722612
-0.00177135
0.0714704
-0.00214689
0.0705208
-0.00260925
0.0693608
-0.00321955
0.0679741
-0.00399852
0.0662611
-0.00515787
0.0642883
-0.00666623
0.0618856
-0.00934565
0.059795
-0.0128211
0.0582112
-0.0206914
0.0640486
-0.0315314
0.066749
-0.0513349
0.0757106
-0.0051564
0.0757891
-0.00510943
0.0758704
-0.00503548
0.0759531
-0.00493554
0.0760365
-0.00481033
0.07612
-0.00466349
0.0762027
-0.0044936
0.0762846
-0.00430986
0.076365
-0.00410182
-0.00389414
0.0764388
0.0761056
-0.0052614
0.0762121
-0.00521594
0.0763186
-0.00514193
0.0764238
-0.00504083
0.0765267
-0.00491313
0.0766261
-0.00476289
0.0767208
-0.00458832
0.0768105
-0.0043996
0.0768931
-0.00418443
-0.00397344
0.0769724
0.0766075
-0.00540789
0.0767541
-0.00536255
0.0768986
-0.0052864
0.0770391
-0.00518133
0.0771736
-0.0050477
0.0773009
-0.0048902
0.0774192
-0.00470657
0.0775282
-0.00450865
0.077626
-0.00428221
-0.00406232
0.0777149
0.0771378
-0.00560176
0.0773306
-0.00555537
0.0775194
-0.00547515
0.0777014
-0.00536332
0.0778739
-0.00522022
0.0780352
-0.00505149
0.0781829
-0.00485426
0.078317
-0.00464275
0.0784345
-0.0043997
-0.00416662
0.0785388
0.077678
-0.00584807
0.0779222
-0.0057996
0.0781602
-0.00571321
0.0783885
-0.00559155
0.0786032
-0.005435
0.0788023
-0.00525055
0.0789826
-0.00503457
0.0791443
-0.00480449
0.0792837
-0.00453903
-0.00428855
0.0794056
0.0782248
-0.00615296
0.0785266
-0.00610139
0.0788197
-0.00600634
0.0790993
-0.00587116
0.0793606
-0.00569634
0.0796009
-0.00549078
0.0798163
-0.00524996
0.0800073
-0.00499554
0.0801694
-0.00470109
-0.00442832
0.0803091
0.0787782
-0.00652451
0.0791455
-0.00646869
0.079501
-0.00636191
0.0798384
-0.00620852
0.0801514
-0.00600935
0.0804366
-0.00577597
0.0806895
-0.00550286
0.0809111
-0.00521716
0.081096
-0.004886
-0.00458523
0.0812529
0.0793383
-0.00697348
0.0797817
-0.00691207
0.0802093
-0.00678956
0.0806125
-0.00661171
0.0809834
-0.00638021
0.0813178
-0.00611036
0.0816106
-0.00579572
0.0818637
-0.00547023
0.0820709
-0.00509319
-0.00475767
0.0822433
0.0799052
-0.00751435
0.0804389
-0.00744576
0.0809513
-0.00730195
0.0814305
-0.00709091
0.0818666
-0.00681628
0.0822549
-0.00649868
0.08259
-0.00613085
0.0828748
-0.00575496
0.0831027
-0.00532113
-0.00494272
0.0832878
0.0804788
-0.00816696
0.0811223
-0.00808921
0.0817362
-0.00791585
0.0823041
-0.00765882
0.0828139
-0.00732617
0.0832611
-0.00694582
0.0836402
-0.00650999
0.0839557
-0.00607043
0.0842013
-0.00556676
-0.00513559
0.0843942
0.0810597
-0.00895935
0.0818399
-0.00886949
0.0825773
-0.00865316
0.0832493
-0.00833082
0.0838425
-0.00791944
0.0843531
-0.00745641
0.0847769
-0.00693375
0.0851201
-0.00641361
0.0853778
-0.00582455
-0.00532836
0.0855706
0.081651
-0.00993377
0.0826066
-0.00982503
0.0834955
-0.00954204
0.0842894
-0.00912472
0.0849759
-0.00860596
0.085553
-0.00803354
0.086019
-0.00739974
0.0863824
-0.00677702
0.0866417
-0.00608385
-0.00550665
0.08682
0.0822622
-0.0111591
0.0834484
-0.0110112
0.0845242
-0.0106178
0.0854595
-0.01006
0.0862473
-0.00939383
0.0868882
-0.00867437
0.0873847
-0.00789625
0.087748
-0.00714031
0.087984
-0.00631989
-0.00563934
0.0881167
0.0829171
-0.0127507
0.0844114
-0.0125055
0.085716
-0.0119224
0.0868096
-0.0111537
0.0876941
-0.0102783
0.0883714
-0.00935169
0.0888541
-0.00837899
0.089158
-0.00744415
0.089305
-0.00646686
-0.00565088
0.0893165
0.0836841
-0.0148871
0.0855776
-0.014399
0.0871387
-0.0134834
0.0883696
-0.0123846
0.0892771
-0.0111858
0.0898732
-0.00994777
0.090198
-0.00870373
0.090282
-0.0075282
0.090178
-0.00636288
-0.00537058
0.0898977
0.0847468
-0.0177742
0.0870464
-0.0166986
0.0887533
-0.0151904
0.0898963
-0.0135276
0.0905035
-0.011793
0.0906482
-0.0100925
0.090444
-0.00849949
0.0899599
-0.00704413
0.0892889
-0.00569188
-0.00450584
0.0884242
0.086267
-0.0214527
0.0885143
-0.0189459
0.0897086
-0.0163847
0.0899197
-0.0137386
0.0893496
-0.011223
0.0882585
-0.00900135
0.0868594
-0.00710045
0.0852848
-0.00546947
0.0836511
-0.0040582
-0.00278899
0.0819342
0.0867331
-0.0247391
0.0873606
-0.0195734
0.086163
-0.0151871
0.0837014
-0.0112771
0.0806037
-0.00812526
0.0773404
-0.00573802
0.074188
-0.00394805
0.0713035
-0.00258497
0.0687464
-0.00150106
-0.000476404
0.0664338
0.0791622
-0.022782
0.0742501
-0.0146612
0.0678332
-0.00877022
0.0613021
-0.00474598
0.0555324
-0.00235563
0.0508206
-0.00102621
0.0471739
-0.000301289
0.0444683
0.000120594
0.042509
0.000458216
0.000968179
0.0410644
0.043967
0.0293058
0.0205356
0.0157896
0.013434
0.0124078
0.0121065
0.0122271
0.0126853
0.0136535
0.0767431
-0.014796
0.0769643
-0.0094355
0.0771136
-0.00463949
0.0771943
-0.000685746
0.0772636
0.00206377
0.077313
0.00423853
0.077357
0.00576663
0.077392
0.00697595
0.0773838
0.00824654
0.0773675
0.00845543
0.077325
0.00859277
0.077305
0.00780245
0.0773478
0.00642998
0.077403
0.00612758
0.077515
0.00520162
0.0775909
0.00607237
0.0776229
0.00703219
0.0776191
0.00743771
0.0775083
0.00898797
0.00734912
0.0772223
-0.0150459
0.0773597
-0.00957288
0.0774127
-0.00469244
0.0774173
-0.000690344
0.0774254
0.0020556
0.0774363
0.00422765
0.0774586
0.0057443
0.0774694
0.00696519
0.0774387
0.00827723
0.077404
0.00849011
0.0773441
0.00865271
0.0773282
0.00781831
0.0773826
0.00637558
0.0774557
0.00605453
0.0775891
0.00506822
0.0776635
0.00599795
0.0776887
0.007007
0.0776693
0.0074571
0.0775351
0.00912218
0.00741564
0.0779394
-0.0152705
0.077999
-0.00963239
0.0779438
-0.00463728
0.0778412
-0.000587794
0.077763
0.00213388
0.0777118
0.00427886
0.0776935
0.0057626
0.0776604
0.00699825
0.0775861
0.00835156
0.0775118
0.00856438
0.0774147
0.00874978
0.0773953
0.00783773
0.0774639
0.00630695
0.0775652
0.00595331
0.0777332
0.00490014
0.0778093
0.00592189
0.077823
0.00699334
0.0777757
0.00750435
0.0775957
0.00930216
0.00749678
0.0787574
-0.0154891
0.0787585
-0.00963341
0.0786047
-0.00448356
0.0783981
-0.00038115
0.0782317
0.00230031
0.0781143
0.00439619
0.0780514
0.00582555
0.0779662
0.00708346
0.077835
0.00848275
0.0777051
0.00869426
0.0775529
0.00890199
0.07752
0.00787065
0.0776006
0.00622631
0.0777344
0.00581955
0.077947
0.0046875
0.0780265
0.00584241
0.0780258
0.00699399
0.0779396
0.00759056
0.0776951
0.0095467
0.00760066
0.0796211
-0.0157046
0.0795724
-0.00958473
0.0793265
-0.00423763
0.0790236
-7.83362e-05
0.0787767
0.00254728
0.0786008
0.00457204
0.0784999
0.00592648
0.0783643
0.007219
0.0781723
0.0086748
0.0779775
0.00888904
0.0777573
0.00912224
0.0777022
0.00792573
0.0777912
0.00613726
0.0779599
0.00565083
0.0782243
0.00442312
0.0783089
0.00575779
0.0782919
0.00701105
0.0781581
0.00772432
0.077833
0.00987185
0.00773603
0.0805134
-0.0159088
0.0804141
-0.00948543
0.0800732
-0.00389678
0.0796769
0.000318005
0.0793557
0.0028685
0.0791315
0.00479618
0.0790034
0.00605463
0.0788244
0.00739801
0.0785731
0.00892607
0.0783087
0.00915348
0.0780119
0.00941896
0.0779285
0.00800916
0.0780226
0.00604318
0.0782287
0.00544472
0.0785506
0.00410117
0.0786425
0.00566594
0.078608
0.00704557
0.07842
0.00791233
0.0780012
0.0102906
0.00791124
0.0814312
-0.0160871
0.0812747
-0.00932893
0.0808283
-0.00345042
0.0803349
0.000811396
0.0799411
0.00326233
0.079677
0.0050602
0.0795318
0.00619985
0.0793164
0.00761343
0.0790089
0.00923361
0.0786709
0.00949141
0.0782917
0.00979822
0.0781749
0.00812591
0.0782704
0.00594777
0.0785163
0.00519875
0.0789
0.00371749
0.0790019
0.00556402
0.0789499
0.00709756
0.078703
0.0081593
0.0781817
0.0108119
0.00813367
0.082375
-0.0162187
0.0821514
-0.00910528
0.0815823
-0.00288133
0.0809837
0.00140995
0.0805137
0.0037324
0.0802149
0.0053589
0.0800596
0.00635515
0.0798122
0.00786082
0.0794496
0.00959627
0.0790322
0.00990876
0.0785646
0.0102659
0.0784082
0.00828222
0.078499
0.00585703
0.0787854
0.00491236
0.079232
0.0032709
0.0793477
0.00544826
0.0792797
0.00716562
0.0789722
0.00846683
0.0783448
0.0114393
0.00840945
0.083346
-0.016277
0.083042
-0.00880128
0.0823257
-0.00216499
0.0816089
0.00212674
0.0810531
0.00428813
0.0807204
0.00569161
0.0805572
0.00651841
0.0802783
0.00813972
0.0798583
0.0100162
0.0793524
0.0104147
0.0787893
0.010829
0.0785833
0.00848824
0.0786583
0.00578198
0.0789805
0.00459019
0.0794863
0.00276508
0.0796212
0.00531333
0.0795412
0.00724567
0.0791771
0.00883085
0.0784472
0.0121692
0.00874311
0.0843437
-0.0162265
0.0839405
-0.00839809
0.0830408
-0.00126526
0.082185
0.00298247
0.0815254
0.0049478
0.0811519
0.00606502
0.0809757
0.00669461
0.0806617
0.00845379
0.0801794
0.0104985
0.0795736
0.0110205
0.0789075
0.0114951
0.0786357
0.00876002
0.0786763
0.00574144
0.0790206
0.0042459
0.0795757
0.00220994
0.0797384
0.0051506
0.0796561
0.00732802
0.0792496
0.00923734
0.0784304
0.0129884
0.00913693
0.0853607
-0.0160166
0.0848247
-0.00786203
0.0836859
-0.000126455
0.0826571
0.00401125
0.0818609
0.00574405
0.0814279
0.00649798
0.0812243
0.0068982
0.0808691
0.00880902
0.0803202
0.0110474
0.0796068
0.0117339
0.0788321
0.0122698
0.0784718
0.00912027
0.0784495
0.00576375
0.0787901
0.00390529
0.079379
0.00162101
0.0795851
0.0049445
0.0795207
0.00739242
0.0791019
0.00965618
0.0782195
0.0138707
0.00959009
0.086365
-0.0155616
0.0856254
-0.00712242
0.0841616
0.00133734
0.082905
0.00526784
0.0819192
0.00672987
0.0813916
0.00702556
0.0811375
0.00715237
0.0807395
0.00920696
0.0801299
0.011657
0.0793147
0.0125491
0.0784338
0.0131507
0.0779576
0.00959643
0.0778354
0.00588599
0.078134
0.00360662
0.0787396
0.00101544
0.079017
0.00466712
0.0790079
0.00740156
0.0786296
0.0100345
0.0777252
0.0147751
0.0100976
0.0872457
-0.0146906
0.0861612
-0.00603797
0.0842453
0.00325327
0.0826839
0.00682922
0.0814368
0.00797695
0.080767
0.00769537
0.0804406
0.0074788
0.0800189
0.0096287
0.079382
0.0122939
0.0785014
0.0134297
0.0775335
0.0141186
0.0769152
0.0102147
0.0766527
0.00614848
0.0768642
0.00339518
0.0774765
0.000403149
0.0778715
0.00427206
0.0779781
0.00729498
0.0777201
0.0102924
0.0768498
0.0156454
0.0106494
0.0876824
-0.0130565
0.0860094
-0.004365
0.0834892
0.00577353
0.0815463
0.00877207
0.0799726
0.00955066
0.0791245
0.00854347
0.0787337
0.00786959
0.0783554
0.010007
0.0777773
0.0128721
0.0769182
0.0142888
0.0759097
0.0151271
0.0751352
0.0109892
0.0747012
0.00658244
0.0747865
0.0033099
0.0754156
-0.000225952
0.0759967
0.00369093
0.0763041
0.0069876
0.0762703
0.0103262
0.0755
0.0164157
0.0112296
0.0868975
-0.0100563
0.0843264
-0.00179391
0.0811159
0.00898402
0.0787917
0.0110963
0.0768993
0.011443
0.0759041
0.00953873
0.0755347
0.00823892
0.0753486
0.0101931
0.0749899
0.0132308
0.0743012
0.0149775
0.0733324
0.0160959
0.0724149
0.0119068
0.0718066
0.00719071
0.0717547
0.00336178
0.0724427
-0.000913963
0.0732963
0.00283734
0.073906
0.00637796
0.0742096
0.0100226
0.0736048
0.0170205
0.0118164
0.0833477
-0.00497973
0.0797334
0.00182038
0.0760356
0.0126818
0.073549
0.0135829
0.0715294
0.0134626
0.0705622
0.010506
0.0704272
0.0083739
0.0706772
0.00994312
0.0707694
0.0131386
0.0704503
0.0152966
0.0696309
0.0169153
0.0686266
0.012911
0.067892
0.00792529
0.0677424
0.00351136
0.068567
-0.0017385
0.0697799
0.00162438
0.0707881
0.00536976
0.0715252
0.00928553
0.0711381
0.0174076
0.0123809
0.0747188
0.00223567
0.0706197
0.00591946
0.0672241
0.0160774
0.0651447
0.0156623
0.0634551
0.0151522
0.0628737
0.0110874
0.0633085
0.00793903
0.0642893
0.00896231
0.0650804
0.0123475
0.0653308
0.0150462
0.0647839
0.0174623
0.0638039
0.013891
0.0630582
0.00867102
0.062913
0.00365659
0.0639697
-0.00279522
0.0655987
-4.58095e-06
0.0670642
0.00390423
0.0682801
0.0080696
0.0681394
0.0175483
0.0128851
0.0591495
0.00951996
0.0563221
0.00874682
0.0546143
0.0177852
0.053745
0.0165315
0.0530118
0.0158854
0.0532653
0.0108339
0.0546169
0.00658747
0.0565544
0.00702479
0.0582097
0.0106923
0.0591606
0.0140952
0.0590039
0.017619
0.0582158
0.0146791
0.0576373
0.0092495
0.0576478
0.00364613
0.0590111
-0.00415853
0.0610454
-0.00203896
0.0629568
0.00199283
0.0646206
0.00640588
0.0647309
0.017438
0.013279
0.0383578
0.0122266
0.038821
0.00828362
0.0398962
0.01671
0.0407646
0.0156632
0.0414819
0.0151681
0.0428984
0.00941747
0.0453414
0.00414442
0.0482588
0.00410745
0.0507738
0.00817725
0.0524384
0.0124306
0.0527748
0.0172826
0.0523842
0.0150697
0.0521819
0.00945178
0.0525044
0.00332368
0.0541798
-0.00583401
0.0565169
-0.00437604
0.0587744
-0.000264619
0.0607718
0.00440842
0.0611236
0.0170862
0.0134991
0.0187769
0.00710311
0.0222133
0.00484726
0.0258849
0.0130384
0.0284091
0.013139
0.0307359
0.0128413
0.0333509
0.00680246
0.0367678
0.000727506
0.040445
0.000430308
0.0436246
0.0049976
0.0459065
0.0101487
0.046814
0.0163751
0.0470107
0.0148731
0.0473752
0.0090873
0.0481015
0.00259738
0.0500073
-0.00773982
0.0524587
-0.00682748
0.0548691
-0.00267499
0.0570352
0.00224233
0.0576144
0.0165071
0.0134901
0.00396857
0.00313454
0.005373
0.00344283
0.00736362
0.0110478
0.00865515
0.0118474
0.0100369
0.0114596
0.0113107
0.00552867
0.0128522
-0.00081399
0.0144269
-0.00114445
0.015789
0.00363552
0.0168348
0.00910288
0.0173702
0.0158397
0.017628
0.0146153
0.017976
0.00873927
0.0183654
0.00220802
0.0191523
-0.0085267
0.0201012
-0.00777641
0.0210251
-0.00359893
0.0219032
0.00136428
0.0222046
0.0162056
0.0134524
0.00234991
0.000784638
0.00373231
0.00206043
0.00591539
0.00886468
0.00737844
0.0103844
0.00896682
0.00987119
0.0103741
0.00412139
0.0119767
-0.00241663
0.0135694
-0.00273707
0.014962
0.00224289
0.0160568
0.00800805
0.0166897
0.0152068
0.0170675
0.0142375
0.0175184
0.00828832
0.0179787
0.00174775
0.0187598
-0.00930784
0.0196671
-0.00868367
0.0205655
-0.0044974
0.021417
0.000512847
0.0217555
0.0158671
0.0133672
0.00113315
-0.000348513
0.00247522
0.000718363
0.0047788
0.00656109
0.00639742
0.00876575
0.0081553
0.00811331
0.00967591
0.00260078
0.011304
-0.0040447
0.0128798
-0.00431288
0.0142757
0.000846963
0.0153994
0.00688433
0.0161246
0.0144816
0.0166257
0.0137364
0.0171757
0.00773834
0.0177051
0.00121836
0.0184672
-0.01007
0.0193154
-0.00953182
0.0201745
-0.00535654
0.020982
-0.000294654
0.0213533
0.0154958
0.0132259
0.000338401
-0.000686914
0.00161349
-0.000556725
0.00399345
0.00418113
0.00573316
0.00702604
0.00762805
0.00621843
0.009232
0.000996828
0.0108508
-0.00566354
0.0123767
-0.00583876
0.013748
-0.000524297
0.0148807
0.00575157
0.0156909
0.0136715
0.0163124
0.013115
0.0169562
0.00709451
0.0175487
0.000625839
0.0182792
-0.0108005
0.0190533
-0.0103059
0.0198579
-0.00616107
0.0206072
-0.00104399
0.0210082
0.0150947
0.0130273
-3.79698e-05
-0.000648944
0.00116403
-0.00175873
0.00358002
0.00176515
0.00540394
0.00520211
0.00739896
0.0042234
0.00905352
-0.000657729
0.0106295
-0.00723949
0.0120741
-0.00728343
0.0133937
-0.00184381
0.0145152
0.00463
0.0154001
0.0127866
0.0161352
0.0123799
0.0168644
0.00636531
0.0175119
-2.16437e-05
0.018199
-0.0114876
0.018886
-0.0109929
0.0196219
-0.00689701
0.0203001
-0.00172217
0.0207272
0.0146677
0.0127713
-1.50512e-05
-0.000633893
0.0011381
-0.00291188
0.00354959
-0.000646332
0.00541833
0.00333337
0.00747306
0.00216868
0.00914394
-0.00232862
0.0106457
-0.00874124
0.011981
-0.00861871
0.0132234
-0.00308628
0.0143138
0.00353965
0.0152604
0.01184
0.0160986
0.0115416
0.0169018
0.00556211
0.0175943
-0.000714155
0.0182273
-0.0121205
0.0188164
-0.0115821
0.0194716
-0.00755221
0.0200673
-0.00231781
0.020516
0.0142189
0.0124592
0.000391056
-0.00102495
0.00153799
-0.00405882
0.00390362
-0.00301196
0.00577531
0.00146168
0.0078465
9.74812e-05
0.00949905
-0.00398117
0.0108987
-0.0101409
0.0121005
-0.00982048
0.0132433
-0.00422915
0.0142833
0.00249973
0.015276
0.0108473
0.0162035
0.0106141
0.0170667
0.00469887
0.0177929
-0.00144035
0.0183627
-0.0126903
0.0188459
-0.0120653
0.0194103
-0.00811663
0.019914
-0.00282154
0.0203795
0.0137534
0.0120935
0.00122894
-0.00225389
0.00235675
-0.00518663
0.00463397
-0.00528918
0.00646455
-0.000368894
0.008507
-0.00194496
0.0101072
-0.00558134
0.0113808
-0.0114145
0.0124298
-0.0108695
0.0134542
-0.00525346
0.0144261
0.00152777
0.0154475
0.00982592
0.0164472
0.00961442
0.0173544
0.00379162
0.0181019
-0.00218784
0.0186014
-0.0131898
0.0189734
-0.0124373
0.0194396
-0.00858275
0.0198443
-0.00322633
0.020321
0.0132767
0.0116783
0.00249631
-0.0047502
0.00358108
-0.0062714
0.00572299
-0.00743109
0.00746693
-0.00211283
0.00943458
-0.00391262
0.0109496
-0.00709637
0.0120778
-0.0125427
0.0129603
-0.011752
0.0138515
-0.00614467
0.0147403
0.000638927
0.0157716
0.00879461
0.0168242
0.00856191
0.0177578
0.00285793
0.0185136
-0.00294356
0.0189376
-0.0136138
0.0191961
-0.0126958
0.0195592
-0.00894581
0.0198606
-0.0035277
0.0203426
0.0127947
0.0112187
0.00416927
-0.00891947
0.0052041
-0.00730623
0.00713329
-0.00936027
0.00876426
-0.00374381
0.0105991
-0.0057475
0.012003
-0.00850021
0.0129675
-0.0135073
0.0136783
-0.0124627
0.0144256
-0.00689202
0.0152201
-0.000155545
0.0162429
0.00777181
0.0173254
0.0074794
0.0182683
0.00191503
0.0190175
-0.00369276
0.0193611
-0.0139574
0.0195107
-0.0128455
0.019766
-0.00920106
0.0199645
-0.00372623
0.0204439
0.0123153
0.0107195
0.0291077
-0.0138715
-0.0241557
0.0319954
-0.0101939
0.0362156
-0.0135805
0.0407764
-0.00830456
0.045434
-0.0104051
0.049181
-0.0122472
0.0511104
-0.0154367
0.052323
-0.0136753
0.0536868
-0.00825587
0.055667
-0.00213568
0.0588812
0.00455763
0.0624709
0.0038897
0.06565
-0.00126412
0.0679074
-0.00595012
0.0684806
-0.0145307
0.0683339
-0.0126987
0.0682665
-0.00913375
0.0683419
-0.00380155
0.0698017
0.0108554
0.00885226
0.0682888
-0.00450058
-0.0776597
0.0642712
-0.00617635
0.0628508
-0.0121601
0.0640377
-0.00949143
0.0656427
-0.0120101
0.0671069
-0.0137114
0.0671813
-0.0155111
0.0666264
-0.0131204
0.0663753
-0.00800475
0.0670832
-0.00284359
0.0693664
0.00227445
0.0723093
0.000946845
0.0748912
-0.00384605
0.076546
-0.00760487
0.0763879
-0.0143727
0.0753183
-0.0116291
0.0742119
-0.00802735
0.0733934
-0.00298302
0.0745145
0.00973434
0.00705683
0.0981905
0.00509469
-0.107786
0.0922344
-0.00022021
0.087718
-0.00764377
0.0861508
-0.00792419
0.0850922
-0.0109516
0.0843694
-0.0129885
0.0830078
-0.0141495
0.0813574
-0.01147
0.0801271
-0.00677444
0.079902
-0.00261849
0.0811387
0.0010377
0.0830742
-0.000988611
0.0846944
-0.00546629
0.085543
-0.00845351
0.0848327
-0.0136624
0.0832647
-0.010061
0.0816117
-0.00637432
0.0802739
-0.0016453
0.0809946
0.00901366
0.00556589
0.112514
0.0109911
-0.11841
0.10816
0.00413415
0.10375
-0.00323366
0.101357
-0.00553207
0.0991964
-0.00879045
0.0972625
-0.0110547
0.0952074
-0.0120944
0.0932481
-0.00951066
0.091795
-0.00532132
0.0912651
-0.00208865
0.0917944
0.000508455
0.0927842
-0.00197845
0.0934377
-0.00611976
0.0934638
-0.00847962
0.0923654
-0.0125639
0.0906998
-0.00839551
0.0889881
-0.00466257
0.0876287
-0.000285946
0.0880799
0.00856246
0.00447177
0.116906
0.013939
-0.119854
0.114426
0.0066141
0.111266
-7.36781e-05
0.109148
-0.0034143
0.10705
-0.00669161
0.104902
-0.0089072
0.102805
-0.00999772
0.101063
-0.00776788
0.0998717
-0.00413039
0.0994851
-0.00170206
0.0997547
0.000238889
0.100128
-0.00235187
0.100092
-0.00608319
0.0995049
-0.00789299
0.0981747
-0.0112337
0.0966669
-0.00688773
0.095222
-0.0032177
0.0942066
0.000729533
0.0946329
0.00813609
0.00371365
0.117124
0.015255
-0.11844
0.115812
0.00792562
0.113779
0.00195982
0.112123
-0.00175911
0.110427
-0.00499511
0.10854
-0.0070201
0.106708
-0.00816582
0.105347
-0.0064072
0.104541
-0.00332459
0.10442
-0.00158107
0.104696
-3.66381e-05
0.10478
-0.00243597
0.104396
-0.00569901
0.103506
-0.00700309
0.1021
-0.00982796
0.100861
-0.00564858
0.099804
-0.00216061
0.0992712
0.00126231
0.0998583
0.00754896
0.00315628
0.11601
0.0157383
-0.116494
0.115272
0.00866428
0.11395
0.00328199
0.112676
-0.000485575
0.111339
-0.00365836
0.109809
-0.00548996
0.108299
-0.00665536
0.107277
-0.0053852
0.106781
-0.00282925
0.10685
-0.00165001
0.107193
-0.000379639
0.107185
-0.00242758
0.106701
-0.0052149
0.105766
-0.00606842
0.104416
-0.00847731
0.103457
-0.00469014
0.102772
-0.00147525
0.102661
0.00137271
0.103463
0.00674746
0.00267849
0.11458
0.0157744
-0.114616
0.114107
0.00913736
0.113212
0.00417703
0.112206
0.000520106
0.111119
-0.00257064
0.109894
-0.0042656
0.108661
-0.00542246
0.107878
-0.00460132
0.107576
-0.0025274
0.107719
-0.00179295
0.10809
-0.000751334
0.108069
-0.0024064
0.107607
-0.00475302
0.106774
-0.00523509
0.105561
-0.0072641
0.104843
-0.00397284
0.104451
-0.00108306
0.104619
0.00120535
0.105577
0.00578896
0.00221426
0.113133
0.0155475
-0.112906
0.112825
0.0094457
0.112179
0.00482318
0.11136
0.00133835
0.110445
-0.00165569
0.109452
-0.00327221
0.108438
-0.00440896
0.10781
-0.00397241
0.107611
-0.002329
0.107747
-0.00192883
0.108095
-0.0010989
0.108078
-0.00238989
0.107676
-0.00435085
0.106994
-0.00455314
0.105953
-0.00622325
0.105422
-0.00344168
0.105234
-0.000894926
0.105538
0.000901546
0.106552
0.00477488
0.00174833
0.111742
0.0151647
-0.111359
0.111555
0.00963242
0.111069
0.00530932
0.110396
0.00201163
0.109613
-0.000872989
0.108793
-0.00245214
0.107953
-0.00356883
0.107428
-0.00344701
0.10728
-0.00218117
0.107373