x,y,z,U_0,U_1,U_2
0,0,0,0.300016,2.3728e-05,0
0,0.1,0,0.300011,1.69486e-05,0
0,0.2,0,0.300007,1.01692e-05,0
0,0.3,0,0.300002,3.38972e-06,0
0,0.4,0,0.3,0,0
0,0.5,0,0.3,0,0
0,0.6,0,0.3,0,0
0,0.7,0,0.3,0,0
0,0.8,0,0.3,0,0
0,0.9,0,0.3,0,0
0,1,0,0.3,0,0
0,1.1,0,0.3,0,0
0,1.2,0,0.3,0,0
0,1.3,0,0.3,0,0
0,1.4,0,0.3,0,0
0,1.5,0,0.3,0,0
0,1.6,0,0.3,0,0
0,1.7,0,0.3,0,0
0,1.8,0,0.3,0,0
0,1.9,0,0.3,0,0
0,2,0,0.3,0,0
0,2.1,0,0.3,0,0
0,2.2,0,0.3,0,0
0,2.3,0,0.3,0,0
0,2.4,0,0.3,0,0
0,2.5,0,0.3,0,0
0,2.6,0,0.3,0,0
0,2.7,0,0.3,0,0
0,2.8,0,0.3,0,0
0,2.9,0,0.3,0,0
0,3,0,0.3,0,0
0,3.1,0,0.3,0,0
0,3.2,0,0.3,0,0
0,3.3,0,0.3,0,0
0,3.4,0,0.3,0,0
0,3.5,0,0.3,0,0
0,3.6,0,0.3,0,0
0,3.7,0,0.3,0,0
0,3.8,0,0.3,0,0
0,3.9,0,0.3,0,0
0,4,0,0.3,0,0
0,4.1,0,0.3,0,0
0,4.2,0,0.3,0,0
0,4.3,0,0.3,0,0
0,4.4,0,0.3,0,0
0,4.5,0,0.3,0,0
0,4.6,0,0.3,0,0
0,4.7,0,0.3,0,0
0,4.8,0,0.3,0,0
0,4.9,0,0.3,0,0
0,5,0,0.3,0,0
0,5.1,0,0.3,0,0
0,5.2,0,0.3,0,0
0,5.3,0,0.3,0,0
0,5.4,0,0.3,0,0
0,5.5,0,0.3,0,0
0,5.6,0,0.3,0,0
0,5.7,0,0.3,0,0
0,5.8,0,0.3,0,0
0,5.9,0,0.3,0,0
0,6,0,0.3,0,0
0,6.1,0,0.3,0,0
0,6.2,0,0.3,0,0
0,6.3,0,0.3,0,0
0,6.4,0,0.3,0,0
0,6.5,0,0.3,0,0
0,6.6,0,0.3,0,0
0,6.7,0,0.3,0,0
0,6.8,0,0.3,0,0
0,6.9,0,0.3,0,0
0,7,0,0.3,0,0
0,7.1,0,0.3,0,0
0,7.2,0,0.3,0,0
0,7.3,0,0.3,0,0
0,7.4,0,0.3,0,0
0,7.5,0,0.3,0,0
0,7.6,0,0.3,0,0
0,7.7,0,0.3,0,0
0,7.8,0,0.3,0,0
0,7.9,0,0.3,0,0
0,8,0,0.3,0,0
0,8.1,0,0.3,0,0
0,8.2,0,0.3,0,0
0,8.3,0,0.3,0,0
0,8.4,0,0.3,0,0
0,8.5,0,0.3,0,0
0,8.6,0,0.3,0,0
0,8.7,0,0.3,0,0
0,8.8,0,0.3,0,0
0,8.9,0,0.3,0,0
0,9,0,0.3,0,0
0,9.1,0,0.3,0,0
0,9.2,0,0.3,0,0
0,9.3,0,0.3,0,0
0,9.4,0,0.3,0,0
0,9.5,0,0.3,0,0
0,9.6,0,0.3,0,0
0,9.7,0,0.3,0,0
0,9.8,0,0.3,0,0
0,9.9,0,0.3,0,0
0,10,0,0.3,0,0
0,10.1,0,0.3,0,0
0,10.2,0,0.3,0,0
0,10.3,0,0.3,0,0
0,10.4,0,0.3,0,0
0,10.5,0,0.3,0,0
0,10.6,0,0.3,0,0
0,10.7,0,0.3,0,0
0,10.8,0,0.3,0,0
0,10.9,0,0.3,0,0
0,11,0,0.3,0,0
0,11.1,0,0.3,0,0
0,11.2,0,0.3,0,0
0,11.3,0,0.3,0,0
0,11.4,0,0.3,0,0
0,11.5,0,0.3,0,0
0,11.6,0,0.3,0,0
0,11.7,0,0.3,0,0
0,11.8,0,0.3,0,0
0,11.9,0,0.3,0,0
0,12,0,0.3,0,0
0,12.1,0,0.3,0,0
0,12.2,0,0.3,0,0
0,12.3,0,0.3,0,0
0,12.4,0,0.3,0,0
0,12.5,0,0.300002,-3.72237e-06,0
0,12.6,0,0.300008,-1.43577e-05,0
0,12.7,0,0.300013,-2.49931e-05,0
0.1,0,0,0.300018,-2.56222e-05,0
0.1,0.1,0,0.300017,2.53939e-05,0
0.1,0.2,0,0.300012,1.86145e-05,0
0.1,0.3,0,0.300008,1.18351e-05,0
0.1,0.4,0,0.300007,7.33672e-06,0
0.1,0.5,0,0.300007,7.33672e-06,0
0.1,0.6,0,0.300007,7.33672e-06,0
0.1,0.7,0,0.300003,-4.43084e-05,0
0.1,0.8,0,0.300007,5.43712e-06,0
0.1,0.9,0,0.300007,5.43712e-06,0
0.1,1,0,0.300007,5.43712e-06,0
0.1,1.1,0,0.300006,3.38939e-06,0
0.1,1.2,0,0.300006,3.38939e-06,0
0.1,1.3,0,0.300006,3.38939e-06,0
0.1,1.4,0,0.300002,-4.02921e-05,0
0.1,1.5,0,0.300006,1.79533e-06,0
0.1,1.6,0,0.300006,1.79533e-06,0
0.1,1.7,0,0.300006,1.79533e-06,0
0.1,1.8,0,0.300005,4.92872e-07,0
0.1,1.9,0,0.300005,4.92872e-07,0
0.1,2,0,0.300005,4.92872e-07,0
0.1,2.1,0,0.300001,-3.58426e-05,0
0.1,2.2,0,0.300004,-4.78853e-07,0
0.1,2.3,0,0.300004,-4.78853e-07,0
0.1,2.4,0,0.300004,-4.78853e-07,0
0.1,2.5,0,0.300003,-1.19838e-06,0
0.1,2.6,0,0.300003,-1.19838e-06,0
0.1,2.7,0,0.300003,-1.19838e-06,0
0.1,2.8,0,0.300001,-3.10194e-05,0
0.1,2.9,0,0.300003,-1.68949e-06,0
0.1,3,0,0.300003,-1.68949e-06,0
0.1,3.1,0,0.300003,-1.68949e-06,0
0.1,3.2,0,0.300002,-1.97741e-06,0
0.1,3.3,0,0.300002,-1.97741e-06,0
0.1,3.4,0,0.300002,-1.97741e-06,0
0.1,3.5,0,0.3,-2.57442e-05,0
0.1,3.6,0,0.300002,-2.08482e-06,0
0.1,3.7,0,0.300002,-2.08482e-06,0
0.1,3.8,0,0.300002,-2.08482e-06,0
0.1,3.9,0,0.300002,-2.03291e-06,0
0.1,4,0,0.300002,-2.03291e-06,0
0.1,4.1,0,0.300002,-2.03291e-06,0
0.1,4.2,0,0.3,-1.99864e-05,0
0.1,4.3,0,0.300002,-1.84265e-06,0
0.1,4.4,0,0.300002,-1.84265e-06,0
0.1,4.5,0,0.300002,-1.84265e-06,0
0.1,4.6,0,0.300001,-1.53552e-06,0
0.1,4.7,0,0.300001,-1.53552e-06,0
0.1,4.8,0,0.300001,-1.53552e-06,0
0.1,4.9,0,0.299999,-1.38024e-05,0
0.1,5,0,0.300001,-1.1341e-06,0
0.1,5.1,0,0.300001,-1.1341e-06,0
0.1,5.2,0,0.300001,-1.1341e-06,0
0.1,5.3,0,0.300001,-6.62299e-07,0
0.1,5.4,0,0.300001,-6.62299e-07,0
0.1,5.5,0,0.300001,-6.62299e-07,0
0.1,5.6,0,0.299999,-7.30962e-06,0
0.1,5.7,0,0.300001,-1.47815e-07,0
0.1,5.8,0,0.300001,-1.47815e-07,0
0.1,5.9,0,0.300001,-1.47815e-07,0
0.1,6,0,0.300001,3.84341e-07,0
0.1,6.1,0,0.300001,3.84341e-07,0
0.1,6.2,0,0.300001,3.84341e-07,0
0.1,6.3,0,0.299999,-6.64077e-07,0
0.1,6.4,0,0.3,9.03728e-07,0
0.1,6.5,0,0.3,9.03728e-07,0
0.1,6.6,0,0.3,9.03728e-07,0
0.1,6.7,0,0.3,1.3934e-06,0
0.1,6.8,0,0.3,1.3934e-06,0
0.1,6.9,0,0.3,1.3934e-06,0
0.1,7,0,0.299999,5.41835e-06,0
0.1,7.1,0,0.299999,6.97662e-06,0
0.1,7.2,0,0.299999,7.94702e-06,0
0.1,7.3,0,0.299999,8.91307e-06,0
0.1,7.4,0,0.3,9.87325e-06,0
0.1,7.5,0,0.3,1.08277e-05,0
0.1,7.6,0,0.3,1.17761e-05,0
0.1,7.7,0,0.3,1.27184e-05,0
0.1,7.8,0,0.3,1.36544e-05,0
0.1,7.9,0,0.3,1.4583e-05,0
0.1,8,0,0.3,1.58025e-05,0
0.1,8.1,0,0.3,2.47204e-06,0
0.1,8.2,0,0.3,2.47204e-06,0
0.1,8.3,0,0.3,2.53823e-06,0
0.1,8.4,0,0.3,2.53823e-06,0
0.1,8.5,0,0.3,2.55699e-06,0
0.1,8.6,0,0.3,2.55699e-06,0
0.1,8.7,0,0.3,1.73743e-05,0
0.1,8.8,0,0.3,2.52162e-06,0
0.1,8.9,0,0.3,2.52162e-06,0
0.1,9,0,0.3,2.42728e-06,0
0.1,9.1,0,0.3,2.42728e-06,0
0.1,9.2,0,0.3,2.26817e-06,0
0.1,9.3,0,0.3,2.26817e-06,0
0.1,9.4,0,0.3,1.61181e-05,0
0.1,9.5,0,0.3,2.03804e-06,0
0.1,9.6,0,0.3,2.03804e-06,0
0.1,9.7,0,0.300001,1.73007e-06,0
0.1,9.8,0,0.300001,1.73007e-06,0
0.1,9.9,0,0.300001,4.4724e-06,0
0.1,10,0,0.300001,1.3366e-06,0
0.1,10.1,0,0.300001,1.16109e-05,0
0.1,10.2,0,0.300001,8.4908e-07,0
0.1,10.3,0,0.300001,8.4908e-07,0
0.1,10.4,0,0.300002,2.64992e-07,0
0.1,10.5,0,0.300002,2.64992e-07,0
0.1,10.6,0,0.300002,1.14833e-05,0
0.1,10.7,0,0.300002,-4.39606e-07,0
0.1,10.8,0,0.300002,3.57131e-06,0
0.1,10.9,0,0.300003,-1.2769e-06,0
0.1,11,0,0.300003,-1.2769e-06,0
0.1,11.1,0,0.300004,-2.25175e-06,0
0.1,11.2,0,0.300004,-2.25175e-06,0
0.1,11.3,0,0.300003,2.07587e-05,0
0.1,11.4,0,0.300004,-3.37284e-06,0
0.1,11.5,0,0.300004,-3.37284e-06,0
0.1,11.6,0,0.300005,-4.64691e-06,0
0.1,11.7,0,0.300005,-4.64691e-06,0
0.1,11.8,0,0.300006,-6.06004e-06,0
0.1,11.9,0,0.300006,-6.06004e-06,0
0.1,12,0,0.300004,3.2755e-05,0
0.1,12.1,0,0.300006,-7.5975e-06,0
0.1,12.2,0,0.300006,-7.5975e-06,0
0.1,12.3,0,0.300006,-9.17408e-06,0
0.1,12.4,0,0.300006,-9.17408e-06,0
0.1,12.5,0,0.300007,-1.28225e-05,0
0.1,12.6,0,0.300012,-2.34578e-05,0
0.1,12.7,0,0.300016,2.48214e-05,0
0.2,0,0,0.30002,-7.49723e-05,0
0.2,0.1,0,0.300022,3.38393e-05,0
0.2,0.2,0,0.300018,2.70599e-05,0
0.2,0.3,0,0.300012,-7.04159e-06,0
0.2,0.4,0,0.300012,-1.20942e-05,0
0.2,0.5,0,0.300014,1.46734e-05,0
0.2,0.6,0,0.300014,1.46734e-05,0
0.2,0.7,0,0.300007,-8.86167e-05,0
0.2,0.8,0,0.300014,1.08742e-05,0
0.2,0.9,0,0.300014,1.08742e-05,0
0.2,1,0,0.300012,-1.30132e-05,0
0.2,1.1,0,0.300011,-1.60848e-05,0
0.2,1.2,0,0.300013,6.77878e-06,0
0.2,1.3,0,0.300013,6.77878e-06,0
0.2,1.4,0,0.300005,-8.05842e-05,0
0.2,1.5,0,0.300011,3.59066e-06,0
0.2,1.6,0,0.300011,3.59066e-06,0
0.2,1.7,0,0.300009,-1.63614e-05,0
0.2,1.8,0,0.300008,-1.8315e-05,0
0.2,1.9,0,0.30001,9.85745e-07,0
0.2,2,0,0.30001,9.85745e-07,0
0.2,2.1,0,0.300003,-7.16851e-05,0
0.2,2.2,0,0.300008,-9.57707e-07,0
0.2,2.3,0,0.300008,-9.57707e-07,0
0.2,2.4,0,0.300007,-1.74594e-05,0
0.2,2.5,0,0.300005,-1.85386e-05,0
0.2,2.6,0,0.300006,-2.39675e-06,0
0.2,2.7,0,0.300006,-2.39675e-06,0
0.2,2.8,0,0.300001,-6.20388e-05,0
0.2,2.9,0,0.300005,-3.37897e-06,0
0.2,3,0,0.300005,-3.37897e-06,0
0.2,3.1,0,0.300004,-1.67554e-05,0
0.2,3.2,0,0.300004,-1.71873e-05,0
0.2,3.3,0,0.300005,-3.95482e-06,0
0.2,3.4,0,0.300005,-3.95482e-06,0
0.2,3.5,0,0.3,-5.14883e-05,0
0.2,3.6,0,0.300004,-4.16964e-06,0
0.2,3.7,0,0.300004,-4.16964e-06,0
0.2,3.8,0,0.300003,-1.45891e-05,0
0.2,3.9,0,0.300003,-1.45113e-05,0
0.2,4,0,0.300003,-4.06583e-06,0
0.2,4.1,0,0.300003,-4.06583e-06,0
0.2,4.2,0,0.299999,-3.99727e-05,0
0.2,4.3,0,0.300003,-3.68531e-06,0
0.2,4.4,0,0.300003,-3.68531e-06,0
0.2,4.5,0,0.300002,-1.12347e-05,0
0.2,4.6,0,0.300002,-1.0774e-05,0
0.2,4.7,0,0.300003,-3.07104e-06,0
0.2,4.8,0,0.300003,-3.07104e-06,0
0.2,4.9,0,0.299999,-2.76048e-05,0
0.2,5,0,0.300002,-2.26821e-06,0
0.2,5.1,0,0.300002,-2.26821e-06,0
0.2,5.2,0,0.300001,-6.99396e-06,0
0.2,5.3,0,0.300001,-6.28625e-06,0
0.2,5.4,0,0.300002,-1.3246e-06,0
0.2,5.5,0,0.300002,-1.3246e-06,0
0.2,5.6,0,0.299998,-1.46192e-05,0
0.2,5.7,0,0.300002,-2.9563e-07,0
0.2,5.8,0,0.300002,-2.9563e-07,0
0.2,5.9,0,0.300001,-2.21893e-06,0
0.2,6,0,0.3,-1.4207e-06,0
0.2,6.1,0,0.300001,7.68682e-07,0
0.2,6.2,0,0.300001,7.68682e-07,0
0.2,6.3,0,0.299998,-1.32815e-06,0
0.2,6.4,0,0.300001,1.80746e-06,0
0.2,6.5,0,0.300001,1.80746e-06,0
0.2,6.6,0,0.3,2.68539e-06,0
0.2,6.7,0,0.3,3.4199e-06,0
0.2,6.8,0,0.300001,2.78679e-06,0
0.2,6.9,0,0.300001,2.78679e-06,0
0.2,7,0,0.299999,1.08367e-05,0
0.2,7.1,0,0.299999,1.39532e-05,0
0.2,7.2,0,0.299999,1.5894e-05,0
0.2,7.3,0,0.299999,1.78261e-05,0
0.2,7.4,0,0.299999,1.97465e-05,0
0.2,7.5,0,0.299999,2.16553e-05,0
0.2,7.6,0,0.299999,2.35522e-05,0
0.2,7.7,0,0.299999,2.54368e-05,0
0.2,7.8,0,0.299999,2.73089e-05,0
0.2,7.9,0,0.299999,2.9166e-05,0
0.2,8,0,0.3,3.16049e-05,0
0.2,8.1,0,0.3,4.94408e-06,0
0.2,8.2,0,0.3,1.15428e-05,0
0.2,8.3,0,0.3,5.07646e-06,0
0.2,8.4,0,0.3,5.07646e-06,0
0.2,8.5,0,0.3,1.63834e-05,0
0.2,8.6,0,0.3,5.11398e-06,0
0.2,8.7,0,0.3,3.90112e-05,0
0.2,8.8,0,0.3,5.04324e-06,0
0.2,8.9,0,0.3,9.52379e-06,0
0.2,9,0,0.3,4.85455e-06,0
0.2,9.1,0,0.3,4.85455e-06,0
0.2,9.2,0,0.300001,2.50229e-05,0
0.2,9.3,0,0.3,4.53634e-06,0
0.2,9.4,0,0.300001,4.34227e-05,0
0.2,9.5,0,0.300001,4.07608e-06,0
0.2,9.6,0,0.300001,4.07608e-06,0
0.2,9.7,0,0.300001,3.46014e-06,0
0.2,9.8,0,0.300001,3.46014e-06,0
0.2,9.9,0,0.300002,3.52855e-05,0
0.2,10,0,0.300002,2.6732e-06,0
0.2,10.1,0,0.300002,4.4102e-05,0
0.2,10.2,0,0.300003,1.69816e-06,0
0.2,10.3,0,0.300003,1.69816e-06,0
0.2,10.4,0,0.300004,5.29985e-07,0
0.2,10.5,0,0.300004,5.29985e-07,0
0.2,10.6,0,0.300004,4.71968e-05,0
0.2,10.7,0,0.300005,-8.79211e-07,0
0.2,10.8,0,0.300004,4.08343e-05,0
0.2,10.9,0,0.300006,-2.55381e-06,0
0.2,11,0,0.300006,-2.55381e-06,0
0.2,11.1,0,0.300008,-4.5035e-06,0
0.2,11.2,0,0.300008,-4.5035e-06,0
0.2,11.3,0,0.300006,6.10082e-05,0
0.2,11.4,0,0.300009,-6.74568e-06,0
0.2,11.5,0,0.300007,3.30375e-05,0
0.2,11.6,0,0.30001,-9.29383e-06,0
0.2,11.7,0,0.30001,-9.29383e-06,0
0.2,11.8,0,0.300011,-1.66944e-06,0
0.2,11.9,0,0.300011,-1.21201e-05,0
0.2,12,0,0.300008,7.71183e-05,0
0.2,12.1,0,0.300012,-1.5195e-05,0
0.2,12.2,0,0.30001,1.99462e-05,0
0.2,12.3,0,0.300012,-1.83482e-05,0
0.2,12.4,0,0.300012,-1.83482e-05,0
0.2,12.5,0,0.300011,2.50254e-06,0
0.2,12.6,0,0.300017,-3.25579e-05,0
0.2,12.7,0,0.300019,7.46359e-05,0
0.3,0,0,0.300022,-0.000124323,0
0.3,0.1,0,0.300028,4.22846e-05,0
0.3,0.2,0,0.300023,3.55052e-05,0
0.3,0.3,0,0.300016,-5.32403e-05,0
0.3,0.4,0,0.300016,-5.82929e-05,0
0.3,0.5,0,0.300021,2.20102e-05,0
0.3,0.6,0,0.300021,2.20102e-05,0
0.3,0.7,0,0.30001,-0.000132925,0
0.3,0.8,0,0.300021,1.63114e-05,0
0.3,0.9,0,0.300021,1.63114e-05,0
0.3,1,0,0.300015,-5.53509e-05,0
0.3,1.1,0,0.300014,-5.84225e-05,0
0.3,1.2,0,0.300019,1.01682e-05,0
0.3,1.3,0,0.300019,1.01682e-05,0
0.3,1.4,0,0.300007,-0.000120876,0
0.3,1.5,0,0.300017,5.38599e-06,0
0.3,1.6,0,0.300017,5.38599e-06,0
0.3,1.7,0,0.300011,-5.44701e-05,0
0.3,1.8,0,0.30001,-5.64238e-05,0
0.3,1.9,0,0.300014,1.47862e-06,0
0.3,2,0,0.300014,1.47862e-06,0
0.3,2.1,0,0.300005,-0.000107528,0
0.3,2.2,0,0.300012,-1.43656e-06,0
0.3,2.3,0,0.300012,-1.43656e-06,0
0.3,2.4,0,0.300008,-5.09415e-05,0
0.3,2.5,0,0.300007,-5.20208e-05,0
0.3,2.6,0,0.30001,-3.59513e-06,0
0.3,2.7,0,0.30001,-3.59513e-06,0
0.3,2.8,0,0.300002,-9.30582e-05,0
0.3,2.9,0,0.300008,-5.06846e-06,0
0.3,3,0,0.300008,-5.06846e-06,0
0.3,3.1,0,0.300005,-4.51978e-05,0
0.3,3.2,0,0.300004,-4.56297e-05,0
0.3,3.3,0,0.300007,-5.93223e-06,0
0.3,3.4,0,0.300007,-5.93223e-06,0
0.3,3.5,0,0.3,-7.72325e-05,0
0.3,3.6,0,0.300006,-6.25446e-06,0
0.3,3.7,0,0.300006,-6.25446e-06,0
0.3,3.8,0,0.300003,-3.7513e-05,0
0.3,3.9,0,0.300002,-3.74351e-05,0
0.3,4,0,0.300005,-6.09874e-06,0
0.3,4.1,0,0.300005,-6.09874e-06,0
0.3,4.2,0,0.299999,-5.99591e-05,0
0.3,4.3,0,0.300005,-5.52796e-06,0
0.3,4.4,0,0.300005,-5.52796e-06,0
0.3,4.5,0,0.300002,-2.81761e-05,0
0.3,4.6,0,0.300001,-2.77154e-05,0
0.3,4.7,0,0.300004,-4.60657e-06,0
0.3,4.8,0,0.300004,-4.60657e-06,0
0.3,4.9,0,0.299998,-4.14072e-05,0
0.3,5,0,0.300003,-3.40231e-06,0
0.3,5.1,0,0.300003,-3.40231e-06,0
0.3,5.2,0,0.300001,-1.75796e-05,0
0.3,5.3,0,0.3,-1.68718e-05,0
0.3,5.4,0,0.300003,-1.9869e-06,0
0.3,5.5,0,0.300003,-1.9869e-06,0
0.3,5.6,0,0.299998,-2.19289e-05,0
0.3,5.7,0,0.300002,-4.43446e-07,0
0.3,5.8,0,0.300002,-4.43446e-07,0
0.3,5.9,0,0.3,-6.21335e-06,0
0.3,6,0,0.3,-5.41512e-06,0
0.3,6.1,0,0.300002,1.15302e-06,0
0.3,6.2,0,0.300002,1.15302e-06,0
0.3,6.3,0,0.299998,-1.99223e-06,0
0.3,6.4,0,0.300001,2.71118e-06,0
0.3,6.5,0,0.300001,2.71118e-06,0
0.3,6.6,0,0.3,5.34499e-06,0
0.3,6.7,0,0.3,6.0795e-06,0
0.3,6.8,0,0.300001,4.18019e-06,0
0.3,6.9,0,0.300001,4.18019e-06,0
0.3,7,0,0.299998,1.62551e-05,0
0.3,7.1,0,0.299998,2.09299e-05,0
0.3,7.2,0,0.299998,2.38411e-05,0
0.3,7.3,0,0.299999,2.67392e-05,0
0.3,7.4,0,0.299999,2.96198e-05,0
0.3,7.5,0,0.299999,3.2483e-05,0
0.3,7.6,0,0.299999,3.53284e-05,0
0.3,7.7,0,0.299999,3.81552e-05,0
0.3,7.8,0,0.299999,4.09633e-05,0
0.3,7.9,0,0.299999,4.3749e-05,0
0.3,8,0,0.299999,4.74074e-05,0
0.3,8.1,0,0.299999,7.41611e-06,0
0.3,8.2,0,0.3,2.91436e-05,0
0.3,8.3,0,0.299999,9.05685e-06,0
0.3,8.4,0,0.299999,7.61469e-06,0
0.3,8.5,0,0.3,3.60263e-05,0
0.3,8.6,0,0.299999,7.67097e-06,0
0.3,8.7,0,0.3,6.06481e-05,0
0.3,8.8,0,0.3,7.56486e-06,0
0.3,8.9,0,0.3,3.3104e-05,0
0.3,9,0,0.3,1.40328e-05,0
0.3,9.1,0,0.3,7.28183e-06,0
0.3,9.2,0,0.300001,5.04926e-05,0
0.3,9.3,0,0.300001,6.80451e-06,0
0.3,9.4,0,0.300002,7.07272e-05,0
0.3,9.5,0,0.300001,6.11411e-06,0
0.3,9.6,0,0.300002,3.28735e-05,0
0.3,9.7,0,0.300002,2.00318e-05,0
0.3,9.8,0,0.300002,5.19021e-06,0
0.3,9.9,0,0.300003,6.60985e-05,0
0.3,10,0,0.300003,4.00981e-06,0
0.3,10.1,0,0.300003,7.6593e-05,0
0.3,10.2,0,0.300004,2.54724e-06,0
0.3,10.3,0,0.300004,2.8034e-05,0
0.3,10.4,0,0.300005,2.67292e-05,0
0.3,10.5,0,0.300006,7.94977e-07,0
0.3,10.6,0,0.300006,8.29104e-05,0
0.3,10.7,0,0.300007,-1.31882e-06,0
0.3,10.8,0,0.300006,7.80974e-05,0
0.3,10.9,0,0.300009,-3.83071e-06,0
0.3,11,0,0.300009,1.78994e-05,0
0.3,11.1,0,0.30001,3.38347e-05,0
0.3,11.2,0,0.300011,-6.75526e-06,0
0.3,11.3,0,0.300009,0.000101258,0
0.3,11.4,0,0.300013,-1.01185e-05,0
0.3,11.5,0,0.30001,7.47204e-05,0
0.3,11.6,0,0.300015,-1.39407e-05,0
0.3,11.7,0,0.300014,1.28422e-06,0
0.3,11.8,0,0.300014,4.13885e-05,0
0.3,11.9,0,0.300017,-1.81801e-05,0
0.3,12,0,0.300011,0.000121482,0
0.3,12.1,0,0.300018,-2.27925e-05,0
0.3,12.2,0,0.300014,6.56274e-05,0
0.3,12.3,0,0.300018,-2.75222e-05,0
0.3,12.4,0,0.300018,-2.21535e-05,0
0.3,12.5,0,0.300015,4.94015e-05,0
0.3,12.6,0,0.300022,-4.1658e-05,0
0.3,12.7,0,0.300022,0.00012445,0
0.4,0,0,0.300024,-0.000173673,0
0.4,0.1,0,0.30003,-7.06554e-06,0
0.4,0.2,0,0.300029,4.39506e-05,0
0.4,0.3,0,0.30002,-9.94389e-05,0
0.4,0.4,0,0.30002,-0.000104492,0
0.4,0.5,0,0.300028,2.93469e-05,0
0.4,0.6,0,0.300025,-2.22982e-05,0
0.4,0.7,0,0.300014,-0.000177233,0
0.4,0.8,0,0.300024,-2.7997e-05,0
0.4,0.9,0,0.300027,2.17485e-05,0
0.4,1,0,0.300018,-9.76886e-05,0
0.4,1.1,0,0.300017,-0.00010076,0
0.4,1.2,0,0.300025,1.35576e-05,0
0.4,1.3,0,0.300021,-3.01239e-05,0
0.4,1.4,0,0.30001,-0.000161168,0
0.4,1.5,0,0.300019,-3.49061e-05,0
0.4,1.6,0,0.300022,7.18133e-06,0
0.4,1.7,0,0.300013,-9.25788e-05,0
0.4,1.8,0,0.300012,-9.45325e-05,0
0.4,1.9,0,0.300019,1.97149e-06,0
0.4,2,0,0.300016,-3.43639e-05,0
0.4,2.1,0,0.300006,-0.00014337,0
0.4,2.2,0,0.300013,-3.72791e-05,0
0.4,2.3,0,0.300016,-1.91541e-06,0
0.4,2.4,0,0.300009,-8.44237e-05,0
0.4,2.5,0,0.300008,-8.55029e-05,0
0.4,2.6,0,0.300013,-4.7935e-06,0
0.4,2.7,0,0.30001,-3.46145e-05,0
0.4,2.8,0,0.300003,-0.000124078,0
0.4,2.9,0,0.300009,-3.60878e-05,0
0.4,3,0,0.300011,-6.75794e-06,0
0.4,3.1,0,0.300005,-7.36401e-05,0
0.4,3.2,0,0.300005,-7.4072e-05,0
0.4,3.3,0,0.300009,-7.90964e-06,0
0.4,3.4,0,0.300007,-3.16764e-05,0
0.4,3.5,0,0.300001,-0.000102977,0
0.4,3.6,0,0.300006,-3.19986e-05,0
0.4,3.7,0,0.300008,-8.33928e-06,0
0.4,3.8,0,0.300003,-6.04368e-05,0
0.4,3.9,0,0.300002,-6.0359e-05,0
0.4,4,0,0.300007,-8.13166e-06,0
0.4,4.1,0,0.300005,-2.60851e-05,0
0.4,4.2,0,0.299999,-7.99454e-05,0
0.4,4.3,0,0.300004,-2.55143e-05,0
0.4,4.4,0,0.300006,-7.37061e-06,0
0.4,4.5,0,0.300001,-4.51175e-05,0
0.4,4.6,0,0.300001,-4.46568e-05,0
0.4,4.7,0,0.300005,-6.14209e-06,0
0.4,4.8,0,0.300003,-1.8409e-05,0
0.4,4.9,0,0.299998,-5.52096e-05,0
0.4,5,0,0.300003,-1.72047e-05,0
0.4,5.1,0,0.300005,-4.53642e-06,0
0.4,5.2,0,0.3,-2.81652e-05,0
0.4,5.3,0,0.3,-2.74574e-05,0
0.4,5.4,0,0.300004,-2.6492e-06,0
0.4,5.5,0,0.300002,-9.29652e-06,0
0.4,5.6,0,0.299997,-2.92385e-05,0
0.4,5.7,0,0.300001,-7.75307e-06,0
0.4,5.8,0,0.300003,-5.91261e-07,0
0.4,5.9,0,0.299999,-1.02078e-05,0
0.4,6,0,0.299999,-9.40954e-06,0
0.4,6.1,0,0.300002,1.53736e-06,0
0.4,6.2,0,0.300001,4.88946e-07,0
0.4,6.3,0,0.299997,-2.65631e-06,0
0.4,6.4,0,0.3,2.04711e-06,0
0.4,6.5,0,0.300002,3.61491e-06,0
0.4,6.6,0,0.299999,8.0046e-06,0
0.4,6.7,0,0.299999,8.7391e-06,0
0.4,6.8,0,0.300002,5.57358e-06,0
0.4,6.9,0,0.300001,9.59854e-06,0
0.4,7,0,0.299998,2.16734e-05,0
0.4,7.1,0,0.299998,2.79065e-05,0
0.4,7.2,0,0.299998,3.17881e-05,0
0.4,7.3,0,0.299998,3.56523e-05,0
0.4,7.4,0,0.299998,3.9493e-05,0
0.4,7.5,0,0.299998,4.33106e-05,0
0.4,7.6,0,0.299999,4.71045e-05,0
0.4,7.7,0,0.299999,5.08736e-05,0
0.4,7.8,0,0.299999,5.46178e-05,0
0.4,7.9,0,0.299999,5.8332e-05,0
0.4,8,0,0.299999,6.32098e-05,0
0.4,8.1,0,0.299999,9.88815e-06,0
0.4,8.2,0,0.299999,4.67445e-05,0
0.4,8.3,0,0.299999,2.66577e-05,0
0.4,8.4,0,0.299999,2.5074e-05,0
0.4,8.5,0,0.3,5.56692e-05,0
0.4,8.6,0,0.299999,1.0228e-05,0
0.4,8.7,0,0.3,8.2285e-05,0
0.4,8.8,0,0.3,1.00865e-05,0
0.4,8.9,0,0.300001,5.66843e-05,0
0.4,9,0,0.3,3.7613e-05,0
0.4,9.1,0,0.3,2.46622e-05,0
0.4,9.2,0,0.300001,7.59624e-05,0
0.4,9.3,0,0.300001,9.07269e-06,0
0.4,9.4,0,0.300002,9.80318e-05,0
0.4,9.5,0,0.300002,8.15215e-06,0
0.4,9.6,0,0.300002,6.19586e-05,0
0.4,9.7,0,0.300003,4.91169e-05,0
0.4,9.8,0,0.300002,1.9296e-05,0
0.4,9.9,0,0.300004,9.69116e-05,0
0.4,10,0,0.300004,5.34641e-06,0
0.4,10.1,0,0.300005,0.000109084,0
0.4,10.2,0,0.300005,9.79204e-06,0
0.4,10.3,0,0.300005,6.21575e-05,0
0.4,10.4,0,0.300007,6.08526e-05,0
0.4,10.5,0,0.300008,8.22511e-06,0
0.4,10.6,0,0.300007,0.000118624,0
0.4,10.7,0,0.30001,-1.75842e-06,0
0.4,10.8,0,0.300008,0.00011536,0
0.4,10.9,0,0.300012,1.12924e-05,0
0.4,11,0,0.300011,5.6674e-05,0
0.4,11.1,0,0.300012,7.26094e-05,0
0.4,11.2,0,0.300015,-9.00701e-06,0
0.4,11.3,0,0.300011,0.000141507,0
0.4,11.4,0,0.300018,-1.34914e-05,0
0.4,11.5,0,0.300013,0.000116403,0
0.4,11.6,0,0.300018,1.14774e-05,0
0.4,11.7,0,0.300018,4.43422e-05,0
0.4,11.8,0,0.300017,8.44465e-05,0
0.4,11.9,0,0.300022,-2.42402e-05,0
0.4,12,0,0.300015,0.000165845,0
0.4,12.1,0,0.300024,-3.039e-05,0
0.4,12.2,0,0.300018,0.000111309,0
0.4,12.3,0,0.300022,1.11561e-05,0
0.4,12.4,0,0.300022,2.47454e-05,0
0.4,12.5,0,0.300019,9.63004e-05,0
0.4,12.6,0,0.300027,-5.07581e-05,0
0.4,12.7,0,0.300025,0.000174265,0
0.5,0,0,0.300027,-0.000223023,0
0.5,0.1,0,0.300032,-5.64157e-05,0
0.5,0.2,0,0.300034,2.50739e-05,0
0.5,0.3,0,0.300023,-0.000145638,0
0.5,0.4,0,0.300023,-0.00015069,0
0.5,0.5,0,0.300034,9.91592e-06,0
0.5,0.6,0,0.300028,-6.66066e-05,0
0.5,0.7,0,0.300017,-0.000221542,0
0.5,0.8,0,0.300027,-7.23054e-05,0
0.5,0.9,0,0.300032,3.2982e-06,0
0.5,1,0,0.300021,-0.000140026,0
0.5,1.1,0,0.30002,-0.000143098,0
0.5,1.2,0,0.30003,-5.9166e-06,0
0.5,1.3,0,0.300024,-7.0416e-05,0
0.5,1.4,0,0.300012,-0.00020146,0
0.5,1.5,0,0.300021,-7.51982e-05,0
0.5,1.6,0,0.300026,-1.09754e-05,0
0.5,1.7,0,0.300015,-0.000130687,0
0.5,1.8,0,0.300014,-0.000132641,0
0.5,1.9,0,0.300022,-1.68364e-05,0
0.5,2,0,0.300017,-7.02065e-05,0
0.5,2.1,0,0.300007,-0.000179213,0
0.5,2.2,0,0.300015,-7.31217e-05,0
0.5,2.3,0,0.300019,-1.88959e-05,0
0.5,2.4,0,0.30001,-0.000117906,0
0.5,2.5,0,0.300009,-0.000118985,0
0.5,2.6,0,0.300015,-2.21338e-05,0
0.5,2.7,0,0.300011,-6.56339e-05,0
0.5,2.8,0,0.300004,-0.000155097,0
0.5,2.9,0,0.300009,-6.71072e-05,0
0.5,3,0,0.300012,-2.18239e-05,0
0.5,3.1,0,0.300005,-0.000102082,0
0.5,3.2,0,0.300005,-0.000102514,0
0.5,3.3,0,0.30001,-2.31195e-05,0
0.5,3.4,0,0.300007,-5.74205e-05,0
0.5,3.5,0,0.300001,-0.000128721,0
0.5,3.6,0,0.300006,-5.77428e-05,0
0.5,3.7,0,0.300009,-2.08436e-05,0
0.5,3.8,0,0.300003,-8.33607e-05,0
0.5,3.9,0,0.300002,-8.32828e-05,0
0.5,4,0,0.300008,-2.061e-05,0
0.5,4.1,0,0.300005,-4.60714e-05,0
0.5,4.2,0,0.299999,-9.99318e-05,0
0.5,4.3,0,0.300004,-4.55007e-05,0
0.5,4.4,0,0.300007,-1.67626e-05,0
0.5,4.5,0,0.300001,-6.20589e-05,0
0.5,4.6,0,0.3,-6.15982e-05,0
0.5,4.7,0,0.300006,-1.53806e-05,0
0.5,4.8,0,0.300003,-3.22114e-05,0
0.5,4.9,0,0.299997,-6.9012e-05,0
0.5,5,0,0.300002,-3.10071e-05,0
0.5,5.1,0,0.300005,-1.03963e-05,0
0.5,5.2,0,0.299999,-3.87508e-05,0
0.5,5.3,0,0.299999,-3.8043e-05,0
0.5,5.4,0,0.300004,-8.27314e-06,0
0.5,5.5,0,0.300001,-1.66061e-05,0
0.5,5.6,0,0.299996,-3.65481e-05,0
0.5,5.7,0,0.300001,-1.50627e-05,0
0.5,5.8,0,0.300003,-2.66238e-06,0
0.5,5.9,0,0.299998,-1.42022e-05,0
0.5,6,0,0.299998,-1.3404e-05,0
0.5,6.1,0,0.300002,-2.67676e-07,0
0.5,6.2,0,0.3,-1.75131e-07,0
0.5,6.3,0,0.299996,-3.32039e-06,0
0.5,6.4,0,0.3,1.38303e-06,0
0.5,6.5,0,0.300001,5.39658e-06,0
0.5,6.6,0,0.299998,1.06642e-05,0
0.5,6.7,0,0.299998,1.13987e-05,0
0.5,6.8,0,0.300001,7.60008e-06,0
0.5,6.9,0,0.3,1.50169e-05,0
0.5,7,0,0.299997,2.70918e-05,0
0.5,7.1,0,0.299997,3.48831e-05,0
0.5,7.2,0,0.299997,3.97351e-05,0
0.5,7.3,0,0.299997,4.45653e-05,0
0.5,7.4,0,0.299998,4.93663e-05,0
0.5,7.5,0,0.299998,5.41383e-05,0
0.5,7.6,0,0.299998,5.88806e-05,0
0.5,7.7,0,0.299998,6.3592e-05,0
0.5,7.8,0,0.299999,6.82722e-05,0
0.5,7.9,0,0.299999,7.2915e-05,0
0.5,8,0,0.299999,7.90123e-05,0
0.5,8.1,0,0.299999,1.94508e-05,0
0.5,8.2,0,0.299999,6.43453e-05,0
0.5,8.3,0,0.299999,4.42585e-05,0
0.5,8.4,0,0.299999,4.47169e-05,0
0.5,8.5,0,0.3,7.5312e-05,0
0.5,8.6,0,0.299999,1.86713e-05,0
0.5,8.7,0,0.300001,0.000103922,0
0.5,8.8,0,0.3,2.70462e-05,0
0.5,8.9,0,0.300001,8.02645e-05,0
0.5,9,0,0.300001,6.11932e-05,0
0.5,9.1,0,0.300001,5.0132e-05,0
0.5,9.2,0,0.300002,0.000101432,0
0.5,9.3,0,0.300001,1.34716e-05,0
0.5,9.4,0,0.300003,0.000125336,0
0.5,9.5,0,0.300002,3.49191e-05,0
0.5,9.6,0,0.300003,9.10437e-05,0
0.5,9.7,0,0.300003,7.8202e-05,0
0.5,9.8,0,0.300003,5.01091e-05,0
0.5,9.9,0,0.300005,0.000127725,0
0.5,10,0,0.300005,6.68301e-06,0
0.5,10.1,0,0.300006,0.000141575,0
0.5,10.2,0,0.300006,4.22831e-05,0
0.5,10.3,0,0.300007,9.6281e-05,0
0.5,10.4,0,0.300008,9.49761e-05,0
0.5,10.5,0,0.300009,4.39387e-05,0
0.5,10.6,0,0.300009,0.000154338,0
0.5,10.7,0,0.300012,-2.19803e-06,0
0.5,10.8,0,0.30001,0.000152623,0
0.5,10.9,0,0.300014,4.85554e-05,0
0.5,11,0,0.300013,9.54487e-05,0
0.5,11.1,0,0.300014,0.000111384,0
0.5,11.2,0,0.300018,3.03382e-05,0
0.5,11.3,0,0.300014,0.000181757,0
0.5,11.4,0,0.300022,-1.31517e-05,0
0.5,11.5,0,0.300016,0.000158086,0
0.5,11.6,0,0.300021,5.31602e-05,0
0.5,11.7,0,0.300021,8.74001e-05,0
0.5,11.8,0,0.30002,0.000127504,0
0.5,11.9,0,0.300026,7.78551e-06,0
0.5,12,0,0.300018,0.000210208,0
0.5,12.1,0,0.300029,-2.19571e-05,0
0.5,12.2,0,0.300022,0.00015699,0
0.5,12.3,0,0.300026,5.68373e-05,0
0.5,12.4,0,0.300026,7.16443e-05,0
0.5,12.5,0,0.300023,0.000143199,0
0.5,12.6,0,0.300031,-2.85206e-05,0
0.5,12.7,0,0.300027,0.000224079,0
0.6,0,0,0.300029,-0.000272373,0
0.6,0.1,0,0.300034,-0.000105766,0
0.6,0.2,0,0.300037,-2.11248e-05,0
0.6,0.3,0,0.300027,-0.000191836,0
0.6,0.4,0,0.300027,-0.000196889,0
0.6,0.5,0,0.300037,-3.62827e-05,0
0.6,0.6,0,0.300031,-0.000110915,0
0.6,0.7,0,0.30002,-0.00026585,0
0.6,0.8,0,0.300031,-0.000116614,0
0.6,0.9,0,0.300035,-3.90395e-05,0
0.6,1,0,0.300024,-0.000182364,0
0.6,1.1,0,0.300023,-0.000185436,0
0.6,1.2,0,0.300033,-4.82543e-05,0
0.6,1.3,0,0.300026,-0.000110708,0
0.6,1.4,0,0.300015,-0.000241752,0
0.6,1.5,0,0.300024,-0.00011549,0
0.6,1.6,0,0.300028,-4.90841e-05,0
0.6,1.7,0,0.300017,-0.000168796,0
0.6,1.8,0,0.300016,-0.00017075,0
0.6,1.9,0,0.300024,-5.49451e-05,0
0.6,2,0,0.300019,-0.000106049,0
0.6,2.1,0,0.300009,-0.000215055,0
0.6,2.2,0,0.300017,-0.000108964,0
0.6,2.3,0,0.30002,-5.23781e-05,0
0.6,2.4,0,0.300011,-0.000151388,0
0.6,2.5,0,0.30001,-0.000152467,0
0.6,2.6,0,0.300016,-5.56159e-05,0
0.6,2.7,0,0.300012,-9.66533e-05,0
0.6,2.8,0,0.300004,-0.000186116,0
0.6,2.9,0,0.30001,-9.81266e-05,0
0.6,3,0,0.300013,-5.02662e-05,0
0.6,3.1,0,0.300006,-0.000130525,0
0.6,3.2,0,0.300005,-0.000130957,0
0.6,3.3,0,0.300011,-5.15619e-05,0
0.6,3.4,0,0.300007,-8.31647e-05,0
0.6,3.5,0,0.300001,-0.000154465,0
0.6,3.6,0,0.300006,-8.34869e-05,0
0.6,3.7,0,0.300008,-4.37674e-05,0
0.6,3.8,0,0.300002,-0.000106284,0
0.6,3.9,0,0.300002,-0.000106207,0
0.6,4,0,0.300008,-4.35339e-05,0
0.6,4.1,0,0.300004,-6.60578e-05,0
0.6,4.2,0,0.299998,-0.000119918,0
0.6,4.3,0,0.300004,-6.5487e-05,0
0.6,4.4,0,0.300006,-3.37041e-05,0
0.6,4.5,0,0.3,-7.90003e-05,0
0.6,4.6,0,0.3,-7.85396e-05,0
0.6,4.7,0,0.300005,-3.2322e-05,0
0.6,4.8,0,0.300002,-4.60137e-05,0
0.6,4.9,0,0.299996,-8.28144e-05,0
0.6,5,0,0.300002,-4.48095e-05,0
0.6,5.1,0,0.300004,-2.09819e-05,0
0.6,5.2,0,0.299999,-4.93363e-05,0
0.6,5.3,0,0.299998,-4.86286e-05,0
0.6,5.4,0,0.300003,-1.88587e-05,0
0.6,5.5,0,0.300001,-2.39158e-05,0
0.6,5.6,0,0.299995,-4.38577e-05,0
0.6,5.7,0,0.3,-2.23723e-05,0
0.6,5.8,0,0.300002,-6.6568e-06,0
0.6,5.9,0,0.299997,-1.81966e-05,0
0.6,6,0,0.299997,-1.73984e-05,0
0.6,6.1,0,0.300001,-4.2621e-06,0
0.6,6.2,0,0.299999,-8.39209e-07,0
0.6,6.3,0,0.299995,-3.98446e-06,0
0.6,6.4,0,0.299999,7.18951e-07,0
0.6,6.5,0,0.300001,8.05618e-06,0
0.6,6.6,0,0.299997,1.33238e-05,0
0.6,6.7,0,0.299997,1.40583e-05,0
0.6,6.8,0,0.300001,1.02597e-05,0
0.6,6.9,0,0.299999,2.04353e-05,0
0.6,7,0,0.299996,3.25101e-05,0
0.6,7.1,0,0.299997,4.18597e-05,0
0.6,7.2,0,0.299997,4.76821e-05,0
0.6,7.3,0,0.299997,5.34784e-05,0
0.6,7.4,0,0.299997,5.92395e-05,0
0.6,7.5,0,0.299998,6.4966e-05,0
0.6,7.6,0,0.299998,7.06567e-05,0
0.6,7.7,0,0.299998,7.63104e-05,0
0.6,7.8,0,0.299998,8.19266e-05,0
0.6,7.9,0,0.299998,8.7498e-05,0
0.6,8,0,0.299999,9.48147e-05,0
0.6,8.1,0,0.299999,3.52533e-05,0
0.6,8.2,0,0.299999,8.19461e-05,0
0.6,8.3,0,0.299999,6.18593e-05,0
0.6,8.4,0,0.299999,6.43597e-05,0
0.6,8.5,0,0.3,9.49549e-05,0
0.6,8.6,0,0.299999,4.35799e-05,0
0.6,8.7,0,0.300001,0.000125559,0
0.6,8.8,0,0.3,4.86831e-05,0
0.6,8.9,0,0.300001,0.000103845,0
0.6,9,0,0.300001,8.47735e-05,0
0.6,9.1,0,0.300001,7.56017e-05,0
0.6,9.2,0,0.300002,0.000126902,0
0.6,9.3,0,0.300002,5.04024e-05,0
0.6,9.4,0,0.300003,0.000152641,0
0.6,9.5,0,0.300003,6.22237e-05,0
0.6,9.6,0,0.300004,0.000120129,0
0.6,9.7,0,0.300004,0.000107287,0
0.6,9.8,0,0.300004,8.09222e-05,0
0.6,9.9,0,0.300006,0.000158538,0
0.6,10,0,0.300006,5.36802e-05,0
0.6,10.1,0,0.300007,0.000174066,0
0.6,10.2,0,0.300008,7.47741e-05,0
0.6,10.3,0,0.300008,0.000130405,0
0.6,10.4,0,0.30001,0.0001291,0
0.6,10.5,0,0.300011,7.96523e-05,0
0.6,10.6,0,0.300011,0.000190051,0
0.6,10.7,0,0.300014,5.25812e-05,0
0.6,10.8,0,0.300012,0.000189886,0
0.6,10.9,0,0.300016,8.58184e-05,0
0.6,11,0,0.300016,0.000134223,0
0.6,11.1,0,0.300017,0.000150159,0
0.6,11.2,0,0.30002,7.05877e-05,0
0.6,11.3,0,0.300016,0.000222006,0
0.6,11.4,0,0.300024,4.57912e-05,0
0.6,11.5,0,0.300019,0.000199769,0
0.6,11.6,0,0.300024,9.48431e-05,0
0.6,11.7,0,0.300024,0.000130458,0
0.6,11.8,0,0.300024,0.000170562,0
0.6,11.9,0,0.30003,5.21488e-05,0
0.6,12,0,0.300022,0.000254571,0
0.6,12.1,0,0.300032,3.26085e-05,0
0.6,12.2,0,0.300026,0.000202671,0
0.6,12.3,0,0.30003,0.000102518,0
0.6,12.4,0,0.30003,0.000118543,0
0.6,12.5,0,0.300027,0.000190098,0
0.6,12.6,0,0.300034,2.12939e-05,0
0.6,12.7,0,0.30003,0.000273894,0
0.7,0,0,0.300031,-0.000321723,0
0.7,0.1,0,0.300037,-0.000155116,0
0.7,0.2,0,0.300037,-0.000125119,0
0.7,0.3,0,0.30003,-0.000238035,0
0.7,0.4,0,0.30003,-0.000243088,0
0.7,0.5,0,0.300037,-0.000134127,0
0.7,0.6,0,0.300035,-0.000155223,0
0.7,0.7,0,0.300024,-0.000310159,0
0.7,0.8,0,0.300034,-0.000160922,0
0.7,0.9,0,0.300035,-0.000131123,0
0.7,1,0,0.300027,-0.000224702,0
0.7,1.1,0,0.300026,-0.000227773,0
0.7,1.2,0,0.300032,-0.000134273,0
0.7,1.3,0,0.300029,-0.000151,0
0.7,1.4,0,0.300017,-0.000282045,0
0.7,1.5,0,0.300026,-0.000155782,0
0.7,1.6,0,0.300027,-0.00012928,0
0.7,1.7,0,0.300019,-0.000206905,0
0.7,1.8,0,0.300018,-0.000208859,0
0.7,1.9,0,0.300023,-0.000129389,0
0.7,2,0,0.30002,-0.000141892,0
0.7,2.1,0,0.300011,-0.000250898,0
0.7,2.2,0,0.300018,-0.000144807,0
0.7,2.3,0,0.300018,-0.000121224,0
0.7,2.4,0,0.300012,-0.00018487,0
0.7,2.5,0,0.300011,-0.000185949,0
0.7,2.6,0,0.300015,-0.000118919,0
0.7,2.7,0,0.300013,-0.000127673,0
0.7,2.8,0,0.300005,-0.000217136,0
0.7,2.9,0,0.300011,-0.000129146,0
0.7,3,0,0.300011,-0.000108038,0
0.7,3.1,0,0.300006,-0.000158967,0
0.7,3.2,0,0.300006,-0.000159399,0
0.7,3.3,0,0.300009,-0.000103771,0
0.7,3.4,0,0.300007,-0.000108909,0
0.7,3.5,0,0.300001,-0.000180209,0
0.7,3.6,0,0.300006,-0.000109231,0
0.7,3.7,0,0.300007,-9.03506e-05,0
0.7,3.8,0,0.300002,-0.000129208,0
0.7,3.9,0,0.300002,-0.00012913,0
0.7,4,0,0.300005,-8.44111e-05,0
0.7,4.1,0,0.300004,-8.60441e-05,0
0.7,4.2,0,0.299998,-0.000139904,0
0.7,4.3,0,0.300003,-8.54734e-05,0
0.7,4.4,0,0.300004,-6.87892e-05,0
0.7,4.5,0,0.3,-9.59418e-05,0
0.7,4.6,0,0.3,-9.54811e-05,0
0.7,4.7,0,0.300003,-6.15303e-05,0
0.7,4.8,0,0.300002,-5.98161e-05,0
0.7,4.9,0,0.299996,-9.66168e-05,0
0.7,5,0,0.300001,-5.86119e-05,0
0.7,5.1,0,0.300002,-4.42358e-05,0
0.7,5.2,0,0.299998,-5.99219e-05,0
0.7,5.3,0,0.299998,-5.92142e-05,0
0.7,5.4,0,0.300001,-3.60917e-05,0
0.7,5.5,0,0.3,-3.12254e-05,0
0.7,5.6,0,0.299994,-5.11673e-05,0
0.7,5.7,0,0.299999,-2.96819e-05,0
0.7,5.8,0,0.3,-1.7813e-05,0
0.7,5.9,0,0.299997,-2.2191e-05,0
0.7,6,0,0.299996,-2.13928e-05,0
0.7,6.1,0,0.299999,-9.30493e-06,0
0.7,6.2,0,0.299999,-1.50329e-06,0
0.7,6.3,0,0.299994,-4.64854e-06,0
0.7,6.4,0,0.299998,5.48743e-08,0
0.7,6.5,0,0.299999,9.14798e-06,0
0.7,6.6,0,0.299997,1.59834e-05,0
0.7,6.7,0,0.299997,1.67179e-05,0
0.7,6.8,0,0.299999,1.69442e-05,0
0.7,6.9,0,0.299999,2.58536e-05,0
0.7,7,0,0.299996,3.79285e-05,0
0.7,7.1,0,0.299996,4.88364e-05,0
0.7,7.2,0,0.299996,5.56292e-05,0
0.7,7.3,0,0.299996,6.23915e-05,0
0.7,7.4,0,0.299997,6.91128e-05,0
0.7,7.5,0,0.299997,7.57936e-05,0
0.7,7.6,0,0.299997,8.24329e-05,0
0.7,7.7,0,0.299998,8.90288e-05,0