/*--------------------------------*- C++ -*----------------------------------*\
| =========                 |                                                 |
| \\      /  F ield         | OpenFOAM: The Open Source CFD Toolbox           |
|  \\    /   O peration     | Version:  v1806                                 |
|   \\  /    A nd           | Web:      www.OpenFOAM.com                      |
|    \\/     M anipulation  |                                                 |
\*---------------------------------------------------------------------------*/
FoamFile
{
    version     2.0;
    format      ascii;
    class       volVectorField;
    location    "1";
    object      U;
}
// * * * * * * * * * * * * * * * * * * * * * * * * * * * * * * * * * * * * * //

dimensions      [0 1 -1 0 0 0 0];


internalField   nonuniform List<vector> 
5004
(
(0.0118906 0.0488179 0.000552531)
(0.0118912 0.0488143 3.52911e-09)
(0.0118912 0.0488143 -3.57981e-09)
(0.0118906 0.0488179 -0.000552531)
(0.0235388 0.0520373 0.000569005)
(0.023539 0.0520397 2.50695e-09)
(0.023539 0.0520398 -2.50423e-09)
(0.0235388 0.0520374 -0.000569005)
(0.0204205 0.045257 0.000508647)
(0.020421 0.0452556 7.1595e-09)
(0.020421 0.0452556 -7.18284e-09)
(0.0204205 0.0452571 -0.000508647)
(0.0196375 0.0432984 0.000504245)
(0.0196374 0.0432972 6.9654e-09)
(0.0196374 0.0432972 -7.07996e-09)
(0.0196375 0.0432985 -0.000504245)
(0.0141686 0.0380339 0.00052556)
(0.0141724 0.0380345 7.34022e-09)
(0.0141724 0.0380345 -7.422e-09)
(0.0141686 0.038034 -0.000525559)
(0.0200113 0.042352 0.000452506)
(0.0200112 0.0423514 5.66022e-09)
(0.0200112 0.0423514 -5.68222e-09)
(0.0200113 0.042352 -0.000452506)
(0.0171479 0.0392712 0.0004641)
(0.0171476 0.0392701 4.70562e-09)
(0.0171476 0.0392701 -4.7511e-09)
(0.0171479 0.0392712 -0.0004641)
(0.015014 0.0375968 0.00048601)
(0.0150131 0.037595 4.80786e-09)
(0.0150131 0.037595 -4.81679e-09)
(0.015014 0.0375968 -0.00048601)
(1.36782 0.0105461 0.0131845)
(1.36777 0.010599 1.0877e-07)
(1.36777 0.0105994 -1.10589e-07)
(1.36782 0.010547 -0.0131845)
(1.41444 0.174431 0.0132359)
(1.41442 0.174399 1.07224e-07)
(1.41442 0.1744 -1.05868e-07)
(1.41444 0.174432 -0.0132359)
(1.43051 0.377939 0.0131008)
(1.43053 0.377929 4.0843e-08)
(1.43053 0.377929 -4.20906e-08)
(1.43051 0.377939 -0.0131008)
(0.010118 0.0539663 0.000592472)
(0.0101194 0.0539687 1.00348e-09)
(0.0101193 0.0539687 -9.52536e-10)
(0.010118 0.0539664 -0.000592473)
(0.0276622 0.0589393 0.000651191)
(0.0276613 0.0589376 1.24823e-08)
(0.0276613 0.0589376 -1.25481e-08)
(0.0276623 0.0589393 -0.000651191)
(1.52216 -0.256095 0.0129918)
(1.52215 -0.256126 9.09695e-08)
(1.52215 -0.256125 -9.08826e-08)
(1.52216 -0.256094 -0.0129918)
(1.51614 -0.110126 0.0132524)
(1.51614 -0.110169 1.79388e-07)
(1.51614 -0.110168 -1.79099e-07)
(1.51614 -0.110124 -0.0132524)
(1.49735 -0.414237 0.0126707)
(1.49733 -0.414211 1.77903e-07)
(1.49733 -0.41421 -1.78795e-07)
(1.49735 -0.414237 -0.0126707)
(0.918571 0.477948 0.0114516)
(0.918526 0.477927 2.46944e-07)
(0.918526 0.477928 -2.48007e-07)
(0.91857 0.477948 -0.0114516)
(0.714554 0.45755 0.0111283)
(0.714508 0.457535 2.48509e-07)
(0.714508 0.457535 -2.49329e-07)
(0.714554 0.45755 -0.0111283)
(0.0553514 0.130584 0.000866472)
(0.0553482 0.130592 -1.57583e-08)
(0.0553483 0.130592 1.56897e-08)
(0.0553514 0.130584 -0.000866472)
(0.0597305 0.0585093 0.00074046)
(0.0597347 0.0585064 1.64997e-09)
(0.0597346 0.0585064 -1.79388e-09)
(0.0597304 0.0585093 -0.00074046)
(0.0673226 0.0852597 0.000798839)
(0.0673179 0.0852595 -1.47614e-08)
(0.0673179 0.0852595 1.51016e-08)
(0.0673226 0.0852597 -0.000798839)
(0.161845 0.093752 0.00123581)
(0.161828 0.0937471 6.90756e-08)
(0.161828 0.0937471 -6.89032e-08)
(0.161845 0.093752 -0.00123581)
(1.55997 0.0508019 0.0136961)
(1.55998 0.0507758 5.80509e-08)
(1.55998 0.0507747 -6.15533e-08)
(1.55997 0.0507998 -0.0136961)
(0.23213 0.140198 0.00122144)
(0.232134 0.140204 -4.04138e-09)
(0.232134 0.140204 4.21868e-09)
(0.23213 0.140198 -0.00122144)
(0.0587299 0.0550537 0.000749131)
(0.0587241 0.0550568 -3.39919e-10)
(0.0587241 0.0550568 3.58761e-10)
(0.0587299 0.0550538 -0.000749131)
(0.0542869 0.045242 0.000700449)
(0.0542867 0.0452397 3.08224e-08)
(0.0542867 0.0452397 -3.06122e-08)
(0.0542869 0.045242 -0.000700449)
(0.0601303 0.0436688 0.000675741)
(0.0601273 0.0436717 -2.35175e-09)
(0.0601273 0.0436717 2.19166e-09)
(0.0601303 0.0436688 -0.000675741)
(0.057645 0.0290007 0.000620559)
(0.0576392 0.0290033 3.8863e-09)
(0.0576392 0.0290033 -4.07163e-09)
(0.057645 0.0290007 -0.000620559)
(0.05693 0.0259995 0.000572471)
(0.0569282 0.0259986 1.48508e-08)
(0.0569282 0.0259986 -1.49339e-08)
(0.05693 0.0259995 -0.000572471)
(0.0496002 0.0333731 0.000601859)
(0.0496047 0.033371 3.21232e-09)
(0.0496047 0.033371 -3.21712e-09)
(0.0496002 0.0333731 -0.000601859)
(0.180337 0.0562348 0.00121701)
(0.18034 0.0562224 -2.64627e-08)
(0.18034 0.0562225 2.64763e-08)
(0.180337 0.0562349 -0.00121701)
(0.255757 0.0163281 0.00163019)
(0.255761 0.01632 5.88649e-08)
(0.255761 0.01632 -5.8703e-08)
(0.255757 0.016328 -0.00163019)
(0.846589 -0.34904 0.0106242)
(0.846597 -0.349107 -4.54453e-08)
(0.846597 -0.349107 4.55257e-08)
(0.846588 -0.349041 -0.0106242)
(0.950254 -0.143213 0.0114839)
(0.950266 -0.143212 2.80168e-08)
(0.950266 -0.143213 -2.75961e-08)
(0.950254 -0.143215 -0.0114839)
(1.07813 -0.10948 0.0120938)
(1.07813 -0.10945 1.12898e-07)
(1.07813 -0.10945 -1.1419e-07)
(1.07813 -0.109482 -0.0120938)
(1.26612 -0.0997965 0.0125216)
(1.26613 -0.0998081 1.07741e-07)
(1.26613 -0.0998091 -1.07942e-07)
(1.26612 -0.0997986 -0.0125216)
(1.40725 -0.0869815 0.0128892)
(1.40726 -0.0869863 1.01511e-07)
(1.40726 -0.0869864 -1.01785e-07)
(1.40725 -0.086982 -0.0128892)
(0.0533011 0.0213885 0.000558026)
(0.0533004 0.0213915 7.23715e-09)
(0.0533004 0.0213915 -7.42643e-09)
(0.0533011 0.0213885 -0.000558026)
(0.0465233 0.0172298 0.000513464)
(0.0465275 0.01723 6.46612e-09)
(0.0465275 0.01723 -6.55243e-09)
(0.0465233 0.0172298 -0.000513464)
(0.9255 -0.696041 0.00883498)
(0.925541 -0.696037 -2.91108e-08)
(0.925541 -0.696036 3.01856e-08)
(0.925501 -0.696038 -0.00883498)
(1.29646 0.0764064 0.0128617)
(1.29648 0.0764312 1.90069e-07)
(1.29648 0.0764311 -1.91084e-07)
(1.29647 0.0764063 -0.0128617)
(0.230802 -0.0110468 0.00184396)
(0.230789 -0.0110385 -1.34169e-08)
(0.230789 -0.0110385 1.36311e-08)
(0.230802 -0.0110469 -0.00184396)
(0.268649 -0.0234968 0.00219605)
(0.268662 -0.0235016 4.17749e-08)
(0.268662 -0.0235016 -4.16814e-08)
(0.268649 -0.0234968 -0.00219605)
(0.282689 -0.0349462 0.00251704)
(0.282687 -0.0349411 -2.52477e-09)
(0.282687 -0.0349411 2.59511e-09)
(0.282689 -0.0349461 -0.00251704)
(0.312895 -0.0453481 0.00287804)
(0.312903 -0.0453469 2.00112e-08)
(0.312903 -0.0453469 -1.97354e-08)
(0.312895 -0.045348 -0.00287804)
(0.345333 -0.0507363 0.00325673)
(0.345339 -0.0507349 2.16553e-08)
(0.345339 -0.0507349 -2.10577e-08)
(0.345333 -0.0507363 -0.00325673)
(0.38622 -0.0530642 0.00367162)
(0.386226 -0.053063 3.38522e-08)
(0.386226 -0.053063 -3.31813e-08)
(0.38622 -0.0530642 -0.00367162)
(0.43515 -0.0666625 0.00413826)
(0.435158 -0.0666609 3.46143e-08)
(0.435158 -0.0666609 -3.41129e-08)
(0.43515 -0.0666625 -0.00413826)
(0.488508 -0.0802222 0.00464959)
(0.488519 -0.0802219 4.48591e-08)
(0.488519 -0.0802219 -4.46164e-08)
(0.488508 -0.0802221 -0.00464959)
(0.550185 -0.0846145 0.00521194)
(0.550199 -0.0846167 5.30119e-08)
(0.550199 -0.0846166 -5.30199e-08)
(0.550185 -0.0846143 -0.00521194)
(0.622884 -0.0932383 0.00580547)
(0.622887 -0.0932551 1.17229e-07)
(0.622887 -0.093255 -1.16878e-07)
(0.622884 -0.093238 -0.00580547)
(0.729482 -0.10467 0.00641997)
(0.729537 -0.104649 -7.44548e-08)
(0.729537 -0.104649 7.59158e-08)
(0.729481 -0.10467 -0.00641997)
(0.813708 -0.137764 0.0072305)
(0.813683 -0.137778 2.19406e-07)
(0.813683 -0.137778 -2.19113e-07)
(0.813708 -0.137764 -0.0072305)
(1.01761 -0.0975769 0.00756077)
(1.01763 -0.0975551 -8.04572e-08)
(1.01763 -0.0975553 8.27737e-08)
(1.0176 -0.0975775 -0.00756077)
(0.970093 -0.38627 0.00909254)
(0.970129 -0.386253 1.61057e-07)
(0.970129 -0.386252 -1.59668e-07)
(0.970093 -0.386268 -0.00909254)
(0.849088 -0.306417 0.0101232)
(0.849055 -0.306417 8.77677e-08)
(0.849055 -0.306417 -8.84141e-08)
(0.849088 -0.306417 -0.0101232)
(0.987525 -0.278987 0.0109393)
(0.987537 -0.278986 1.0224e-07)
(0.987538 -0.278986 -1.02307e-07)
(0.987526 -0.278987 -0.0109393)
(1.07719 -0.2431 0.0115424)
(1.07719 -0.24308 7.68543e-08)
(1.07719 -0.243081 -7.79432e-08)
(1.07719 -0.243102 -0.0115424)
(1.22465 -0.245112 0.0120915)
(1.22465 -0.245102 1.88307e-07)
(1.22465 -0.245103 -1.90211e-07)
(1.22465 -0.245112 -0.0120915)
(0.0406517 0.0343641 0.000501945)
(0.040654 0.0343653 6.98908e-09)
(0.040654 0.0343653 -6.9809e-09)
(0.0406517 0.0343641 -0.000501945)
(1.639 0.22857 0.0136775)
(1.63902 0.228507 2.80887e-07)
(1.63902 0.228507 -2.83476e-07)
(1.639 0.228569 -0.0136775)
(1.26666 0.23276 0.0128953)
(1.26665 0.232752 1.95847e-07)
(1.26665 0.232751 -1.95845e-07)
(1.26666 0.232759 -0.0128953)
(0.977083 0.0223679 0.0124601)
(0.977108 0.0223466 3.7681e-08)
(0.977109 0.0223461 -3.69052e-08)
(0.977084 0.022367 -0.0124601)
(0.137927 0.0510549 0.0010279)
(0.137943 0.0510553 -5.07786e-09)
(0.137943 0.0510553 5.15226e-09)
(0.137927 0.0510549 -0.0010279)
(0.102624 0.0402729 0.000897351)
(0.102623 0.0402778 4.09793e-08)
(0.102623 0.0402778 -4.11061e-08)
(0.102624 0.0402729 -0.000897351)
(0.0866461 0.0293045 0.000769317)
(0.0866544 0.0293083 4.74071e-09)
(0.0866544 0.0293082 -4.89596e-09)
(0.0866461 0.0293045 -0.000769316)
(0.0733648 0.0189718 0.000679152)
(0.073364 0.0189748 1.90798e-08)
(0.073364 0.0189748 -1.9268e-08)
(0.0733648 0.0189718 -0.000679152)
(0.0627757 0.0120306 0.000589184)
(0.0627783 0.012031 1.29581e-08)
(0.0627783 0.012031 -1.31497e-08)
(0.0627757 0.0120306 -0.000589184)
(0.0541643 0.00824699 0.000509311)
(0.0541656 0.00824867 1.09689e-08)
(0.0541656 0.00824867 -1.11266e-08)
(0.0541643 0.00824699 -0.000509311)
(0.049654 0.0143225 0.000488955)
(0.0496546 0.0143253 4.14585e-09)
(0.0496546 0.0143253 -4.19176e-09)
(0.049654 0.0143225 -0.000488955)
(0.0438006 0.0170031 0.000460584)
(0.0438005 0.0170026 4.99502e-09)
(0.0438005 0.0170026 -4.95969e-09)
(0.0438006 0.0170031 -0.000460584)
(0.0414983 0.0241428 0.000439667)
(0.0414976 0.0241427 6.96465e-09)
(0.0414976 0.0241427 -6.86054e-09)
(0.0414983 0.0241428 -0.000439668)
(1.37359 -0.242896 0.0125185)
(1.37353 -0.24289 1.42322e-07)
(1.37353 -0.24289 -1.4538e-07)
(1.37359 -0.242896 -0.0125185)
(1.67397 -0.125282 0.0136192)
(1.67393 -0.125278 2.2377e-07)
(1.67392 -0.125278 -2.22079e-07)
(1.67397 -0.125281 -0.0136192)
(1.08312 0.169645 0.0125443)
(1.08317 0.169708 2.71386e-08)
(1.08317 0.169708 -2.73345e-08)
(1.08312 0.169645 -0.0125443)
(0.980675 0.155875 0.0124312)
(0.980605 0.155887 3.00454e-07)
(0.980605 0.155887 -3.00225e-07)
(0.980675 0.155875 -0.0124312)
(0.725165 0.0147311 0.0122753)
(0.725147 0.0147547 1.63474e-07)
(0.725147 0.0147551 -1.63106e-07)
(0.725166 0.0147319 -0.0122753)
(0.546994 -0.181355 0.0125983)
(0.546971 -0.181367 1.50573e-07)
(0.54697 -0.181367 -1.54638e-07)
(0.546991 -0.181355 -0.0125983)
(1.69691 -0.281021 0.0134287)
(1.69696 -0.281038 4.58769e-08)
(1.69696 -0.281037 -4.58593e-08)
(1.69691 -0.28102 -0.0134287)
(1.61875 0.395733 0.0134627)
(1.61875 0.395704 2.57534e-07)
(1.61875 0.395704 -2.6002e-07)
(1.61875 0.395732 -0.0134627)
(1.80256 0.397079 0.0136775)
(1.80251 0.397093 2.95981e-07)
(1.80251 0.397092 -2.97703e-07)
(1.80256 0.397077 -0.0136775)
(1.82594 0.220863 0.0138735)
(1.82587 0.220885 2.68276e-07)
(1.82587 0.220884 -2.69284e-07)
(1.82594 0.220861 -0.0138735)
(1.92105 0.067064 0.0139558)
(1.92099 0.0670494 2.95641e-07)
(1.92099 0.0670486 -2.97621e-07)
(1.92104 0.067063 -0.0139558)
(1.84547 -0.129595 0.0138914)
(1.84544 -0.129588 2.12822e-07)
(1.84544 -0.129589 -2.19719e-07)
(1.84547 -0.129595 -0.0138914)
(1.84772 -0.297855 0.0137063)
(1.8477 -0.297841 2.11759e-07)
(1.8477 -0.297842 -2.15174e-07)
(1.84772 -0.297856 -0.0137063)
(1.26274 0.351612 0.0127166)
(1.26277 0.351639 2.47457e-08)
(1.26277 0.351639 -2.59814e-08)
(1.26275 0.351612 -0.0127166)
(0.0207184 0.0883681 0.000727445)
(0.0207134 0.0883784 -6.12849e-09)
(0.0207134 0.0883784 5.91365e-09)
(0.0207183 0.0883681 -0.000727445)
(1.3481 -0.381994 0.0121719)
(1.34808 -0.382015 1.35578e-07)
(1.34808 -0.382016 -1.3881e-07)
(1.3481 -0.381995 -0.0121719)
(1.22598 -0.378746 0.0116218)
(1.22599 -0.378768 1.38563e-07)
(1.22599 -0.378769 -1.40577e-07)
(1.22598 -0.378746 -0.0116218)
(1.10439 -0.360801 0.010985)
(1.1044 -0.360789 7.80661e-08)
(1.10441 -0.36079 -8.04891e-08)
(1.10439 -0.360802 -0.010985)
(1.01191 -0.369579 0.010282)
(1.01193 -0.369583 6.77491e-08)
(1.01193 -0.369584 -6.97055e-08)
(1.01191 -0.36958 -0.010282)
(0.914625 -0.386253 0.00938825)
(0.914646 -0.386245 7.20534e-10)
(0.914646 -0.386245 -1.58781e-09)
(0.914626 -0.386254 -0.00938825)
(0.922014 -0.434428 0.00850417)
(0.922061 -0.434469 -1.32434e-08)
(0.922061 -0.434469 1.27487e-08)
(0.922014 -0.434427 -0.00850417)
(0.871562 -0.258257 0.00738818)
(0.87154 -0.258248 -6.97671e-08)
(0.87154 -0.258248 7.16258e-08)
(0.871562 -0.258257 -0.00738818)
(0.734321 -0.219724 0.0069058)
(0.734289 -0.219761 1.64638e-07)
(0.734289 -0.219761 -1.63291e-07)
(0.734321 -0.219724 -0.0069058)
(0.669095 -0.173915 0.00623097)
(0.669128 -0.173913 -2.57372e-08)
(0.669128 -0.173913 2.73e-08)
(0.669095 -0.173915 -0.00623097)
(0.594216 -0.149462 0.00565027)
(0.594214 -0.14948 4.85885e-08)
(0.594214 -0.14948 -4.82932e-08)
(0.594216 -0.149462 -0.00565027)
(0.531936 -0.125143 0.00508531)
(0.531941 -0.125153 4.55067e-08)
(0.531941 -0.125153 -4.57113e-08)
(0.531936 -0.125143 -0.00508531)
(0.47092 -0.107531 0.00455201)
(0.470927 -0.107535 4.1439e-08)
(0.470927 -0.107535 -4.14406e-08)
(0.47092 -0.10753 -0.00455201)
(0.422669 -0.0975234 0.00404892)
(0.422677 -0.0975241 3.76061e-08)
(0.422677 -0.0975241 -3.72893e-08)
(0.422669 -0.0975234 -0.00404892)
(0.377381 -0.090938 0.00359077)
(0.377389 -0.0909386 3.12361e-08)
(0.377389 -0.0909386 -3.07119e-08)
(0.377381 -0.090938 -0.00359077)
(0.337698 -0.0755963 0.00318308)
(0.337705 -0.0755983 2.59197e-08)
(0.337705 -0.0755982 -2.54094e-08)
(0.337698 -0.0755963 -0.00318308)
(0.306644 -0.060391 0.00280178)
(0.306651 -0.0603935 2.44964e-08)
(0.306651 -0.0603935 -2.42035e-08)
(0.306644 -0.060391 -0.00280178)
(0.277431 -0.0496784 0.00244789)
(0.277433 -0.0496782 1.67375e-08)
(0.277433 -0.0496782 -1.66478e-08)
(0.277431 -0.0496784 -0.00244789)
(0.254263 -0.0398244 0.00212556)
(0.254267 -0.0398309 2.7237e-08)
(0.254267 -0.0398309 -2.71329e-08)
(0.254263 -0.0398244 -0.00212556)
(0.227481 -0.0176806 0.00182256)
(0.227481 -0.0176752 1.47719e-08)
(0.227481 -0.0176752 -1.45251e-08)
(0.227481 -0.0176806 -0.00182256)
(0.210044 -0.0181898 0.00155049)
(0.210047 -0.0182013 2.24625e-08)
(0.210047 -0.0182013 -2.21345e-08)
(0.210044 -0.0181897 -0.00155049)
(0.16588 0.033202 0.0012888)
(0.16588 0.0332112 1.00672e-08)
(0.16588 0.0332112 -9.90311e-09)
(0.16588 0.033202 -0.0012888)
(0.133045 0.0278944 0.00108357)
(0.133044 0.0279004 1.16799e-08)
(0.133044 0.0279004 -1.1606e-08)
(0.133045 0.0278944 -0.00108357)
(0.108354 0.0150793 0.000922338)
(0.108354 0.0150715 1.04709e-08)
(0.108354 0.0150715 -1.05083e-08)
(0.108354 0.0150793 -0.000922338)
(0.0892471 0.0103077 0.000796827)
(0.0892471 0.0103093 8.41362e-09)
(0.0892471 0.0103093 -8.52056e-09)
(0.0892471 0.0103077 -0.000796827)
(0.0757944 0.00644905 0.000693225)
(0.0757936 0.00644848 9.29195e-09)
(0.0757936 0.00644848 -9.45581e-09)
(0.0757944 0.00644904 -0.000693225)
(0.0652615 0.00373623 0.000601456)
(0.0652616 0.00373678 9.30552e-09)
(0.0652616 0.00373677 -9.47246e-09)
(0.0652615 0.00373623 -0.000601456)
(0.0563982 0.000592359 0.000517556)
(0.0563988 0.00059347 7.96596e-09)
(0.0563988 0.000593469 -8.08059e-09)
(0.0563982 0.000592358 -0.000517555)
(0.0490983 -0.000841517 0.00044469)
(0.0490986 -0.000840335 8.4031e-09)
(0.0490986 -0.000840336 -8.43344e-09)
(0.0490983 -0.000841519 -0.00044469)
(0.0474348 0.00517723 0.000440317)
(0.0474357 0.00517791 9.14418e-09)
(0.0474357 0.00517791 -9.10652e-09)
(0.0474348 0.00517723 -0.000440317)
(0.0445746 0.0105411 0.000428329)
(0.0445739 0.0105422 7.84164e-09)
(0.0445739 0.0105422 -7.7347e-09)
(0.0445746 0.0105411 -0.000428329)
(0.0397751 0.014382 0.000408702)
(0.0397745 0.0143818 7.60404e-09)
(0.0397745 0.0143818 -7.44872e-09)
(0.0397751 0.014382 -0.000408702)
(0.0372517 0.0174445 0.000389102)
(0.0372522 0.0174436 8.41275e-09)
(0.0372522 0.0174436 -8.22386e-09)
(0.0372517 0.0174445 -0.000389102)
(0.0344699 0.0202784 0.000367431)
(0.0344696 0.0202795 8.73685e-09)
(0.0344696 0.0202795 -8.55464e-09)
(0.0344699 0.0202784 -0.000367431)
(0.0388746 0.0242008 0.00041967)
(0.0388739 0.0242016 4.71272e-09)
(0.0388739 0.0242016 -4.53489e-09)
(0.0388746 0.0242008 -0.00041967)
(0.0375564 0.0270227 0.000486805)
(0.0375552 0.0270232 7.92588e-09)
(0.0375552 0.0270232 -7.83702e-09)
(0.0375564 0.0270227 -0.000486805)
(0.0391861 0.0371266 0.000541353)
(0.0391846 0.0371261 1.95104e-09)
(0.0391846 0.0371261 -1.862e-09)
(0.0391861 0.0371266 -0.000541353)
(0.0409047 0.0506294 0.000595963)
(0.0409037 0.0506372 4.39437e-09)
(0.0409037 0.0506372 -4.31309e-09)
(0.0409047 0.0506293 -0.000595963)
(0.0349457 0.0568787 0.000640815)
(0.0349497 0.0568753 -3.20431e-09)
(0.0349497 0.0568754 3.44995e-09)
(0.0349456 0.0568788 -0.000640815)
(1.08443 0.326988 0.0122807)
(1.08447 0.326983 -9.92989e-09)
(1.08447 0.326983 1.01154e-08)
(1.08443 0.326988 -0.0122807)
(0.955557 0.322374 0.0119411)
(0.955545 0.322379 6.0946e-08)
(0.955545 0.322379 -6.13373e-08)
(0.955556 0.322374 -0.0119411)
(1.67097 -0.423652 0.0131113)
(1.67096 -0.423633 8.08371e-08)
(1.67096 -0.423633 -7.54008e-08)
(1.67096 -0.423652 -0.0131114)
(0.818667 0.291752 0.0117106)
(0.81868 0.29175 1.78369e-08)
(0.81868 0.291751 -1.72099e-08)
(0.818667 0.291753 -0.0117106)
(1.83448 -0.440422 0.0134362)
(1.83451 -0.440426 8.1441e-08)
(1.83451 -0.440426 -8.30073e-08)
(1.83448 -0.440421 -0.0134362)
(0.616838 0.288877 0.0115898)
(0.616844 0.288872 2.18308e-08)
(0.616843 0.288872 -2.29503e-08)
(0.616837 0.288877 -0.0115898)
(0.0285405 0.0495554 0.000560631)
(0.028536 0.0495537 7.64301e-09)
(0.028536 0.0495537 -7.52766e-09)
(0.0285405 0.0495555 -0.000560631)
(0.032951 0.042432 0.000533457)
(0.0329509 0.0424313 1.21142e-08)
(0.0329509 0.0424313 -1.21708e-08)
(0.032951 0.042432 -0.000533456)
(0.0349357 0.0361182 0.000488177)
(0.0349374 0.0361179 5.07048e-09)
(0.0349374 0.0361179 -5.05144e-09)
(0.0349357 0.0361182 -0.000488177)
(0.033305 0.0323207 0.000436849)
(0.0333048 0.0323215 7.29961e-09)
(0.0333048 0.0323215 -7.17303e-09)
(0.033305 0.0323207 -0.000436849)
(0.0319397 0.0264461 0.000388695)
(0.0319398 0.026446 5.3951e-09)
(0.0319398 0.026446 -5.17483e-09)
(0.0319397 0.0264461 -0.000388695)
(0.0305644 0.0221721 0.000342035)
(0.0305645 0.0221736 6.14816e-09)
(0.0305645 0.0221736 -5.90895e-09)
(0.0305644 0.0221721 -0.000342035)
(0.598052 0.485454 0.0111047)
(0.598025 0.485459 2.05722e-07)
(0.598025 0.485459 -2.07079e-07)
(0.598052 0.485454 -0.0111047)
(1.05537 0.459683 0.0118434)
(1.05536 0.459649 1.17203e-07)
(1.05536 0.459649 -1.17238e-07)
(1.05537 0.459684 -0.0118434)
(1.25857 0.50599 0.0123112)
(1.25857 0.505987 1.25784e-07)
(1.25857 0.505987 -1.26895e-07)
(1.25857 0.50599 -0.0123112)
(1.41111 0.506029 0.0127738)
(1.41114 0.506029 3.48527e-08)
(1.41114 0.506029 -3.73729e-08)
(1.41111 0.506029 -0.0127738)
(1.59272 0.550521 0.0131308)
(1.59272 0.550534 2.2742e-07)
(1.59272 0.550534 -2.29358e-07)
(1.59272 0.55052 -0.0131308)
(1.7877 0.580249 0.0133528)
(1.78764 0.580239 2.8647e-07)
(1.78764 0.580238 -2.87081e-07)
(1.7877 0.580248 -0.0133528)
(1.97384 0.61917 0.0134612)
(1.97382 0.619137 2.91674e-07)
(1.97382 0.619136 -2.92235e-07)
(1.97384 0.61917 -0.0134612)
(2.0015 0.441959 0.0138068)
(2.00147 0.441923 2.82872e-07)
(2.00147 0.441923 -2.8431e-07)
(2.0015 0.441959 -0.0138068)
(1.99292 0.259266 0.014008)
(1.99288 0.259222 2.16117e-07)
(1.99288 0.259222 -2.16697e-07)
(1.99292 0.259267 -0.014008)
(1.96656 0.0717524 0.0140749)
(1.96653 0.0717883 1.21989e-07)
(1.96653 0.0717897 -1.24569e-07)
(1.96656 0.0717541 -0.0140749)
(2.04073 -0.0800893 0.0140318)
(2.04069 -0.0800558 2.57328e-07)
(2.04069 -0.0800554 -2.62355e-07)
(2.04073 -0.0800892 -0.0140318)
(2.03151 -0.278937 0.013849)
(2.03147 -0.278901 2.50658e-07)
(2.03147 -0.2789 -2.53569e-07)
(2.03151 -0.278936 -0.013849)
(2.02208 -0.471014 0.0135887)
(2.02205 -0.47096 2.92491e-07)
(2.02205 -0.47096 -3.01964e-07)
(2.02208 -0.471013 -0.0135887)
(2.00579 -0.626586 0.0132075)
(2.00575 -0.626583 2.60623e-07)
(2.00575 -0.626583 -2.64197e-07)
(2.00579 -0.626585 -0.0132075)
(1.80536 -0.619454 0.0130407)
(1.80537 -0.619454 6.83923e-08)
(1.80537 -0.619453 -7.03133e-08)
(1.80536 -0.619452 -0.0130407)
(1.63647 -0.575835 0.0127095)
(1.63647 -0.575861 6.09547e-08)
(1.63647 -0.575861 -5.79981e-08)
(1.63647 -0.575835 -0.0127095)
(1.46678 -0.514914 0.0122416)
(1.46678 -0.514953 7.08798e-08)
(1.46678 -0.514954 -7.17642e-08)
(1.46677 -0.514914 -0.0122416)
(1.32928 -0.479109 0.0116873)
(1.32927 -0.47914 3.92375e-08)
(1.32927 -0.479139 -4.07292e-08)
(1.32928 -0.479108 -0.0116873)
(1.20018 -0.470711 0.0110925)
(1.20015 -0.470743 1.35493e-07)
(1.20015 -0.470743 -1.37117e-07)
(1.20018 -0.470711 -0.0110925)
(1.09381 -0.466358 0.0104517)
(1.0938 -0.466338 1.17204e-07)
(1.0938 -0.466338 -1.18988e-07)
(1.09381 -0.466358 -0.0104517)
(0.98727 -0.464753 0.00975825)
(0.987287 -0.46475 1.00624e-07)
(0.987287 -0.46475 -1.01624e-07)
(0.98727 -0.464753 -0.00975825)
(0.899398 -0.438785 0.00894615)
(0.899407 -0.43878 3.37823e-08)
(0.899408 -0.43878 -3.47511e-08)
(0.899399 -0.438786 -0.00894615)
(0.860105 -0.41743 0.00817127)
(0.860141 -0.417432 6.47011e-08)
(0.860141 -0.417432 -6.51837e-08)
(0.860105 -0.417429 -0.00817127)
(0.809143 -0.317944 0.0072949)
(0.809145 -0.317918 -4.80975e-09)
(0.809145 -0.317918 6.13711e-09)
(0.809143 -0.317944 -0.0072949)
(0.712686 -0.294531 0.00667068)
(0.71267 -0.294559 1.49179e-07)
(0.71267 -0.294559 -1.47791e-07)
(0.712686 -0.294531 -0.00667068)
(0.636936 -0.246957 0.00601064)
(0.636973 -0.246964 2.81433e-09)
(0.636974 -0.246964 -1.5534e-09)
(0.636936 -0.246957 -0.00601064)
(0.564948 -0.213667 0.00542897)
(0.564959 -0.213675 3.41182e-08)
(0.564959 -0.213675 -3.40622e-08)
(0.564949 -0.213666 -0.00542897)
(0.509223 -0.194679 0.00488496)
(0.509226 -0.194674 3.69101e-08)
(0.509226 -0.194674 -3.73489e-08)
(0.509223 -0.194679 -0.00488496)
(0.450337 -0.173692 0.00436399)
(0.450339 -0.17369 2.96078e-08)
(0.450339 -0.17369 -2.98522e-08)
(0.450337 -0.173692 -0.00436399)
(0.400292 -0.149982 0.00388322)
(0.400295 -0.149984 2.71607e-08)
(0.400295 -0.149984 -2.69025e-08)
(0.400292 -0.149982 -0.00388322)
(0.358573 -0.130369 0.00344846)
(0.35858 -0.130372 2.45873e-08)
(0.35858 -0.130372 -2.40953e-08)
(0.358573 -0.130369 -0.00344846)
(0.322666 -0.114002 0.00304545)
(0.322673 -0.114002 1.27888e-08)
(0.322673 -0.114002 -1.2415e-08)
(0.322666 -0.114002 -0.00304545)
(0.290761 -0.0989625 0.00267753)
(0.290767 -0.0989622 1.13922e-08)
(0.290767 -0.0989622 -1.12669e-08)
(0.290761 -0.0989625 -0.00267753)
(0.25954 -0.0831216 0.00234507)
(0.259542 -0.0831221 4.03368e-09)
(0.259542 -0.0831221 -4.05743e-09)
(0.25954 -0.0831216 -0.00234507)
(0.237703 -0.0674008 0.00204691)
(0.23771 -0.0674012 1.89664e-08)
(0.23771 -0.0674012 -1.89153e-08)
(0.237703 -0.0674008 -0.00204691)
(0.209589 -0.0505233 0.00175724)
(0.209583 -0.0505206 -9.10351e-09)
(0.209583 -0.0505206 9.27989e-09)
(0.209589 -0.0505233 -0.00175724)
(0.190714 -0.0346776 0.00151881)
(0.190715 -0.0346769 3.59421e-08)
(0.190715 -0.0346769 -3.57076e-08)
(0.190714 -0.0346776 -0.00151881)
(0.163053 -0.0132051 0.00126829)
(0.16306 -0.0132012 -1.06513e-08)
(0.16306 -0.0132012 1.08375e-08)
(0.163053 -0.0132051 -0.00126829)
(0.129287 -0.00737371 0.00109002)
(0.129278 -0.0073699 1.35595e-08)
(0.129278 -0.0073699 -1.34509e-08)
(0.129287 -0.0073737 -0.00109002)
(0.107507 -0.00478281 0.000935385)
(0.107507 -0.00477989 1.52054e-08)
(0.107507 -0.00477989 -1.52051e-08)
(0.107507 -0.0047828 -0.000935385)
(0.0909672 -0.00548337 0.000806825)
(0.0909672 -0.00548052 1.23958e-08)
(0.0909672 -0.00548052 -1.25011e-08)
(0.0909672 -0.00548337 -0.000806825)
(0.0775988 -0.00657099 0.000697675)
(0.0775987 -0.00656837 1.38774e-08)
(0.0775987 -0.00656837 -1.40358e-08)
(0.0775988 -0.00657099 -0.000697675)
(0.0662756 -0.00694253 0.000600166)
(0.0662764 -0.00694074 1.2474e-08)
(0.0662764 -0.00694074 -1.26217e-08)
(0.0662756 -0.00694253 -0.000600166)
(0.0569835 -0.00680311 0.000515674)
(0.0569843 -0.00680251 1.15056e-08)
(0.0569843 -0.00680251 -1.15693e-08)
(0.0569835 -0.00680311 -0.000515674)
(0.0497272 -0.00706994 0.000441324)
(0.0497279 -0.00706921 1.05329e-08)
(0.0497279 -0.00706921 -1.0483e-08)
(0.0497272 -0.00706994 -0.000441324)
(0.0432735 -0.00689461 0.000375075)
(0.0432751 -0.00689362 9.62725e-09)
(0.0432751 -0.00689362 -9.53505e-09)
(0.0432735 -0.00689461 -0.000375075)
(0.0431374 -0.00177653 0.000381324)
(0.0431381 -0.00177524 7.96299e-09)
(0.0431381 -0.00177524 -7.82913e-09)
(0.0431374 -0.00177653 -0.000381324)
(0.0421481 0.00317324 0.000379481)
(0.0421491 0.00317403 7.58476e-09)
(0.0421491 0.00317403 -7.39323e-09)
(0.0421481 0.00317324 -0.000379481)
(0.0401788 0.0078628 0.000371461)
(0.0401795 0.00786413 6.76941e-09)
(0.0401795 0.00786413 -6.52661e-09)
(0.0401788 0.0078628 -0.000371462)
(0.0371426 0.0114564 0.000357191)
(0.0371432 0.0114572 4.60939e-09)
(0.0371432 0.0114572 -4.33517e-09)
(0.0371426 0.0114564 -0.000357191)
(0.0346821 0.0140456 0.000339565)
(0.0346833 0.0140453 5.08844e-09)
(0.0346833 0.0140453 -4.79881e-09)
(0.0346821 0.0140456 -0.000339566)
(0.0318382 0.0166699 0.000320394)
(0.0318396 0.0166702 5.18377e-09)
(0.0318396 0.0166702 -4.90022e-09)
(0.0318382 0.0166699 -0.000320395)
(0.0286488 0.0183116 0.000297946)
(0.0286495 0.0183121 4.5714e-09)
(0.0286495 0.0183121 -4.30078e-09)
(0.0286488 0.0183115 -0.000297946)
(0.0256854 0.0198124 0.000273966)
(0.025686 0.0198128 4.37552e-09)
(0.025686 0.0198128 -4.17561e-09)
(0.0256854 0.0198124 -0.000273966)
(0.0271409 0.0227183 0.000312867)
(0.027141 0.0227188 5.92681e-09)
(0.027141 0.0227188 -5.67415e-09)
(0.0271409 0.0227183 -0.000312868)
(0.0282093 0.0257478 0.00035186)
(0.0282093 0.0257485 4.65523e-09)
(0.0282093 0.0257485 -4.40101e-09)
(0.0282093 0.0257478 -0.00035186)
(0.0292015 0.0299765 0.000394568)
(0.0292007 0.0299777 6.33687e-09)
(0.0292008 0.0299777 -6.14399e-09)
(0.0292015 0.0299765 -0.000394568)
(0.0291126 0.0355707 0.000434802)
(0.0291127 0.0355706 2.69248e-09)
(0.0291127 0.0355706 -2.54403e-09)
(0.0291125 0.0355707 -0.000434803)
(0.0275681 0.0402464 0.000469361)
(0.027569 0.0402479 5.68732e-09)
(0.027569 0.0402479 -5.57251e-09)
(0.0275681 0.0402464 -0.000469361)
(0.0262765 0.0438918 0.000493132)
(0.0262771 0.0438916 4.20674e-09)
(0.0262771 0.0438916 -4.02881e-09)
(0.0262765 0.0438918 -0.000493132)
(0.0114475 0.0394282 0.000558017)
(0.0114507 0.0394292 9.71972e-09)
(0.0114507 0.0394292 -9.79175e-09)
(0.0114474 0.0394282 -0.000558017)
(-0.00123746 0.0620532 0.000645226)
(-0.00123782 0.0620467 1.21104e-08)
(-0.00123782 0.0620467 -1.18246e-08)
(-0.00123745 0.0620532 -0.000645226)
(0.0380074 -0.00621075 0.000317798)
(0.0380094 -0.00621064 7.12166e-09)
(0.0380094 -0.00621064 -6.96456e-09)
(0.0380074 -0.00621075 -0.000317798)
(0.0383195 -0.0023089 0.000325103)
(0.0383206 -0.00230836 7.1753e-09)
(0.0383206 -0.00230836 -6.93658e-09)
(0.0383195 -0.0023089 -0.000325103)
(0.037681 0.00176662 0.000324963)
(0.0376819 0.00176725 6.55961e-09)
(0.0376819 0.00176725 -6.26038e-09)
(0.037681 0.00176662 -0.000324964)
(0.0363174 0.00583312 0.000319574)
(0.0363181 0.00583373 6.34306e-09)
(0.0363181 0.00583373 -6.00494e-09)
(0.0363174 0.00583312 -0.000319575)
(0.034166 0.00882118 0.000308662)
(0.034166 0.00882161 5.54432e-09)
(0.034166 0.00882161 -5.18955e-09)
(0.034166 0.00882118 -0.000308662)
(0.0319163 0.0115338 0.000294196)
(0.0319166 0.0115339 5.69765e-09)
(0.0319166 0.0115339 -5.34552e-09)
(0.0319163 0.0115338 -0.000294196)
(0.029491 0.0137029 0.000277668)
(0.0294916 0.0137035 5.39573e-09)
(0.0294916 0.0137035 -5.06202e-09)
(0.029491 0.0137029 -0.000277668)
(0.0268074 0.0154242 0.000258277)
(0.0268079 0.0154248 4.50188e-09)
(0.0268079 0.0154248 -4.2014e-09)
(0.0268074 0.0154242 -0.000258277)
(0.0240667 0.0166744 0.000236371)
(0.0240672 0.0166748 4.25529e-09)
(0.0240672 0.0166748 -4.01391e-09)
(0.0240667 0.0166744 -0.000236371)
(1.97172 -0.817708 0.0127459)
(1.9717 -0.817721 2.16639e-07)
(1.97171 -0.81772 -2.17656e-07)
(1.97172 -0.817707 -0.0127459)
(1.76057 -0.760745 0.0125676)
(1.76061 -0.760749 4.53126e-08)
(1.76061 -0.760748 -4.60737e-08)
(1.76057 -0.760744 -0.0125676)
(1.61524 -0.69641 0.0121916)
(1.61526 -0.696389 3.35674e-08)
(1.61526 -0.696389 -3.27181e-08)
(1.61524 -0.69641 -0.0121916)
(1.45651 -0.686236 0.0116827)
(1.45647 -0.686201 1.86671e-07)
(1.45647 -0.686202 -1.89204e-07)
(1.45651 -0.686237 -0.0116827)
(1.30584 -0.660062 0.0111275)
(1.30581 -0.660029 1.77119e-07)
(1.30581 -0.660029 -1.79346e-07)
(1.30584 -0.660062 -0.0111275)
(1.16709 -0.622809 0.0105273)
(1.16705 -0.622799 1.65877e-07)
(1.16705 -0.622799 -1.68029e-07)
(1.16708 -0.622808 -0.0105273)
(1.05755 -0.582287 0.00989205)
(1.05753 -0.582278 1.31217e-07)
(1.05753 -0.582277 -1.3382e-07)
(1.05754 -0.582286 -0.00989205)
(0.951986 -0.544026 0.00922996)
(0.952027 -0.544034 2.92546e-08)
(0.952027 -0.544034 -3.09328e-08)
(0.951986 -0.544026 -0.00922996)
(0.87421 -0.510191 0.00844368)
(0.874237 -0.510189 2.47208e-09)
(0.874237 -0.51019 -2.82678e-09)
(0.87421 -0.510191 -0.00844368)
(0.81329 -0.483975 0.00771182)
(0.813316 -0.483991 5.60364e-09)
(0.813316 -0.483991 -5.25213e-09)
(0.81329 -0.483975 -0.00771182)
(0.747962 -0.408224 0.00695786)
(0.747962 -0.408211 -1.87003e-08)
(0.747962 -0.408212 2.00904e-08)
(0.747961 -0.408224 -0.00695786)
(0.662595 -0.355384 0.00632831)
(0.662598 -0.35541 7.4267e-08)
(0.662598 -0.35541 -7.30972e-08)
(0.662595 -0.355384 -0.00632832)
(0.595029 -0.316221 0.00571291)
(0.595045 -0.316228 5.19093e-09)
(0.595045 -0.316228 -4.62113e-09)