x,y,z,U_0,U_1,U_2
0,0,0,0.299883,-0.00190586,6.71106e-13
0,0.1,0,0.299907,-0.00151568,5.33714e-13
0,0.2,0,0.299931,-0.00112551,3.96323e-13
0,0.3,0,0.299955,-0.000735331,2.58931e-13
0,0.4,0,0.299979,-0.000345155,1.21539e-13
0,0.5,0,0.3,-1.30552e-19,8.06459e-29
0,0.6,0,0.3,-1.56663e-19,9.67751e-29
0,0.7,0,0.3,-1.82773e-19,1.12904e-28
0,0.8,0,0.3,-2.08884e-19,1.29033e-28
0,0.9,0,0.3,-2.34994e-19,1.45163e-28
0,1,0,0.3,-2.61105e-19,1.61292e-28
0,1.1,0,0.3,-2.87215e-19,1.77421e-28
0,1.2,0,0.3,-3.13326e-19,1.9355e-28
0,1.3,0,0.3,-3.39436e-19,2.09679e-28
0,1.4,0,0.3,-3.65547e-19,2.25809e-28
0,1.5,0,0.3,-3.78893e-19,3.48539e-28
0,1.6,0,0.3,-4.04152e-19,3.71775e-28
0,1.7,0,0.3,-4.29412e-19,3.95011e-28
0,1.8,0,0.3,-4.54671e-19,4.18247e-28
0,1.9,0,0.3,-4.79931e-19,4.41483e-28
0,2,0,0.3,-4.80605e-19,4.62204e-28
0,2.1,0,0.3,-5.04635e-19,4.85314e-28
0,2.2,0,0.3,-5.28665e-19,5.08425e-28
0,2.3,0,0.3,-5.52695e-19,5.31535e-28
0,2.4,0,0.3,-5.76725e-19,5.54645e-28
0,2.5,0,0.3,-5.53287e-19,3.64484e-28
0,2.6,0,0.3,-5.75418e-19,3.79064e-28
0,2.7,0,0.3,-5.9755e-19,3.93643e-28
0,2.8,0,0.3,-6.19681e-19,4.08223e-28
0,2.9,0,0.3,-6.41813e-19,4.22802e-28
0,3,0,0.3,-6.00494e-19,2.87045e-28
0,3.1,0,0.3,-6.20511e-19,2.96613e-28
0,3.2,0,0.3,-6.40527e-19,3.06181e-28
0,3.3,0,0.3,-6.60544e-19,3.15749e-28
0,3.4,0,0.3,-6.8056e-19,3.25317e-28
0,3.5,0,0.3,-6.16406e-19,4.96633e-28
0,3.6,0,0.3,-6.34018e-19,5.10822e-28
0,3.7,0,0.3,-6.51629e-19,5.25012e-28
0,3.8,0,0.3,-6.69241e-19,5.39201e-28
0,3.9,0,0.3,-6.86853e-19,5.53391e-28
0,4,0,0.3,-5.95636e-19,8.69596e-28
0,4.1,0,0.3,-6.10527e-19,8.91336e-28
0,4.2,0,0.3,-6.25418e-19,9.13075e-28
0,4.3,0,0.3,-6.40309e-19,9.34815e-28
0,4.4,0,0.3,-5.29882e-19,1.13985e-27
0,4.5,0,0.3,-5.41925e-19,1.16575e-27
0,4.6,0,0.3,-5.53968e-19,1.19166e-27
0,4.7,0,0.3,-5.66011e-19,1.21756e-27
0,4.8,0,0.3,-5.78053e-19,1.24347e-27
0,4.9,0,0.3,-4.4637e-19,1.19283e-27
0,5,0,0.3,-4.55479e-19,1.21717e-27
0,5.1,0,0.3,-4.64589e-19,1.24152e-27
0,5.2,0,0.3,-4.73699e-19,1.26586e-27
0,5.3,0,0.3,-4.82808e-19,1.2902e-27
0,5.4,0,0.3,-3.30942e-19,1.05445e-27
0,5.5,0,0.3,-3.37071e-19,1.07398e-27
0,5.6,0,0.3,-3.43199e-19,1.0935e-27
0,5.7,0,0.3,-3.49328e-19,1.11303e-27
0,5.8,0,0.3,-3.55457e-19,1.13256e-27
0,5.9,0,0.3,-1.83128e-19,8.90945e-28
0,6,0,0.3,-1.86232e-19,9.06046e-28
0,6.1,0,0.3,-1.89336e-19,9.21147e-28
0,6.2,0,0.3,-1.9244e-19,9.36247e-28
0,6.3,0,0.3,-1.95544e-19,9.51348e-28
0,6.4,0,0.3,-3.69917e-21,9.53952e-28
0,6.5,0,0.3,-3.75697e-21,9.68857e-28
0,6.6,0,0.3,-3.81477e-21,9.83763e-28
0,6.7,0,0.3,-3.87256e-21,9.98668e-28
0,6.8,0,0.3,-3.93036e-21,1.01357e-27
0,6.9,0,0.3,2.07097e-19,1.24406e-27
0,7,0,0.3,2.10098e-19,1.26209e-27
0,7.1,0,0.3,2.13099e-19,1.28012e-27
0,7.2,0,0.3,2.16101e-19,1.29814e-27
0,7.3,0,0.3,2.19102e-19,1.31617e-27
0,7.4,0,0.3,4.47959e-19,1.48352e-27
0,7.5,0,0.3,4.54013e-19,1.50357e-27
0,7.6,0,0.3,4.60066e-19,1.52361e-27
0,7.7,0,0.3,4.6612e-19,1.54366e-27
0,7.8,0,0.3,4.72173e-19,1.56371e-27
0,7.9,0,0.3,7.14785e-19,1.51691e-27
0,8,0,0.3,7.23833e-19,1.53611e-27
0,8.1,0,0.3,7.32881e-19,1.55531e-27
0,8.2,0,0.3,7.41929e-19,1.57451e-27
0,8.3,0,0.3,7.50977e-19,1.59372e-27
0,8.4,0,0.3,1.00577e-18,1.44889e-27
0,8.5,0,0.3,1.01774e-18,1.46614e-27
0,8.6,0,0.3,1.02972e-18,1.48339e-27
0,8.7,0,0.3,1.04169e-18,1.50064e-27
0,8.8,0,0.3,1.30098e-18,1.35178e-27
0,8.9,0,0.3,1.31577e-18,1.36714e-27
0,9,0,0.3,1.33055e-18,1.3825e-27
0,9.1,0,0.3,1.34534e-18,1.39786e-27
0,9.2,0,0.3,1.36012e-18,1.41322e-27
0,9.3,0,0.3,1.63145e-18,1.02906e-27
0,9.4,0,0.3,1.649e-18,1.04013e-27
0,9.5,0,0.3,1.66654e-18,1.0512e-27
0,9.6,0,0.3,1.68408e-18,1.06226e-27
0,9.7,0,0.3,1.70162e-18,1.07333e-27
0,9.8,0,0.3,1.98166e-18,3.81633e-28
0,9.9,0,0.3,2.00188e-18,3.85527e-28
0,10,0,0.3,2.0221e-18,3.89422e-28
0,10.1,0,0.3,2.04232e-18,3.93316e-28
0,10.2,0,0.3,2.06254e-18,3.9721e-28
0,10.3,0,0.3,2.33605e-18,-2.04482e-28
0,10.4,0,0.3,2.35873e-18,-2.06467e-28
0,10.5,0,0.3,2.38141e-18,-2.08453e-28
0,10.6,0,0.3,2.40409e-18,-2.10438e-28
0,10.7,0,0.3,2.42677e-18,-2.12423e-28
0,10.8,0,0.3,2.71028e-18,-6.42348e-28
0,10.9,0,0.3,2.73537e-18,-6.48296e-28
0,11,0,0.3,2.76047e-18,-6.54244e-28
0,11.1,0,0.3,2.78556e-18,-6.60191e-28
0,11.2,0,0.3,2.81066e-18,-6.66139e-28
0,11.3,0,0.3,3.18533e-18,-4.46693e-28
0,11.4,0,0.3,3.21352e-18,-4.50646e-28
0,11.5,0,0.3,3.2417e-18,-4.54599e-28
0,11.6,0,0.3,3.26989e-18,-4.58552e-28
0,11.7,0,0.3,3.29808e-18,-4.62505e-28
0,11.8,0,0.3,3.32627e-18,-4.66458e-28
0,11.9,0,0.3,3.35446e-18,-4.70411e-28
0,12,0,0.3,3.38265e-18,-4.74364e-28
0,12.1,0,0.3,3.41084e-18,-4.78317e-28
0,12.2,0,0.3,3.43903e-18,-4.8227e-28
0,12.3,0,0.299987,0.0003531,-1.49266e-14
0,12.4,0,0.299972,0.000752256,-3.18001e-14
0,12.5,0,0.299958,0.00115141,-4.86736e-14
0,12.6,0,0.299943,0.00155057,-6.55472e-14
0,12.7,0,0.299929,0.00194972,-8.24207e-14
0.1,0,0,0.299887,-0.00251472,6.01885e-13
0.1,0.1,0,0.299879,-0.00252118,7.87902e-13
0.1,0.2,0,0.299903,-0.002131,6.50511e-13
0.1,0.3,0,0.299926,-0.00174083,5.13119e-13
0.1,0.4,0,0.29995,-0.00135065,3.75727e-13
0.1,0.5,0,0.29997,-0.00100719,2.9998e-13
0.1,0.6,0,0.299962,-0.00100287,6.195e-13
0.1,0.7,0,0.299962,-0.00100287,6.195e-13
0.1,0.8,0,0.299962,-0.00100287,6.195e-13
0.1,0.9,0,0.299962,-0.00100287,6.195e-13
0.1,1,0,0.299962,-0.00100287,6.195e-13
0.1,1.1,0,0.299962,-0.00100287,6.195e-13
0.1,1.2,0,0.299962,-0.00100287,6.195e-13
0.1,1.3,0,0.299962,-0.00100287,6.195e-13
0.1,1.4,0,0.299961,-0.00099206,7.09771e-13
0.1,1.5,0,0.29996,-0.000970184,8.92461e-13
0.1,1.6,0,0.29996,-0.000970184,8.92461e-13
0.1,1.7,0,0.29996,-0.000970184,8.92461e-13
0.1,1.8,0,0.29996,-0.000970184,8.92461e-13
0.1,1.9,0,0.299957,-0.000948993,8.90294e-13
0.1,2,0,0.299954,-0.000922969,8.87632e-13
0.1,2.1,0,0.299954,-0.000922969,8.87632e-13
0.1,2.2,0,0.299954,-0.000922969,8.87632e-13
0.1,2.3,0,0.299954,-0.000922969,8.87632e-13
0.1,2.4,0,0.299947,-0.000881623,7.01873e-13
0.1,2.5,0,0.299943,-0.00085004,5.59974e-13
0.1,2.6,0,0.299943,-0.00085004,5.59974e-13
0.1,2.7,0,0.299943,-0.00085004,5.59974e-13
0.1,2.8,0,0.299943,-0.00085004,5.59974e-13
0.1,2.9,0,0.299937,-0.000794392,4.28122e-13
0.1,3,0,0.299935,-0.000768806,3.675e-13
0.1,3.1,0,0.299935,-0.000768806,3.675e-13
0.1,3.2,0,0.299935,-0.000768806,3.675e-13
0.1,3.3,0,0.299935,-0.000768806,3.675e-13
0.1,3.4,0,0.299932,-0.000694621,5.10059e-13
0.1,3.5,0,0.299932,-0.000676438,5.45e-13
0.1,3.6,0,0.299932,-0.000676438,5.45e-13
0.1,3.7,0,0.299932,-0.000676438,5.45e-13
0.1,3.8,0,0.299932,-0.000676438,5.45e-13
0.1,3.9,0,0.29993,-0.000580168,8.12165e-13
0.1,4,0,0.29993,-0.000571939,8.35e-13
0.1,4.1,0,0.29993,-0.000571939,8.35e-13
0.1,4.2,0,0.29993,-0.000571939,8.35e-13
0.1,4.3,0,0.29993,-0.000570217,8.3752e-13
0.1,4.4,0,0.299928,-0.000462547,9.95e-13
0.1,4.5,0,0.299928,-0.000462547,9.95e-13
0.1,4.6,0,0.299928,-0.000462547,9.95e-13
0.1,4.7,0,0.299928,-0.000462547,9.95e-13
0.1,4.8,0,0.299928,-0.000447467,9.86969e-13
0.1,4.9,0,0.299927,-0.000349887,9.35e-13
0.1,5,0,0.299927,-0.000349887,9.35e-13
0.1,5.1,0,0.299927,-0.000349887,9.35e-13
0.1,5.2,0,0.299927,-0.000349887,9.35e-13
0.1,5.3,0,0.299927,-0.000321037,8.88386e-13
0.1,5.4,0,0.299926,-0.00023539,7.5e-13
0.1,5.5,0,0.299926,-0.00023539,7.5e-13
0.1,5.6,0,0.299926,-0.00023539,7.5e-13
0.1,5.7,0,0.299926,-0.00023539,7.5e-13
0.1,5.8,0,0.299926,-0.000192396,6.87087e-13
0.1,5.9,0,0.299926,-0.000119215,5.8e-13
0.1,6,0,0.299926,-0.000119215,5.8e-13
0.1,6.1,0,0.299926,-0.000119215,5.8e-13
0.1,6.2,0,0.299926,-0.000119215,5.8e-13
0.1,6.3,0,0.299926,-6.20996e-05,5.76339e-13
0.1,6.4,0,0.299926,-2.22e-06,5.725e-13
0.1,6.5,0,0.299926,-2.22e-06,5.725e-13
0.1,6.6,0,0.299926,-2.22e-06,5.725e-13
0.1,6.7,0,0.299926,-2.22e-06,5.725e-13
0.1,6.8,0,0.299926,6.902e-05,6.45256e-13
0.1,6.9,0,0.299926,0.00011528,6.925e-13
0.1,7,0,0.299926,0.00011528,6.925e-13
0.1,7.1,0,0.299926,0.00011528,6.925e-13
0.1,7.2,0,0.299926,0.00011528,6.925e-13
0.1,7.3,0,0.299927,0.0002002,7.48642e-13
0.1,7.4,0,0.299927,0.000232507,7.7e-13
0.1,7.5,0,0.299927,0.000232507,7.7e-13
0.1,7.6,0,0.299927,0.000232507,7.7e-13
0.1,7.7,0,0.299927,0.000232507,7.7e-13
0.1,7.8,0,0.299927,0.000329406,7.42618e-13
0.1,7.9,0,0.299927,0.000347518,7.375e-13
0.1,8,0,0.299927,0.000347518,7.375e-13
0.1,8.1,0,0.299927,0.000347518,7.375e-13
0.1,8.2,0,0.299927,0.000347518,7.375e-13
0.1,8.3,0,0.299927,0.000455461,6.65453e-13
0.1,8.4,0,0.299927,0.000459885,6.625e-13
0.1,8.5,0,0.299927,0.000459885,6.625e-13
0.1,8.6,0,0.299927,0.000459885,6.625e-13
0.1,8.7,0,0.299927,0.000465834,6.58504e-13
0.1,8.8,0,0.299929,0.00056783,5.9e-13
0.1,8.9,0,0.299929,0.00056783,5.9e-13
0.1,9,0,0.299929,0.00056783,5.9e-13
0.1,9.1,0,0.299929,0.00056783,5.9e-13
0.1,9.2,0,0.29993,0.000586184,5.61417e-13
0.1,9.3,0,0.299933,0.000673784,4.25e-13
0.1,9.4,0,0.299933,0.000673784,4.25e-13
0.1,9.5,0,0.299933,0.000673784,4.25e-13
0.1,9.6,0,0.299933,0.000673784,4.25e-13
0.1,9.7,0,0.299934,0.000703756,3.44757e-13
0.1,9.8,0,0.299937,0.00077666,1.49572e-13
0.1,9.9,0,0.299937,0.00077666,1.49572e-13
0.1,10,0,0.299937,0.00077666,1.49572e-13
0.1,10.1,0,0.299937,0.00077666,1.49572e-13
0.1,10.2,0,0.299942,0.000815334,5.71087e-14
0.1,10.3,0,0.299949,0.000871112,-7.62513e-14
0.1,10.4,0,0.299949,0.000871112,-7.62513e-14
0.1,10.5,0,0.299949,0.000871112,-7.62513e-14
0.1,10.6,0,0.299949,0.000871112,-7.62513e-14
0.1,10.7,0,0.299954,0.000920248,-1.56868e-13
0.1,10.8,0,0.299959,0.000963872,-2.28442e-13
0.1,10.9,0,0.299959,0.000963872,-2.28442e-13
0.1,11,0,0.299959,0.000963872,-2.28442e-13
0.1,11.1,0,0.299959,0.000963872,-2.28442e-13
0.1,11.2,0,0.299958,0.00100879,-2.38912e-13
0.1,11.3,0,0.299952,0.00106519,-1.84695e-13
0.1,11.4,0,0.29995,0.00108269,-1.51831e-13
0.1,11.5,0,0.29995,0.00108269,-1.51831e-13
0.1,11.6,0,0.29995,0.00108269,-1.51831e-13
0.1,11.7,0,0.29995,0.00108269,-1.51831e-13
0.1,11.8,0,0.29995,0.00108269,-1.51831e-13
0.1,11.9,0,0.29995,0.00108269,-1.51831e-13
0.1,12,0,0.29995,0.00108269,-1.51831e-13
0.1,12.1,0,0.29995,0.00108269,-1.51831e-13
0.1,12.2,0,0.299959,0.00107336,-7.90742e-14
0.1,12.3,0,0.299948,0.00142384,-8.4234e-14
0.1,12.4,0,0.299933,0.001823,-1.01108e-13
0.1,12.5,0,0.299918,0.00222215,-1.17981e-13
0.1,12.6,0,0.299904,0.00262131,-1.34855e-13
0.1,12.7,0,0.299918,0.0026105,-8.75349e-14
0.2,0,0,0.299891,-0.00312359,5.32664e-13
0.2,0.1,0,0.299882,-0.00314068,7.27354e-13
0.2,0.2,0,0.299874,-0.0031365,9.04698e-13
0.2,0.3,0,0.299898,-0.00274633,7.67307e-13
0.2,0.4,0,0.299922,-0.00235615,6.29915e-13
0.2,0.5,0,0.299942,-0.00201496,5.57168e-13
0.2,0.6,0,0.299932,-0.00200995,9.28039e-13
0.2,0.7,0,0.299923,-0.00200574,1.239e-12
0.2,0.8,0,0.299923,-0.00200574,1.239e-12
0.2,0.9,0,0.299923,-0.00200574,1.239e-12
0.2,1,0,0.299923,-0.00200574,1.239e-12
0.2,1.1,0,0.299923,-0.00200574,1.239e-12
0.2,1.2,0,0.299923,-0.00200574,1.239e-12
0.2,1.3,0,0.299923,-0.0019957,1.32282e-12
0.2,1.4,0,0.29992,-0.00196224,1.60223e-12
0.2,1.5,0,0.299919,-0.00194037,1.78492e-12
0.2,1.6,0,0.299919,-0.00194037,1.78492e-12
0.2,1.7,0,0.299919,-0.00194037,1.78492e-12
0.2,1.8,0,0.299917,-0.00192029,1.78287e-12
0.2,1.9,0,0.29991,-0.00187196,1.77793e-12
0.2,2,0,0.299907,-0.00184594,1.77526e-12
0.2,2.1,0,0.299907,-0.00184594,1.77526e-12
0.2,2.2,0,0.299907,-0.00184594,1.77526e-12
0.2,2.3,0,0.299901,-0.00180631,1.59725e-12
0.2,2.4,0,0.29989,-0.00173166,1.26185e-12
0.2,2.5,0,0.299885,-0.00170008,1.11995e-12
0.2,2.6,0,0.299885,-0.00170008,1.11995e-12
0.2,2.7,0,0.299885,-0.00170008,1.11995e-12
0.2,2.8,0,0.29988,-0.00164635,9.92643e-13
0.2,2.9,0,0.299872,-0.0015632,7.95622e-13
0.2,3,0,0.299869,-0.00153761,7.35e-13
0.2,3.1,0,0.299869,-0.00153761,7.35e-13
0.2,3.2,0,0.299869,-0.00153761,7.35e-13
0.2,3.3,0,0.299867,-0.00146561,8.73366e-13
0.2,3.4,0,0.299864,-0.00137106,1.05506e-12
0.2,3.5,0,0.299864,-0.00135288,1.09e-12
0.2,3.6,0,0.299864,-0.00135288,1.09e-12
0.2,3.7,0,0.299864,-0.00135288,1.09e-12
0.2,3.8,0,0.299862,-0.00125907,1.35031e-12
0.2,3.9,0,0.29986,-0.00115211,1.64717e-12
0.2,4,0,0.29986,-0.00114388,1.67e-12
0.2,4.1,0,0.29986,-0.00114388,1.67e-12
0.2,4.2,0,0.29986,-0.00114388,1.67e-12
0.2,4.3,0,0.299858,-0.00103276,1.83252e-12
0.2,4.4,0,0.299856,-0.000925094,1.99e-12
0.2,4.5,0,0.299856,-0.000925094,1.99e-12
0.2,4.6,0,0.299856,-0.000925094,1.99e-12
0.2,4.7,0,0.299856,-0.000912675,1.98339e-12
0.2,4.8,0,0.299855,-0.000797353,1.92197e-12
0.2,4.9,0,0.299853,-0.000699774,1.87e-12
0.2,5,0,0.299853,-0.000699774,1.87e-12
0.2,5.1,0,0.299853,-0.000699774,1.87e-12
0.2,5.2,0,0.299853,-0.000673629,1.82776e-12
0.2,5.3,0,0.299853,-0.000556427,1.63839e-12
0.2,5.4,0,0.299852,-0.00047078,1.5e-12
0.2,5.5,0,0.299852,-0.00047078,1.5e-12
0.2,5.6,0,0.299852,-0.00047078,1.5e-12
0.2,5.7,0,0.299852,-0.00043053,1.4411e-12
0.2,5.8,0,0.299852,-0.000311612,1.26709e-12
0.2,5.9,0,0.299852,-0.000238431,1.16e-12
0.2,6,0,0.299852,-0.000238431,1.16e-12
0.2,6.1,0,0.299852,-0.000238431,1.16e-12
0.2,6.2,0,0.299852,-0.000184079,1.15652e-12
0.2,6.3,0,0.299852,-6.43196e-05,1.14884e-12
0.2,6.4,0,0.299852,-4.44e-06,1.145e-12
0.2,6.5,0,0.299852,-4.44e-06,1.145e-12
0.2,6.6,0,0.299852,-4.44e-06,1.145e-12
0.2,6.7,0,0.299852,6.40244e-05,1.21492e-12
0.2,6.8,0,0.299853,0.0001843,1.33776e-12
0.2,6.9,0,0.299853,0.000230559,1.385e-12
0.2,7,0,0.299853,0.000230559,1.385e-12
0.2,7.1,0,0.299853,0.000230559,1.385e-12
0.2,7.2,0,0.299853,0.000312711,1.43931e-12
0.2,7.3,0,0.299853,0.000432707,1.51864e-12
0.2,7.4,0,0.299853,0.000465014,1.54e-12
0.2,7.5,0,0.299853,0.000465014,1.54e-12
0.2,7.6,0,0.299853,0.000465014,1.54e-12
0.2,7.7,0,0.299853,0.000559196,1.51339e-12
0.2,7.8,0,0.299854,0.000676924,1.48012e-12
0.2,7.9,0,0.299854,0.000695036,1.475e-12
0.2,8,0,0.299854,0.000695036,1.475e-12
0.2,8.1,0,0.299854,0.000695036,1.475e-12
0.2,8.2,0,0.299854,0.000800325,1.40472e-12
0.2,8.3,0,0.299855,0.000915346,1.32795e-12
0.2,8.4,0,0.299855,0.00091977,1.325e-12
0.2,8.5,0,0.299855,0.00091977,1.325e-12
0.2,8.6,0,0.299855,0.000923169,1.32272e-12
0.2,8.7,0,0.299857,0.00103366,1.2485e-12
0.2,8.8,0,0.299859,0.00113566,1.18e-12
0.2,8.9,0,0.299859,0.00113566,1.18e-12
0.2,9,0,0.299859,0.00113566,1.18e-12
0.2,9.1,0,0.299859,0.00115151,1.15531e-12
0.2,9.2,0,0.299863,0.00125997,9.86417e-13
0.2,9.3,0,0.299866,0.00134757,8.5e-13
0.2,9.4,0,0.299866,0.00134757,8.5e-13
0.2,9.5,0,0.299866,0.00134757,8.5e-13
0.2,9.6,0,0.299867,0.00137511,7.76263e-13
0.2,9.7,0,0.299872,0.00148042,4.94329e-13
0.2,9.8,0,0.299875,0.00155332,2.99143e-13
0.2,9.9,0,0.299875,0.00155332,2.99143e-13
0.2,10,0,0.299875,0.00155332,2.99143e-13
0.2,10.1,0,0.299879,0.00158976,2.12015e-13
0.2,10.2,0,0.299891,0.00168645,-1.91427e-14
0.2,10.3,0,0.299897,0.00174222,-1.52503e-13
0.2,10.4,0,0.299897,0.00174222,-1.52503e-13
0.2,10.5,0,0.299897,0.00174222,-1.52503e-13
0.2,10.6,0,0.299903,0.00178916,-2.29509e-13
0.2,10.7,0,0.299913,0.0018845,-3.85929e-13
0.2,10.8,0,0.299918,0.00192774,-4.56884e-13
0.2,10.9,0,0.299918,0.00192774,-4.56884e-13
0.2,11,0,0.299918,0.00192774,-4.56884e-13
0.2,11.1,0,0.299917,0.00197208,-4.67219e-13
0.2,11.2,0,0.299914,0.00204166,-4.83439e-13
0.2,11.3,0,0.299909,0.00209818,-4.2986e-13
0.2,11.4,0,0.299902,0.00214743,-3.37376e-13
0.2,11.5,0,0.299899,0.00216538,-3.03661e-13
0.2,11.6,0,0.299899,0.00216538,-3.03661e-13
0.2,11.7,0,0.299899,0.00216538,-3.03661e-13
0.2,11.8,0,0.299899,0.00216538,-3.03661e-13
0.2,11.9,0,0.299899,0.00216538,-3.03661e-13
0.2,12,0,0.299899,0.00216538,-3.03661e-13
0.2,12.1,0,0.299909,0.00215599,-2.30427e-13
0.2,12.2,0,0.29992,0.00214551,-1.48721e-13
0.2,12.3,0,0.299908,0.00249458,-1.53541e-13
0.2,12.4,0,0.299894,0.00289374,-1.70415e-13
0.2,12.5,0,0.299879,0.00329289,-1.87288e-13
0.2,12.6,0,0.299893,0.00328595,-1.40574e-13
0.2,12.7,0,0.299907,0.00327128,-9.26491e-14
0.3,0,0,0.299895,-0.00373246,4.63442e-13
0.3,0.1,0,0.299886,-0.00374955,6.58133e-13
0.3,0.2,0,0.299876,-0.00376664,8.52824e-13
0.3,0.3,0,0.29987,-0.00375183,1.02149e-12
0.3,0.4,0,0.299894,-0.00336165,8.84103e-13
0.3,0.5,0,0.299913,-0.00302274,8.14356e-13
0.3,0.6,0,0.299903,-0.00301772,1.18523e-12
0.3,0.7,0,0.299893,-0.0030127,1.5561e-12
0.3,0.8,0,0.299885,-0.00300861,1.8585e-12
0.3,0.9,0,0.299885,-0.00300861,1.8585e-12
0.3,1,0,0.299885,-0.00300861,1.8585e-12
0.3,1.1,0,0.299885,-0.00300861,1.8585e-12
0.3,1.2,0,0.299884,-0.00299934,1.93588e-12
0.3,1.3,0,0.299882,-0.00296589,2.21528e-12
0.3,1.4,0,0.29988,-0.00293243,2.49469e-12
0.3,1.5,0,0.299879,-0.00291055,2.67738e-12
0.3,1.6,0,0.299879,-0.00291055,2.67738e-12
0.3,1.7,0,0.299876,-0.00289159,2.67544e-12
0.3,1.8,0,0.29987,-0.00284326,2.6705e-12
0.3,1.9,0,0.299864,-0.00279493,2.66556e-12
0.3,2,0,0.299861,-0.00276891,2.6629e-12
0.3,2.1,0,0.299861,-0.00276891,2.6629e-12
0.3,2.2,0,0.299855,-0.00273101,2.49262e-12
0.3,2.3,0,0.299844,-0.00265635,2.15722e-12
0.3,2.4,0,0.299833,-0.0025817,1.82182e-12
0.3,2.5,0,0.299828,-0.00255012,1.67992e-12
0.3,2.6,0,0.299828,-0.00255012,1.67992e-12
0.3,2.7,0,0.299823,-0.00249831,1.55716e-12
0.3,2.8,0,0.299815,-0.00241516,1.36014e-12
0.3,2.9,0,0.299806,-0.002332,1.16312e-12
0.3,3,0,0.299804,-0.00230642,1.1025e-12
0.3,3.1,0,0.299804,-0.00230642,1.1025e-12
0.3,3.2,0,0.299802,-0.0022366,1.23667e-12
0.3,3.3,0,0.299799,-0.00214205,1.41837e-12
0.3,3.4,0,0.299796,-0.0020475,1.60006e-12
0.3,3.5,0,0.299796,-0.00202931,1.635e-12
0.3,3.6,0,0.299796,-0.00202931,1.635e-12
0.3,3.7,0,0.299794,-0.00193798,1.88846e-12
0.3,3.8,0,0.299792,-0.00183101,2.18531e-12
0.3,3.9,0,0.29979,-0.00172405,2.48217e-12
0.3,4,0,0.29979,-0.00171582,2.505e-12
0.3,4.1,0,0.29979,-0.00171582,2.505e-12
0.3,4.2,0,0.299788,-0.00160729,2.66374e-12
0.3,4.3,0,0.299786,-0.00149531,2.82752e-12
0.3,4.4,0,0.299784,-0.00138764,2.985e-12
0.3,4.5,0,0.299784,-0.00138764,2.985e-12
0.3,4.6,0,0.299784,-0.00137788,2.9798e-12
0.3,4.7,0,0.299783,-0.00126256,2.91839e-12
0.3,4.8,0,0.299781,-0.00114724,2.85697e-12
0.3,4.9,0,0.29978,-0.00104966,2.805e-12
0.3,5,0,0.29978,-0.00104966,2.805e-12
0.3,5.1,0,0.29978,-0.00102622,2.76713e-12
0.3,5.2,0,0.29978,-0.000909019,2.57776e-12
0.3,5.3,0,0.299779,-0.000791817,2.38839e-12
0.3,5.4,0,0.299779,-0.000706169,2.25e-12
0.3,5.5,0,0.299779,-0.000706169,2.25e-12
0.3,5.6,0,0.299779,-0.000668664,2.19512e-12
0.3,5.7,0,0.299778,-0.000549746,2.0211e-12
0.3,5.8,0,0.299778,-0.000430827,1.84709e-12
0.3,5.9,0,0.299778,-0.000357646,1.74e-12
0.3,6,0,0.299778,-0.000357646,1.74e-12
0.3,6.1,0,0.299778,-0.000306058,1.73669e-12
0.3,6.2,0,0.299778,-0.000186299,1.72902e-12
0.3,6.3,0,0.299778,-6.65396e-05,1.72134e-12
0.3,6.4,0,0.299778,-6.66e-06,1.7175e-12
0.3,6.5,0,0.299778,-6.66e-06,1.7175e-12
0.3,6.6,0,0.299778,5.90288e-05,1.78459e-12
0.3,6.7,0,0.299779,0.000179304,1.90742e-12
0.3,6.8,0,0.299779,0.000299579,2.03026e-12
0.3,6.9,0,0.299779,0.000345839,2.0775e-12
0.3,7,0,0.299779,0.000345839,2.0775e-12
0.3,7.1,0,0.299779,0.000425221,2.12998e-12
0.3,7.2,0,0.299779,0.000545218,2.20931e-12
0.3,7.3,0,0.29978,0.000665214,2.28864e-12
0.3,7.4,0,0.29978,0.000697521,2.31e-12
0.3,7.5,0,0.29978,0.000697521,2.31e-12
0.3,7.6,0,0.29978,0.000788986,2.28415e-12
0.3,7.7,0,0.29978,0.000906714,2.25089e-12
0.3,7.8,0,0.299781,0.00102444,2.21762e-12
0.3,7.9,0,0.299781,0.00104255,2.2125e-12
0.3,8,0,0.299781,0.00104255,2.2125e-12
0.3,8.1,0,0.299781,0.00114519,2.144e-12
0.3,8.2,0,0.299782,0.00126021,2.06722e-12
0.3,8.3,0,0.299782,0.00137523,1.99045e-12
0.3,8.4,0,0.299782,0.00137965,1.9875e-12
0.3,8.5,0,0.299782,0.0013805,1.98693e-12
0.3,8.6,0,0.299784,0.001491,1.91272e-12
0.3,8.7,0,0.299786,0.00160149,1.8385e-12
0.3,8.8,0,0.299788,0.00170349,1.77e-12
0.3,8.9,0,0.299788,0.00170349,1.77e-12
0.3,9,0,0.299788,0.00171684,1.74921e-12
0.3,9.1,0,0.299792,0.0018253,1.58031e-12
0.3,9.2,0,0.299796,0.00193375,1.41142e-12
0.3,9.3,0,0.2998,0.00202135,1.275e-12
0.3,9.4,0,0.2998,0.00202135,1.275e-12
0.3,9.5,0,0.299801,0.00204646,1.20777e-12
0.3,9.6,0,0.299805,0.00215177,9.25835e-13
0.3,9.7,0,0.299809,0.00225708,6.439e-13
0.3,9.8,0,0.299812,0.00232998,4.48715e-13
0.3,9.9,0,0.299812,0.00232998,4.48715e-13
0.3,10,0,0.299816,0.00236419,3.66921e-13
0.3,10.1,0,0.299828,0.00246087,1.35763e-13
0.3,10.2,0,0.299839,0.00255756,-9.5394e-14
0.3,10.3,0,0.299846,0.00261334,-2.28754e-13
0.3,10.4,0,0.299846,0.00261334,-2.28754e-13
0.3,10.5,0,0.299851,0.00265807,-3.02151e-13
0.3,10.6,0,0.299862,0.00275341,-4.5857e-13
0.3,10.7,0,0.299872,0.00284875,-6.1499e-13
0.3,10.8,0,0.299877,0.00289162,-6.85326e-13
0.3,10.9,0,0.299877,0.00289162,-6.85326e-13
0.3,11,0,0.299876,0.00293537,-6.95526e-13
0.3,11.1,0,0.299874,0.00300495,-7.11746e-13
0.3,11.2,0,0.299871,0.00307453,-7.27966e-13
0.3,11.3,0,0.299866,0.00313118,-6.75024e-13
0.3,11.4,0,0.299859,0.00318042,-5.82541e-13
0.3,11.5,0,0.299852,0.00322967,-4.90057e-13
0.3,11.6,0,0.299849,0.00324807,-4.55492e-13
0.3,11.7,0,0.299849,0.00324807,-4.55492e-13
0.3,11.8,0,0.299849,0.00324807,-4.55492e-13
0.3,11.9,0,0.299849,0.00324807,-4.55492e-13
0.3,12,0,0.299859,0.00323862,-3.8178e-13
0.3,12.1,0,0.29987,0.00322814,-3.00074e-13
0.3,12.2,0,0.299881,0.00321766,-2.18367e-13
0.3,12.3,0,0.299869,0.00356532,-2.22849e-13
0.3,12.4,0,0.299854,0.00396448,-2.39722e-13
0.3,12.5,0,0.299868,0.0039614,-1.93613e-13
0.3,12.6,0,0.299882,0.00394673,-1.45688e-13
0.3,12.7,0,0.299896,0.00393205,-9.77633e-14
0.4,0,0,0.299899,-0.00434133,3.94221e-13
0.4,0.1,0,0.29989,-0.00435842,5.88912e-13
0.4,0.2,0,0.299881,-0.00437551,7.83603e-13
0.4,0.3,0,0.299871,-0.0043926,9.78294e-13
0.4,0.4,0,0.299865,-0.00436715,1.13829e-12
0.4,0.5,0,0.299884,-0.00403051,1.07154e-12
0.4,0.6,0,0.299874,-0.00402549,1.44241e-12
0.4,0.7,0,0.299864,-0.00402047,1.81329e-12
0.4,0.8,0,0.299854,-0.00401545,2.18416e-12
0.4,0.9,0,0.299846,-0.00401148,2.478e-12
0.4,1,0,0.299846,-0.00401148,2.478e-12
0.4,1.1,0,0.299846,-0.00400298,2.54893e-12
0.4,1.2,0,0.299844,-0.00396953,2.82834e-12
0.4,1.3,0,0.299842,-0.00393607,3.10775e-12
0.4,1.4,0,0.29984,-0.00390261,3.38715e-12
0.4,1.5,0,0.299838,-0.00388074,3.56985e-12
0.4,1.6,0,0.299836,-0.00386289,3.56802e-12
0.4,1.7,0,0.29983,-0.00381456,3.56308e-12
0.4,1.8,0,0.299824,-0.00376623,3.55813e-12
0.4,1.9,0,0.299818,-0.0037179,3.55319e-12
0.4,2,0,0.299814,-0.00369187,3.55053e-12
0.4,2.1,0,0.299809,-0.0036557,3.38799e-12
0.4,2.2,0,0.299798,-0.00358105,3.05259e-12
0.4,2.3,0,0.299787,-0.0035064,2.71719e-12
0.4,2.4,0,0.299775,-0.00343174,2.3818e-12
0.4,2.5,0,0.299771,-0.00340016,2.2399e-12
0.4,2.6,0,0.299766,-0.00335027,2.12168e-12
0.4,2.7,0,0.299757,-0.00326712,1.92466e-12
0.4,2.8,0,0.299749,-0.00318396,1.72764e-12
0.4,2.9,0,0.299741,-0.00310081,1.53062e-12
0.4,3,0,0.299738,-0.00307522,1.47e-12
0.4,3.1,0,0.299736,-0.00300758,1.59998e-12
0.4,3.2,0,0.299734,-0.00291303,1.78167e-12
0.4,3.3,0,0.299731,-0.00281848,1.96337e-12
0.4,3.4,0,0.299728,-0.00272393,2.14506e-12
0.4,3.5,0,0.299727,-0.00270575,2.18e-12
0.4,3.6,0,0.299726,-0.00261689,2.42661e-12
0.4,3.7,0,0.299724,-0.00250992,2.72346e-12
0.4,3.8,0,0.299722,-0.00240295,3.02031e-12
0.4,3.9,0,0.29972,-0.00229599,3.31717e-12
0.4,4,0,0.29972,-0.00228776,3.34e-12
0.4,4.1,0,0.299718,-0.00218181,3.49496e-12
0.4,4.2,0,0.299716,-0.00206983,3.65874e-12
0.4,4.3,0,0.299714,-0.00195786,3.82252e-12
0.4,4.4,0,0.299712,-0.00185019,3.98e-12
0.4,4.5,0,0.299712,-0.00184309,3.97622e-12
0.4,4.6,0,0.299711,-0.00172777,3.9148e-12
0.4,4.7,0,0.29971,-0.00161245,3.85339e-12
0.4,4.8,0,0.299708,-0.00149713,3.79197e-12
0.4,4.9,0,0.299707,-0.00139955,3.74e-12
0.4,5,0,0.299707,-0.00137881,3.7065e-12
0.4,5.1,0,0.299706,-0.00126161,3.51713e-12
0.4,5.2,0,0.299706,-0.00114441,3.32776e-12
0.4,5.3,0,0.299705,-0.00102721,3.13839e-12
0.4,5.4,0,0.299705,-0.000941559,3e-12
0.4,5.5,0,0.299705,-0.000906798,2.94913e-12
0.4,5.6,0,0.299705,-0.00078788,2.77512e-12
0.4,5.7,0,0.299704,-0.000668961,2.6011e-12
0.4,5.8,0,0.299704,-0.000550042,2.42709e-12
0.4,5.9,0,0.299704,-0.000476862,2.32e-12
0.4,6,0,0.299704,-0.000428037,2.31687e-12
0.4,6.1,0,0.299704,-0.000308278,2.30919e-12
0.4,6.2,0,0.299704,-0.000188519,2.30152e-12
0.4,6.3,0,0.299704,-6.87596e-05,2.29384e-12
0.4,6.4,0,0.299704,-8.88e-06,2.29e-12
0.4,6.5,0,0.299704,5.40332e-05,2.35425e-12
0.4,6.6,0,0.299705,0.000174309,2.47709e-12
0.4,6.7,0,0.299705,0.000294584,2.59992e-12
0.4,6.8,0,0.299705,0.000414859,2.72276e-12
0.4,6.9,0,0.299705,0.000461119,2.77e-12
0.4,7,0,0.299705,0.000537732,2.82065e-12
0.4,7.1,0,0.299706,0.000657728,2.89998e-12
0.4,7.2,0,0.299706,0.000777724,2.97931e-12
0.4,7.3,0,0.299706,0.000897721,3.05864e-12
0.4,7.4,0,0.299706,0.000930027,3.08e-12
0.4,7.5,0,0.299707,0.00101878,3.05492e-12
0.4,7.6,0,0.299707,0.0011365,3.02165e-12
0.4,7.7,0,0.299707,0.00125423,2.98839e-12
0.4,7.8,0,0.299708,0.00137196,2.95512e-12
0.4,7.9,0,0.299708,0.00139007,2.95e-12
0.4,8,0,0.299708,0.00149005,2.88327e-12
0.4,8.1,0,0.299708,0.00160507,2.8065e-12
0.4,8.2,0,0.299709,0.00172009,2.72972e-12
0.4,8.3,0,0.299709,0.00183512,2.65295e-12
0.4,8.4,0,0.299709,0.00183954,2.65e-12
0.4,8.5,0,0.299711,0.00194833,2.57693e-12
0.4,8.6,0,0.299713,0.00205883,2.50272e-12
0.4,8.7,0,0.299715,0.00216932,2.4285e-12
0.4,8.8,0,0.299717,0.00227132,2.36e-12
0.4,8.9,0,0.299718,0.00228217,2.34311e-12
0.4,9,0,0.299722,0.00239062,2.17421e-12
0.4,9.1,0,0.299726,0.00249908,2.00531e-12
0.4,9.2,0,0.29973,0.00260754,1.83642e-12
0.4,9.3,0,0.299733,0.00269514,1.7e-12
0.4,9.4,0,0.299734,0.00271782,1.63928e-12
0.4,9.5,0,0.299738,0.00282312,1.35734e-12
0.4,9.6,0,0.299742,0.00292843,1.07541e-12
0.4,9.7,0,0.299746,0.00303374,7.93472e-13
0.4,9.8,0,0.299749,0.00310664,5.98286e-13
0.4,9.9,0,0.299753,0.00313862,5.21827e-13
0.4,10,0,0.299765,0.0032353,2.90669e-13
0.4,10.1,0,0.299776,0.00333199,5.9512e-14
0.4,10.2,0,0.299788,0.00342867,-1.71645e-13
0.4,10.3,0,0.299795,0.00348445,-3.05005e-13
0.4,10.4,0,0.299799,0.00352698,-3.74793e-13
0.4,10.5,0,0.29981,0.00362232,-5.31212e-13
0.4,10.6,0,0.299821,0.00371766,-6.87632e-13
0.4,10.7,0,0.299831,0.003813,-8.44051e-13
0.4,10.8,0,0.299836,0.00385549,-9.13768e-13
0.4,10.9,0,0.299835,0.00389866,-9.23832e-13
0.4,11,0,0.299833,0.00396824,-9.40053e-13
0.4,11.1,0,0.29983,0.00403782,-9.56273e-13
0.4,11.2,0,0.299828,0.0041074,-9.72493e-13
0.4,11.3,0,0.299823,0.00416417,-9.20189e-13
0.4,11.4,0,0.299816,0.00421341,-8.27705e-13
0.4,11.5,0,0.299809,0.00426266,-7.35222e-13
0.4,11.6,0,0.299801,0.00431191,-6.42738e-13
0.4,11.7,0,0.299799,0.00433076,-6.07323e-13
0.4,11.8,0,0.299799,0.00433076,-6.07323e-13
0.4,11.9,0,0.299808,0.00432125,-5.33134e-13
0.4,12,0,0.299819,0.00431077,-4.51427e-13
0.4,12.1,0,0.29983,0.00430029,-3.6972e-13
0.4,12.2,0,0.299841,0.00428981,-2.88014e-13
0.4,12.3,0,0.29983,0.00463606,-2.92156e-13
0.4,12.4,0,0.299843,0.00463685,-2.46652e-13
0.4,12.5,0,0.299857,0.00462218,-1.98727e-13
0.4,12.6,0,0.299871,0.0046075,-1.50802e-13
0.4,12.7,0,0.299886,0.00459283,-1.02878e-13
0.5,0,0,0.299903,-0.00495019,3.25e-13
0.5,0.1,0,0.299894,-0.00496885,5.1982e-13
0.5,0.2,0,0.299885,-0.0049875,7.1464e-13
0.5,0.3,0,0.299876,-0.00500616,9.09461e-13
0.5,0.4,0,0.299867,-0.00502481,1.10428e-12
0.5,0.5,0,0.299857,-0.00503963,1.32578e-12
0.5,0.6,0,0.299846,-0.00503433,1.69727e-12
0.5,0.7,0,0.299836,-0.00502902,2.06876e-12
0.5,0.8,0,0.299826,-0.00502372,2.44025e-12
0.5,0.9,0,0.299816,-0.00501842,2.81174e-12
0.5,1,0,0.299808,-0.00500662,3.16198e-12
0.5,1.1,0,0.299805,-0.00497317,3.44139e-12
0.5,1.2,0,0.299803,-0.00493971,3.7208e-12
0.5,1.3,0,0.299801,-0.00490625,4.00021e-12
0.5,1.4,0,0.299799,-0.0048728,4.27962e-12
0.5,1.5,0,0.299796,-0.00483419,4.4606e-12
0.5,1.6,0,0.29979,-0.00478586,4.45565e-12
0.5,1.7,0,0.299783,-0.00473753,4.45071e-12
0.5,1.8,0,0.299777,-0.0046892,4.44576e-12
0.5,1.9,0,0.299771,-0.00464087,4.44082e-12
0.5,2,0,0.299763,-0.00458039,4.28336e-12
0.5,2.1,0,0.299752,-0.00450574,3.94796e-12
0.5,2.2,0,0.29974,-0.00443109,3.61257e-12
0.5,2.3,0,0.299729,-0.00435644,3.27717e-12
0.5,2.4,0,0.299718,-0.00428178,2.94177e-12
0.5,2.5,0,0.299709,-0.00420223,2.68621e-12
0.5,2.6,0,0.2997,-0.00411907,2.48918e-12
0.5,2.7,0,0.299692,-0.00403592,2.29216e-12
0.5,2.8,0,0.299684,-0.00395277,2.09514e-12
0.5,2.9,0,0.299676,-0.00386962,1.89812e-12
0.5,3,0,0.299671,-0.00377857,1.96329e-12
0.5,3.1,0,0.299668,-0.00368402,2.14498e-12
0.5,3.2,0,0.299665,-0.00358947,2.32667e-12
0.5,3.3,0,0.299663,-0.00349492,2.50837e-12
0.5,3.4,0,0.29966,-0.00340037,2.69006e-12
0.5,3.5,0,0.299658,-0.00329579,2.96476e-12
0.5,3.6,0,0.299656,-0.00318883,3.26161e-12
0.5,3.7,0,0.299654,-0.00308186,3.55846e-12
0.5,3.8,0,0.299652,-0.00297489,3.85531e-12
0.5,3.9,0,0.29965,-0.00286793,4.15217e-12
0.5,4,0,0.299648,-0.00275633,4.32618e-12
0.5,4.1,0,0.299646,-0.00264436,4.48996e-12
0.5,4.2,0,0.299644,-0.00253238,4.65374e-12
0.5,4.3,0,0.299642,-0.0024204,4.81752e-12
0.5,4.4,0,0.29964,-0.0023083,4.97264e-12
0.5,4.5,0,0.299639,-0.00219298,4.91122e-12
0.5,4.6,0,0.299638,-0.00207766,4.8498e-12
0.5,4.7,0,0.299636,-0.00196234,4.78839e-12
0.5,4.8,0,0.299635,-0.00184701,4.72697e-12
0.5,4.9,0,0.299634,-0.0017314,4.64587e-12
0.5,5,0,0.299633,-0.0016142,4.4565e-12
0.5,5.1,0,0.299633,-0.001497,4.26713e-12
0.5,5.2,0,0.299632,-0.0013798,4.07776e-12
0.5,5.3,0,0.299631,-0.0012626,3.88839e-12
0.5,5.4,0,0.299631,-0.00114493,3.70315e-12
0.5,5.5,0,0.299631,-0.00102601,3.52913e-12
0.5,5.6,0,0.299631,-0.000907095,3.35512e-12
0.5,5.7,0,0.29963,-0.000788177,3.1811e-12
0.5,5.8,0,0.29963,-0.000669258,3.00709e-12
0.5,5.9,0,0.29963,-0.000550016,2.89705e-12
0.5,6,0,0.29963,-0.000430257,2.88937e-12
0.5,6.1,0,0.29963,-0.000310498,2.88169e-12
0.5,6.2,0,0.29963,-0.000190739,2.87402e-12
0.5,6.3,0,0.29963,-7.09796e-05,2.86634e-12
0.5,6.4,0,0.29963,4.90376e-05,2.92392e-12
0.5,6.5,0,0.299631,0.000169313,3.04675e-12
0.5,6.6,0,0.299631,0.000289588,3.16959e-12
0.5,6.7,0,0.299631,0.000409863,3.29242e-12
0.5,6.8,0,0.299631,0.000530139,3.41526e-12
0.5,6.9,0,0.299632,0.000650242,3.51132e-12
0.5,7,0,0.299632,0.000770239,3.59065e-12
0.5,7.1,0,0.299632,0.000890235,3.66998e-12
0.5,7.2,0,0.299633,0.00101023,3.74931e-12
0.5,7.3,0,0.299633,0.00113023,3.82864e-12
0.5,7.4,0,0.299633,0.00124857,3.82569e-12
0.5,7.5,0,0.299634,0.00136629,3.79242e-12
0.5,7.6,0,0.299634,0.00148402,3.75915e-12
0.5,7.7,0,0.299634,0.00160175,3.72589e-12
0.5,7.8,0,0.299634,0.00171948,3.69262e-12
0.5,7.9,0,0.299635,0.00183492,3.62254e-12
0.5,8,0,0.299635,0.00194994,3.54577e-12
0.5,8.1,0,0.299636,0.00206496,3.469e-12
0.5,8.2,0,0.299636,0.00217998,3.39222e-12
0.5,8.3,0,0.299637,0.002295,3.31545e-12
0.5,8.4,0,0.299639,0.00240567,3.24114e-12
0.5,8.5,0,0.299641,0.00251616,3.16693e-12
0.5,8.6,0,0.299643,0.00262666,3.09272e-12
0.5,8.7,0,0.299645,0.00273715,3.0185e-12
0.5,8.8,0,0.299647,0.00284749,2.93701e-12