/*--------------------------------*- C++ -*----------------------------------*\
| =========                 |                                                 |
| \\      /  F ield         | OpenFOAM: The Open Source CFD Toolbox           |
|  \\    /   O peration     | Version:  v1806                                 |
|   \\  /    A nd           | Web:      www.OpenFOAM.com                      |
|    \\/     M anipulation  |                                                 |
\*---------------------------------------------------------------------------*/
FoamFile
{
    version     2.0;
    format      ascii;
    class       volScalarField;
    location    "4";
    object      p;
}
// * * * * * * * * * * * * * * * * * * * * * * * * * * * * * * * * * * * * * //

dimensions      [0 2 -2 0 0 0 0];


internalField   nonuniform List<scalar> 
2400
(
0.0682901
0.0682901
0.0680237
0.0678521
0.066968
0.0660907
0.0651921
0.0632089
0.0619436
0.0595135
0.0567397
0.0550659
0.0503068
0.0463547
0.0428119
0.0353371
0.0311656
0.0276823
0.0188896
0.0109457
0.204876
0.205032
0.204262
0.203489
0.201648
0.198576
0.195517
0.19066
0.18605
0.179777
0.171514
0.1649
0.153041
0.140392
0.129093
0.109611
0.0938297
0.0816486
0.0591408
0.0357433
0.341742
0.342111
0.341123
0.339921
0.336917
0.331996
0.326698
0.319388
0.311596
0.301692
0.289001
0.276626
0.257844
0.23695
0.216975
0.18768
0.159523
0.135226
0.0998766
0.061923
0.478773
0.479761
0.479128
0.477454
0.473313
0.46662
0.459256
0.450187
0.43936
0.426337
0.409352
0.39126
0.365998
0.336888
0.308023
0.268554
0.227846
0.191146
0.142562
0.0889016
0.615624
0.618321
0.618675
0.616231
0.610921
0.60284
0.593943
0.583623
0.57032
0.554681
0.533518
0.509693
0.478489
0.441702
0.403134
0.353922
0.300741
0.248867
0.186005
0.117177
0.752166
0.758203
0.759599
0.756163
0.749791
0.740923
0.731324
0.72019
0.705458
0.687318
0.662257
0.633846
0.596508
0.552397
0.504207
0.444524
0.378299
0.310437
0.231884
0.146099
0.888611
0.899446
0.901438
0.897238
0.889772
0.881022
0.8716
0.860632
0.845166
0.825094
0.797236
0.764318
0.72125
0.670881
0.612332
0.542034
0.462154
0.37654
0.280714
0.176083
1.02523
1.0418
1.04352
1.03912
1.03057
1.02345
1.0149
1.00537
0.98965
0.969001
0.939311
0.902594
0.854419
0.798187
0.729112
0.6483
0.553701
0.449376
0.333789
0.207247
1.16237
1.18432
1.18497
1.18125
1.17205
1.16851
1.1608
1.15474
1.13893
1.11972
1.08904
1.05057
0.997781
0.936325
0.856315
0.765236
0.654106
0.52989
0.391908
0.240633
1.30014
1.3255
1.3249
1.32297
1.31394
1.31566
1.30913
1.30841
1.29237
1.27812
1.2462
1.21031
1.15257
1.08816
0.996981
0.895145
0.764697
0.619808
0.455293
0.275615
1.43807
1.46393
1.46259
1.46314
1.45579
1.46372
1.45893
1.46526
1.44948
1.44396
1.41052
1.38267
1.31963
1.25838
1.15379
1.04391
0.889351
0.722467
0.524753
0.310777
1.57471
1.59847
1.59688
1.60058
1.59702
1.61118
1.60927
1.62312
1.60926
1.61493
1.5813
1.56724
1.49874
1.44964
1.33018
1.2222
1.03547
0.848102
0.603828
0.347015
1.70937
1.72825
1.7264
1.73427
1.73725
1.75721
1.7601
1.77987
1.77169
1.78748
1.75826
1.75929
1.69015
1.66046
1.52752
1.43431
1.21199
1.016
0.70431
0.393522
1.84369
1.85188
1.85134
1.86427
1.87779
1.90168
1.91312
1.93514
1.93933
1.95994
1.9443
1.95339
1.89483
1.87828
1.7459
1.67238
1.41868
1.23201
0.837481
0.473645
1.98015
1.96966
1.97539
1.99459
2.0216
2.04675
2.0741
2.09528
2.1221
2.13917
2.15177
2.15203
2.12099
2.09763
1.98242
1.9104
1.64719
1.48209
0.998843
0.608666
2.11384
2.08491
2.1077
2.12679
2.17411
2.19219
2.24586
2.26246
2.32586
2.33595
2.3921
2.3796
2.39382
2.34376
2.26782
2.15155
1.89322
1.72557
1.1718
0.797831
2.2352
2.20107
2.23431
2.25573
2.31696
2.33671
2.41568
2.43459
2.53835
2.54436
2.66333
2.63202
2.73994
2.63996
2.66045
2.47449
2.25762
1.96548
1.35749
1.00587
2.34039
2.31681
2.34657
2.37792
2.43999
2.48008
2.56206
2.60869
2.72019
2.76221
2.90199
2.90899
3.07614
2.99254
3.15488
2.88271
2.86365
2.33615
1.74764
1.1677
2.43043
2.42336
2.44714
2.48789
2.54819
2.61137
2.69184
2.77256
2.88081
2.97765
3.11368
3.20348
3.36846
3.39232
3.5912
3.39283
3.57874
2.86762
2.5561
1.16174
2.51139
2.51137
2.53687
2.58158
2.64678
2.72132
2.81231
2.91234
3.03431
3.16364
3.31745
3.46709
3.6482
3.78971
3.98923
4.01669
4.23241
3.70627
3.76775
0.868137
0.00201154
-0.00861306
-0.0179368
-0.0273277
-0.0324456
-0.0257326
-0.00904553
0.0145376
0.0471165
0.0837991
0.0069481
-0.0268986
-0.0552988
-0.0816041
-0.0959186
-0.0773988
-0.0267478
0.0435804
0.130082
0.221412
0.0119239
-0.0484002
-0.0985053
-0.140302
-0.162521
-0.133568
-0.0501783
0.0651987
0.198261
0.336415
0.0154064
-0.0734991
-0.147195
-0.20694
-0.239282
-0.199416
-0.0810559
0.0785153
0.255289
0.43433
0.0180544
-0.103671
-0.205542
-0.286059
-0.329278
-0.277569
-0.122481
0.0802154
0.2953
0.512557
0.0182718
-0.140373
-0.275633
-0.381679
-0.438989
-0.375019
-0.180074
0.0690614
0.323687
0.577801
0.0154858
-0.185754
-0.361944
-0.49923
-0.574669
-0.497061
-0.258769
0.0388279
0.336596
0.626375
0.00852201
-0.241561
-0.468066
-0.645394
-0.747856
-0.654494
-0.360065
-0.00768838
0.331954
0.66367
-0.00255919
-0.310132
-0.599625
-0.828833
-0.965714
-0.855333
-0.498096
-0.0763892
0.310322
0.679866
-0.0189828
-0.393468
-0.761995
-1.06007
-1.25194
-1.11186
-0.676081
-0.175852
0.278679
0.693571
-0.0454086
-0.49273
-0.965452
-1.35764
-1.6296
-1.44738
-0.904247
-0.310372
0.197416
0.690853
-0.0884193
-0.616306
-1.21969
-1.75545
-2.14555
-1.8978
-1.21304
-0.471415
0.156495
0.683942
-0.150455
-0.775508
-1.55536
-2.3099
-2.86585
-2.49306
-1.62881
-0.70856
0.0520915
0.693196
-0.233773
-0.97325
-2.00371
-3.09435
-3.87148
-3.25775
-2.14571
-0.961943
-0.0222466
0.682706
-0.345977
-1.19345
-2.54446
-4.09415
-5.15478
-4.24101
-2.77168
-1.24773
-0.14417
0.698249
-0.537987
-1.38259
-3.07345
-5.10322
-6.38901
-5.1014
-3.32786
-1.47187
-0.294593
0.678999
-0.91395
-1.39122
-3.20083
-5.51922
-7.0006
-5.72858
-3.71488
-1.62069
-0.446921
0.722695
-1.5245
-1.14517
-2.94473
-5.0776
-6.78058
-5.74967
-3.7381
-1.67537
-0.546303
0.732805
-1.52675
-0.862626
-2.81708
-4.67704
-5.84636
-5.34692
-3.48811
-1.62702
-0.477046
0.777261
-4.36436
-0.91719
-3.34939
-4.12326
-5.2422
-5.02065
-3.25835
-1.57631
-0.377894
0.780626
0.122226
0.150562
0.157817
0.145785
0.12352
0.0996477
0.0785344
0.0615455
0.0484474
0.0384274
0.0306868
0.0246075
0.0197421
0.0157732
0.012473
0.00967314
0.00724277
0.00506907
0.0030566
0.00103472
0.325431
0.409139
0.431755
0.399214
0.339197
0.275838
0.220004
0.174668
0.139109
0.111386
0.0896053
0.0722507
0.058198
0.0466294
0.0369437
0.028683
0.0214842
0.0150276
0.00903862
0.00304991
0.500302
0.634729
0.672275
0.625156
0.534967
0.438038
0.351506
0.280702
0.224817
0.180928
0.146168
0.118259
0.095505
0.0766664
0.0608197
0.0472533
0.0353951
0.0247363
0.0148366
0.00498971
0.648028
0.825336
0.872959
0.813297
0.701322
0.58024
0.470304
0.378736
0.305334
0.246982
0.200322
0.162566
0.131589
0.105809
0.0840329
0.0653265
0.0489311
0.0341665
0.0204401
0.00685464
0.774057
0.991614
1.05283
0.983606
0.851056
0.707317
0.577195
0.468305
0.380079
0.309117
0.251778
0.204977
0.166312
0.133957
0.106507
0.0828462
0.062053
0.0432953
0.0258433
0.00864612
0.882749
1.12871
1.19448
1.1218
0.978502
0.820043
0.674157
0.550637
0.449568
0.36747
0.300514
0.245417
0.199591
0.161033
0.128179
0.0997627
0.0747256
0.0521021
0.0310401
0.0103638
0.973531
1.25849
1.33087
1.24759
1.08892
0.917369
0.759802
0.625102
0.513555
0.421918
0.346436
0.283802
0.231348
0.18697
0.148992
0.116032
0.0869178
0.0605682
0.0360239
0.0120069
1.04663
1.34973
1.43237
1.35023
1.18535
1.00406
0.836635
0.692639
0.572339
0.472526
0.389526
0.320082
0.261526
0.211713
0.168899
0.131617
0.0986018
0.0686769
0.0407883
0.013574
1.12354
1.46118
1.53362
1.43883
1.26458
1.07732
0.903849
0.753218
0.626004
0.519336
0.429778
0.354225
0.290082
0.235218
0.187859
0.146483
0.109754
0.076413
0.045327
0.0150641
1.15245
1.52122
1.60952
1.5151
1.33452
1.14148
0.963091
0.807436
0.674791
0.562444
0.467218
0.38622
0.316988
0.25745
0.205839
0.160603
0.120352
0.0837635
0.0496341
0.0164758
1.23899
1.61074
1.67894
1.57273
1.38891
1.19457
1.01426
0.855555
0.71891
0.601964
0.501889
0.416069
0.342225
0.278384
0.222813
0.173954
0.130379
0.0907166
0.0537044
0.0178079
1.22623
1.65674
1.73554
1.62586
1.43568
1.23967
1.05847
0.898075
0.758622
0.638034
0.533856
0.443793
0.365789
0.298002
0.23876
0.186515
0.13982
0.0972626
0.057533
0.0190593
1.30235
1.70741
1.76481
1.65566
1.46872
1.27564
1.09598
0.935368
0.794192
0.670807
0.563195
0.46942
0.387681
0.316293
0.253663
0.198271
0.148661
0.103393
0.061116
0.020229
1.26129
1.72863
1.79721
1.6838
1.49508
1.30492
1.12774
0.967925
0.825908
0.700451
0.589995
0.49299
0.407912
0.333251
0.267511
0.209209
0.156892
0.1091
0.0644496
0.0213161
1.26813
1.74162
1.78661
1.69044
1.51045
1.32715
1.15419
0.996171
0.854057
0.727139
0.61435
0.514547
0.426497
0.348878
0.280297
0.21932
0.164505
0.114378
0.067531
0.02232
1.19371
1.73748
1.77455
1.69185
1.52034
1.34434
1.17622
1.02059
0.878936
0.751049
0.63636
0.534141
0.443457
0.363175
0.292014
0.228596
0.171492
0.119222
0.0703574
0.02324
1.11083
1.72368
1.75076
1.6864
1.5248
1.35711
1.19441
1.04163
0.900833
0.772356
0.656126
0.551824
0.458813
0.376148
0.302662
0.237032
0.177848
0.123628
0.0729269
0.0240756
1.03265
1.6993
1.72462
1.67973
1.52617
1.36664
1.20946
1.05972
0.920028
0.791232
0.673744
0.567649
0.472588
0.387804
0.312238
0.244622
0.183567
0.127592
0.0752375
0.0248265
1.02984
1.67461
1.70267
1.67202
1.52553
1.37372
1.22196
1.07526
0.936782
0.807835
0.689309
0.581662
0.484806
0.398152
0.320743
0.251364
0.188647
0.131111
0.0772879
0.0254922
1.0765
1.6487
1.68939
1.66958
1.52413
1.37928
1.23249
1.08864
0.951338
0.822313
0.702902
0.59391
0.495487
0.407198
0.328176
0.257254
0.193083
0.134184
0.0790766
0.0260725
1.16225
1.62598
1.6827
1.6645
1.52205
1.38337
1.24064
1.09905
0.962652
0.833545
0.713429
0.603379
0.503733
0.414174
0.333903
0.261788
0.196494
0.136544
0.0804499
0.0265176
1.1955
1.59275
1.67325
1.65762
1.5201
1.38675
1.24721
1.10732
0.971541
0.842308
0.721606
0.61071
0.510101
0.419549
0.338307
0.26527
0.199111
0.138353
0.0815017
0.0268583
1.20911
1.56794
1.66095
1.65106
1.51887
1.39021
1.2533
1.11471
0.979333
0.849896
0.728627
0.616967
0.51551
0.4241
0.342026
0.268203
0.201312
0.139873
0.0823842
0.027144
1.21655
1.54589
1.64556
1.64451
1.51857
1.39393
1.25904
1.12131
0.986083
0.856341
0.73451
0.622158
0.519966
0.427826
0.345058
0.270587
0.203096
0.141101
0.0830969
0.0273745
1.20553
1.51418
1.62669
1.6382
1.51941
1.39805
1.26453
1.12719
0.991827
0.861661
0.739265
0.626288
0.523469
0.430729
0.347402
0.272419
0.20446
0.142038
0.0836394
0.0275497
1.17433
1.47105
1.60484
1.63239
1.52158
1.40268
1.26981
1.13236
0.996579
0.865867
0.742896
0.629358
0.526017
0.432805
0.349056
0.273697
0.205405
0.142683
0.084011
0.0276695
1.13479
1.42412
1.58386
1.62763
1.52514
1.40783
1.27488
1.13683
1.00033
0.868951
0.745398
0.631364
0.527609
0.434051
0.350016
0.27442
0.205927
0.143034
0.0842113
0.0277337
1.08598
1.35906
1.56747
1.62453
1.52999
1.41341
1.27967
1.14055
1.00306
0.870897
0.746761
0.632299
0.528237
0.434465
0.350281
0.274585
0.206026
0.14309
0.0842397
0.0277423
1.06432
1.32785
1.55825
1.62316
1.5357
1.41914
1.28405
1.14343
1.00473
0.87171
0.746969
0.63215
0.527894
0.434038
0.349846
0.274189
0.2057
0.142851
0.0840955
0.0276949
1.04089
1.35098
1.55683
1.62281
1.54141
1.42448
1.28773
1.14536
1.00525
0.871285
0.74599
0.6309
0.526568
0.432765
0.348707
0.27323
0.204947
0.142314
0.0837784
0.0275914
0.941114
1.34566
1.55887
1.62447
1.54832
1.43023
1.29118
1.14642
1.00442
0.869254
0.743331
0.628026
0.523754
0.430186
0.346465
0.27138
0.203513
0.141303
0.0831832
0.0273977
0.837161
1.36169
1.58601
1.64134
1.56026
1.43623
1.2931
1.14506
1.00073
0.864166
0.737645
0.622314
0.518391
0.425398
0.342376
0.268048
0.200953
0.139506
0.0821294
0.027055
0.825287
1.38774
1.62087
1.66213
1.57417
1.44278
1.29311
1.14098
0.994088
0.856188
0.729271
0.614188
0.510922
0.418823
0.336816
0.263548
0.197512
0.137098
0.0807197
0.0265968
0.923078
1.44728
1.66597
1.68298
1.58448
1.44476
1.28941
1.13338
0.98409
0.845085
0.718064
0.603557
0.501291
0.41043
0.329768
0.25787
0.193184
0.134077
0.0789527
0.0260224
1.03554
1.50444
1.70499
1.70256
1.59257
1.44329
1.28179
1.12185
0.97039
0.830616
0.703865
0.590324
0.489443
0.400187
0.321214
0.251007
0.187967
0.13044
0.0768272
0.0253314
1.14308
1.54173
1.72346
1.70894
1.5923
1.43566
1.26896
1.10571
0.952575
0.812518
0.68651
0.574387
0.475318
0.388061
0.311139
0.242951
0.181858
0.126187
0.0743425
0.0245235
1.13229
1.55877
1.74653
1.72188
1.58777
1.42222
1.25042
1.08441
0.930244
0.790524
0.665829
0.555644
0.458857
0.374022
0.299528
0.233697
0.174854
0.121318
0.0714984
0.0235982
1.24146
1.57501
1.71667
1.68709
1.56363
1.39843
1.22458
1.05723
0.902971
0.76436
0.641652
0.533996
0.440008
0.358045
0.286372
0.223244
0.166958
0.115833
0.0682956
0.0225557
1.16486
1.53828
1.6994
1.67113
1.53768
1.36757
1.19154
1.02372
0.870367
0.733763
0.613814
0.509348
0.418721
0.340108
0.271665
0.211592
0.158174
0.109737
0.0647354
0.021396
1.21643
1.52279
1.65218
1.61766
1.4917
1.32458
1.14963
0.983158
0.832015
0.698472
0.582161
0.481616
0.394956
0.320199
0.255408
0.19875
0.148508
0.103034
0.0608205
0.0201195
1.13284
1.44864
1.5955
1.57089
1.44199
1.2732
1.09917
0.935175
0.787557
0.658248
0.546551
0.450727
0.368685
0.298313
0.237611
0.184729
0.137972
0.0957323
0.0565544
0.0187271
1.12314
1.41578
1.53041
1.49407
1.36926
1.2069
1.03802
0.878954
0.736586
0.61286
0.506863
0.416627
0.339895
0.27446
0.21829
0.169548
0.126582
0.0878432
0.0519424
0.0172198
1.04411
1.30719
1.43095
1.406
1.28927
1.13104
0.967184
0.814326
0.678817
0.562117
0.462998
0.379281
0.308587
0.24866
0.197473
0.153235
0.11436
0.0793802
0.0469907
0.015599
0.98189
1.22995
1.33321
1.30106
1.18639
1.03727
0.883487
0.740186
0.613815
0.50583
0.414884
0.33868
0.274786
0.220951
0.175202
0.135825
0.101333
0.0703606
0.0417073
0.0138666
0.892075
1.10238
1.19366
1.16945
1.0692
0.932316
0.789263
0.656906
0.541494
0.443907
0.362492
0.294845
0.238538
0.191389
0.151527
0.117362
0.0875331
0.0608056
0.0361014
0.0120243
0.786357
0.973572
1.05537
1.02833
0.933178
0.807676
0.679664
0.562559
0.461195
0.376154
0.305804
0.247825
0.199915
0.160048
0.126518
0.0979023
0.0730019
0.05074
0.0301835
0.0100743
0.658605
0.81342
0.876174
0.850911
0.770708
0.665879
0.557752
0.45857
0.373405
0.302759
0.244939
0.19773
0.159025
0.127027
0.100258
0.0775116
0.0577867
0.0401929
0.0239646
0.00801852
0.505267
0.627252
0.67705
0.656921
0.59137
0.506028
0.419814
0.342324
0.276918
0.223305
0.179839
0.144638
0.115983
0.0924387
0.0728451
0.0562678
0.041943
0.0291973
0.0174563
0.00585828
0.323507
0.404288
0.436729
0.421372
0.376451
0.320068
0.264335
0.214625
0.172742
0.138531
0.110989
0.0888717
0.0710159
0.0564513
0.0444048
0.0342636
0.0255351
0.0177912
0.0106699
0.00359369
0.119032
0.14786
0.159662
0.154126
0.13771
0.116701
0.0955713
0.0766571
0.0609052
0.0482869
0.0383228
0.0304618
0.0242103
0.0191714
0.0150412
0.011588
0.008631
0.00601704
0.003619
0.00122335
-5.12694
-6.32509
-3.80286
-3.78685
-2.72246
-1.71946
-1.3919
-0.229489
-0.185848
0.540563
-5.7766
-6.66498
-2.45309
-4.11284
-2.91338
-1.81564
-1.60402
-0.216964
-0.271736
0.514426
-3.00612
-3.84241
-3.31115
-3.69886
-2.77988
-1.59489
-1.40525
-0.20567
-0.218289
0.427484
-1.68437
-3.37363
-2.7601
-2.72016
-2.26632
-1.43696
-1.15914
-0.261962
-0.0897684
0.465373
-1.00166
-2.10868
-2.1087
-2.03825
-1.81646
-1.18432
-0.812987
-0.172604
0.140434
0.555602
-0.55895
-1.3922
-1.63308
-1.55357
-1.38549
-0.912925
-0.550276
-0.0916231
0.265825
0.67619
-0.328249
-0.94676
-1.22533
-1.17889
-1.04222
-0.704201
-0.359363
0.0176746
0.361513
0.706483
-0.188875
-0.636981
-0.901024
-0.897057
-0.780522
-0.521197
-0.217137
0.106723
0.429576
0.796037
-0.0912198
-0.427673
-0.648486
-0.673689
-0.587603
-0.378038
-0.103284
0.199991
0.497618
0.798713
-0.0224045
-0.281187
-0.459706
-0.501706
-0.431315
-0.249335
-0.00655697
0.252439
0.521296
0.824162
0.0248568
-0.177824
-0.319881
-0.362001
-0.304286
-0.15188
0.0594885
0.298142
0.551182
0.815102
0.0554043
-0.105446
-0.216341
-0.252373
-0.207479
-0.0783794
0.110039
0.325799
0.549693
0.792577
0.0721839
-0.0545037
-0.140922
-0.171745
-0.135283
-0.0240265
0.141259
0.334263
0.542264
0.76465
0.0785874
-0.0208825
-0.0883947
-0.111714
-0.0800142
0.0131167
0.154577
0.327403
0.517432
0.718591
0.0766878
0.000527155
-0.0519214
-0.0707346
-0.0433716
0.0365946
0.158212
0.308188
0.477572
0.660322
0.0688143
0.01197
-0.0281502
-0.0431266
-0.0192475
0.0476731
0.147209
0.272804
0.42195
0.583808
0.0564242
0.0159932
-0.0134332
-0.0258849
-0.00737302
0.0470098
0.128115
0.229793
0.351905
0.487171
0.0416712
0.0141318
-0.00541888
-0.0140574
-0.00148268
0.0381917
0.0982458
0.173859
0.264922
0.369247
0.0250577
0.00968537
-0.00134121
-0.00711116
-0.000282163
0.0241242
0.0616572
0.110634
0.169613
0.235948
0.00828849
0.00345201
-0.000565316
-0.00277141
-0.000306876
0.00800127
0.0204157
0.0383009
0.0613244
0.0871887
2.51584
2.50286
2.53202
2.57683
2.64366
2.71128
2.79978
2.8936
3.01325
3.13605
3.28607
3.4279
3.60519
3.738
3.92914
3.94742
4.13705
3.69146
3.58682
1.2775
2.42527
2.3959
2.42996
2.46528
2.53123
2.57533
2.66066
2.71868
2.83515
2.89987
3.04629
3.0926
3.27004
3.24291
3.43297
3.21307
3.25883
2.57789
1.70554
-0.0895517
2.32009
2.27682
2.31202
2.3376
2.39872
2.42189
2.49707
2.52634
2.62428
2.64903
2.75931
2.75819
2.85423
2.79461
2.79086
2.61094
2.30298
1.84027
0.810414
0.168453
2.20486
2.15576
2.1848
2.20186
2.25118
2.26358
2.31588
2.33293
2.3902
2.40613
2.44561
2.4482
2.4354
2.39524
2.26961
2.13684
1.74333
1.51166
0.714763
0.201004
2.07619
2.03856
2.05241
2.06544
2.09499
2.10804
2.13363
2.14912
2.16768
2.18136
2.17502
2.16928
2.11185
2.07204
1.90081
1.79896
1.446
1.22093
0.62251
0.0996195
1.93623
1.92192
1.92315
1.93054
1.94356
1.95567
1.96428
1.97471
1.97347
1.97656
1.94713
1.93367
1.85181
1.80487
1.63188
1.51673
1.21949
0.96875
0.544459
0.108781
1.79163
1.79765
1.79568
1.79697
1.79781
1.80536
1.80237
1.80923
1.79177
1.78953
1.74415
1.72271
1.63021
1.57084
1.41106
1.28002
1.03915
0.79554
0.494735
0.164553
1.64649
1.66774
1.66271
1.66111
1.6513
1.65664
1.64463
1.64762
1.61957
1.61125
1.55801
1.52651
1.43542
1.36431
1.22566
1.08936
0.898315
0.686578
0.455964
0.201362
1.50383
1.53222
1.52552
1.52169
1.50617
1.50781
1.49
1.48815
1.45549
1.4393
1.38592
1.34428
1.26218
1.18296
1.06608
0.936962
0.781857
0.605824
0.418485
0.218167
1.36412
1.39147
1.3854
1.37976
1.36228
1.35891
1.3395
1.33076
1.29902
1.27449
1.22545
1.17654
1.10467
1.02504
0.925515
0.810744
0.681062
0.537131
0.383025
0.222157
1.22679
1.24828
1.24409
1.23699
1.22056
1.21172
1.19297
1.17827
1.14893
1.11911
1.07485
1.02441
0.960798
0.886432
0.801036
0.702318
0.592995
0.475396
0.349037
0.218774
1.09181
1.10564
1.10286
1.09525
1.08096
1.06858
1.05048
1.03213
1.00536
0.974029
0.933688
0.886338
0.829654
0.763557
0.690219
0.606304
0.514618
0.418476
0.315713
0.210034
0.95841
0.965541
0.963232
0.955863
0.943632
0.929953
0.912514
0.893282
0.868436
0.838426
0.802047
0.760004
0.709828
0.652388
0.590773
0.519417
0.442853
0.365394
0.28184
0.195652
0.826251
0.828941
0.826199
0.819531
0.809054
0.79584
0.779414
0.761058
0.738505
0.710984
0.679052
0.6428
0.59928
0.550274
0.498988
0.439471
0.376137
0.314067
0.246758
0.176629
0.695215
0.695724
0.692361
0.686521
0.677709
0.665642
0.651286
0.634393
0.614784
0.590665
0.563025
0.533063
0.495829
0.455067
0.413534
0.363878
0.312624
0.264509
0.210483
0.153477
0.56564
0.565218
0.561853
0.55681
0.54959
0.539108
0.527137
0.51266
0.496027
0.47581
0.452835
0.428922
0.398164
0.365113
0.33273
0.292126
0.251471
0.215692
0.173215
0.127738
0.437783
0.436978
0.434153
0.429973
0.424271
0.41584
0.406312
0.39476
0.381427
0.365259
0.346963
0.329
0.304901
0.279163
0.255366
0.223406
0.192392
0.167486
0.135267
0.0999102
0.311588
0.310651
0.30849
0.305482
0.30111
0.295091
0.288123
0.279701
0.270069
0.2581
0.244899
0.232165
0.214944
0.196772
0.180112
0.157053
0.135637
0.119414
0.0962259
0.0711806
0.186493
0.185837
0.184306
0.18266
0.179839
0.176114
0.172088
0.16665
0.161073
0.153661
0.145455
0.138145
0.127528
0.116976
0.10702
0.0921092
0.0804466
0.0725084
0.0573949
0.0416801
0.0621323
0.0618342
0.0612499
0.060814
0.0597732
0.058513
0.0572236
0.0553584
0.0535099
0.0507293
0.0483285
0.0460276
0.0418584
0.0387962
0.0354603
0.0298942
0.0268803
0.0245991
0.0185255
0.0131485
2.57348
2.57525
2.60509
2.652
2.72203
2.80264
2.90512
3.01716
3.15682
3.30479
3.48656
3.66952
3.89184
4.09941
4.34923
4.53794
4.79218
4.7903
5.1911
3.41069
2.61143
2.62478
2.65522
2.70557
2.77521
2.86382
2.97075
3.09748
3.24422
3.41429
3.60905
3.82692
4.07394
4.33756
4.63694
4.92563
5.25653
5.47439
5.63645
5.54765
2.6432
2.66061
2.69289
2.74529
2.81693
2.90986
3.02193
3.15746
3.31298
3.49719
3.70638
3.9491
4.21943
4.52864
4.86292
5.22959
5.61141
5.98308
6.37184
6.30385
2.66932
2.68303
2.71763
2.77096
2.84627
2.94019
3.05798
3.19662
3.36208
3.55223
3.77703
4.03077
4.3263
4.65535
5.02673
5.42844
5.85226
6.2781
6.60607
6.88781
2.67802
2.69571
2.73078
2.78534
2.86043
2.95656
3.07477
3.21788
3.38466
3.58204
3.81002
4.07473
4.37756
4.72229
5.10777
5.53133
5.98492
6.42643
6.83696
7.06628
2.67973
2.6952
2.73013
2.78458
2.8602
2.95588
3.07475
3.21633
3.38397
3.57973
3.80937
4.07222
4.37676
4.72072
5.11096
5.53762
6.00068
6.44649
6.85135
7.02539
2.67093
2.68359
2.71728
2.77069
2.8454
2.9398
3.05625
3.19482
3.35796
3.54939
3.77187
4.0281
4.3213
4.65446
5.02544
5.43981
5.86457
6.30982
6.64219
6.95267
2.64523
2.66058
2.69214
2.74477
2.8164
2.90911
3.01952
3.15362
3.30723
3.49127
3.6993
3.94258
4.21358
4.52415
4.86291
5.23583
5.63211
6.00496
6.41513
6.34693
2.62107
2.62227
2.65326
2.70357
2.77616
2.8617
2.96811
3.08976
3.23734
3.40282
3.60003
3.81263
4.06554
4.32565
4.63544
4.93111
5.26602
5.52245
5.70343
5.77441
2.57997
2.57356
2.60376
2.65203
2.72294
2.80114
2.89992
3.00993
3.14557
3.2939
3.4691
3.65576
3.8678
4.08752
4.32491
4.5454
4.7733
4.85999
5.15248
3.726
)
;

boundaryField
{
    inlet
    {
        type            zeroGradient;
    }
    outlet
    {
        type            fixedValue;
        value           uniform 0;
    }
    upAndBottom
    {
        type            empty;
    }
    obstacle
    {
        type            zeroGradient;
    }
}


// ************************************************************************* //
