x,y,z,U_0,U_1,U_2
0,0,0,0.299943,-0.000602322,0
0,0.1,0,0.299959,-0.00043023,0
0,0.2,0,0.299975,-0.000258138,0
0,0.3,0,0.299992,-8.6046e-05,0
0,0.4,0,0.3,0,0
0,0.5,0,0.3,0,0
0,0.6,0,0.3,0,0
0,0.7,0,0.3,-1.37986e-19,0
0,0.8,0,0.3,0,0
0,0.9,0,0.3,0,0
0,1,0,0.3,0,0
0,1.1,0,0.3,0,0
0,1.2,0,0.3,0,0
0,1.3,0,0.3,0,0
0,1.4,0,0.3,0,0
0,1.5,0,0.3,0,0
0,1.6,0,0.3,0,0
0,1.7,0,0.3,0,0
0,1.8,0,0.3,0,0
0,1.9,0,0.3,0,0
0,2,0,0.3,0,0
0,2.1,0,0.3,0,0
0,2.2,0,0.3,0,0
0,2.3,0,0.3,0,0
0,2.4,0,0.3,0,0
0,2.5,0,0.3,0,0
0,2.6,0,0.3,0,0
0,2.7,0,0.3,0,0
0,2.8,0,0.3,0,0
0,2.9,0,0.3,0,0
0,3,0,0.3,0,0
0,3.1,0,0.3,0,0
0,3.2,0,0.3,0,0
0,3.3,0,0.3,0,0
0,3.4,0,0.3,0,0
0,3.5,0,0.3,0,0
0,3.6,0,0.3,0,0
0,3.7,0,0.3,0,0
0,3.8,0,0.3,0,0
0,3.9,0,0.3,0,0
0,4,0,0.3,0,0
0,4.1,0,0.3,0,0
0,4.2,0,0.3,0,0
0,4.3,0,0.3,0,0
0,4.4,0,0.3,0,0
0,4.5,0,0.3,0,0
0,4.6,0,0.3,0,0
0,4.7,0,0.3,0,0
0,4.8,0,0.3,0,0
0,4.9,0,0.3,-5.64886e-20,0
0,5,0,0.3,0,0
0,5.1,0,0.3,0,0
0,5.2,0,0.3,0,0
0,5.3,0,0.3,0,0
0,5.4,0,0.3,0,0
0,5.5,0,0.3,0,0
0,5.6,0,0.3,-2.98903e-20,0
0,5.7,0,0.3,0,0
0,5.8,0,0.3,0,0
0,5.9,0,0.3,0,0
0,6,0,0.3,0,0
0,6.1,0,0.3,0,0
0,6.2,0,0.3,0,0
0,6.3,0,0.3,-2.32132e-21,0
0,6.4,0,0.3,0,0
0,6.5,0,0.3,0,0
0,6.6,0,0.3,0,0
0,6.7,0,0.3,0,0
0,6.8,0,0.3,0,0
0,6.9,0,0.3,0,0
0,7,0,0.3,0,0
0,7.1,0,0.3,0,0
0,7.2,0,0.3,3.3284e-20,0
0,7.3,0,0.3,3.71971e-20,0
0,7.4,0,0.3,4.10842e-20,0
0,7.5,0,0.3,0,0
0,7.6,0,0.3,4.8774e-20,0
0,7.7,0,0.3,0,0
0,7.8,0,0.3,5.63347e-20,0
0,7.9,0,0.3,0,0
0,8,0,0.3,0,0
0,8.1,0,0.3,0,0
0,8.2,0,0.3,0,0
0,8.3,0,0.3,0,0
0,8.4,0,0.3,0,0
0,8.5,0,0.3,0,0
0,8.6,0,0.3,0,0
0,8.7,0,0.3,0,0
0,8.8,0,0.3,0,0
0,8.9,0,0.3,0,0
0,9,0,0.3,0,0
0,9.1,0,0.3,0,0
0,9.2,0,0.3,0,0
0,9.3,0,0.3,0,0
0,9.4,0,0.3,0,0
0,9.5,0,0.3,0,0
0,9.6,0,0.3,0,0
0,9.7,0,0.3,0,0
0,9.8,0,0.3,0,0
0,9.9,0,0.3,0,0
0,10,0,0.3,0,0
0,10.1,0,0.3,0,0
0,10.2,0,0.3,0,0
0,10.3,0,0.3,0,0
0,10.4,0,0.3,0,0
0,10.5,0,0.3,0,0
0,10.6,0,0.3,0,0
0,10.7,0,0.3,0,0
0,10.8,0,0.3,0,0
0,10.9,0,0.3,0,0
0,11,0,0.3,0,0
0,11.1,0,0.3,0,0
0,11.2,0,0.3,0,0
0,11.3,0,0.3,0,0
0,11.4,0,0.3,0,0
0,11.5,0,0.3,0,0
0,11.6,0,0.3,0,0
0,11.7,0,0.3,0,0
0,11.8,0,0.3,0,0
0,11.9,0,0.3,0,0
0,12,0,0.3,0,0
0,12.1,0,0.3,0,0
0,12.2,0,0.3,0,0
0,12.3,0,0.3,0,0
0,12.4,0,0.3,0,0
0,12.5,0,0.299991,8.78531e-05,0
0,12.6,0,0.299966,0.000338862,0
0,12.7,0,0.29994,0.000589871,0
0.1,0,0,0.299934,-0.000662605,0
0.1,0.1,0,0.299937,-0.000658716,0
0.1,0.2,0,0.299954,-0.000486624,0
0.1,0.3,0,0.29997,-0.000314532,0
0.1,0.4,0,0.299971,-0.000277171,0
0.1,0.5,0,0.299971,-0.000277171,0
0.1,0.6,0,0.299971,-0.000277171,0
0.1,0.7,0,0.299983,-0.000130828,0
0.1,0.8,0,0.299973,-0.000265552,0
0.1,0.9,0,0.299973,-0.000265552,0
0.1,1,0,0.299973,-0.000265552,0
0.1,1.1,0,0.299976,-0.000252705,0
0.1,1.2,0,0.299976,-0.000252705,0
0.1,1.3,0,0.299976,-0.000252705,0
0.1,1.4,0,0.299981,-0.000132026,0
0.1,1.5,0,0.299979,-0.000239377,0
0.1,1.6,0,0.299979,-0.000239377,0
0.1,1.7,0,0.299979,-0.000239377,0
0.1,1.8,0,0.299982,-0.000225608,0
0.1,1.9,0,0.299982,-0.000225608,0
0.1,2,0,0.299982,-0.000225608,0
0.1,2.1,0,0.29998,-0.000126298,0
0.1,2.2,0,0.299984,-0.000211164,0
0.1,2.3,0,0.299984,-0.000211164,0
0.1,2.4,0,0.299984,-0.000211164,0
0.1,2.5,0,0.299986,-0.000196006,0
0.1,2.6,0,0.299986,-0.000196006,0
0.1,2.7,0,0.299986,-0.000196006,0
0.1,2.8,0,0.299978,-0.000114342,0
0.1,2.9,0,0.299988,-0.000180144,0
0.1,3,0,0.299988,-0.000180144,0
0.1,3.1,0,0.299988,-0.000180144,0
0.1,3.2,0,0.299989,-0.000163602,0
0.1,3.3,0,0.299989,-0.000163602,0
0.1,3.4,0,0.299989,-0.000163602,0
0.1,3.5,0,0.299976,-9.75218e-05,0
0.1,3.6,0,0.29999,-0.000146421,0
0.1,3.7,0,0.29999,-0.000146421,0
0.1,3.8,0,0.29999,-0.000146421,0
0.1,3.9,0,0.299991,-0.000128653,0
0.1,4,0,0.299991,-0.000128653,0
0.1,4.1,0,0.299991,-0.000128653,0
0.1,4.2,0,0.299974,-7.69332e-05,0
0.1,4.3,0,0.299991,-0.00011036,0
0.1,4.4,0,0.299991,-0.00011036,0
0.1,4.5,0,0.299991,-0.00011036,0
0.1,4.6,0,0.299992,-9.16103e-05,0
0.1,4.7,0,0.299992,-9.16103e-05,0
0.1,4.8,0,0.299992,-9.16103e-05,0
0.1,4.9,0,0.299973,-5.35583e-05,0
0.1,5,0,0.299992,-7.24771e-05,0
0.1,5.1,0,0.299992,-7.24771e-05,0
0.1,5.2,0,0.299992,-7.24771e-05,0
0.1,5.3,0,0.299993,-5.30402e-05,0
0.1,5.4,0,0.299993,-5.30402e-05,0
0.1,5.5,0,0.299993,-5.30402e-05,0
0.1,5.6,0,0.299972,-2.83397e-05,0
0.1,5.7,0,0.299993,-3.33832e-05,0
0.1,5.8,0,0.299993,-3.33832e-05,0
0.1,5.9,0,0.299993,-3.33832e-05,0
0.1,6,0,0.299993,-1.35891e-05,0
0.1,6.1,0,0.299993,-1.35891e-05,0
0.1,6.2,0,0.299993,-1.35891e-05,0
0.1,6.3,0,0.299972,-2.2009e-06,0
0.1,6.4,0,0.299993,6.23665e-06,0
0.1,6.5,0,0.299993,6.23665e-06,0
0.1,6.6,0,0.299993,6.23665e-06,0
0.1,6.7,0,0.299993,2.59651e-05,0
0.1,6.8,0,0.299993,2.59651e-05,0
0.1,6.9,0,0.299993,2.59651e-05,0
0.1,7,0,0.299972,2.17941e-05,0
0.1,7.1,0,0.299972,2.78248e-05,0
0.1,7.2,0,0.299972,3.15574e-05,0
0.1,7.3,0,0.299973,3.52675e-05,0
0.1,7.4,0,0.299973,3.8953e-05,0
0.1,7.5,0,0.299973,4.26127e-05,0
0.1,7.6,0,0.299973,4.62439e-05,0
0.1,7.7,0,0.299973,4.98444e-05,0
0.1,7.8,0,0.299973,5.34124e-05,0
0.1,7.9,0,0.299973,5.69439e-05,0
0.1,8,0,0.299973,6.15758e-05,0
0.1,8.1,0,0.299993,9.93602e-05,0
0.1,8.2,0,0.299993,9.93602e-05,0
0.1,8.3,0,0.299993,0.000111927,0
0.1,8.4,0,0.299993,0.000111927,0
0.1,8.5,0,0.299992,0.000124288,0
0.1,8.6,0,0.299992,0.000124288,0
0.1,8.7,0,0.299978,9.17491e-05,0
0.1,8.8,0,0.299992,0.000136415,0
0.1,8.9,0,0.299992,0.000136415,0
0.1,9,0,0.299991,0.000148269,0
0.1,9.1,0,0.299991,0.000148269,0
0.1,9.2,0,0.299991,0.000159834,0
0.1,9.3,0,0.299991,0.000159834,0
0.1,9.4,0,0.299982,0.000126245,0
0.1,9.5,0,0.29999,0.000171096,0
0.1,9.6,0,0.29999,0.000171096,0
0.1,9.7,0,0.299989,0.000182047,0
0.1,9.8,0,0.299989,0.000182047,0
0.1,9.9,0,0.299986,0.000177702,0
0.1,10,0,0.299988,0.000192679,0
0.1,10.1,0,0.299984,0.000163743,0
0.1,10.2,0,0.299986,0.000202988,0
0.1,10.3,0,0.299986,0.000202988,0
0.1,10.4,0,0.299985,0.000212973,0
0.1,10.5,0,0.299985,0.000212973,0
0.1,10.6,0,0.299982,0.000184882,0
0.1,10.7,0,0.299983,0.000222636,0
0.1,10.8,0,0.299983,0.000204798,0
0.1,10.9,0,0.299981,0.000231985,0
0.1,11,0,0.299981,0.000231985,0
0.1,11.1,0,0.299979,0.000241034,0
0.1,11.2,0,0.299979,0.000241034,0
0.1,11.3,0,0.29998,0.000180036,0
0.1,11.4,0,0.299977,0.000249811,0
0.1,11.5,0,0.299977,0.000249811,0
0.1,11.6,0,0.299975,0.000258366,0
0.1,11.7,0,0.299975,0.000258366,0
0.1,11.8,0,0.299972,0.000266691,0
0.1,11.9,0,0.299972,0.000266691,0
0.1,12,0,0.299981,0.000160225,0
0.1,12.1,0,0.299971,0.000274587,0
0.1,12.2,0,0.299971,0.000274587,0
0.1,12.3,0,0.29997,0.000282309,0
0.1,12.4,0,0.29997,0.000282309,0
0.1,12.5,0,0.299968,0.00031669,0
0.1,12.6,0,0.299942,0.000567699,0
0.1,12.7,0,0.299932,0.000651328,0
0.2,0,0,0.299926,-0.000722888,0
0.2,0.1,0,0.299916,-0.000887202,0
0.2,0.2,0,0.299932,-0.00071511,0
0.2,0.3,0,0.299952,-0.000477562,0
0.2,0.4,0,0.299951,-0.000457588,0
0.2,0.5,0,0.299942,-0.000554341,0
0.2,0.6,0,0.299942,-0.000554341,0
0.2,0.7,0,0.299965,-0.000261656,0
0.2,0.8,0,0.299945,-0.000531103,0
0.2,0.9,0,0.299945,-0.000531103,0
0.2,1,0,0.299951,-0.000445434,0
0.2,1.1,0,0.299955,-0.000428,0
0.2,1.2,0,0.299951,-0.000505411,0
0.2,1.3,0,0.299951,-0.000505411,0
0.2,1.4,0,0.299963,-0.000264053,0
0.2,1.5,0,0.299958,-0.000478754,0
0.2,1.6,0,0.299958,-0.000478754,0
0.2,1.7,0,0.299959,-0.000408462,0
0.2,1.8,0,0.299963,-0.000389776,0
0.2,1.9,0,0.299964,-0.000451217,0
0.2,2,0,0.299964,-0.000451217,0
0.2,2.1,0,0.299959,-0.000252596,0
0.2,2.2,0,0.299969,-0.000422328,0
0.2,2.3,0,0.299969,-0.000422328,0
0.2,2.4,0,0.299965,-0.000364368,0
0.2,2.5,0,0.299968,-0.000343797,0
0.2,2.6,0,0.299973,-0.000392012,0
0.2,2.7,0,0.299973,-0.000392012,0
0.2,2.8,0,0.299955,-0.000228684,0
0.2,2.9,0,0.299976,-0.000360289,0
0.2,3,0,0.299976,-0.000360289,0
0.2,3.1,0,0.299968,-0.000312925,0
0.2,3.2,0,0.29997,-0.000290475,0
0.2,3.3,0,0.299978,-0.000327205,0
0.2,3.4,0,0.299978,-0.000327205,0
0.2,3.5,0,0.299951,-0.000195044,0
0.2,3.6,0,0.29998,-0.000292842,0
0.2,3.7,0,0.29998,-0.000292842,0
0.2,3.8,0,0.29997,-0.000255051,0
0.2,3.9,0,0.299971,-0.000230938,0
0.2,4,0,0.299981,-0.000257307,0
0.2,4.1,0,0.299981,-0.000257307,0
0.2,4.2,0,0.299948,-0.000153866,0
0.2,4.3,0,0.299983,-0.00022072,0
0.2,4.4,0,0.299983,-0.00022072,0
0.2,4.5,0,0.299971,-0.000191904,0
0.2,4.6,0,0.299972,-0.000166458,0
0.2,4.7,0,0.299984,-0.000183221,0
0.2,4.8,0,0.299984,-0.000183221,0
0.2,4.9,0,0.299946,-0.000107117,0
0.2,5,0,0.299985,-0.000144954,0
0.2,5.1,0,0.299985,-0.000144954,0
0.2,5.2,0,0.299972,-0.000124797,0
0.2,5.3,0,0.299972,-9.84183e-05,0
0.2,5.4,0,0.299985,-0.00010608,0
0.2,5.5,0,0.299985,-0.00010608,0
0.2,5.6,0,0.299944,-5.66795e-05,0
0.2,5.7,0,0.299986,-6.67663e-05,0
0.2,5.8,0,0.299986,-6.67663e-05,0
0.2,5.9,0,0.299973,-5.51604e-05,0
0.2,6,0,0.299973,-2.82971e-05,0
0.2,6.1,0,0.299987,-2.71783e-05,0
0.2,6.2,0,0.299987,-2.71783e-05,0
0.2,6.3,0,0.299944,-4.40181e-06,0
0.2,6.4,0,0.299987,1.24733e-05,0
0.2,6.5,0,0.299987,1.24733e-05,0
0.2,6.6,0,0.299973,1.55015e-05,0
0.2,6.7,0,0.299973,4.22757e-05,0
0.2,6.8,0,0.299987,5.19301e-05,0
0.2,6.9,0,0.299987,5.19301e-05,0
0.2,7,0,0.299944,4.35881e-05,0
0.2,7.1,0,0.299945,5.56495e-05,0
0.2,7.2,0,0.299945,6.31148e-05,0
0.2,7.3,0,0.299945,7.0535e-05,0
0.2,7.4,0,0.299945,7.79061e-05,0
0.2,7.5,0,0.299945,8.52253e-05,0
0.2,7.6,0,0.299946,9.24879e-05,0
0.2,7.7,0,0.299946,9.96889e-05,0
0.2,7.8,0,0.299946,0.000106825,0
0.2,7.9,0,0.299947,0.000113888,0
0.2,8,0,0.299947,0.000123152,0
0.2,8.1,0,0.299987,0.00019872,0
0.2,8.2,0,0.299975,0.000180608,0
0.2,8.3,0,0.299986,0.000223853,0
0.2,8.4,0,0.299986,0.000223853,0
0.2,8.5,0,0.299971,0.000210645,0
0.2,8.6,0,0.299985,0.000248576,0
0.2,8.7,0,0.299953,0.000175255,0
0.2,8.8,0,0.299984,0.000272829,0
0.2,8.9,0,0.299978,0.000255267,0
0.2,9,0,0.299983,0.000296539,0
0.2,9.1,0,0.299983,0.000296539,0
0.2,9.2,0,0.299967,0.00025772,0
0.2,9.3,0,0.299981,0.000319668,0
0.2,9.4,0,0.299959,0.000229697,0
0.2,9.5,0,0.299979,0.000342192,0
0.2,9.6,0,0.299977,0.000331001,0
0.2,9.7,0,0.299978,0.000364094,0
0.2,9.8,0,0.299978,0.000364094,0
0.2,9.9,0,0.299964,0.000292168,0
0.2,10,0,0.299975,0.000385358,0
0.2,10.1,0,0.299963,0.000282907,0
0.2,10.2,0,0.299973,0.000405977,0
0.2,10.3,0,0.299973,0.000405977,0
0.2,10.4,0,0.29997,0.000425945,0
0.2,10.5,0,0.29997,0.000425945,0
0.2,10.6,0,0.299962,0.000311604,0
0.2,10.7,0,0.299966,0.000445272,0
0.2,10.8,0,0.299963,0.000334279,0
0.2,10.9,0,0.299963,0.000463971,0
0.2,11,0,0.299963,0.000463971,0
0.2,11.1,0,0.299959,0.000462256,0
0.2,11.2,0,0.299958,0.000482067,0
0.2,11.3,0,0.299962,0.000312725,0
0.2,11.4,0,0.299954,0.000499621,0
0.2,11.5,0,0.299959,0.00038409,0
0.2,11.6,0,0.299949,0.000516733,0
0.2,11.7,0,0.299949,0.000516733,0
0.2,11.8,0,0.299949,0.000482007,0
0.2,11.9,0,0.299945,0.000533381,0
0.2,12,0,0.299964,0.000291479,0
0.2,12.1,0,0.299942,0.000549175,0
0.2,12.2,0,0.299952,0.000434591,0
0.2,12.3,0,0.299941,0.000564619,0
0.2,12.4,0,0.299941,0.000564619,0
0.2,12.5,0,0.29995,0.000485125,0
0.2,12.6,0,0.299919,0.000796535,0
0.2,12.7,0,0.299924,0.000712786,0
0.3,0,0,0.299918,-0.000783171,0
0.3,0.1,0,0.299898,-0.00106763,0
0.3,0.2,0,0.29991,-0.000943596,0
0.3,0.3,0,0.299937,-0.000604228,0
0.3,0.4,0,0.299935,-0.000584254,0
0.3,0.5,0,0.299913,-0.000831512,0
0.3,0.6,0,0.299917,-0.000789699,0
0.3,0.7,0,0.299948,-0.000392484,0
0.3,0.8,0,0.299921,-0.000758162,0
0.3,0.9,0,0.299918,-0.000796655,0
0.3,1,0,0.299933,-0.000577722,0
0.3,1.1,0,0.299937,-0.000560288,0
0.3,1.2,0,0.299927,-0.000758116,0
0.3,1.3,0,0.299928,-0.000723636,0
0.3,1.4,0,0.299944,-0.000396079,0
0.3,1.5,0,0.299938,-0.000687459,0
0.3,1.6,0,0.299937,-0.000718131,0
0.3,1.7,0,0.299939,-0.000538497,0
0.3,1.8,0,0.299943,-0.000519811,0
0.3,1.9,0,0.299946,-0.000676825,0
0.3,2,0,0.299945,-0.000648451,0
0.3,2.1,0,0.299939,-0.000378894,0
0.3,2.2,0,0.299952,-0.000609245,0
0.3,2.3,0,0.299953,-0.000633493,0
0.3,2.4,0,0.299944,-0.000485372,0
0.3,2.5,0,0.299946,-0.0004648,0
0.3,2.6,0,0.299959,-0.000588018,0
0.3,2.7,0,0.299956,-0.000564686,0
0.3,2.8,0,0.299933,-0.000343027,0
0.3,2.9,0,0.29996,-0.000521633,0
0.3,3,0,0.299963,-0.000540433,0
0.3,3.1,0,0.299945,-0.000419393,0
0.3,3.2,0,0.299947,-0.000396943,0
0.3,3.3,0,0.299967,-0.000490807,0
0.3,3.4,0,0.299963,-0.000471927,0
0.3,3.5,0,0.299927,-0.000292566,0
0.3,3.6,0,0.299966,-0.000425291,0
0.3,3.7,0,0.29997,-0.000439263,0
0.3,3.8,0,0.299945,-0.000342687,0
0.3,3.9,0,0.299946,-0.000318574,0
0.3,4,0,0.299972,-0.00038596,0
0.3,4.1,0,0.299967,-0.000371183,0
0.3,4.2,0,0.299922,-0.0002308,0
0.3,4.3,0,0.299969,-0.00032153,0
0.3,4.4,0,0.299974,-0.000331081,0
0.3,4.5,0,0.299945,-0.000257438,0
0.3,4.6,0,0.299946,-0.000231992,0
0.3,4.7,0,0.299976,-0.000274831,0
0.3,4.8,0,0.299971,-0.000263959,0
0.3,4.9,0,0.299919,-0.000160675,0
0.3,5,0,0.299972,-0.000212026,0
0.3,5.1,0,0.299977,-0.000217431,0
0.3,5.2,0,0.299945,-0.000165918,0
0.3,5.3,0,0.299945,-0.00013954,0
0.3,5.4,0,0.299978,-0.000159121,0
0.3,5.5,0,0.299972,-0.000152063,0
0.3,5.6,0,0.299917,-8.50192e-05,0
0.3,5.7,0,0.299973,-9.87085e-05,0
0.3,5.8,0,0.299979,-0.000100149,0
0.3,5.9,0,0.299945,-7.049e-05,0
0.3,6,0,0.299945,-4.36266e-05,0
0.3,6.1,0,0.29998,-4.07674e-05,0
0.3,6.2,0,0.299974,-3.75136e-05,0
0.3,6.3,0,0.299916,-6.60271e-06,0
0.3,6.4,0,0.299974,1.62992e-05,0
0.3,6.5,0,0.29998,1.871e-05,0
0.3,6.6,0,0.299945,2.64486e-05,0
0.3,6.7,0,0.299945,5.32228e-05,0
0.3,6.8,0,0.29998,7.78952e-05,0
0.3,6.9,0,0.299974,7.67034e-05,0
0.3,7,0,0.299917,6.53822e-05,0
0.3,7.1,0,0.299917,8.34743e-05,0
0.3,7.2,0,0.299917,9.46723e-05,0
0.3,7.3,0,0.299918,0.000105803,0
0.3,7.4,0,0.299918,0.000116859,0
0.3,7.5,0,0.299918,0.000127838,0
0.3,7.6,0,0.299919,0.000138732,0
0.3,7.7,0,0.299919,0.000149533,0
0.3,7.8,0,0.299919,0.000160237,0
0.3,7.9,0,0.29992,0.000170832,0
0.3,8,0,0.29992,0.000184727,0
0.3,8.1,0,0.29998,0.000298081,0
0.3,8.2,0,0.299949,0.000249014,0
0.3,8.3,0,0.299971,0.000319575,0
0.3,8.4,0,0.299975,0.000329683,0
0.3,8.5,0,0.299945,0.000286751,0
0.3,8.6,0,0.299977,0.000372864,0
0.3,8.7,0,0.299928,0.000258761,0
0.3,8.8,0,0.299976,0.000409244,0
0.3,8.9,0,0.299953,0.000345825,0
0.3,9,0,0.299965,0.000411655,0
0.3,9.1,0,0.299974,0.000444808,0
0.3,9.2,0,0.299943,0.00035494,0
0.3,9.3,0,0.299972,0.000479502,0
0.3,9.4,0,0.299936,0.000333149,0
0.3,9.5,0,0.299969,0.000513289,0
0.3,9.6,0,0.299954,0.000440215,0
0.3,9.7,0,0.299958,0.000489579,0
0.3,9.8,0,0.299967,0.000546141,0
0.3,9.9,0,0.299942,0.000406634,0
0.3,10,0,0.299963,0.000578037,0
0.3,10.1,0,0.299941,0.000402072,0
0.3,10.2,0,0.299959,0.000608965,0
0.3,10.3,0,0.299952,0.000530939,0
0.3,10.4,0,0.299949,0.00055112,0
0.3,10.5,0,0.299955,0.000638918,0
0.3,10.6,0,0.299942,0.000438326,0
0.3,10.7,0,0.299949,0.000667907,0
0.3,10.8,0,0.299944,0.00046376,0
0.3,10.9,0,0.299944,0.000695956,0
0.3,11,0,0.299944,0.000617911,0
0.3,11.1,0,0.29994,0.000593745,0
0.3,11.2,0,0.299937,0.000723101,0
0.3,11.3,0,0.299943,0.000445414,0
0.3,11.4,0,0.299931,0.000749432,0
0.3,11.5,0,0.299941,0.000517126,0
0.3,11.6,0,0.299924,0.000775099,0
0.3,11.7,0,0.299928,0.000702819,0
0.3,11.8,0,0.299932,0.000614553,0
0.3,11.9,0,0.299917,0.000800072,0
0.3,12,0,0.299947,0.000422733,0
0.3,12.1,0,0.299913,0.000823762,0
0.3,12.2,0,0.299936,0.000563625,0
0.3,12.3,0,0.299913,0.000820839,0
0.3,12.4,0,0.299916,0.000788581,0
0.3,12.5,0,0.299935,0.000610729,0
0.3,12.6,0,0.299896,0.00102537,0
0.3,12.7,0,0.299916,0.000774243,0
0.4,0,0,0.299909,-0.000843454,0
0.4,0.1,0,0.299889,-0.00112791,0
0.4,0.2,0,0.299888,-0.00117208,0
0.4,0.3,0,0.299921,-0.000730894,0
0.4,0.4,0,0.29992,-0.00071092,0
0.4,0.5,0,0.299885,-0.00110868,0
0.4,0.6,0,0.2999,-0.000920527,0
0.4,0.7,0,0.299931,-0.000523312,0
0.4,0.8,0,0.299904,-0.00088899,0
0.4,0.9,0,0.299891,-0.00106221,0
0.4,1,0,0.299915,-0.00071001,0
0.4,1.1,0,0.299919,-0.000692576,0
0.4,1.2,0,0.299902,-0.00101082,0
0.4,1.3,0,0.29991,-0.000855662,0
0.4,1.4,0,0.299925,-0.000528105,0
0.4,1.5,0,0.299919,-0.000819485,0
0.4,1.6,0,0.299916,-0.000957507,0
0.4,1.7,0,0.29992,-0.000668531,0
0.4,1.8,0,0.299924,-0.000649845,0
0.4,1.9,0,0.299928,-0.000902434,0
0.4,2,0,0.299925,-0.000774749,0
0.4,2.1,0,0.299918,-0.000505193,0
0.4,2.2,0,0.299931,-0.000735543,0
0.4,2.3,0,0.299938,-0.000844657,0
0.4,2.4,0,0.299922,-0.000606376,0
0.4,2.5,0,0.299925,-0.000585804,0
0.4,2.6,0,0.299945,-0.000784024,0
0.4,2.7,0,0.299934,-0.000679028,0
0.4,2.8,0,0.29991,-0.000457369,0
0.4,2.9,0,0.299938,-0.000635975,0
0.4,3,0,0.299951,-0.000720578,0
0.4,3.1,0,0.299922,-0.000525861,0
0.4,3.2,0,0.299923,-0.000503411,0
0.4,3.3,0,0.299956,-0.000654409,0
0.4,3.4,0,0.299939,-0.000569449,0
0.4,3.5,0,0.299903,-0.000390087,0
0.4,3.6,0,0.299941,-0.000522813,0
0.4,3.7,0,0.29996,-0.000585683,0
0.4,3.8,0,0.29992,-0.000430322,0
0.4,3.9,0,0.299921,-0.000406209,0
0.4,4,0,0.299963,-0.000514613,0
0.4,4.1,0,0.299942,-0.000448116,0
0.4,4.2,0,0.299896,-0.000307733,0
0.4,4.3,0,0.299943,-0.000398463,0
0.4,4.4,0,0.299965,-0.000441441,0
0.4,4.5,0,0.299918,-0.000322973,0
0.4,4.6,0,0.299919,-0.000297527,0
0.4,4.7,0,0.299968,-0.000366441,0
0.4,4.8,0,0.299944,-0.000317517,0
0.4,4.9,0,0.299892,-0.000214233,0
0.4,5,0,0.299945,-0.000265584,0
0.4,5.1,0,0.29997,-0.000289908,0
0.4,5.2,0,0.299917,-0.000207039,0
0.4,5.3,0,0.299917,-0.000180661,0
0.4,5.4,0,0.299971,-0.000212161,0
0.4,5.5,0,0.299944,-0.000180403,0
0.4,5.6,0,0.299889,-0.000113359,0
0.4,5.7,0,0.299945,-0.000127048,0
0.4,5.8,0,0.299972,-0.000133533,0
0.4,5.9,0,0.299917,-8.58195e-05,0
0.4,6,0,0.299917,-5.89562e-05,0
0.4,6.1,0,0.299973,-5.43565e-05,0
0.4,6.2,0,0.299946,-3.97145e-05,0
0.4,6.3,0,0.299888,-8.80361e-06,0
0.4,6.4,0,0.299946,1.40983e-05,0
0.4,6.5,0,0.299974,2.49466e-05,0
0.4,6.6,0,0.299917,3.73957e-05,0
0.4,6.7,0,0.299917,6.41699e-05,0
0.4,6.8,0,0.299974,0.00010386,0
0.4,6.9,0,0.299947,9.84975e-05,0
0.4,7,0,0.299889,8.71762e-05,0
0.4,7.1,0,0.299889,0.000111299,0
0.4,7.2,0,0.29989,0.00012623,0
0.4,7.3,0,0.29989,0.00014107,0
0.4,7.4,0,0.299891,0.000155812,0
0.4,7.5,0,0.299891,0.000170451,0
0.4,7.6,0,0.299891,0.000184976,0
0.4,7.7,0,0.299892,0.000199378,0
0.4,7.8,0,0.299893,0.00021365,0
0.4,7.9,0,0.299893,0.000227776,0
0.4,8,0,0.299894,0.000246303,0
0.4,8.1,0,0.299973,0.000397441,0
0.4,8.2,0,0.299923,0.000317419,0
0.4,8.3,0,0.299945,0.000387981,0
0.4,8.4,0,0.29995,0.000405789,0
0.4,8.5,0,0.299919,0.000362857,0
0.4,8.6,0,0.29997,0.000497152,0
0.4,8.7,0,0.299903,0.000342267,0
0.4,8.8,0,0.299965,0.000537215,0
0.4,8.9,0,0.299928,0.000436383,0
0.4,9,0,0.29994,0.000502213,0
0.4,9.1,0,0.299951,0.000543657,0
0.4,9.2,0,0.299919,0.00045216,0
0.4,9.3,0,0.299962,0.000639336,0
0.4,9.4,0,0.299912,0.000436601,0
0.4,9.5,0,0.299954,0.000659918,0
0.4,9.6,0,0.299932,0.000549429,0
0.4,9.7,0,0.299935,0.000598793,0
0.4,9.8,0,0.299947,0.000676423,0
0.4,9.9,0,0.29992,0.000521099,0
0.4,10,0,0.29995,0.000770717,0
0.4,10.1,0,0.29992,0.000521237,0
0.4,10.2,0,0.299941,0.000764691,0
0.4,10.3,0,0.299931,0.000654205,0
0.4,10.4,0,0.299928,0.000674386,0
0.4,10.5,0,0.299937,0.00080326,0
0.4,10.6,0,0.299922,0.000565048,0
0.4,10.7,0,0.299933,0.000890543,0
0.4,10.8,0,0.299925,0.000593241,0
0.4,10.9,0,0.299925,0.000849427,0
0.4,11,0,0.299925,0.0007494,0
0.4,11.1,0,0.299921,0.000725235,0
0.4,11.2,0,0.299918,0.000924946,0
0.4,11.3,0,0.299925,0.000578103,0
0.4,11.4,0,0.299907,0.000999242,0
0.4,11.5,0,0.299924,0.000650163,0
0.4,11.6,0,0.299906,0.000912136,0
0.4,11.7,0,0.299911,0.000835366,0
0.4,11.8,0,0.299914,0.000747099,0
0.4,11.9,0,0.299891,0.00104515,0
0.4,12,0,0.299931,0.000553986,0
0.4,12.1,0,0.299884,0.00109835,0
0.4,12.2,0,0.29992,0.000692659,0
0.4,12.3,0,0.299897,0.000949874,0
0.4,12.4,0,0.299902,0.000914185,0
0.4,12.5,0,0.29992,0.000736334,0
0.4,12.6,0,0.299873,0.00125421,0
0.4,12.7,0,0.299909,0.000835701,0
0.5,0,0,0.299901,-0.000903737,0
0.5,0.1,0,0.299881,-0.0011882,0
0.5,0.2,0,0.299872,-0.00130602,0
0.5,0.3,0,0.299906,-0.00085756,0
0.5,0.4,0,0.299904,-0.000837585,0
0.5,0.5,0,0.299868,-0.0012461,0
0.5,0.6,0,0.299882,-0.00105136,0
0.5,0.7,0,0.299914,-0.000654139,0
0.5,0.8,0,0.299886,-0.00101982,0
0.5,0.9,0,0.299872,-0.00120401,0
0.5,1,0,0.299897,-0.000842298,0
0.5,1.1,0,0.299901,-0.000824864,0
0.5,1.2,0,0.299884,-0.00115171,0
0.5,1.3,0,0.299891,-0.000987689,0
0.5,1.4,0,0.299907,-0.000660132,0
0.5,1.5,0,0.2999,-0.000951512,0
0.5,1.6,0,0.299896,-0.00109535,0
0.5,1.7,0,0.2999,-0.000798566,0
0.5,1.8,0,0.299904,-0.00077988,0
0.5,1.9,0,0.299908,-0.00103929,0
0.5,2,0,0.299904,-0.000901047,0
0.5,2.1,0,0.299898,-0.000631491,0
0.5,2.2,0,0.299911,-0.000861842,0
0.5,2.3,0,0.299917,-0.000972101,0
0.5,2.4,0,0.299901,-0.00072738,0
0.5,2.5,0,0.299903,-0.000706808,0
0.5,2.6,0,0.299924,-0.000910386,0
0.5,2.7,0,0.299912,-0.00079337,0
0.5,2.8,0,0.299888,-0.000571711,0
0.5,2.9,0,0.299916,-0.000750317,0
0.5,3,0,0.299929,-0.000832308,0
0.5,3.1,0,0.299898,-0.000632329,0
0.5,3.2,0,0.2999,-0.000609879,0
0.5,3.3,0,0.299934,-0.000764958,0
0.5,3.4,0,0.299915,-0.00066697,0
0.5,3.5,0,0.299878,-0.000487609,0
0.5,3.6,0,0.299917,-0.000620335,0
0.5,3.7,0,0.299935,-0.000677518,0
0.5,3.8,0,0.299895,-0.000517958,0
0.5,3.9,0,0.299896,-0.000493845,0
0.5,4,0,0.299939,-0.000605179,0
0.5,4.1,0,0.299916,-0.000525049,0
0.5,4.2,0,0.29987,-0.000384666,0
0.5,4.3,0,0.299917,-0.000475396,0
0.5,4.4,0,0.29994,-0.000510177,0
0.5,4.5,0,0.299892,-0.000388507,0
0.5,4.6,0,0.299893,-0.000363061,0
0.5,4.7,0,0.299943,-0.000433838,0
0.5,4.8,0,0.299917,-0.000371076,0
0.5,4.9,0,0.299865,-0.000267791,0
0.5,5,0,0.299918,-0.000319142,0
0.5,5.1,0,0.299944,-0.000333269,0
0.5,5.2,0,0.29989,-0.000248161,0
0.5,5.3,0,0.29989,-0.000221782,0
0.5,5.4,0,0.299944,-0.000254133,0
0.5,5.5,0,0.299916,-0.000208743,0
0.5,5.6,0,0.299861,-0.000141699,0
0.5,5.7,0,0.299918,-0.000155388,0
0.5,5.8,0,0.299946,-0.000150152,0
0.5,5.9,0,0.299889,-0.000101149,0
0.5,6,0,0.299889,-7.42857e-05,0
0.5,6.1,0,0.299947,-6.95618e-05,0
0.5,6.2,0,0.299918,-4.19154e-05,0
0.5,6.3,0,0.29986,-1.10045e-05,0
0.5,6.4,0,0.299918,1.18974e-05,0
0.5,6.5,0,0.299947,3.55573e-05,0
0.5,6.6,0,0.299889,4.83428e-05,0
0.5,6.7,0,0.299889,7.5117e-05,0
0.5,6.8,0,0.299947,0.00011588,0
0.5,6.9,0,0.299919,0.000120292,0
0.5,7,0,0.299861,0.00010897,0
0.5,7.1,0,0.299862,0.000139124,0
0.5,7.2,0,0.299862,0.000157787,0
0.5,7.3,0,0.299863,0.000176338,0
0.5,7.4,0,0.299863,0.000194765,0
0.5,7.5,0,0.299864,0.000213063,0
0.5,7.6,0,0.299864,0.00023122,0
0.5,7.7,0,0.299865,0.000249222,0
0.5,7.8,0,0.299866,0.000267062,0
0.5,7.9,0,0.299866,0.000284719,0
0.5,8,0,0.299867,0.000307879,0
0.5,8.1,0,0.299947,0.000460624,0
0.5,8.2,0,0.299897,0.000385824,0
0.5,8.3,0,0.299919,0.000456386,0
0.5,8.4,0,0.299924,0.000481895,0
0.5,8.5,0,0.299893,0.000438963,0
0.5,8.6,0,0.299949,0.000590637,0
0.5,8.7,0,0.299878,0.000425773,0
0.5,8.8,0,0.29994,0.000620721,0
0.5,8.9,0,0.299904,0.000526941,0
0.5,9,0,0.299916,0.000592771,0
0.5,9.1,0,0.299927,0.000640877,0
0.5,9.2,0,0.299895,0.00054938,0
0.5,9.3,0,0.299945,0.00076798,0
0.5,9.4,0,0.299889,0.000540053,0
0.5,9.5,0,0.299931,0.00076337,0
0.5,9.6,0,0.299909,0.000658644,0
0.5,9.7,0,0.299912,0.000708008,0
0.5,9.8,0,0.299925,0.000790889,0
0.5,9.9,0,0.299898,0.000635565,0
0.5,10,0,0.299933,0.000925939,0
0.5,10.1,0,0.299898,0.000640402,0
0.5,10.2,0,0.29992,0.000883856,0
0.5,10.3,0,0.299911,0.000777472,0
0.5,10.4,0,0.299908,0.000797652,0
0.5,10.5,0,0.299917,0.000929982,0
0.5,10.6,0,0.299902,0.00069177,0
0.5,10.7,0,0.299914,0.00106563,0
0.5,10.8,0,0.299905,0.000722722,0
0.5,10.9,0,0.299905,0.000978908,0
0.5,11,0,0.299906,0.000880889,0
0.5,11.1,0,0.299902,0.000856724,0
0.5,11.2,0,0.299899,0.00105764,0
0.5,11.3,0,0.299907,0.000710792,0
0.5,11.4,0,0.299887,0.00118426,0
0.5,11.5,0,0.299906,0.0007832,0
0.5,11.6,0,0.299888,0.00104517,0
0.5,11.7,0,0.299894,0.000967912,0
0.5,11.8,0,0.299897,0.000879646,0
0.5,11.9,0,0.299875,0.0011764,0
0.5,12,0,0.299914,0.00068524,0
0.5,12.1,0,0.299864,0.00126467,0
0.5,12.2,0,0.299904,0.000821694,0
0.5,12.3,0,0.299881,0.00107891,0
0.5,12.4,0,0.299887,0.00103979,0
0.5,12.5,0,0.299905,0.000861938,0
0.5,12.6,0,0.299864,0.00132279,0
0.5,12.7,0,0.299901,0.000897158,0
0.6,0,0,0.299893,-0.000964019,0
0.6,0.1,0,0.299873,-0.00124848,0
0.6,0.2,0,0.299864,-0.00133657,0
0.6,0.3,0,0.29989,-0.000984225,0
0.6,0.4,0,0.299889,-0.000964251,0
0.6,0.5,0,0.299859,-0.00128914,0
0.6,0.6,0,0.299865,-0.00118218,0
0.6,0.7,0,0.299896,-0.000784967,0
0.6,0.8,0,0.299869,-0.00115065,0
0.6,0.9,0,0.29986,-0.00125932,0
0.6,1,0,0.299879,-0.000974586,0
0.6,1.1,0,0.299883,-0.000957152,0
0.6,1.2,0,0.299869,-0.00121504,0
0.6,1.3,0,0.299872,-0.00111972,0
0.6,1.4,0,0.299888,-0.000792158,0
0.6,1.5,0,0.299882,-0.00108354,0
0.6,1.6,0,0.299878,-0.00116404,0
0.6,1.7,0,0.299881,-0.0009286,0
0.6,1.8,0,0.299885,-0.000909914,0
0.6,1.9,0,0.299887,-0.00111258,0
0.6,2,0,0.299884,-0.00102735,0
0.6,2.1,0,0.299877,-0.000757789,0
0.6,2.2,0,0.299891,-0.00098814,0
0.6,2.3,0,0.299892,-0.00104461,0
0.6,2.4,0,0.299879,-0.000848384,0
0.6,2.5,0,0.299882,-0.000827812,0
0.6,2.6,0,0.299898,-0.000984724,0
0.6,2.7,0,0.299889,-0.000907712,0
0.6,2.8,0,0.299865,-0.000686053,0
0.6,2.9,0,0.299893,-0.000864659,0
0.6,3,0,0.299899,-0.000901175,0
0.6,3.1,0,0.299875,-0.000738797,0
0.6,3.2,0,0.299876,-0.000716347,0
0.6,3.3,0,0.299903,-0.000833666,0
0.6,3.4,0,0.29989,-0.000764492,0
0.6,3.5,0,0.299854,-0.000585131,0
0.6,3.6,0,0.299893,-0.000717857,0
0.6,3.7,0,0.299902,-0.000737211,0
0.6,3.8,0,0.299869,-0.000605594,0
0.6,3.9,0,0.299871,-0.000581481,0
0.6,4,0,0.299904,-0.00066326,0
0.6,4.1,0,0.29989,-0.000601982,0
0.6,4.2,0,0.299844,-0.000461599,0
0.6,4.3,0,0.299891,-0.00055233,0
0.6,4.4,0,0.299904,-0.000556611,0
0.6,4.5,0,0.299865,-0.000454042,0
0.6,4.6,0,0.299866,-0.000428596,0
0.6,4.7,0,0.299905,-0.000477629,0
0.6,4.8,0,0.299889,-0.000424634,0
0.6,4.9,0,0.299838,-0.00032135,0
0.6,5,0,0.299891,-0.000372701,0
0.6,5.1,0,0.299905,-0.00036358,0
0.6,5.2,0,0.299862,-0.000289282,0
0.6,5.3,0,0.299862,-0.000262903,0
0.6,5.4,0,0.299905,-0.00028114,0
0.6,5.5,0,0.299889,-0.000237083,0
0.6,5.6,0,0.299833,-0.000170038,0
0.6,5.7,0,0.29989,-0.000183728,0
0.6,5.8,0,0.299906,-0.000162599,0
0.6,5.9,0,0.299861,-0.000116479,0
0.6,6,0,0.299861,-8.96152e-05,0
0.6,6.1,0,0.299907,-7.83837e-05,0
0.6,6.2,0,0.29989,-4.41163e-05,0
0.6,6.3,0,0.299832,-1.32054e-05,0
0.6,6.4,0,0.29989,9.69652e-06,0
0.6,6.5,0,0.299907,4.16829e-05,0
0.6,6.6,0,0.299861,5.92899e-05,0
0.6,6.7,0,0.299861,8.60641e-05,0
0.6,6.8,0,0.299907,0.000124444,0
0.6,6.9,0,0.299891,0.000142086,0
0.6,7,0,0.299833,0.000130764,0
0.6,7.1,0,0.299834,0.000166949,0
0.6,7.2,0,0.299835,0.000189345,0
0.6,7.3,0,0.299835,0.000211605,0
0.6,7.4,0,0.299836,0.000233718,0
0.6,7.5,0,0.299836,0.000255676,0
0.6,7.6,0,0.299837,0.000277464,0
0.6,7.7,0,0.299838,0.000299067,0
0.6,7.8,0,0.299839,0.000320475,0
0.6,7.9,0,0.29984,0.000341663,0
0.6,8,0,0.299841,0.000369455,0
0.6,8.1,0,0.29991,0.000505405,0
0.6,8.2,0,0.299871,0.000454229,0
0.6,8.3,0,0.299893,0.000524791,0
0.6,8.4,0,0.299898,0.000558001,0
0.6,8.5,0,0.299868,0.000515069,0
0.6,8.6,0,0.29991,0.000638262,0
0.6,8.7,0,0.299852,0.000509279,0
0.6,8.8,0,0.299909,0.000688616,0
0.6,8.9,0,0.299879,0.000617499,0
0.6,9,0,0.299891,0.000683329,0
0.6,9.1,0,0.299903,0.000738097,0
0.6,9.2,0,0.299871,0.0006466,0
0.6,9.3,0,0.299908,0.000812148,0
0.6,9.4,0,0.299865,0.000643505,0
0.6,9.5,0,0.299906,0.000858264,0
0.6,9.6,0,0.299886,0.000767858,0
0.6,9.7,0,0.299889,0.000817222,0
0.6,9.8,0,0.299903,0.000905355,0
0.6,9.9,0,0.299875,0.000750031,0
0.6,10,0,0.299902,0.00096689,0
0.6,10.1,0,0.299877,0.000759566,0
0.6,10.2,0,0.299898,0.00100302,0
0.6,10.3,0,0.29989,0.000900738,0
0.6,10.4,0,0.299887,0.000920919,0
0.6,10.5,0,0.299897,0.0010567,0
0.6,10.6,0,0.299882,0.000818492,0
0.6,10.7,0,0.299892,0.0010992,0
0.6,10.8,0,0.299886,0.000852203,0
0.6,10.9,0,0.299886,0.00110839,0
0.6,11,0,0.299887,0.00101238,0
0.6,11.1,0,0.299884,0.000988213,0
0.6,11.2,0,0.299881,0.00117517,0
0.6,11.3,0,0.299889,0.000843481,0
0.6,11.4,0,0.299874,0.00120639,0
0.6,11.5,0,0.299888,0.000916237,0
0.6,11.6,0,0.29987,0.00117821,0
0.6,11.7,0,0.299877,0.00110046,0
0.6,11.8,0,0.29988,0.00101219,0
0.6,11.9,0,0.299861,0.00126199,0
0.6,12,0,0.299897,0.000816494,0
0.6,12.1,0,0.299857,0.00128754,0
0.6,12.2,0,0.299888,0.000950728,0
0.6,12.3,0,0.299865,0.00120794,0
0.6,12.4,0,0.299872,0.00116539,0
0.6,12.5,0,0.29989,0.000987543,0
0.6,12.6,0,0.299861,0.00132824,0
0.6,12.7,0,0.299893,0.000958615,0
0.7,0,0,0.299884,-0.0010243,0
0.7,0.1,0,0.299866,-0.00128694,0
0.7,0.2,0,0.299862,-0.00129503,0
0.7,0.3,0,0.299874,-0.00111089,0
0.7,0.4,0,0.299873,-0.00109092,0
0.7,0.5,0,0.299855,-0.00126946,0
0.7,0.6,0,0.299851,-0.00128076,0
0.7,0.7,0,0.299879,-0.000915795,0
0.7,0.8,0,0.299854,-0.00125292,0
0.7,0.9,0,0.299852,-0.00125688,0
0.7,1,0,0.299861,-0.00110687,0
0.7,1.1,0,0.299865,-0.00108944,0
0.7,1.2,0,0.299857,-0.00122665,0
0.7,1.3,0,0.299855,-0.00122594,0
0.7,1.4,0,0.29987,-0.000924184,0
0.7,1.5,0,0.299863,-0.00119213,0
0.7,1.6,0,0.299861,-0.00118673,0
0.7,1.7,0,0.299862,-0.00105863,0
0.7,1.8,0,0.299866,-0.00103995,0
0.7,1.9,0,0.299866,-0.0011433,0
0.7,2,0,0.299863,-0.00113316,0
0.7,2.1,0,0.299857,-0.000884087,0
0.7,2.2,0,0.299869,-0.00109512,0
0.7,2.3,0,0.299866,-0.00108075,0
0.7,2.4,0,0.299858,-0.000969388,0
0.7,2.5,0,0.299861,-0.000948816,0
0.7,2.6,0,0.299868,-0.00102406,0
0.7,2.7,0,0.299865,-0.00100598,0
0.7,2.8,0,0.299843,-0.000800396,0
0.7,2.9,0,0.299868,-0.000963214,0
0.7,3,0,0.299866,-0.00094184,0
0.7,3.1,0,0.299851,-0.000845264,0
0.7,3.2,0,0.299853,-0.000822814,0
0.7,3.3,0,0.299866,-0.000874053,0
0.7,3.4,0,0.299863,-0.000849771,0
0.7,3.5,0,0.29983,-0.000682653,0
0.7,3.6,0,0.299865,-0.000802782,0
0.7,3.7,0,0.299863,-0.000775948,0
0.7,3.8,0,0.299844,-0.000693229,0
0.7,3.9,0,0.299845,-0.000669116,0
0.7,4,0,0.299862,-0.000699175,0
0.7,4.1,0,0.29986,-0.000670126,0
0.7,4.2,0,0.299819,-0.000538532,0
0.7,4.3,0,0.299862,-0.000619657,0
0.7,4.4,0,0.29986,-0.000588718,0
0.7,4.5,0,0.299839,-0.000519577,0
0.7,4.6,0,0.299839,-0.00049413,0
0.7,4.7,0,0.29986,-0.000505111,0
0.7,4.8,0,0.299858,-0.000472604,0
0.7,4.9,0,0.299811,-0.000374908,0
0.7,5,0,0.299859,-0.00041954,0
0.7,5.1,0,0.299858,-0.000385782,0
0.7,5.2,0,0.299835,-0.000330403,0
0.7,5.3,0,0.299835,-0.000304025,0
0.7,5.4,0,0.299857,-0.000297561,0
0.7,5.5,0,0.299857,-0.000262868,0
0.7,5.6,0,0.299805,-0.000198378,0
0.7,5.7,0,0.299858,-0.000208199,0
0.7,5.8,0,0.299857,-0.000172885,0
0.7,5.9,0,0.299833,-0.000131808,0
0.7,6,0,0.299833,-0.000104945,0
0.7,6.1,0,0.299857,-8.2325e-05,0
0.7,6.2,0,0.299857,-4.66902e-05,0
0.7,6.3,0,0.299804,-1.54063e-05,0
0.7,6.4,0,0.299858,8.505e-06,0
0.7,6.5,0,0.299858,4.41925e-05,0