/*--------------------------------*- C++ -*----------------------------------*\
| =========                 |                                                 |
| \\      /  F ield         | OpenFOAM: The Open Source CFD Toolbox           |
|  \\    /   O peration     | Version:  v1806                                 |
|   \\  /    A nd           | Web:      www.OpenFOAM.com                      |
|    \\/     M anipulation  |                                                 |
\*---------------------------------------------------------------------------*/
FoamFile
{
    version     2.0;
    format      ascii;
    class       volVectorField;
    location    "220";
    object      U;
}
// * * * * * * * * * * * * * * * * * * * * * * * * * * * * * * * * * * * * * //

dimensions      [0 1 -1 0 0 0 0];


internalField   nonuniform List<vector> 
2400
(
(0.3 -0.00179537 0)
(0.300007 -0.00538373 0)
(0.300022 -0.00895865 0)
(0.300048 -0.0125084 0)
(0.300086 -0.0160205 0)
(0.300141 -0.0194811 0)
(0.300215 -0.0228747 0)
(0.300313 -0.0261839 0)
(0.300439 -0.029389 0)
(0.300599 -0.0324685 0)
(0.300799 -0.0353987 0)
(0.301044 -0.038155 0)
(0.30134 -0.0407114 0)
(0.301693 -0.0430425 0)
(0.302108 -0.0451227 0)
(0.302587 -0.0469301 0)
(0.303136 -0.048443 0)
(0.303751 -0.0496487 0)
(0.304436 -0.0505314 0)
(0.30518 -0.051096 0)
(0.300001 -0.00180097 0)
(0.300018 -0.00540106 0)
(0.300052 -0.00898946 0)
(0.300107 -0.0125555 0)
(0.300184 -0.0160874 0)
(0.300289 -0.0195724 0)
(0.300426 -0.0229958 0)
(0.300601 -0.026341 0)
(0.300823 -0.0295892 0)
(0.301097 -0.0327192 0)
(0.301432 -0.0357081 0)
(0.301834 -0.0385311 0)
(0.302311 -0.0411621 0)
(0.302868 -0.0435745 0)
(0.30351 -0.0457419 0)
(0.304237 -0.0476399 0)
(0.305051 -0.049245 0)
(0.305945 -0.0505414 0)
(0.306913 -0.0515104 0)
(0.307945 -0.0521559 0)
(0.300001 -0.00181173 0)
(0.300028 -0.00543389 0)
(0.300082 -0.00904626 0)
(0.300166 -0.0126395 0)
(0.300285 -0.0162033 0)
(0.300444 -0.019726 0)
(0.30065 -0.0231939 0)
(0.300912 -0.0265914 0)
(0.301239 -0.0299001 0)
(0.30164 -0.0330994 0)
(0.302126 -0.036166 0)
(0.302705 -0.0390745 0)
(0.303386 -0.0417975 0)
(0.304175 -0.0443065 0)
(0.305075 -0.0465725 0)
(0.306086 -0.0485675 0)
(0.307205 -0.0502653 0)
(0.308422 -0.0516445 0)
(0.309728 -0.0526856 0)
(0.311099 -0.0533823 0)
(0.300002 -0.00182699 0)
(0.300037 -0.00548032 0)
(0.300107 -0.00912616 0)
(0.300218 -0.0127571 0)
(0.300373 -0.0163644 0)
(0.300581 -0.0199381 0)
(0.300851 -0.0234658 0)
(0.301193 -0.0269331 0)
(0.301619 -0.0303222 0)
(0.302142 -0.033613 0)
(0.302775 -0.0367816 0)
(0.303528 -0.0398016 0)
(0.304413 -0.0426437 0)
(0.305434 -0.0452765 0)
(0.306599 -0.0476676 0)
(0.307903 -0.049784 0)
(0.309343 -0.0515953 0)
(0.310901 -0.0530734 0)
(0.312565 -0.0541959 0)
(0.314301 -0.0549501 0)
(0.300002 -0.00184583 0)
(0.300043 -0.00553766 0)
(0.300127 -0.00922493 0)
(0.300258 -0.0129026 0)
(0.300442 -0.0165641 0)
(0.30069 -0.0202017 0)
(0.301013 -0.0238045 0)
(0.301424 -0.0273598 0)
(0.301939 -0.0308503 0)
(0.302573 -0.034257 0)
(0.303342 -0.0375546 0)
(0.30426 -0.0407162 0)
(0.305342 -0.0437091 0)
(0.306596 -0.0464986 0)
(0.308027 -0.0490475 0)
(0.309632 -0.0513159 0)
(0.311406 -0.0532681 0)
(0.313325 -0.0548665 0)
(0.315373 -0.0560853 0)
(0.317501 -0.0569013 0)
(0.300002 -0.00186713 0)
(0.300047 -0.00560257 0)
(0.300139 -0.00933708 0)
(0.300283 -0.0130687 0)
(0.300487 -0.0167932 0)
(0.300763 -0.020506 0)
(0.301126 -0.0241977 0)
(0.301591 -0.0278586 0)
(0.302179 -0.0314712 0)
(0.302908 -0.0350187 0)
(0.303799 -0.0384735 0)
(0.30487 -0.0418093 0)
(0.306141 -0.0449879 0)
(0.307622 -0.0479722 0)
(0.309323 -0.0507166 0)
(0.311238 -0.0531743 0)
(0.313364 -0.0553008 0)
(0.315669 -0.0570462 0)
(0.318133 -0.0583803 0)
(0.320692 -0.0592642 0)
(0.300002 -0.00188947 0)
(0.300048 -0.00567084 0)
(0.300142 -0.00945564 0)
(0.30029 -0.0132457 0)
(0.300502 -0.0170396 0)
(0.300791 -0.0208368 0)
(0.301176 -0.0246294 0)
(0.301677 -0.028412 0)
(0.302317 -0.0321665 0)
(0.303121 -0.0358809 0)
(0.304114 -0.0395221 0)
(0.305322 -0.0430689 0)
(0.30677 -0.0464718 0)
(0.308471 -0.0496962 0)
(0.310443 -0.0526808 0)
(0.31268 -0.0553744 0)
(0.315179 -0.0577175 0)
(0.317902 -0.0596455 0)
(0.320825 -0.061121 0)
(0.323864 -0.0620827 0)
(0.300002 -0.00191115 0)
(0.300045 -0.00573737 0)
(0.300133 -0.00957208 0)
(0.300274 -0.0134217 0)
(0.300479 -0.0172882 0)
(0.300764 -0.021176 0)
(0.30115 -0.0250789 0)
(0.301663 -0.0289981 0)
(0.302329 -0.0329129 0)
(0.303181 -0.036821 0)
(0.304252 -0.0406788 0)
(0.305573 -0.0444784 0)
(0.307178 -0.0481479 0)
(0.309088 -0.0516685 0)
(0.311331 -0.0549452 0)
(0.313899 -0.0579363 0)
(0.316798 -0.0605485 0)
(0.31998 -0.062708 0)
(0.323416 -0.0643608 0)
(0.327 -0.0654149 0)
(0.300002 -0.00193012 0)
(0.300038 -0.00579603 0)
(0.300112 -0.00967622 0)
(0.300232 -0.0135827 0)
(0.300412 -0.0175208 0)
(0.300671 -0.021502 0)
(0.301032 -0.0255208 0)
(0.301527 -0.0295892 0)
(0.302187 -0.0336802 0)
(0.303054 -0.0378099 0)
(0.304167 -0.0419133 0)
(0.305568 -0.0460149 0)
(0.307305 -0.0499954 0)
(0.309404 -0.0538844 0)
(0.311912 -0.0575106 0)
(0.314819 -0.0608848 0)
(0.31815 -0.0638283 0)
(0.321837 -0.0662913 0)
(0.325859 -0.0681679 0)
(0.330074 -0.0693378 0)
(0.300001 -0.00194401 0)
(0.300025 -0.00583968 0)
(0.300075 -0.00975609 0)
(0.300159 -0.0137118 0)
(0.300293 -0.0177157 0)
(0.300499 -0.0217884 0)
(0.300805 -0.0259241 0)
(0.301246 -0.0301506 0)
(0.30186 -0.0344297 0)
(0.302697 -0.038809 0)
(0.303807 -0.0431848 0)
(0.305245 -0.0476464 0)
(0.307074 -0.0519805 0)
(0.30933 -0.0563351 0)
(0.312092 -0.0603675 0)
(0.315336 -0.0642529 0)
(0.319139 -0.0675918 0)
(0.323383 -0.0704754 0)
(0.328088 -0.0726277 0)
(0.333044 -0.0739582 0)
(0.3 -0.00195011 0)
(0.300006 -0.00586014 0)
(0.30002 -0.009798 0)
(0.300051 -0.0137895 0)
(0.300116 -0.0178476 0)
(0.300239 -0.0220038 0)
(0.300452 -0.0262515 0)
(0.300795 -0.0306396 0)
(0.301314 -0.0351133 0)
(0.302065 -0.0397683 0)
(0.303114 -0.0444385 0)
(0.304526 -0.0493277 0)
(0.306394 -0.0540518 0)
(0.308755 -0.0590049 0)
(0.311748 -0.0634859 0)
(0.315311 -0.0680862 0)
(0.319636 -0.0718636 0)
(0.324485 -0.0753805 0)
(0.330016 -0.0778437 0)
(0.335853 -0.0794358 0)
(0.299999 -0.00194542 0)
(0.299981 -0.00584832 0)
(0.299947 -0.00978666 0)
(0.299905 -0.013794 0)
(0.299874 -0.0178879 0)
(0.299879 -0.0221118 0)
(0.299959 -0.0264592 0)
(0.300149 -0.0310039 0)
(0.300515 -0.0356716 0)
(0.301108 -0.0406224 0)
(0.302026 -0.0456034 0)
(0.303326 -0.0509937 0)
(0.305158 -0.0561347 0)
(0.307542 -0.0618645 0)
(0.310728 -0.0668031 0)
(0.314556 -0.0724483 0)
(0.319475 -0.076633 0)
(0.324943 -0.0811974 0)
(0.331535 -0.083926 0)
(0.338406 -0.0860336 0)
(0.299998 -0.00192674 0)
(0.299948 -0.00579447 0)
(0.299854 -0.00970557 0)
(0.299717 -0.0137012 0)
(0.299563 -0.0178047 0)
(0.299411 -0.0220713 0)
(0.299311 -0.0264971 0)
(0.299288 -0.0311814 0)
(0.299434 -0.0360341 0)
(0.299777 -0.0412865 0)
(0.300478 -0.0465902 0)
(0.301546 -0.0525485 0)
(0.303251 -0.0581307 0)
(0.305524 -0.064853 0)
(0.30884 -0.0702172 0)
(0.312827 -0.0774163 0)
(0.318427 -0.0818166 0)
(0.324446 -0.0882352 0)
(0.332528 -0.0909465 0)
(0.3405 -0.094207 0)
(0.299996 -0.00189074 0)
(0.299909 -0.00568851 0)
(0.29974 -0.0095375 0)
(0.299487 -0.013486 0)
(0.299181 -0.017564 0)
(0.29883 -0.0218374 0)
(0.298501 -0.0263092 0)
(0.298194 -0.0311006 0)
(0.298048 -0.0361178 0)
(0.298027 -0.041654 0)
(0.298413 -0.0472898 0)
(0.29908 -0.0538501 0)
(0.30055 -0.0599195 0)
(0.302503 -0.0678394 0)
(0.305862 -0.0736037 0)
(0.309822 -0.0830402 0)
(0.316157 -0.08724 0)
(0.322574 -0.0969752 0)
(0.332844 -0.0988368 0)
(0.341652 -0.104749 0)
(0.299994 -0.00183415 0)
(0.299862 -0.00552052 0)
(0.299606 -0.00926534 0)
(0.299216 -0.013123 0)
(0.298729 -0.0171309 0)
(0.298138 -0.0213636 0)
(0.29753 -0.0258356 0)
(0.296865 -0.0306827 0)
(0.296344 -0.0358277 0)
(0.29583 -0.0415975 0)
(0.295787 -0.0475683 0)
(0.295829 -0.0547004 0)
(0.296941 -0.0613544 0)
(0.298235 -0.0705619 0)
(0.301551 -0.0768622 0)
(0.30514 -0.0892059 0)
(0.312179 -0.0927287 0)
(0.318884 -0.108064 0)
(0.332036 -0.107249 0)
(0.341015 -0.119065 0)
(0.299991 -0.00175401 0)
(0.29981 -0.00528147 0)
(0.299455 -0.00887327 0)
(0.29891 -0.0125886 0)
(0.298214 -0.0164719 0)
(0.297347 -0.0206042 0)
(0.296407 -0.0250149 0)
(0.295315 -0.0298468 0)
(0.294328 -0.0350579 0)
(0.29319 -0.0409761 0)
(0.292573 -0.0472584 0)
(0.291736 -0.0548545 0)
(0.292319 -0.0622317 0)
(0.29246 -0.0725935 0)
(0.295673 -0.0799317 0)
(0.298169 -0.0953638 0)
(0.305956 -0.0984276 0)
(0.312859 -0.121958 0)
(0.328756 -0.115561 0)
(0.338183 -0.139747 0)
(0.299988 -0.00164788 0)
(0.299754 -0.00496389 0)
(0.299289 -0.00834805 0)
(0.298576 -0.0118626 0)
(0.297649 -0.0155577 0)
(0.296477 -0.0195187 0)
(0.295157 -0.0237892 0)
(0.293581 -0.0285155 0)
(0.292028 -0.0336975 0)
(0.29016 -0.0396467 0)
(0.288774 -0.0461547 0)
(0.286834 -0.0540482 0)
(0.286578 -0.0622254 0)
(0.285023 -0.0734072 0)
(0.287928 -0.0826099 0)
(0.28805 -0.100359 0)
(0.297102 -0.105206 0)
(0.302961 -0.137696 0)
(0.320942 -0.123847 0)
(0.334739 -0.171331 0)
(0.299985 -0.00151415 0)
(0.299695 -0.00456272 0)
(0.299116 -0.00768055 0)
(0.298227 -0.0109307 0)
(0.297053 -0.0143666 0)
(0.295558 -0.0180751 0)
(0.293819 -0.0221112 0)
(0.291725 -0.0266219 0)
(0.28951 -0.0316441 0)
(0.286841 -0.037473 0)
(0.284452 -0.0440315 0)
(0.281279 -0.0520178 0)
(0.279642 -0.0608444 0)
(0.276069 -0.0725026 0)
(0.27778 -0.0840928 0)
(0.274203 -0.102895 0)
(0.284796 -0.113912 0)
(0.285604 -0.151339 0)
(0.308604 -0.137126 0)
(0.330977 -0.218833 0)
(0.299982 -0.00135238 0)
(0.299636 -0.00407623 0)
(0.298943 -0.00686729 0)
(0.297878 -0.00978645 0)
(0.296452 -0.0128879 0)
(0.294633 -0.0162555 0)
(0.292456 -0.019952 0)
(0.289829 -0.0241193 0)
(0.286888 -0.0288231 0)
(0.283383 -0.0343407 0)
(0.279785 -0.0406942 0)
(0.275324 -0.0485009 0)
(0.271647 -0.0575436 0)
(0.266057 -0.0693715 0)
(0.264621 -0.082777 0)
(0.257152 -0.102174 0)
(0.266146 -0.121714 0)
(0.257407 -0.15877 0)
(0.291586 -0.169679 0)
(0.312086 -0.275532 0)
(0.299979 -0.00116384 0)
(0.299581 -0.00350791 0)
(0.298779 -0.00591348 0)
(0.297546 -0.00843627 0)
(0.29588 -0.0111281 0)
(0.293747 -0.0140649 0)
(0.291143 -0.0173126 0)
(0.287992 -0.0209991 0)
(0.284322 -0.0252112 0)
(0.279968 -0.0301936 0)
(0.275091 -0.0360443 0)
(0.269283 -0.0432939 0)
(0.263184 -0.0519719 0)
(0.255545 -0.0633899 0)
(0.248983 -0.0771623 0)
(0.238432 -0.0969196 0)
(0.236805 -0.121092 0)
(0.218422 -0.159246 0)
(0.251736 -0.213288 0)
(0.238477 -0.305343 0)
(0.306215 -0.0514017 0)
(0.307628 -0.0510095 0)
(0.309123 -0.0498634 0)
(0.31067 -0.0481254 0)
(0.312205 -0.0458552 0)
(0.313708 -0.0432691 0)
(0.315151 -0.0403868 0)
(0.316503 -0.0374232 0)
(0.317804 -0.0343137 0)
(0.318955 -0.0312955 0)
(0.309354 -0.0525447 0)
(0.31118 -0.0522127 0)
(0.313025 -0.0510979 0)
(0.314836 -0.0493598 0)
(0.316544 -0.0470595 0)
(0.31813 -0.044424 0)
(0.319579 -0.0414721 0)
(0.320874 -0.0384381 0)
(0.322064 -0.0352433 0)
(0.323073 -0.0321614 0)
(0.312948 -0.0538245 0)
(0.31528 -0.0535132 0)
(0.317581 -0.0523698 0)
(0.31976 -0.0505608 0)
(0.321748 -0.0481656 0)
(0.323513 -0.0454244 0)
(0.325067 -0.0423641 0)
(0.326393 -0.0392278 0)
(0.327563 -0.0359354 0)
(0.328502 -0.0327616 0)
(0.316625 -0.0554377 0)
(0.319507 -0.0551101 0)
(0.322307 -0.0538873 0)
(0.324888 -0.0519484 0)
(0.327186 -0.0494006 0)
(0.329154 -0.0464999 0)
(0.33084 -0.0432861 0)
(0.33222 -0.040008 0)
(0.333404 -0.0365854 0)
(0.334304 -0.0332987 0)
(0.320341 -0.0574277 0)
(0.323821 -0.0570496 0)
(0.327162 -0.0556947 0)
(0.330167 -0.0535631 0)
(0.332786 -0.050803 0)
(0.334953 -0.0476877 0)
(0.336768 -0.0442767 0)
(0.338193 -0.0408185 0)
(0.339391 -0.0372388 0)
(0.340244 -0.0338159 0)
(0.3241 -0.0598243 0)
(0.328239 -0.059356 0)
(0.332167 -0.0578055 0)
(0.335617 -0.0554065 0)
(0.338559 -0.052366 0)
(0.340911 -0.0489755 0)
(0.342842 -0.0453214 0)
(0.344289 -0.0416438 0)
(0.345485 -0.0378818 0)
(0.346271 -0.0342983 0)
(0.327907 -0.0626731 0)
(0.332785 -0.0620641 0)
(0.337356 -0.060238 0)
(0.34127 -0.0574823 0)
(0.34453 -0.0540837 0)
(0.347043 -0.0503511 0)
(0.349064 -0.0464056 0)
(0.350503 -0.0424678 0)
(0.351673 -0.0384992 0)
(0.352361 -0.0347314 0)
(0.331769 -0.0660343 0)
(0.33749 -0.0652166 0)
(0.342767 -0.0630113 0)
(0.347161 -0.059791 0)
(0.350722 -0.0559456 0)
(0.353362 -0.0517977 0)
(0.355436 -0.0475108 0)
(0.356825 -0.0432706 0)
(0.357931 -0.0390725 0)
(0.358475 -0.0350959 0)
(0.335687 -0.0699867 0)
(0.342391 -0.0688631 0)
(0.348444 -0.0661434 0)
(0.353327 -0.0623286 0)
(0.357155 -0.057935 0)
(0.359878 -0.0532918 0)
(0.361951 -0.0486108 0)
(0.363229 -0.0440232 0)
(0.364203 -0.0395717 0)
(0.364521 -0.0353574 0)
(0.33967 -0.0746333 0)
(0.347536 -0.0730599 0)
(0.354442 -0.0696497 0)
(0.359814 -0.0650854 0)
(0.363861 -0.0600271 0)
(0.366598 -0.0547988 0)
(0.368571 -0.0496642 0)
(0.369623 -0.0446747 0)
(0.370315 -0.0399388 0)
(0.37024 -0.0354456 0)
(0.343732 -0.0801061 0)
(0.352998 -0.0778692 0)
(0.360842 -0.0735473 0)
(0.366698 -0.0680479 0)
(0.37087 -0.0621825 0)
(0.373475 -0.056257 0)
(0.375128 -0.050587 0)
(0.375688 -0.0451158 0)
(0.375765 -0.040045 0)
(0.374951 -0.0352081 0)
(0.347911 -0.0865699 0)
(0.358902 -0.0833685 0)
(0.367794 -0.0778655 0)
(0.374073 -0.0711882 0)
(0.378115 -0.0643127 0)
(0.380197 -0.0575209 0)
(0.380993 -0.0511772 0)
(0.380467 -0.0450965 0)
(0.37926 -0.0396102 0)
(0.377065 -0.0343404 0)
(0.352336 -0.0942254 0)
(0.365524 -0.0896817 0)
(0.375519 -0.0826251 0)
(0.381856 -0.0743822 0)
(0.384995 -0.0661547 0)
(0.385562 -0.0582089 0)
(0.384355 -0.0509592 0)
(0.381604 -0.0440955 0)
(0.37799 -0.0381048 0)
(0.373434 -0.0323264 0)
(0.357483 -0.103302 0)
(0.373355 -0.0970048 0)
(0.383935 -0.0876488 0)
(0.388931 -0.0771237 0)
(0.389232 -0.066954 0)
(0.386241 -0.0574252 0)
(0.381052 -0.0489898 0)
(0.374376 -0.0412231 0)
(0.366928 -0.0347301 0)
(0.358953 -0.0284905 0)
(0.36473 -0.114093 0)
(0.382469 -0.105455 0)
(0.391102 -0.092011 0)
(0.391125 -0.0779439 0)
(0.384918 -0.0650356 0)
(0.375232 -0.0535524 0)
(0.363613 -0.0438604 0)
(0.351368 -0.035376 0)
(0.339096 -0.028667 0)
(0.32735 -0.022311 0)
(0.376262 -0.127178 0)
(0.389528 -0.114331 0)
(0.389888 -0.0930499 0)
(0.378401 -0.073887 0)
(0.36091 -0.0577712 0)
(0.341605 -0.0445937 0)
(0.322282 -0.0342767 0)
(0.304519 -0.0259122 0)
(0.288363 -0.0197737 0)
(0.274427 -0.0140642 0)
(0.390792 -0.141984 0)
(0.381865 -0.119629 0)
(0.364706 -0.0851716 0)
(0.334109 -0.0609317 0)
(0.302957 -0.0426985 0)
(0.274882 -0.0295883 0)
(0.25086 -0.0205161 0)
(0.231552 -0.0139796 0)
(0.215749 -0.00970409 0)
(0.20356 -0.00560174 0)
(0.393011 -0.148177 0)
(0.333033 -0.110037 0)
(0.293725 -0.0610656 0)
(0.242204 -0.0369826 0)
(0.205219 -0.0206805 0)
(0.177719 -0.0117211 0)
(0.158137 -0.00680875 0)
(0.144664 -0.0038321 0)
(0.134812 -0.00216962 0)
(0.127968 0.000202138 0)
(0.346934 -0.114259 0)
(0.209176 -0.0685904 0)
(0.166003 -0.0155958 0)
(0.112678 -0.00742984 0)
(0.092691 -0.0010457 0)
(0.078998 -0.000336746 0)
(0.0714539 0.000137062 0)
(0.0671189 0.000458136 0)
(0.0643716 0.00071021 0)
(0.0625964 0.00244734 0)
(0.204738 -0.0910085 0)
(0.00798257 -0.0234424 0)
(0.0281366 0.0073161 0)
(0.00757158 0.00161872 0)
(0.0134532 0.00215232 0)
(0.0120742 0.000821469 0)
(0.0129054 0.000612083 0)
(0.0135546 0.000514317 0)
(0.0144565 0.000567987 0)
(0.0149949 0.00127875 0)
(0.320708 -0.026546 0)
(0.322446 -0.0207478 0)
(0.324143 -0.015419 0)
(0.325224 -0.0107105 0)
(0.326631 -0.00711506 0)
(0.327234 -0.00344664 0)
(0.32862 -0.000954082 0)
(0.329237 0.00306529 0)
(0.330427 0.00570351 0)
(0.331288 0.0123824 0)
(0.331643 0.0156635 0)
(0.332641 0.0247463 0)
(0.331159 0.0265463 0)
(0.33236 0.0337995 0)
(0.329527 0.0313837 0)
(0.33035 0.0297933 0)
(0.327197 0.0233495 0)
(0.327593 0.00856333 0)
(0.324445 0.0017334 0)
(0.324075 -0.0224823 0)
(0.324571 -0.0272783 0)
(0.325894 -0.0213342 0)
(0.327159 -0.0158782 0)
(0.327823 -0.0111232 0)
(0.328863 -0.00744815 0)
(0.329165 -0.00381742 0)
(0.330371 -0.00136353 0)
(0.330921 0.00268238 0)
(0.332079 0.00535612 0)
(0.332844 0.0121692 0)
(0.33301 0.0155083 0)
(0.333648 0.024805 0)
(0.331757 0.0266509 0)
(0.332473 0.0340335 0)
(0.32927 0.0316898 0)
(0.329696 0.0301872 0)
(0.326425 0.0237109 0)
(0.32664 0.00914642 0)
(0.323265 0.00250346 0)
(0.32352 -0.0224489 0)
(0.329843 -0.0277557 0)
(0.330835 -0.0216991 0)
(0.331714 -0.0161328 0)
(0.331956 -0.0113469 0)
(0.332572 -0.0076088 0)
(0.332544 -0.00403836 0)
(0.333507 -0.00157613 0)
(0.333979 0.00241234 0)
(0.335097 0.00508705 0)
(0.335815 0.0120031 0)
(0.335736 0.0154601 0)
(0.335879 0.0250391 0)
(0.333304 0.0269648 0)
(0.33315 0.0345288 0)
(0.329233 0.0322079 0)
(0.328829 0.0308016 0)
(0.3253 0.0241832 0)
(0.324858 0.009753 0)
(0.321417 0.00280473 0)
(0.3224 -0.0226586 0)
(0.335551 -0.0281379 0)
(0.336296 -0.0219389 0)
(0.336878 -0.0162418 0)
(0.336775 -0.0114204 0)
(0.337002 -0.00762961 0)
(0.336708 -0.0041571 0)
(0.337436 -0.00174645 0)
(0.337922 0.00213832 0)
(0.33902 0.00484409 0)
(0.339845 0.0118774 0)
(0.33954 0.0155622 0)
(0.339239 0.0254682 0)
(0.335853 0.0275662 0)
(0.33459 0.0353076 0)
(0.329715 0.0329755 0)
(0.328088 0.0316233 0)
(0.324208 0.0247348 0)
(0.322574 0.0104964 0)
(0.319436 0.0030638 0)
(0.320753 -0.0229796 0)
(0.341408 -0.0284752 0)
(0.34192 -0.0221092 0)
(0.342239 -0.0162606 0)
(0.341824 -0.0113928 0)
(0.341666 -0.00755332 0)
(0.341161 -0.00422285 0)
(0.341643 -0.00189588 0)
(0.34226 0.0018336 0)
(0.343354 0.00457991 0)
(0.344488 0.0117421 0)
(0.344005 0.0157688 0)
(0.343433 0.0260731 0)
(0.339218 0.0284807 0)
(0.336768 0.0364162 0)
(0.330789 0.034089 0)
(0.327668 0.0327288 0)
(0.323336 0.0255234 0)
(0.320005 0.0114423 0)
(0.317615 0.0032068 0)
(0.318509 -0.023329 0)
(0.347337 -0.0287592 0)
(0.34759 -0.0222077 0)
(0.347626 -0.0161905 0)
(0.346874 -0.0112617 0)
(0.346274 -0.00738445 0)
(0.345559 -0.00423363 0)
(0.345733 -0.00202558 0)
(0.346561 0.00148853 0)
(0.34763 0.00426279 0)
(0.349271 0.0115544 0)
(0.348656 0.0160331 0)
(0.348056 0.0268204 0)
(0.343053 0.0297028 0)
(0.339479 0.0378807 0)
(0.332318 0.0356083 0)
(0.327601 0.0341838 0)
(0.322623 0.0266577 0)
(0.317264 0.012581 0)
(0.315976 0.00329393 0)
(0.315421 -0.0235671 0)
(0.353296 -0.0289792 0)
(0.353231 -0.0222214 0)
(0.35292 -0.0160148 0)
(0.351742 -0.0110033 0)
(0.350579 -0.00710345 0)
(0.34958 -0.00416618 0)
(0.349318 -0.00212973 0)
(0.350374 0.00109898 0)
(0.351353 0.00387102 0)
(0.35367 0.0112775 0)
(0.352973 0.0163094 0)
(0.352617 0.0276641 0)
(0.346908 0.0312037 0)
(0.342386 0.0396938 0)
(0.334014 0.0375472 0)
(0.32775 0.0360244 0)
(0.32183 0.0282025 0)
(0.314384 0.013904 0)
(0.314281 0.00345914 0)
(0.311112 -0.023522 0)
(0.359219 -0.0291177 0)
(0.358721 -0.0221258 0)
(0.35793 -0.0157003 0)
(0.356145 -0.0105744 0)
(0.354224 -0.0066693 0)
(0.352769 -0.00397909 0)
(0.351882 -0.00218203 0)
(0.353096 0.000679526 0)
(0.353888 0.00339651 0)
(0.35701 0.0108787 0)
(0.356315 0.0165444 0)
(0.356516 0.0285447 0)
(0.35024 0.0329321 0)
(0.345042 0.0418212 0)
(0.335491 0.0398871 0)
(0.32783 0.0382775 0)
(0.320615 0.0301966 0)
(0.311316 0.0154115 0)
(0.312059 0.003895 0)
(0.305149 -0.0230182 0)
(0.364942 -0.0291381 0)
(0.363772 -0.021872 0)
(0.362247 -0.0151843 0)
(0.359546 -0.00990339 0)
(0.356583 -0.00601289 0)
(0.354386 -0.00360448 0)
(0.352627 -0.00213122 0)
(0.353835 0.000264741 0)
(0.354331 0.00284069 0)
(0.35836 0.0103246 0)
(0.357832 0.0166705 0)
(0.358977 0.0293823 0)
(0.35238 0.0348092 0)
(0.346888 0.044203 0)
(0.336282 0.0425872 0)
(0.327426 0.0409658 0)
(0.318613 0.0326418 0)
(0.307905 0.0171331 0)
(0.308673 0.00485201 0)
(0.297126 -0.0219025 0)
(0.370042 -0.0289605 0)
(0.367746 -0.0213629 0)
(0.36505 -0.0143574 0)
(0.360967 -0.00888066 0)
(0.356597 -0.00503191 0)
(0.353264 -0.00294678 0)
(0.350362 -0.00190462 0)
(0.351318 -9.86988e-05 0)
(0.351432 0.00220806 0)
(0.35647 0.00956955 0)
(0.356405 0.016594 0)
(0.358997 0.0300634 0)
(0.352502 0.0367163 0)
(0.347247 0.0467431 0)
(0.335835 0.0455856 0)
(0.326022 0.0440925 0)
(0.315476 0.035499 0)
(0.303851 0.0191517 0)
(0.303406 0.0066064 0)
(0.286744 -0.0200737 0)
(0.373539 -0.0284198 0)
(0.369347 -0.0204255 0)
(0.364841 -0.0130521 0)
(0.358802 -0.00736096 0)
(0.352637 -0.00359913 0)
(0.347745 -0.00189472 0)
(0.343473 -0.00141769 0)
(0.34391 -0.000364889 0)
(0.343645 0.00149065 0)
(0.34984 0.00854245 0)
(0.350702 0.016179 0)
(0.355385 0.0304261 0)
(0.349634 0.0384812 0)
(0.345334 0.0492971 0)
(0.333518 0.0487926 0)
(0.323042 0.0476202 0)
(0.310886 0.0386993 0)
(0.2987 0.0216086 0)
(0.295586 0.00941338 0)
(0.273871 -0.0175052 0)
(0.373426 -0.027221 0)
(0.366272 -0.0187993 0)
(0.359241 -0.0110592 0)
(0.35074 -0.00519294 0)
(0.342541 -0.00159601 0)
(0.335799 -0.000356167 0)
(0.330103 -0.000603767 0)
(0.329846 -0.000495844 0)
(0.329398 0.000651413 0)
(0.336986 0.00713515 0)
(0.339408 0.0152415 0)
(0.346929 0.030252 0)
(0.342781 0.039871 0)
(0.340323 0.0516677 0)
(0.328645 0.0520826 0)
(0.317925 0.0514539 0)
(0.304547 0.0421633 0)
(0.291875 0.0246906 0)
(0.284703 0.0134579 0)
(0.258583 -0.0142571 0)
(0.366217 -0.0249358 0)
(0.355068 -0.0161845 0)
(0.345089 -0.0082017 0)
(0.334041 -0.00229032 0)
(0.323979 0.00101984 0)
(0.315459 0.00168774 0)
(0.30862 0.000531444 0)
(0.307738 -0.000516664 0)
(0.307585 -0.00040758 0)
(0.316912 0.00519899 0)
(0.32163 0.0135625 0)
(0.33271 0.0292838 0)
(0.331137 0.0406058 0)
(0.331478 0.053618 0)
(0.32058 0.0552893 0)
(0.310209 0.0554366 0)
(0.296166 0.0458248 0)
(0.282766 0.0285988 0)
(0.270519 0.0187927 0)
(0.241175 -0.0104785 0)
(0.34701 -0.0211283 0)
(0.331645 -0.0124021 0)
(0.319209 -0.00448015 0)
(0.306378 0.00122843 0)
(0.295276 0.00412801 0)
(0.285601 0.00411651 0)
(0.278336 0.00187687 0)
(0.277261 -0.000563646 0)
(0.27819 -0.0018503 0)
(0.289638 0.00256138 0)
(0.297337 0.0109275 0)
(0.312465 0.0272719 0)
(0.314354 0.0404026 0)
(0.318325 0.0549042 0)
(0.308872 0.0582115 0)
(0.299613 0.0593631 0)
(0.285462 0.0496503 0)
(0.270863 0.0334997 0)
(0.253124 0.0253232 0)
(0.222135 -0.00638909 0)
(0.310875 -0.01568 0)
(0.292985 -0.00766481 0)
(0.280043 -0.000271717 0)
(0.267208 0.00498367 0)
(0.256523 0.00740311 0)
(0.246818 0.00664344 0)
(0.240199 0.00318857 0)
(0.239695 -0.00086638 0)
(0.242644 -0.00387963 0)
(0.256457 -0.00092759 0)
(0.26756 0.00718726 0)
(0.286787 0.0240438 0)
(0.292709 0.039044 0)
(0.300794 0.055322 0)
(0.2934 0.0606334 0)
(0.286087 0.0630204 0)
(0.272197 0.053648 0)
(0.255879 0.0394733 0)
(0.23296 0.0328062 0)
(0.202095 -0.00225222 0)
(0.256198 -0.00926862 0)
(0.239905 -0.00282379 0)
(0.229576 0.00364874 0)
(0.21897 0.00838504 0)
(0.210249 0.0103843 0)
(0.201779 0.00888348 0)
(0.19693 0.00413737 0)
(0.197855 -0.00169616 0)
(0.203568 -0.00667178 0)
(0.219645 -0.00532439 0)
(0.234157 0.00231919 0)
(0.257003 0.0195668 0)
(0.267055 0.0364402 0)
(0.279271 0.0547454 0)
(0.274448 0.0623529 0)
(0.269801 0.0662422 0)
(0.256231 0.0578658 0)
(0.237855 0.0464728 0)
(0.210777 0.0408723 0)
(0.181779 0.00167361 0)
(0.188589 -0.00368235 0)
(0.178862 0.000744631 0)
(0.173726 0.00641231 0)
(0.166772 0.0108761 0)
(0.160898 0.0126778 0)
(0.154585 0.010498 0)
(0.152291 0.00443967 0)
(0.155248 -0.00325951 0)
(0.163918 -0.0102706 0)
(0.181735 -0.0105467 0)
(0.199229 -0.00355026 0)
(0.224766 0.0139692 0)
(0.238588 0.0326489 0)
(0.254539 0.0531374 0)
(0.252666 0.0632161 0)
(0.251071 0.0689556 0)
(0.237582 0.0623701 0)
(0.217193 0.0543088 0)
(0.187567 0.0490683 0)
(0.161938 0.00517008 0)
(0.120437 -0.00086337 0)
(0.119646 0.00205162 0)
(0.119816 0.00763987 0)
(0.116321 0.0122977 0)
(0.113215 0.0141321 0)
(0.109402 0.011315 0)
(0.109859 0.00396536 0)
(0.114945 -0.00559088 0)
(0.126091 -0.0145445 0)
(0.14484 -0.0163875 0)
(0.164567 -0.0101746 0)
(0.191645 0.0075022 0)
(0.208592 0.0278359 0)
(0.227637 0.0505333 0)
(0.228908 0.0631538 0)
(0.230269 0.0711953 0)
(0.216486 0.0671924 0)
(0.19465 0.0626502 0)
(0.164459 0.0569164 0)
(0.143322 0.0080534 0)
(0.0639224 -0.00108372 0)
(0.0699565 0.00130382 0)
(0.0731699 0.00770107 0)
(0.071807 0.0128896 0)
(0.0707834 0.0148198 0)
(0.0693057 0.0113499 0)
(0.0721298 0.00277092 0)
(0.0789368 -0.00854142 0)
(0.0916012 -0.0192351 0)
(0.110426 -0.022574 0)
(0.131455 -0.0172488 0)
(0.158936 0.000463467 0)
(0.178279 0.0222113 0)
(0.199686 0.0470245 0)
(0.204016 0.0622092 0)
(0.207775 0.0730786 0)
(0.193462 0.0722717 0)
(0.171272 0.0710404 0)
(0.142607 0.0639677 0)
(0.126662 0.0102105 0)
(0.0257009 -0.00421597 0)
(0.0326274 -0.000475048 0)
(0.0359937 0.00730886 0)
(0.0353014 0.0130229 0)
(0.035566 0.0149238 0)
(0.0359359 0.0107651 0)
(0.0403934 0.00105135 0)
(0.0482336 -0.0118366 0)
(0.0613453 -0.0240424 0)
(0.0794992 -0.0288232 0)
(0.100807 -0.0244703 0)
(0.127703 -0.0068674 0)
(0.148715 0.0159882 0)
(0.171702 0.0427714 0)
(0.178688 0.0605493 0)
(0.184032 0.0747614 0)
(0.169345 0.0774451 0)
(0.148298 0.0789679 0)
(0.123103 0.069853 0)
(0.112649 0.0116063 0)
(0.0095627 -0.00770413 0)
(0.00965284 -0.00140628 0)
(0.0111045 0.00712273 0)
(0.010112 0.0130123 0)
(0.010969 0.0146865 0)
(0.0124727 0.00990418 0)
(0.0177107 -0.00073089 0)
(0.0258624 -0.014821 0)
(0.0385582 -0.0282149 0)
(0.0555505 -0.0342462 0)
(0.0761594 -0.0308429 0)
(0.101772 -0.0134899 0)
(0.12359 0.0100327 0)
(0.147236 0.0384802 0)
(0.156057 0.0586278 0)
(0.162205 0.0761536 0)
(0.147828 0.0819009 0)
(0.129276 0.0851617 0)
(0.10856 0.0738899 0)
(0.10299 0.0122228 0)
(0.000572967 -0.00866987 0)
(-0.00465497 -0.00114537 0)
(-0.00549267 0.00727837 0)
(-0.00697926 0.0130237 0)
(-0.00583639 0.0143309 0)
(-0.00362769 0.00898963 0)
(0.00195043 -0.00238515 0)
(0.0100623 -0.0173746 0)
(0.0219736 -0.0316955 0)
(0.0375901 -0.0387696 0)
(0.0569153 -0.0362294 0)
(0.0808589 -0.0192341 0)
(0.102786 0.0046296 0)
(0.126395 0.0344639 0)
(0.136393 0.0566941 0)
(0.142957 0.0772365 0)
(0.129518 0.0854914 0)
(0.114127 0.0897108 0)
(0.0981272 0.0764601 0)
(0.0967837 0.0123153 0)
(-0.00480188 -0.0070237 0)
(-0.0141844 -9.9466e-06 0)
(-0.0170878 0.00777265 0)
(-0.019013 0.0130708 0)
(-0.0176749 0.0138809 0)
(-0.0149504 0.00798142 0)
(-0.00924476 -0.00404223 0)
(-0.00138898 -0.0197696 0)
(0.00944011 -0.0348742 0)
(0.0233564 -0.0428979 0)
(0.0407933 -0.0412068 0)
(0.0625565 -0.0247151 0)
(0.0839252 -0.000729633 0)
(0.106844 0.0303779 0)
(0.117602 0.0546091 0)
(0.124454 0.0781021 0)
(0.11273 0.0885028 0)
(0.10127 0.0931232 0)
(0.0904616 0.0779694 0)
(0.0931435 0.0119807 0)
(-0.00775719 -0.00399484 0)
(-0.0198237 0.00175304 0)
(-0.0241112 0.00852876 0)
(-0.0262229 0.0131273 0)
(-0.0246384 0.0133559 0)
(-0.0214562 0.006914 0)
(-0.015694 -0.00566732 0)
(-0.0082066 -0.0219675 0)
(0.00134084 -0.0376858 0)
(0.0132551 -0.0465253 0)
(0.0282722 -0.045644 0)
(0.0473481 -0.0297865 0)
(0.0674599 -0.00587104 0)
(0.0890461 0.0263535 0)
(0.100229 0.0524309 0)
(0.10737 0.0786728 0)
(0.0981451 0.0907615 0)
(0.09113 0.0952856 0)
(0.0857153 0.0784287 0)
(0.0921586 0.0112735 0)
(-0.00896855 -0.000289171 0)
(-0.0221253 0.00385481 0)
(-0.0268743 0.00939782 0)
(-0.0287841 0.0131396 0)
(-0.0267858 0.0127398 0)
(-0.0230812 0.00578988 0)
(-0.0172224 -0.00724353 0)
(-0.0101308 -0.023942 0)
(-0.00198293 -0.0400773 0)
(0.00765977 -0.0495523 0)
(0.0198079 -0.0494173 0)
(0.035709 -0.0342996 0)
(0.0538848 -0.0106276 0)
(0.0735429 0.0225012 0)
(0.0849144 0.0501838 0)
(0.0923974 0.0788508 0)
(0.0863655 0.0921346 0)
(0.0840079 0.0961537 0)
(0.083923 0.0778677 0)
(0.0938119 0.0102465 0)
(-0.00874299 0.00356279 0)
(-0.0213905 0.0059756 0)
(-0.0255721 0.0102067 0)
(-0.0268132 0.0130309 0)
(-0.0241548 0.0119892 0)
(-0.0197752 0.00458723 0)
(-0.0137059 -0.00878498 0)
(-0.00697362 -0.025684 0)
(-0.000272826 -0.0420029 0)
(0.00687602 -0.0518991 0)
(0.0157913 -0.0524169 0)
(0.0280669 -0.0381186 0)
(0.043705 -0.0148617 0)
(0.0609178 0.0189095 0)
(0.0723183 0.0478752 0)
(0.0801742 0.0785462 0)
(0.077865 0.0925405 0)
(0.0800715 0.0957575 0)
(0.0850053 0.0763345 0)
(0.097992 0.0089253 0)
(-0.00708897 0.00705272 0)
(-0.0176981 0.00780133 0)
(-0.0202999 0.0107736 0)
(-0.0203872 0.0127125 0)
(-0.0167909 0.0110468 0)
(-0.0115443 0.00326858 0)
(-0.0051176 -0.010319 0)
(0.0013339 -0.0271977 0)
(0.00660734 -0.0434306 0)
(0.0111059 -0.0535064 0)
(0.0165171 -0.0545542 0)
(0.0247657 -0.0411256 0)
(0.0373783 -0.0184539 0)
(0.0517156 0.0156502 0)
(0.0630379 0.0455143 0)
(0.0712137 0.0776998 0)
(0.0729579 0.0919571 0)
(0.079362 0.0941859 0)
(0.0887886 0.0739106 0)
(0.104519 0.00732706 0)
(-0.00370119 0.00966421 0)
(-0.0108944 0.00905075 0)
(-0.0110546 0.0109228 0)
(-0.00955792 0.0121005 0)
(-0.00477465 0.00985719 0)
(0.00151532 0.0017784 0)
(0.00843673 -0.0118735 0)
(0.0146984 -0.0284969 0)
(0.0186303 -0.0443588 0)
(0.0204111 -0.0543339 0)
(0.0221591 -0.0557617 0)
(0.0260367 -0.043225 0)
(0.0352608 -0.0213091 0)
(0.0463693 0.0127808 0)
(0.0575332 0.0431218 0)
(0.0658642 0.0762917 0)
(0.0717849 0.0904195 0)
(0.0818177 0.0915774 0)
(0.0950489 0.0707058 0)
(0.113178 0.00547755 0)
(0.00215559 0.0106881 0)
(-0.000527171 0.0095061 0)
(0.00229022 0.0105143 0)
(0.00565453 0.011125 0)
(0.0117673 0.008373 0)
(0.0192014 7.79651e-05 0)
(0.0267013 -0.0134697 0)
(0.0328302 -0.0296037 0)
(0.0355646 -0.0448039 0)
(0.034673 -0.0543653 0)
(0.0327452 -0.0559864 0)
(0.0319828 -0.0443387 0)
(0.0375715 -0.0233529 0)
(0.045154 0.0103449 0)
(0.0560899 0.0407326 0)
(0.0642969 0.0743404 0)
(0.07432 0.0880113 0)
(0.0873038 0.0881063 0)
(0.103566 0.0668469 0)
(0.123755 0.00340703 0)
(0.0118307 0.00892464 0)
(0.0143095 0.00892973 0)
(0.0200357 0.00949598 0)
(0.0252874 0.0097397 0)
(0.0326847 0.00657672 0)
(0.041218 -0.00182635 0)
(0.0492711 -0.0151197 0)
(0.0552413 -0.0305389 0)
(0.0569474 -0.0447906 0)
(0.0535484 -0.0536073 0)
(0.0481246 -0.055195 0)
(0.0425659 -0.0443901 0)
(0.0443817 -0.0245204 0)
(0.0481778 0.00839082 0)
(0.0588253 0.0384045 0)
(0.0665334 0.0719088 0)
(0.0804017 0.0848543 0)
(0.095645 0.0839636 0)
(0.114166 0.0624749 0)
(0.136062 0.00115332 0)
(0.0305402 0.00433624 0)
(0.0395741 0.00683597 0)
(0.0475622 0.00756524 0)
(0.0546005 0.00756338 0)
(0.063178 0.00404153 0)
(0.0727191 -0.00436263 0)
(0.0812166 -0.0171711 0)
(0.0868017 -0.031476 0)
(0.0874299 -0.0442726 0)
(0.0813033 -0.0517901 0)
(0.0721332 -0.0530259 0)
(0.0607832 -0.0430948 0)
(0.0579989 -0.0247913 0)
(0.0569284 0.00672951 0)
(0.0671958 0.0357714 0)
(0.0738302 0.0685016 0)
(0.0918834 0.0802528 0)