/*--------------------------------*- C++ -*----------------------------------*\
| =========                 |                                                 |
| \\      /  F ield         | OpenFOAM: The Open Source CFD Toolbox           |
|  \\    /   O peration     | Version:  v1806                                 |
|   \\  /    A nd           | Web:      www.OpenFOAM.com                      |
|    \\/     M anipulation  |                                                 |
\*---------------------------------------------------------------------------*/
FoamFile
{
    version     2.0;
    format      ascii;
    class       surfaceScalarField;
    location    "1";
    object      phi;
}
// * * * * * * * * * * * * * * * * * * * * * * * * * * * * * * * * * * * * * //

dimensions      [0 3 -1 0 0 0 0];
oriented        oriented;


internalField   nonuniform List<scalar> 
8600
(
0.0503352
-0.0293558
-0.0501709
0.0291916
0.0490743
-0.0300324
0.0312932
0.0493906
-0.0294662
0.0291499
0.0508942
-0.0286872
0.0271837
0.0532472
-0.0278
0.025447
0.056165
-0.0267855
0.0238677
0.0594249
-0.0256369
0.022377
0.0628564
-0.0243558
0.0209243
0.0663291
-0.0229476
0.0194749
0.0697422
-0.0214196
0.0180064
0.0730178
-0.0197803
0.0165047
0.0760945
-0.0180387
0.014962
0.0789239
-0.0162039
0.0133745
0.0814673
-0.0142851
0.0117417
0.0836939
-0.0122917
0.0100651
0.085579
-0.0102334
0.00834831
0.0871026
-0.00811984
0.00659622
0.0882491
-0.00596105
0.00481454
0.089007
-0.00376766
0.00300983
-0.00152342
0.00120425
0.0380957
-0.0351384
-0.0323131
0.0432919
-0.0352285
0.048826
-0.0350003
0.054583
-0.0344442
0.0603952
-0.0336123
0.0661511
-0.0325413
0.0717709
-0.0312567
0.0771941
-0.0297789
0.0823714
-0.0281249
0.0872613
-0.0263095
0.0918273
-0.0243463
0.0960363
-0.0222477
0.0998585
-0.0200261
0.103267
-0.0176934
0.106237
-0.0152617
0.108747
-0.0127433
0.110778
-0.0101507
0.112313
-0.0074968
0.113343
-0.00479719
-0.0019619
0.0368644
-0.0451752
-0.0268276
0.0463872
-0.0447514
0.0554596
-0.0440727
0.0641566
-0.0431412
0.0725103
-0.041966
0.0805266
-0.0405576
0.0881958
-0.038926
0.0954986
-0.0370817
0.102409
-0.0350356
0.108898
-0.0327988
0.114935
-0.030383
0.120488
-0.0278005
0.125526
-0.025064
0.130019
-0.022187
0.133941
-0.0191832
0.137265
-0.0160672
0.139968
-0.0128541
0.142031
-0.00955931
0.143443
-0.00620922
-0.00257513
0.0421974
-0.0574648
-0.0299077
0.0541467
-0.0567007
0.0657522
-0.0556782
0.0770001
-0.0543891
0.0878683
-0.0528342
0.0983282
-0.0510174
0.108347
-0.0489447
0.117889
-0.0466238
0.126917
-0.0440638
0.135394
-0.0412752
0.14328
-0.0382694
0.150539
-0.0350591
0.157133
-0.0316579
0.163026
-0.0280803
0.168185
-0.0243422
0.172578
-0.0204602
0.176176
-0.0164519
0.178951
-0.0123345
0.180901
-0.00815966
-0.00344256
0.0506927
-0.0725719
-0.0355856
0.0655372
-0.0715452
0.0800638
-0.0702049
0.0942193
-0.0685446
0.107952
-0.0665671
0.121212
-0.0642769
0.133947
-0.06168
0.146107
-0.058784
0.157641
-0.0555979
0.168498
-0.0521322
0.178628
-0.048399
0.18798
-0.0444114
0.196506
-0.0401843
0.20416
-0.0357338
0.210895
-0.0310775
0.21667
-0.0262346
0.221444
-0.0212258
0.225176
-0.0160669
0.227887
-0.0108706
-0.00468472
0.0620119
-0.0912094
-0.0433744
0.0803861
-0.0899194
0.098428
-0.0882468
0.116068
-0.0861844
0.133237
-0.0837359
0.149866
-0.0809065
0.165889
-0.0777025
0.181236
-0.0741318
0.195842
-0.0702038
0.209639
-0.0659293
0.222561
-0.0613208
0.234542
-0.0563924
0.245518
-0.05116
0.255426
-0.0456413
0.264204
-0.0398558
0.271794
-0.0338249
0.278142
-0.0275739
0.283182
-0.0211062
0.286991
-0.0146796
-0.00649429
0.0761717
-0.114198
-0.0531827
0.0988781
-0.112626
0.121222
-0.11059
0.143119
-0.108082
0.164488
-0.105104
0.185244
-0.101663
0.205304
-0.0977628
0.224585
-0.0934124
0.243001
-0.0886206
0.26047
-0.0833976
0.276905
-0.0777559
0.292222
-0.0717096
0.306337
-0.0652749
0.319166
-0.0584701
0.330626
-0.0513164
0.340637
-0.0438361
0.349127
-0.0360633
0.355974
-0.0279538
0.361401
-0.0201065
-0.00918647
0.0934239
-0.142471
-0.0651518
0.121389
-0.140591
0.148958
-0.138159
0.176036
-0.13516
0.202528
-0.131596
0.228337
-0.127472
0.253365
-0.12279
0.277511
-0.117559
0.300674
-0.111783
0.322749
-0.105473
0.343631
-0.098638
0.363213
-0.0912909
0.381384
-0.0834465
0.398036
-0.0751221
0.413059
-0.0663386
0.426338
-0.0571152
0.437787
-0.0475122
0.447162
-0.0373294
0.455014
-0.0279587
-0.0132865
0.114046
-0.17706
-0.0794573
0.148311
-0.174856
0.182155
-0.172003
0.215476
-0.168481
0.248168
-0.164288
0.280123
-0.159427
0.31123
-0.153897
0.341373
-0.147701
0.370432
-0.140842
0.398283
-0.133324
0.424798
-0.125153
0.449843
-0.116336
0.47328
-0.106883
0.494966
-0.0968079
0.514757
-0.0861294
0.532487
-0.0748457
0.548088
-0.0631133
0.561015
-0.0502558
0.572544
-0.0394882
-0.0196803
0.13824
-0.219077
-0.0962225
0.179932
-0.216548
0.2212
-0.213272
0.261939
-0.20922
0.302039
-0.204388
0.341384
-0.198772
0.379855
-0.192368
0.417324
-0.185171
0.453657
-0.177175
0.488712
-0.168379
0.522336
-0.158777
0.55437
-0.14837
0.584643
-0.137157
0.612972
-0.125137
0.639182
-0.112339
0.663001
-0.098664
0.684521
-0.0846336
0.702433
-0.0681674
0.71956
-0.0566155
-0.0298719
0.166031
-0.269647
-0.115462
0.216305
-0.266822
0.266187
-0.263153
0.315577
-0.25861
0.36437
-0.253181
0.412455
-0.246857
0.459711
-0.239624
0.506008
-0.231468
0.551205
-0.222372
0.595148
-0.212321
0.637669
-0.201298
0.678582
-0.189283
0.717695
-0.17627
0.754762
-0.162204
0.789638
-0.147216
0.821735
-0.130761
0.85184
-0.114739
0.876723
-0.0930497
0.902308
-0.0822004
-0.046401
0.197215
-0.329809
-0.137053
0.257147
-0.326754
0.31676
-0.322767
0.375981
-0.31783
0.434724
-0.311924
0.492896
-0.305029
0.550392
-0.29712
0.607096
-0.288171
0.662876
-0.278152
0.717582
-0.267028
0.771053
-0.254769
0.823078
-0.241309
0.873504
-0.226696
0.9219
-0.2106
0.968521
-0.193836
1.0116
-0.173842
1.05436
-0.157498
1.089
-0.127686
1.12705
-0.120253
-0.0734448
0.23121
-0.40034
-0.160679
0.301612
-0.397156
0.371849
-0.393004
0.441884
-0.387865
0.511665
-0.381706
0.581132
-0.374496
0.650214
-0.366202
0.718827
-0.356784
0.786872
-0.346197
0.854229
-0.334385
0.920791
-0.321332
0.986274
-0.306791
1.0509
-0.291318
1.11329
-0.272997
1.17596
-0.256501
1.23269
-0.230577
1.29404
-0.218842
1.34267
-0.176316
1.39833
-0.175914
-0.117565
0.266047
-0.481578
-0.184809
0.34747
-0.478579
0.428965
-0.474499
0.510517
-0.469417
0.592122
-0.463311
0.673778
-0.456152
0.755473
-0.447897
0.837193
-0.438504
0.918904
-0.427909
1.00054
-0.416025
1.08221
-0.402993
1.16312
-0.387706
1.24542
-0.37362
1.32322
-0.350794
1.40836
-0.341639
1.48026
-0.302476
1.56678
-0.305362
1.63631
-0.245847
1.7149
-0.254509
-0.187875
0.299968
-0.57363
-0.207916
0.392006
-0.570616
0.484198
-0.566692
0.576718
-0.561936
0.669686
-0.55628
0.763207
-0.549673
0.857367
-0.542057
0.952259
-0.533396
1.04794
-0.523591
1.14441
-0.512498
1.24236
-0.500935
1.33909
-0.484437
1.44334
-0.477869
1.53448
-0.441937
1.65062
-0.457778
1.73923
-0.391091
1.85333
-0.419462
1.95534
-0.347858
2.06268
-0.361847
-0.294026
0.328511
-0.670675
-0.231467
0.425991
-0.668095
0.524476
-0.665177
0.62409
-0.66155
0.724941
-0.657131
0.827144
-0.651876
0.930826
-0.645739
1.03615
-0.638716
1.14329
-0.630732
1.25221
-0.621422
1.3646
-0.613329
1.4747
-0.594531
1.60101
-0.604182
1.70246
-0.543385
1.84848
-0.603796
1.95955
-0.502161
2.09173
-0.551649
2.23446
-0.490579
2.37416
-0.50155
-0.445944
0.304007
-0.767805
-0.206877
0.40187
-0.765959
0.50046
-0.763767
0.600122
-0.761212
0.701169
-0.758178
0.803916
-0.754622
0.908689
-0.750513
1.01578
-0.745809
1.12564
-0.740591
1.2383
-0.734077
1.35517
-0.730205
1.47356
-0.712924
1.60272
-0.733337
1.72278
-0.663443
1.86818
-0.7492
2.00497
-0.638954
2.14319
-0.689864
2.31269
-0.660084
2.47198
-0.660841
-0.62503
0.238823
-0.835173
-0.171455
0.307411
-0.834547
0.377679
-0.834035
0.449816
-0.833348
0.524069
-0.832431
0.600722
-0.831275
0.680096
-0.829887
0.762514
-0.828227
0.848396
-0.826473
0.938229
-0.82391
1.03125
-0.823229
1.13385
-0.815522
1.22702
-0.826507
1.35716
-0.793582
1.44722
-0.839261
1.58816
-0.779892
1.712
-0.813704
1.85663
-0.804709
1.99697
-0.801184
-0.797393
0.0582997
-0.861004
-0.032469
0.0850485
-0.861296
0.11229
-0.861277
0.140156
-0.861214
0.16886
-0.861135
0.198641
-0.861057
0.22974
-0.860986
0.262446
-0.860933
0.296893
-0.860919
0.333882
-0.860899
0.371716
-0.861062
0.416955
-0.86076
0.452126
-0.861678
0.519475
-0.860932
0.542443
-0.862229
0.624557
-0.862005
0.670271
-0.859419
0.734584
-0.869021
0.795121
-0.861722
-0.86607
-0.00736265
0.00135914
-0.0136589
-0.0199357
-0.0261493
-0.0322843
-0.0383412
-0.0443268
-0.0502601
-0.0561791
-0.0620786
-0.068141
-0.0739014
-0.0805794
-0.0865115
-0.0937405
-0.100746
-0.105165
-0.119186
-0.125908
-0.0188783
-0.00394439
0.0228227
-0.0151128
-0.00376546
-0.0114582
-0.00365461
-0.0078693
-0.00358891
-0.00431694
-0.00355236
-0.000783097
-0.00353384
0.00274296
-0.00352606
0.00626758
-0.00352462
0.00979476
-0.00352718
0.0133273
-0.00353257
0.0168677
-0.00354033
0.020418
-0.00355038
0.023981
-0.00356294
0.0275598
-0.00357879
0.0311594
-0.00359965
0.0347886
-0.00362921
0.0384632
-0.00367456
0.0422116
-0.00374838
0.0460837
-0.00387216
-0.00408721
-0.0127372
-0.00598955
0.0147823
-0.0105181
-0.00598456
-0.00819238
-0.00598033
-0.00580427
-0.00597701
-0.0033819
-0.00597473
-0.000942168
-0.00597357
0.00150537
-0.0059736
0.00395559
-0.00597483
0.00640571
-0.0059773
0.00885415
-0.00598101
0.0112998
-0.00598596
0.0137416
-0.00599218
0.0161783
-0.00599967
0.018608
-0.00600845
0.0210269
-0.00601854
0.0234276
-0.00602999
0.0257959
-0.00604286
0.0281048
-0.00605727
0.0303062
-0.00607354
-0.00609409
-0.0104824
-0.00795614
0.012449
-0.00850691
-0.0079601
-0.00652373
-0.0079635
-0.00453433
-0.00796642
-0.00254017
-0.00796889
-0.000542794
-0.00797095
0.0014562
-0.00797259
0.0034552
-0.00797383
0.00545256
-0.00797467
0.00744666
-0.00797511
0.00943584
-0.00797514
0.0114184
-0.00797477
0.0133927
-0.00797399
0.0153571
-0.00797279
0.0173097
-0.00797118
0.0192489
-0.00796916
0.0211728
-0.00796674
0.0230795
-0.00796394
0.0249668
-0.00796084
-0.00795496
-0.0127545
-0.0102042
0.0150026
-0.0105019
-0.0102127
-0.00824537
-0.01022
-0.00598579
-0.010226
-0.00372392
-0.0102308
-0.0014606
-0.0102343
0.000803339
-0.0102365
0.00306707
-0.0102376
0.00532974
-0.0102373
0.00759052
-0.0102359
0.00984856
-0.0102332
0.012103
-0.0102292
0.0143531
-0.010224
0.0165979
-0.0102176
0.0188366
-0.0102099
0.0210683
-0.0102009
0.0232922
-0.0101906
0.0255073
-0.0101791
0.0277127
-0.0101662
-0.01015
-0.0158112
-0.0129137
0.0185207
-0.0130995
-0.0129245
-0.0103859
-0.0129335
-0.00767103
-0.0129409
-0.00495522
-0.0129466
-0.00223895
-0.0129505
0.000477336
-0.0129528
0.00319318
-0.0129534
0.00590814
-0.0129523
0.00862176
-0.0129495
0.0113336
-0.012945
0.0140432
-0.0129388
0.01675
-0.0129309
0.0194538
-0.0129213
0.022154
-0.0129101
0.0248502
-0.0128971
0.0275419
-0.0128823
0.0302287
-0.0128659
0.0329103
-0.0128478
-0.0128253
-0.0196861
-0.016235
0.0230073
-0.0163625
-0.0162481
-0.013037
-0.0162591
-0.00970998
-0.0162679
-0.00638189
-0.0162747
-0.00305316
-0.0162793
0.000275782
-0.0162818
0.0036045
-0.0162821
0.00693255
-0.0162804
0.0102595
-0.0162765
0.0135849
-0.0162704
0.0169084
-0.0162623
0.0202295
-0.016252
0.0235478
-0.0162396
0.0268628
-0.0162251
0.0301742
-0.0162084
0.0334814
-0.0161896
0.0367841
-0.0161686
0.0400819
-0.0161455
-0.0161178
-0.0243877
-0.0203187
0.0284715
-0.0203013
-0.0203345
-0.0162127
-0.0203476
-0.0121224
-0.0203582
-0.00803092
-0.0203662
-0.00393861
-0.0203716
0.000154041
-0.0203744
0.00424657
-0.0203746
0.00833852
-0.0203723
0.0124295
-0.0203674
0.0165189
-0.0203599
0.0206064
-0.0203498
0.0246915
-0.0203371
0.0287738
-0.0203219
0.0328528
-0.0203041
0.036928
-0.0202836
0.040999
-0.0202606
0.0450654
-0.020235
0.0491266
-0.0202068
-0.0201739
-0.0300349
-0.025329
0.0350452
-0.0250218
-0.0253477
-0.0200061
-0.0253632
-0.0149886
-0.0253757
-0.00996969
-0.0253851
-0.00494982
-0.0253914
7.04845e-05
-0.0253947
0.00509073
-0.0253949
0.0101104
-0.025392
0.0151291
-0.0253861
0.0201462
-0.025377
0.0251613
-0.0253649
0.0301739
-0.0253497
0.0351835
-0.0253315
0.0401896
-0.0253102
0.0451918
-0.0252858
0.0501894
-0.0252583
0.0551821
-0.0252277
0.0601694
-0.025194
-0.0251562
-0.0367333
-0.0314445
0.0428487
-0.0306148
-0.0314662
-0.0244938
-0.0314843
-0.0183707
-0.0314988
-0.0122461
-0.0315097
-0.00612044
-0.0315171
5.69232e-06
-0.0315208
0.0061318
-0.031521
0.0122574
-0.0315176
0.0183819
-0.0315106
0.0245048
-0.0315
0.0306257
-0.0314858
0.0367439
-0.031468
0.042859
-0.0314466
0.0489705
-0.0314216
0.0550779
-0.0313931
0.0611805
-0.0313609
0.067278
-0.0313252
0.0733698
-0.0312859
-0.0312437
-0.0445561
-0.0388541
0.0519657
-0.0371434
-0.0388788
-0.0297282
-0.0388995
-0.0223109
-0.0389161
-0.0148921
-0.0389285
-0.00747234
-0.0389369
-5.20789e-05
-0.0389411
0.00736814
-0.0389412
0.0147878
-0.0389373
0.0222064
-0.0389292
0.0296234
-0.038917
0.0370384
-0.0389007
0.0444507
-0.0388803
0.0518598
-0.0388558
0.0592653
-0.0388272
0.0666667
-0.0387944
0.0740633
-0.0387576
0.0814547
-0.0387166
0.0888405
-0.0386716
-0.0386257
-0.053509
-0.0477483
0.0624032
-0.044612
-0.0477759
-0.0357127
-0.0477988
-0.0268116
-0.0478172
-0.0179092
-0.0478309
-0.00900593
-0.0478401
-0.000102327
-0.0478447
0.00880116
-0.0478447
0.0177041
-0.0478401
0.0266059
-0.047831
0.0355061
-0.0478172
0.0444044
-0.0477989
0.0533001
-0.047776
0.0621928
-0.0477485
0.071082
-0.0477164
0.0799673
-0.0476797
0.0888481
-0.0476384
0.0977239
-0.0475925
0.106594
-0.047542
-0.0474933
-0.0634886
-0.0583044
0.0740446
-0.0529304
-0.058334
-0.0423705
-0.0583587
-0.0318093
-0.0583784
-0.0212471
-0.0583931
-0.0106843
-0.0584029
-0.000121293
-0.0584077
0.0104416
-0.0584076
0.0210039
-0.0584025
0.0315654
-0.0583925
0.0421256
-0.0583775
0.0526842
-0.0583575
0.0632408
-0.0583326
0.073795
-0.0583027
0.0843465
-0.0582678
0.0948948
-0.058228
0.10544
-0.0581833
0.115981
-0.0581335
0.126517
-0.0580789
-0.0580285
-0.0742438
-0.0706701
0.0866095
-0.0618771
-0.0707007
-0.0495096
-0.0707262
-0.0371415
-0.0707465
-0.024773
-0.0707616
-0.0124042
-0.0707717
-3.54486e-05
-0.0707765
0.0123332
-0.0707762
0.0247015
-0.0707708
0.0370692
-0.0707602
0.0494363
-0.0707445
0.0618024
-0.0707236
0.0741674
-0.0706976
0.0865312
-0.0706664
0.0988935
-0.0706301
0.111254
-0.0705886
0.123613
-0.070542
0.13597
-0.0704903
0.148324
-0.0704335
-0.0703828
-0.0853557
-0.0849007
0.0995864
-0.071126
-0.0849304
-0.0568972
-0.084955
-0.0426694
-0.0849743
-0.0284425
-0.0849885
-0.0142167
-0.0849975
8.12767e-06
-0.0850013
0.0142319
-0.085
0.0284545
-0.0849934
0.0426759
-0.0849817
0.0568961
-0.0849647
0.0711151
-0.0849426
0.0853326
-0.0849152
0.0995488
-0.0848826
0.113763
-0.0848447
0.127976
-0.0848016
0.142188
-0.0847532
0.156397
-0.0846996
0.170604
-0.0846407
-0.0845881
-0.095858
-0.100889
0.111846
-0.0798719
-0.100917
-0.0638878
-0.100939
-0.0479051
-0.100957
-0.0319236
-0.10097
-0.0159428
-0.100978
3.75491e-05
-0.100982
0.0160179
-0.10098
0.0319985
-0.100974
0.0479798
-0.100963
0.0639622
-0.100947
0.0799461
-0.100926
0.0959317
-0.100901
0.111919
-0.10087
0.12791
-0.100835
0.143903
-0.100795
0.159899
-0.100749
0.175899
-0.100699
0.191901
-0.100643
-0.100603
-0.102099
-0.118406
0.119616
-0.0845867
-0.118429
-0.0670776
-0.118448
-0.0495702
-0.118464
-0.0320631
-0.118477
-0.0145547
-0.118487
0.00295634
-0.118493
0.0204715
-0.118495
0.0379923
-0.118495
0.0555202
-0.118491
0.0730567
-0.118484
0.0906033
-0.118473
0.108162
-0.118459
0.125733
-0.118442
0.143319
-0.118421
0.160922
-0.118397
0.178543
-0.11837
0.196183
-0.118339
0.213843
-0.118303
-0.118227
-0.100057
-0.134595
0.116246
-0.0838767
-0.134609
-0.0677034
-0.134622
-0.0515367
-0.134631
-0.0353759
-0.134638
-0.0192203
-0.134642
-0.00306911
-0.134644
0.0130784
-0.134643
0.029223
-0.134639
0.0453653
-0.134633
0.061506
-0.134624
0.0776459
-0.134613
0.0937855
-0.134599
0.109926
-0.134582
0.126067
-0.134562
0.142209
-0.13454
0.158353
-0.134515
0.174499
-0.134485
0.190646
-0.134449
-0.134458
-0.0710033
-0.147298
0.0837069
-0.0583079
-0.147305
-0.0456184
-0.147311
-0.0329323
-0.147317
-0.020247
-0.147323
-0.00756008
-0.147329
0.00513099
-0.147335
0.0178287
-0.147341
0.0305357
-0.147346
0.0432545
-0.147352
0.0559876
-0.147357
0.0687377
-0.147363
0.0815074
-0.147368
0.0942993
-0.147374
0.107116
-0.147379
0.119961
-0.147384
0.132835
-0.147389
0.145742
-0.147392
0.158682
-0.147389
-0.147232
-0.0257621
-0.150398
0.0288617
-0.0226686
-0.150398
-0.019581
-0.150399
-0.0164993
-0.150399
-0.0134232
-0.150399
-0.0103528
-0.1504
-0.00728773
-0.1504
-0.00422802
-0.1504
-0.00117349
-0.150401
0.00187598
-0.150401
0.00492053
-0.150402
0.00796029
-0.150403
0.0109954
-0.150404
0.014026
-0.150404
0.0170524
-0.150406
0.0200748
-0.150407
0.023094
-0.150408
0.0261117
-0.150409
0.0291316
-0.150409
-0.150569
0.00645895
-0.00685689
0.00606067
0.00566206
0.00526311
0.00486381
0.00446417
0.00406415
0.00366373
0.00326285
0.00286144
0.00245944
0.00205674
0.00165322
0.00124874
0.000843133
0.000436245
2.79903e-05
-0.000381346
-0.000790159
-0.0454414
-0.00462287
0.00375993
0.0463043
-0.0445406
-0.00462509
0.00372428
-0.0436117
-0.00462286
0.00369399
-0.0426584
-0.00462063
0.00366734
-0.0416845
-0.00461847
0.00364453
-0.040694
-0.00461651
0.00362597
-0.0396912
-0.00461489
0.00361208
-0.0386806
-0.00461377
0.00360325
-0.0376671
-0.00461326
0.00359978
-0.0366555
-0.00461345
0.00360178
-0.0356501
-0.00461432
0.00360893
-0.0346543
-0.00461559
0.0036198
-0.0336685
-0.00461647
0.00363065
-0.0326862
-0.00461517
0.00363291
-0.0316874
-0.00460816
0.00360936
-0.0306269
-0.00458932
0.0035288
-0.0294176
-0.00454929
0.00333994
-0.0279072
-0.0044752
0.00296482
-0.0258455
-0.00435102
0.00228932
-0.00415797
0.00113515
-0.0421819
-0.00595757
0.0435166
-0.0408386
-0.00596837
-0.0394825
-0.00597893
-0.0381148
-0.00598841
-0.0367364
-0.0059968
-0.0353488
-0.00600411
-0.0339534
-0.00601033
-0.0325517
-0.00601547
-0.0311454
-0.0060195
-0.0297365
-0.00602244
-0.0283265
-0.00602425
-0.0269172
-0.00602492
-0.0255092
-0.00602445
-0.0241016
-0.00602284
-0.0226896
-0.00602012
-0.0212625
-0.00601638
-0.0198001
-0.00601174
-0.0182689
-0.0060064
-0.0166192
-0.00600065
-0.00599488
-0.047443
-0.0076656
0.0491511
-0.0457186
-0.00769285
-0.043981
-0.00771649
-0.0422304
-0.00773903
-0.0404667
-0.00776046
-0.03869
-0.00778079
-0.0369003
-0.00780002
-0.0350977
-0.00781815
-0.033282
-0.0078352
-0.0314533
-0.00785115
-0.0296115
-0.00786601
-0.0277566
-0.00787979
-0.0258886
-0.00789248
-0.0240073
-0.00790409
-0.0221128
-0.00791461
-0.0202052
-0.00792406
-0.0182845
-0.00793243
-0.0163511
-0.00793976
-0.0144057
-0.00794609
-0.00795151
-0.0564011
-0.00975852
0.058494
-0.0542988
-0.00979517
-0.0521866
-0.00982874
-0.0500647
-0.00986094
-0.0479333
-0.00989178
-0.0457929
-0.00992126
-0.0436435
-0.0099494
-0.0414855
-0.00997618
-0.039319
-0.0100016
-0.0371444
-0.0100257
-0.034962
-0.0100485
-0.0327718
-0.01007
-0.0305742
-0.0100901
-0.0283694
-0.0101089
-0.0261577
-0.0101264
-0.0239391
-0.0101426
-0.0217141
-0.0101575
-0.0194828
-0.0101711
-0.0172455
-0.0101834
-0.0101944
-0.0690337
-0.0123393
0.0716144
-0.0664426
-0.0123862
-0.0638421
-0.0124293
-0.0612323
-0.0124707
-0.0586137
-0.0125104
-0.0559866
-0.0125484
-0.0533513
-0.0125847
-0.0507082
-0.0126192
-0.0480577
-0.0126521
-0.0454002
-0.0126833
-0.042736
-0.0127127
-0.0400654
-0.0127405
-0.0373889
-0.0127666
-0.0347069
-0.0127909
-0.0320197
-0.0128136
-0.0293278
-0.0128345
-0.0266315
-0.0128537
-0.0239313
-0.0128713
-0.0212276
-0.0128871
-0.0129013
-0.0851057
-0.0155262
0.0882926
-0.0819083
-0.0155835
-0.0787008
-0.0156368
-0.0754835
-0.015688
-0.0722568
-0.0157371
-0.0690211
-0.015784
-0.0657769
-0.0158289
-0.0625245
-0.0158716
-0.0592644
-0.0159123
-0.0559968
-0.0159508
-0.0527224
-0.0159872
-0.0494414
-0.0160215
-0.0461542
-0.0160537
-0.0428614
-0.0160838
-0.0395632
-0.0161117
-0.0362601
-0.0161376
-0.0329526
-0.0161613
-0.029641
-0.0161829
-0.0263258
-0.0162024
-0.0162197
-0.104962
-0.0194626
0.108898
-0.101014
-0.0195313
-0.097055
-0.0195958
-0.0930852
-0.0196578
-0.0891051
-0.0197172
-0.0851151
-0.019774
-0.0811157
-0.0198283
-0.0771073
-0.01988
-0.0730904
-0.0199292
-0.0690654
-0.0199758
-0.0650328
-0.0200198
-0.060993
-0.0200613
-0.0569465
-0.0201002
-0.0528938
-0.0201365
-0.0488353
-0.0201703
-0.0447714
-0.0202014
-0.0407026
-0.0202301
-0.0366294
-0.0202561
-0.0325522
-0.0202796
-0.0203004
-0.129033
-0.0243117
0.133882
-0.124172
-0.0243924
-0.119298
-0.0244693
-0.114413
-0.0245431
-0.109516
-0.0246138
-0.104609
-0.0246815
-0.0996908
-0.0247461
-0.0947631
-0.0248077
-0.0898262
-0.0248662
-0.0848803
-0.0249216
-0.0799262
-0.024974
-0.0749642
-0.0250233
-0.0699948
-0.0250695
-0.0650186
-0.0251127
-0.060036
-0.0251528
-0.0550476
-0.0251899
-0.0500538
-0.0252238
-0.0450552
-0.0252547
-0.0400522
-0.0252826
-0.0253074
-0.157761
-0.0302566
0.163706
-0.151804
-0.0303498
-0.145834
-0.0304397
-0.139851
-0.0305261
-0.133856
-0.0306088
-0.127849
-0.030688
-0.121832
-0.0307636
-0.115804
-0.0308355
-0.109766
-0.0309039
-0.103719
-0.0309687
-0.0976629
-0.0310299
-0.0915987
-0.0310875
-0.0855266
-0.0311416
-0.0794474
-0.031192
-0.0733614
-0.0312388
-0.0672691
-0.0312821
-0.0611713
-0.0313217
-0.0550682
-0.0313578
-0.0489605
-0.0313903
-0.0314192
-0.191466
-0.0374951
0.198705
-0.184215
-0.0376008
-0.176951
-0.0377039
-0.169674
-0.0378029
-0.162385
-0.0378977
-0.155085
-0.0379885
-0.147773
-0.038075
-0.140451
-0.0381575
-0.133119
-0.0382358
-0.125778
-0.03831
-0.118428
-0.0383801
-0.111069
-0.038446
-0.103703
-0.0385078
-0.0963297
-0.0385655
-0.0889495
-0.0386191
-0.081563
-0.0386685
-0.0741709
-0.0387139
-0.0667736
-0.0387551
-0.0593717
-0.0387922
-0.0388252
-0.230216
-0.046231
0.238952
-0.221468
-0.0463486
-0.212708
-0.046464
-0.203936
-0.0465748
-0.195153
-0.0466809
-0.186359
-0.0467823
-0.177555
-0.0468791
-0.168741
-0.0469713
-0.159918
-0.0470588
-0.151087
-0.0471416
-0.142247
-0.0472199
-0.133399
-0.0472935
-0.124545
-0.0473624
-0.115684
-0.0474268
-0.106816
-0.0474865
-0.0979429
-0.0475417
-0.0890646
-0.0475922
-0.0801815
-0.0476381
-0.0712942
-0.0476795
-0.0477162
-0.273695
-0.0566628
0.284127
-0.263253
-0.0567903
-0.252802
-0.0569155
-0.242341
-0.0570355
-0.231871
-0.0571505
-0.221393
-0.0572603
-0.210907
-0.0573651
-0.200414
-0.0574649
-0.189913
-0.0575596
-0.179405
-0.0576492
-0.168892
-0.0577338
-0.158372
-0.0578134
-0.147846
-0.0578879
-0.137315
-0.0579575
-0.12678
-0.058022
-0.11624
-0.0580815
-0.105696
-0.0581361
-0.0951489
-0.0581856
-0.0845982
-0.0582302
-0.0582698
-0.321103
-0.0689643
0.333404
-0.308795
-0.0690984
-0.296482
-0.0692286
-0.284164
-0.0693534
-0.271841
-0.0694729
-0.259515
-0.0695871
-0.247184
-0.069696
-0.234849
-0.0697996
-0.222511
-0.0698979
-0.210169
-0.0699909
-0.197824
-0.0700787
-0.185476
-0.0701613
-0.173125
-0.0702386
-0.160772
-0.0703107
-0.148416
-0.0703777
-0.136059
-0.0704394
-0.123699
-0.0704959
-0.111337
-0.0705472
-0.0989741
-0.0705933
-0.0706343
-0.370101
-0.0832018
0.384338
-0.35586
-0.0833389
-0.341619
-0.0834693
-0.327379
-0.0835942
-0.313138
-0.0837137
-0.298897
-0.0838277
-0.284657
-0.0839363
-0.270417
-0.0840396
-0.256177
-0.0841374
-0.241938
-0.08423
-0.2277
-0.0843172
-0.213462
-0.0843991
-0.199225
-0.0844758
-0.184988
-0.0845472
-0.170753
-0.0846133
-0.156518
-0.0846743
-0.142284
-0.08473
-0.12805
-0.0847804
-0.113818
-0.0848257
-0.0848658
-0.416523
-0.0993017
0.432623
-0.400426
-0.0994361
-0.384337
-0.0995579
-0.368257
-0.0996745
-0.352184
-0.0997859
-0.33612
-0.0998922
-0.320063
-0.0999934
-0.304013
-0.10009
-0.28797
-0.100181
-0.271933
-0.100267
-0.255902
-0.100348
-0.239877
-0.100424
-0.223858
-0.100495
-0.207844
-0.100561
-0.191834
-0.100623
-0.175829
-0.100679
-0.159828
-0.100731
-0.143831
-0.100778
-0.127837
-0.10082
-0.100857
-0.455253
-0.117246
0.473198
-0.437366
-0.117323
-0.419513
-0.117411
-0.401693
-0.117495
-0.383903
-0.117576
-0.366141
-0.117654
-0.348407
-0.117728
-0.330698
-0.117798
-0.313013
-0.117866
-0.295351
-0.117929
-0.277709
-0.11799
-0.260086
-0.118047
-0.242481
-0.1181
-0.224892
-0.11815
-0.207318
-0.118197
-0.189757
-0.11824
-0.172207
-0.11828
-0.154668
-0.118317
-0.137138
-0.11835
-0.118379
-0.426347
-0.133716
0.442817
-0.40987
-0.1338
-0.393413
-0.133867
-0.376977
-0.133932
-0.36056
-0.133993
-0.344162
-0.134052
-0.327782
-0.134107
-0.311421
-0.13416
-0.295076
-0.13421
-0.278749
-0.134257
-0.262437
-0.134301
-0.246142
-0.134343
-0.22986
-0.134381
-0.213593
-0.134417
-0.19734
-0.134451
-0.181099
-0.134481
-0.16487
-0.134509
-0.148652
-0.134535
-0.132444
-0.134557
-0.134577
-0.330071
-0.147075
0.34343
-0.316716
-0.147154
-0.303419
-0.147164
-0.290179
-0.147173
-0.276991
-0.14718
-0.263855
-0.147188
-0.250766
-0.147196
-0.237721
-0.147204
-0.224719
-0.147212
-0.211757
-0.14722
-0.19883
-0.147227
-0.185938
-0.147235
-0.173077
-0.147242
-0.160245
-0.14725
-0.147438
-0.147257
-0.134655
-0.147264
-0.121893
-0.147271
-0.109149
-0.147278
-0.0964215
-0.147285
-0.147292
-0.0890785
-0.150527
0.0925302
-0.0858378
-0.150395
-0.0826066
-0.150396
-0.079384
-0.150395
-0.0761698
-0.150395
-0.0729638
-0.150394
-0.0697659
-0.150394
-0.0665758
-0.150394
-0.0633935
-0.150394
-0.0602188
-0.150394
-0.0570517
-0.150394
-0.0538918
-0.150395
-0.0507392
-0.150395
-0.0475936
-0.150395
-0.044455
-0.150396
-0.0413232
-0.150396
-0.0381981
-0.150397
-0.0350796
-0.150397
-0.0319675
-0.150397
-0.150398
0.0143679
-0.0148949
0.0139728
0.0135772
0.0131821
0.0127875
0.0123932
0.0119991
0.011605
0.0112109
0.0108167
0.0104222
0.0100275
0.00963242
0.00923701
0.00884125
0.00844512
0.00804861
0.00765173
0.00725449
-0.00169186
-0.000855472
0.00254733
-0.00131657
-0.000375284
-0.00111125
-0.000205318
-0.000971738
-0.000139516
-0.000861763
-0.000109975
-0.000767679
-9.40837e-05
-0.000683625
-8.40537e-05
-0.000606611
-7.70149e-05
-0.000534812
-7.17991e-05
-0.000466962
-6.78494e-05
-0.000402121
-6.48412e-05
-0.000339582
-6.25393e-05
-0.000278866
-6.07156e-05
-0.000219811
-5.90549e-05
-0.000162788
-5.70234e-05
-0.000109075
-5.37133e-05
-6.13079e-05
-4.77667e-05
-2.37897e-05
-3.75182e-05
-2.29052e-06
-2.14992e-05
-2.29049e-06
-0.00347042
-0.00150529
0.00412024
-0.00295439
-0.000891315
-0.00256474
-0.000594973
-0.00225961
-0.000444643
-0.00200779
-0.000361794
-0.00179036
-0.000311514
-0.00159621
-0.000278203
-0.00141858
-0.000254653
-0.00125307
-0.00023731
-0.00109668
-0.000224239
-0.000947264
-0.000214253
-0.000803319
-0.000206484
-0.000663931
-0.000200104
-0.000528945
-0.000194042
-0.000399333
-0.000186635
-0.000277752
-0.000175295
-0.000169086
-0.000156433
-8.0618e-05
-0.000125986
-2.12329e-05
-8.08843e-05
-2.35233e-05
-0.00424627
-0.00195808
0.00469906
-0.00377865
-0.00135894
-0.00336246
-0.00101116
-0.00300278
-0.000804323
-0.00268897
-0.00067561
-0.00240964
-0.00059084
-0.00215594
-0.000531905
-0.00192143
-0.00048916
-0.00170149
-0.00045725
-0.00149275
-0.000432985
-0.00129272
-0.000414278
-0.00109967
-0.000399537
-0.000912561
-0.00038721
-0.000731306
-0.000375297
-0.000557162
-0.000360779
-0.000393351
-0.000339106
-0.000245677
-0.000304106
-0.000122838
-0.000248826
-3.61837e-05
-0.000167538
-5.97071e-05
-0.00446435
-0.00227459
0.00478086
-0.0040856
-0.00173769
-0.00370872
-0.00138804
-0.00335643
-0.00115661
-0.00303261
-0.000999431
-0.00273447
-0.000888978
-0.00245767
-0.000808707
-0.00219805
-0.000748782
-0.00195211
-0.000703189
-0.00171704
-0.000668049
-0.00149067
-0.000640651
-0.0012714
-0.000618806
-0.00105832
-0.000600289
-0.000851443
-0.000582176
-0.000652152
-0.000560071
-0.00046388
-0.000527377
-0.000292847
-0.00047514
-0.000148673
-0.000393
-4.48238e-05
-0.000271387
-0.000104531
-0.00439853
-0.00250156
0.0046255
-0.00409996
-0.00203626
-0.00377875
-0.00170925
-0.00345973
-0.00147563
-0.00315307
-0.00130609
-0.00286153
-0.00118052
-0.00258459
-0.00108564
-0.00232056
-0.00101282
-0.00206745
-0.000956292
-0.00182342
-0.00091208
-0.00158688
-0.00087719
-0.00135664
-0.000849054
-0.00113202
-0.000824909
-0.00091319
-0.000801002
-0.000701658
-0.000771602
-0.000500971
-0.000728065
-0.000317614
-0.000658497
-0.000161904
-0.000548709
-4.88818e-05
-0.00038441
-0.000153413
-0.00420564
-0.00267119
0.00437527
-0.00396859
-0.0022733
-0.00369959
-0.00197825
-0.00342001
-0.00175522
-0.00314126
-0.00158484
-0.0028686
-0.00145318
-0.00260389
-0.00135035
-0.0023473
-0.00126941
-0.00209821
-0.00120539
-0.00185571
-0.00115458
-0.00161889
-0.00111401
-0.001387
-0.00108094
-0.0011597
-0.00105221
-0.000937361
-0.00102334
-0.000721617
-0.000987347
-0.000516148
-0.000933533
-0.000327671
-0.000846974
-0.000167009
-0.000709371
-5.01855e-05
-0.000501234
-0.000203598
-0.00397101
-0.00280422
0.00410404
-0.00377871
-0.0024656
-0.00355275
-0.00220422
-0.00330999
-0.00199797
-0.00306084
-0.00183399
-0.00281115
-0.00170287
-0.00256393
-0.00159757
-0.00232048
-0.00151286
-0.00208116
-0.00144471
-0.00184582
-0.00138991
-0.00161415
-0.00134568
-0.00138584
-0.00130925
-0.00116085
-0.0012772
-0.000939784
-0.00124441
-0.000724435
-0.0012027
-0.000518638
-0.00113933
-0.000329312
-0.0010363
-0.000167622
-0.000871061
-5.0101e-05
-0.000618754
-0.000253699
-0.00373685
-0.0029136
0.00384622
-0.00357668
-0.00262577
-0.00338442
-0.00239648
-0.00317296
-0.00220943
-0.00295101
-0.00205595
-0.00272408
-0.00192979
-0.00249551
-0.00182614
-0.00226715
-0.00174121
-0.00203998
-0.00167189
-0.00181439
-0.0016155
-0.00159051
-0.00156956
-0.00136839
-0.00153138
-0.00114827
-0.00149732
-0.000930955
-0.00146172
-0.000718426
-0.00141522
-0.000514667
-0.00134309
-0.000326772
-0.0012242
-0.000166116
-0.00103172
-4.94467e-05
-0.000735424
-0.000303146
-0.00352102
-0.00300742
0.00361485
-0.003384
-0.00276278
-0.00321764
-0.00256284
-0.00303172
-0.00239535
-0.00283324
-0.00225444
-0.002627
-0.00213603
-0.00241622
-0.00203693
-0.00220294
-0.00195448
-0.00198845
-0.00188639
-0.00177346
-0.00183049
-0.0015584
-0.00178462
-0.0013436
-0.00174618
-0.0011295
-0.00171142
-0.000917109
-0.00167411
-0.000708543
-0.00162379
-0.000507935
-0.0015437
-0.000322525
-0.00140961
-0.000163822
-0.00119042
-4.86314e-05
-0.000850614
-0.000351777
-0.00332912
-0.00309093
0.00341262
-0.00320892
-0.00288298
-0.00306241
-0.00270934
-0.00289699
-0.00256077
-0.00271818
-0.00243325
-0.00253
-0.0023242
-0.00233536
-0.00223157
-0.00213624