/*--------------------------------*- C++ -*----------------------------------*\
| =========                 |                                                 |
| \\      /  F ield         | OpenFOAM: The Open Source CFD Toolbox           |
|  \\    /   O peration     | Version:  v1806                                 |
|   \\  /    A nd           | Web:      www.OpenFOAM.com                      |
|    \\/     M anipulation  |                                                 |
\*---------------------------------------------------------------------------*/
FoamFile
{
    version     2.0;
    format      ascii;
    class       surfaceScalarField;
    location    "150";
    object      phi;
}
// * * * * * * * * * * * * * * * * * * * * * * * * * * * * * * * * * * * * * //

dimensions      [0 3 -1 0 0 0 0];
oriented        oriented;


internalField   nonuniform List<scalar> 
8600
(
0.130764
-0.0680686
-0.120458
0.0577623
0.1182
-0.0709662
0.0835299
0.0997481
-0.07125
0.0897024
0.0833466
-0.0719899
0.0883914
0.0711634
-0.0734209
0.0856041
0.0626352
-0.0751351
0.0836633
0.0565606
-0.076739
0.0828136
0.0520214
-0.078066
0.0826052
0.0485065
-0.0791317
0.0826467
0.0457525
-0.0800095
0.0827635
0.0436027
-0.0807585
0.0829082
0.0419408
-0.0814108
0.0830727
0.0406715
-0.0819827
0.0832521
0.0397166
-0.0824852
0.08344
0.0390146
-0.082928
0.0836301
0.0385176
-0.0833199
0.0838168
0.0381901
-0.0836672
0.0839948
0.0380056
-0.0839719
0.0841563
0.0379438
-0.0842248
0.0842867
-0.0843893
0.0843547
0.0207539
-0.0665309
-0.0222915
0.0180592
-0.0682715
0.0179513
-0.0711421
0.0204542
-0.0744928
0.023828
-0.0767947
0.0269088
-0.0782158
0.0292697
-0.0790999
0.0309547
-0.079751
0.0321477
-0.0803248
0.0330035
-0.0808653
0.0336168
-0.0813718
0.0340453
-0.0818392
0.0343315
-0.082269
0.0345132
-0.0826669
0.0346248
-0.0830396
0.0346972
-0.0833923
0.0347572
-0.0837272
0.0348263
-0.084041
0.0349179
-0.0843164
-0.0845047
0.0293559
-0.0732077
-0.0226791
0.035666
-0.0745817
0.0401078
-0.0755839
0.0417333
-0.0761183
0.0415044
-0.0765658
0.0404022
-0.0771136
0.0390518
-0.0777495
0.0377392
-0.0784385
0.036547
-0.0791326
0.0354813
-0.0797996
0.0345384
-0.0804288
0.0337201
-0.081021
0.033031
-0.0815798
0.0324723
-0.0821082
0.032041
-0.0826082
0.03173
-0.0830813
0.0315305
-0.0835277
0.0314339
-0.0839444
0.0314341
-0.0843166
-0.0845912
0.0100386
-0.0751995
-0.0080468
0.0108908
-0.0754339
0.0112179
-0.075911
0.0118088
-0.0767092
0.0129445
-0.0777016
0.0145336
-0.0787027
0.0162796
-0.0794955
0.0179671
-0.080126
0.0194931
-0.0806586
0.0208324
-0.0811389
0.0219941
-0.0815904
0.0229944
-0.0820213
0.023848
-0.0824334
0.0245678
-0.082828
0.0251663
-0.0832067
0.0256565
-0.0835715
0.0260513
-0.0839225
0.0263616
-0.0842547
0.0265942
-0.0845492
-0.0847564
0.0115774
-0.0780713
-0.00870566
0.0146809
-0.0785373
0.0177341
-0.0789642
0.0203303
-0.0793054
0.0221967
-0.0795681
0.0232848
-0.0797908
0.0238517
-0.0800624
0.0241143
-0.0803886
0.0242088
-0.0807531
0.0242101
-0.0811402
0.0241566
-0.0815369
0.0240706
-0.0819353
0.0239689
-0.0823317
0.0238658
-0.0827249
0.0237734
-0.0831142
0.0237006
-0.0834988
0.0236546
-0.0838765
0.0236413
-0.0842414
0.0236692
-0.0845771
-0.0848291
0.00545404
-0.0793903
-0.00413508
0.00637188
-0.0794552
0.00701103
-0.0796033
0.00756424
-0.0798586
0.00821975
-0.0802236
0.0090827
-0.0806538
0.01012
-0.0810997
0.0112401
-0.0815087
0.0123618
-0.0818748
0.0134338
-0.0822122
0.0144301
-0.0825333
0.0153402
-0.0828454
0.0161603
-0.0831518
0.0168889
-0.0834535
0.0175251
-0.0837504
0.0180681
-0.0840418
0.0185175
-0.0843259
0.0188728
-0.0845968
0.019133
-0.0848373
-0.0850075
0.00604726
-0.0809297
-0.00450785
0.00773781
-0.0811457
0.00948258
-0.0813481
0.0111594
-0.0815354
0.0126323
-0.0816965
0.0138189
-0.0818404
0.0147034
-0.0819841
0.015343
-0.0821483
0.0158118
-0.0823436
0.0161631
-0.0825635
0.0164312
-0.0828014
0.0166374
-0.0830516
0.0167956
-0.0833101
0.0169168
-0.0835747
0.01701
-0.0838436
0.0170836
-0.0841154
0.0171454
-0.0843877
0.0172034
-0.0846548
0.0172682
-0.0849022
-0.0850864
0.00324996
-0.0818119
-0.00236774
0.00393891
-0.0818347
0.00449351
-0.0819027
0.00497014
-0.0820121
0.00544567
-0.082172
0.00598052
-0.0823752
0.00659971
-0.0826033
0.00728976
-0.0828384
0.00801144
-0.0830653
0.00873005
-0.0832821
0.00942069
-0.083492
0.0100675
-0.0836984
0.0106609
-0.0839035
0.0111946
-0.0841084
0.011664
-0.0843129
0.0120651
-0.0845165
0.0123947
-0.0847172
0.0126499
-0.08491
0.0128296
-0.0850819
-0.0852046
0.00349298
-0.0827118
-0.00259312
0.00448527
-0.082827
0.00551501
-0.0829324
0.00654043
-0.0830375
0.00750296
-0.0831345
0.00835167
-0.083224
0.00906031
-0.083312
0.00962816
-0.0834062
0.0100761
-0.0835132
0.0104305
-0.0836365
0.0107126
-0.083774
0.0109373
-0.0839231
0.0111151
-0.0840814
0.0112537
-0.084247
0.0113594
-0.0844186
0.0114378
-0.084595
0.0114949
-0.0847743
0.0115371
-0.0849522
0.0115735
-0.0851182
-0.0852412
0.00201403
-0.0833028
-0.00142304
0.00249771
-0.0833106
0.00291113
-0.0833459
0.00327389
-0.0834002
0.00361837
-0.083479
0.00397621
-0.0835818
0.00436688
-0.0837026
0.00479415
-0.0838335
0.00524834
-0.0839674
0.0057116
-0.0840998
0.00616764
-0.0842301
0.00660372
-0.0843592
0.00701049
-0.0844881
0.00738102
-0.0846175
0.00770982
-0.0847474
0.00799221
-0.0848774
0.00822423
-0.0850063
0.00840305
-0.085131
0.00852794
-0.0852431
-0.0853237
0.00217629
-0.0838698
-0.00160922
0.00280085
-0.0839352
0.0034485
-0.0839935
0.00410218
-0.0840539
0.00473535
-0.0841122
0.00532078
-0.0841672
0.00583912
-0.084221
0.00628259
-0.0842769
0.00665358
-0.0843384
0.00696145
-0.0844076
0.00721686
-0.0844855
0.00742879
-0.0845711
0.00760406
-0.0846634
0.00774775
-0.0847612
0.00786391
-0.0848635
0.00795608
-0.0849696
0.00802777
-0.085078
0.00808299
-0.0851863
0.00812749
-0.0852876
-0.0853627
0.00128564
-0.0842674
-0.000888106
0.00161942
-0.084269
0.00191303
-0.0842871
0.002174
-0.0843149
0.00241669
-0.0843549
0.00265714
-0.0844077
0.00290752
-0.0844714
0.00317297
-0.0845424
0.00345184
-0.0846173
0.0037375
-0.0846933
0.00402103
-0.084769
0.00429425
-0.0848444
0.00455045
-0.0849196
0.00478435
-0.0849951
0.00499176
-0.0850709
0.00516927
-0.0851471
0.00531413
-0.0852229
0.00542454
-0.0852967
0.00550054
-0.0853636
-0.0854127
0.00131379
-0.0846102
-0.000970984
0.00169224
-0.0846474
0.00208457
-0.0846795
0.00248283
-0.0847131
0.00287409
-0.0847461
0.00324376
-0.0847774
0.00357968
-0.0848073
0.00387471
-0.0848374
0.0041271
-0.0848697
0.00433919
-0.0849054
0.00451562
-0.0849454
0.00466131
-0.08499
0.00478053
-0.0850388
0.00487674
-0.0850913
0.00495274
-0.0851469
0.00501093
-0.0852053
0.0050536
-0.0852656
0.00508333
-0.0853264
0.00510392
-0.0853842
-0.0854277
0.000799529
-0.0848651
-0.000544606
0.00101578
-0.0848637
0.00120844
-0.0848721
0.00138061
-0.0848853
0.00153902
-0.0849045
0.00169199
-0.0849303
0.00184671
-0.084962
0.0020073
-0.084998
0.00217428
-0.0850366
0.00234527
-0.0850764
0.00251607
-0.0851162
0.00268187
-0.0851559
0.00283831
-0.0851953
0.00298168
-0.0852347
0.00310891
-0.0852742
0.00321748
-0.0853138
0.00330542
-0.0853535
0.00337152
-0.0853925
0.00341589
-0.0854286
-0.0854557
0.000825168
-0.0850811
-0.000609138
0.00106367
-0.0851022
0.0013109
-0.0851193
0.0015629
-0.0851373
0.00181307
-0.0851547
0.00205345
-0.0851707
0.00227668
-0.0851852
0.00247764
-0.085199
0.00265397
-0.085213
0.00280574
-0.0852282
0.00293471
-0.0852452
0.00304333
-0.0852645
0.00313406
-0.085286
0.00320905
-0.0853096
0.00327001
-0.0853351
0.00331835
-0.0853622
0.00335531
-0.0853904
0.0033822
-0.0854194
0.00340106
-0.0854474
-0.0854692
0.000482695
-0.0852391
-0.000324706
0.000616875
-0.0852364
0.0007368
-0.0852393
0.000843718
-0.0852442
0.000940841
-0.0852518
0.00103254
-0.0852624
0.00112303
-0.0852757
0.00121518
-0.0852911
0.00131003
-0.0853078
0.00140692
-0.085325
0.00150398
-0.0853423
0.00159875
-0.0853592
0.00168867
-0.0853759
0.00177148
-0.0853925
0.00184527
-0.0854089
0.00190847
-0.0854254
0.00195988
-0.0854419
0.00199867
-0.0854582
0.00202481
-0.0854736
-0.0854858
0.000449482
-0.0853539
-0.000334693
0.000578706
-0.0853656
0.000713763
-0.0853743
0.00085269
-0.0853832
0.00099206
-0.0853912
0.00112749
-0.0853978
0.00125464
-0.0854029
0.00137011
-0.0854066
0.00147197
-0.0854097
0.00155972
-0.0854128
0.00163398
-0.0854165
0.00169599
-0.0854212
0.00174721
-0.0854271
0.00178899
-0.0854342
0.00182247
-0.0854424
0.00184855
-0.0854514
0.0018679
-0.0854612
0.00188116
-0.0854714
0.0018893
-0.0854817
-0.0854903
0.000239977
-0.0854341
-0.000159763
0.000304937
-0.0854305
0.000361614
-0.085431
0.000410639
-0.0854322
0.000453658
-0.0854342
0.000493079
-0.0854373
0.00053142
-0.0854412
0.00057065
-0.0854458
0.000611795
-0.0854508
0.00065489
-0.0854559
0.000699165
-0.0854608
0.000743358
-0.0854654
0.000786012
-0.0854698
0.00082571
-0.0854739
0.000861223
-0.0854779
0.000891556
-0.0854818
0.000915942
-0.0854856
0.000933864
-0.0854894
0.000945146
-0.085493
-0.0854961
0.000194808
-0.0854799
-0.000149054
0.000251026
-0.0854868
0.000312098
-0.0854921
0.000376867
-0.085497
0.00044344
-0.0855008
0.000509321
-0.0855031
0.000571907
-0.0855038
0.000629037
-0.085503
0.000679324
-0.0855011
0.000722234
-0.0854988
0.000757965
-0.0854965
0.000787198
-0.0854947
0.000810844
-0.0854934
0.000829832
-0.0854929
0.000844967
-0.085493
0.000856881
-0.0854937
0.000866025
-0.0854947
0.000872696
-0.085496
0.000877142
-0.0854975
-0.0854988
2.5965e-05
-5.83733e-06
3.92059e-05
4.71387e-05
5.01857e-05
4.93815e-05
4.62496e-05
4.24669e-05
3.9507e-05
3.83914e-05
3.95909e-05
4.3066e-05
4.83968e-05
5.49491e-05
6.20263e-05
6.89821e-05
7.52867e-05
8.05512e-05
8.45211e-05
8.70636e-05
-0.0599431
-0.00972806
0.0696712
-0.0504304
-0.00951265
-0.0410598
-0.00937067
-0.0317858
-0.009274
-0.0225774
-0.00920839
-0.0134109
-0.00916651
-0.00426633
-0.00914454
0.00487422
-0.00914055
0.0140278
-0.00915357
0.0232109
-0.00918314
0.03244
-0.00922904
0.0417311
-0.0092911
0.0511003
-0.00936921
0.0605635
-0.00946325
0.0701368
-0.00957327
0.0798367
-0.00969987
0.0896819
-0.00984518
0.0996972
-0.0100154
0.109924
-0.0102266
-0.010534
-0.0100248
-0.011183
0.0114797
-0.00838458
-0.0111528
-0.00663253
-0.0111227
-0.00481204
-0.0110945
-0.00295052
-0.0110699
-0.00106645
-0.0110506
0.000826752
-0.0110377
0.00271869
-0.0110325
0.00460071
-0.0110356
0.00646518
-0.0110476
0.00830509
-0.0110689
0.0101138
-0.0110998
0.0118848
-0.0111402
0.0136115
-0.01119
0.0152869
-0.0112487
0.0169024
-0.0113154
0.018446
-0.0113888
0.0198976
-0.011467
0.0212183
-0.0115473
-0.0116072
-0.00258453
-0.0125426
0.00394415
-0.00121037
-0.012527
0.000181277
-0.0125144
0.00159143
-0.0125046
0.00301918
-0.0124977
0.00446181
-0.0124932
0.00591502
-0.012491
0.00737324
-0.0124907
0.00882986
-0.0124922
0.0102775
-0.0124953
0.0117083
-0.0124997
0.013114
-0.0125055
0.0144865
-0.0125127
0.0158176
-0.0125212
0.0171003
-0.0125313
0.0183283
-0.0125433
0.0194973
-0.0125578
0.0206055
-0.0125752
0.0216545
-0.0125963
-0.0126318
-0.00378028
-0.0130909
0.00432851
-0.0032143
-0.013093
-0.00263328
-0.0130954
-0.00203975
-0.0130982
-0.00143603
-0.0131014
-0.000824027
-0.0131052
-0.000205326
-0.0131097
0.000418866
-0.0131149
0.00104766
-0.013121
0.00168041
-0.013128
0.00231666
-0.013136
0.00295603
-0.0131449
0.00359811
-0.0131547
0.00424233
-0.0131654
0.00488781
-0.0131768
0.00553321
-0.0131887
0.00617654
-0.0132011
0.006815
-0.0132137
0.00744491
-0.0132262
-0.0132337
0.00053102
-0.0135918
-3.00365e-05
0.00102497
-0.0135869
0.00151215
-0.0135826
0.00199276
-0.0135788
0.00246691
-0.0135755
0.0029346
-0.0135729
0.00339573
-0.0135708
0.00385011
-0.0135693
0.00429742
-0.0135683
0.00473734
-0.0135679
0.00516949
-0.0135681
0.00559354
-0.0135689
0.00600921
-0.0135704
0.00641635
-0.0135725
0.00681499
-0.0135754
0.00720536
-0.0135791
0.00758792
-0.0135837
0.00796342
-0.0135892
0.00833285
-0.0135957
-0.0136065
-0.00246623
-0.0138957
0.00277005
-0.00215528
-0.0138979
-0.00183762
-0.0139002
-0.00151367
-0.0139027
-0.00118387
-0.0139054
-0.000848642
-0.0139081
-0.000508431
-0.013911
-0.000163665
-0.013914
0.000185227
-0.0139172
0.000537805
-0.0139205
0.000893614
-0.0139239
0.00125216
-0.0139275
0.00161293
-0.0139312
0.0019753
-0.0139349
0.00233863
-0.0139388
0.00270217
-0.0139426
0.00306507
-0.0139466
0.00342639
-0.0139505
0.00378514
-0.0139544
-0.0139564
0.000422227
-0.0141493
-0.000168569
0.000671172
-0.0141468
0.000915471
-0.0141445
0.00115521
-0.0141425
0.0013905
-0.0141406
0.00162146
-0.0141391
0.00184821
-0.0141378
0.0020709
-0.0141367
0.00228968
-0.014136
0.00250472
-0.0141355
0.0027162
-0.0141354
0.00292434
-0.0141356
0.00312937
-0.0141362
0.00333157
-0.0141371
0.00353123
-0.0141384
0.00372869
-0.0141401
0.00392433
-0.0141422
0.00411857
-0.0141447
0.00431185
-0.0141477
-0.0141524
-0.00171719
-0.0143403
0.00190818
-0.00152245
-0.0143416
-0.00132411
-0.0143429
-0.00112232
-0.0143443
-0.000917264
-0.0143457
-0.000709142
-0.0143472
-0.000498172
-0.0143487
-0.000284589
-0.0143503
-6.86484e-05
-0.0143519
0.000149377
-0.0143536
0.000369194
-0.0143552
0.000590493
-0.0143569
0.000812939
-0.0143586
0.00103618
-0.0143604
0.00125984
-0.0143621
0.00148353
-0.0143638
0.00170682
-0.0143655
0.00192929
-0.0143672
0.00215048
-0.0143689
-0.0143697
0.000223127
-0.0144858
-7.76369e-05
0.000365936
-0.0144844
0.000506102
-0.014483
0.000643679
-0.0144818
0.000778739
-0.0144808
0.000911366
-0.0144798
0.00104166
-0.014479
0.00116974
-0.0144784
0.00129572
-0.0144779
0.00141974
-0.0144776
0.00154197
-0.0144775
0.00166255
-0.0144775
0.00178167
-0.0144778
0.00189952
-0.0144782
0.00201629
-0.0144788
0.00213219
-0.0144797
0.00224745
-0.0144808
0.00236228
-0.014482
0.00247692
-0.0144835
-0.0144859
-0.00118074
-0.0146094
0.00130429
-0.00105508
-0.01461
-0.000927396
-0.0146107
-0.000797761
-0.0146115
-0.00066628
-0.0146122
-0.000533065
-0.014613
-0.000398243
-0.0146138
-0.000261951
-0.0146147
-0.000124337
-0.0146155
1.44389e-05
-0.0146164
0.000154205
-0.0146172
0.000294781
-0.0146181
0.000435976
-0.014619
0.000577593
-0.0146198
0.000719423
-0.0146207
0.000861255
-0.0146215
0.00100287
-0.0146224
0.00114404
-0.0146232
0.00128454
-0.014624
-0.0146244
9.56896e-05
-0.0147006
-4.49182e-06
0.000185348
-0.0146997
0.000273494
-0.0146989
0.000360164
-0.0146981
0.000445406
-0.0146975
0.000529274
-0.0146969
0.000611833
-0.0146964
0.000693157
-0.014696
0.000773326
-0.0146957
0.000852428
-0.0146955
0.000930558
-0.0146954
0.00100782
-0.0146954
0.00108432
-0.0146955
0.00116017
-0.0146957
0.00123549
-0.014696
0.00131039
-0.0146964
0.00138501
-0.014697
0.00145948
-0.0146977
0.0015339
-0.0146984
-0.0146997
-0.000806743
-0.0147819
0.000888127
-0.000724124
-0.0147823
-0.000640315
-0.0147827
-0.000555371
-0.0147831
-0.000469353
-0.0147835
-0.00038233
-0.0147839
-0.000294377
-0.0147844
-0.000205577
-0.0147848
-0.00011602
-0.0147852
-2.57995e-05
-0.0147857
6.49829e-05
-0.0147861
0.000156222
-0.0147866
0.000247808
-0.014787
0.000339627
-0.0147875
0.000431561
-0.0147879
0.000523491
-0.0147884
0.000615295
-0.0147888
0.000706849
-0.0147892
0.000798029
-0.0147896
-0.0147898
5.73693e-05
-0.0148366
-2.67984e-06
0.000111161
-0.0148361
0.000164073
-0.0148356
0.00021613
-0.0148351
0.000267362
-0.0148347
0.000317804
-0.0148344
0.000367495
-0.014834
0.000416481
-0.0148338
0.00046481
-0.0148336
0.000512537
-0.0148334
0.000559718
-0.0148333
0.000606414
-0.0148333
0.000652689
-0.0148333
0.000698607
-0.0148334
0.000744238
-0.0148336
0.000789649
-0.0148338
0.000834913
-0.0148341
0.0008801
-0.0148344
0.000925282
-0.0148348
-0.0148355
-0.000527368
-0.0148884
0.000579157
-0.00047484
-0.0148886
-0.000421604
-0.0148888
-0.000367693
-0.0148891
-0.000313147
-0.0148893
-0.000258006
-0.0148895
-0.000202318
-0.0148897
-0.000146132
-0.01489
-8.95011e-05
-0.0148902
-3.24828e-05
-0.0148904
2.48638e-05
-0.0148907
8.24768e-05
-0.0148909
0.000140292
-0.0148911
0.000198243
-0.0148914
0.000256263
-0.0148916
0.000314282
-0.0148918
0.000372232
-0.014892
0.000430041
-0.0148922
0.000487641
-0.0148924
-0.0148925
3.14917e-05
-0.0149227
2.80268e-06
6.5248e-05
-0.0149224
9.84793e-05
-0.0149221
0.000131202
-0.0149218
0.000163435
-0.0149215
0.000195201
-0.0149213
0.000226525
-0.0149211
0.000257436
-0.0149209
0.000287962
-0.0149207
0.000318138
-0.0149206
0.000347997
-0.0149205
0.000377576
-0.0149205
0.000406913
-0.0149205
0.000436046
-0.0149205
0.000465017
-0.0149206
0.000493866
-0.0149206
0.000522634
-0.0149208
0.000551362
-0.0149209
0.000580093
-0.0149211
-0.0149215
-0.000338555
-0.0149548
0.00037067
-0.000305991
-0.0149549
-0.000272996
-0.0149551
-0.000239594
-0.0149552
-0.000205807
-0.0149553
-0.000171663
-0.0149554
-0.00013719
-0.0149555
-0.000102419
-0.0149557
-6.73826e-05
-0.0149558
-3.21143e-05
-0.0149559
3.34966e-06
-0.014956
3.89723e-05
-0.0149561
7.47153e-05
-0.0149562
0.000110539
-0.0149563
0.000146405
-0.0149564
0.000182271
-0.0149565
0.000218097
-0.0149566
0.000253841
-0.0149567
0.000289463
-0.0149568
-0.0149568
4.22792e-05
-0.0149725
-2.45767e-05
5.96535e-05
-0.0149723
7.6709e-05
-0.0149721
9.34571e-05
-0.0149719
0.000109911
-0.0149717
0.000126085
-0.0149716
0.000141996
-0.0149714
0.000157662
-0.0149713
0.000173102
-0.0149712
0.000188336
-0.0149711
0.000203387
-0.0149711
0.000218277
-0.014971
0.00023303
-0.014971
0.00024767
-0.014971
0.000262221
-0.014971
0.000276708
-0.014971
0.000291157
-0.014971
0.000305593
-0.0149711
0.000320042
-0.0149712
-0.0149714
-0.000194758
-0.0149894
0.00021167
-0.000177573
-0.0149895
-0.000160125
-0.0149896
-0.00014243
-0.0149896
-0.000124499
-0.0149897
-0.00010635
-0.0149897
-8.79978e-05
-0.0149898
-6.94611e-05
-0.0149899
-5.07584e-05
-0.0149899
-3.19093e-05
-0.01499
-1.29343e-05
-0.01499
6.14557e-06
-0.0149901
2.53087e-05
-0.0149901
4.45329e-05
-0.0149902
6.37959e-05
-0.0149902
8.30752e-05
-0.0149903
0.000102348
-0.0149903
0.000121592
-0.0149904
0.000140784
-0.0149904
-0.0149904
5.47914e-05
-0.0149959
-4.83638e-05
6.10075e-05
-0.0149957
6.70188e-05
-0.0149956
7.28334e-05
-0.0149954
7.84606e-05
-0.0149953
8.39104e-05
-0.0149952
8.91938e-05
-0.0149951
9.43227e-05
-0.014995
9.93097e-05
-0.0149949
0.000104168
-0.0149948
0.000108913
-0.0149948
0.000113557
-0.0149947
0.000118116
-0.0149947
0.000122606
-0.0149947
0.000127041
-0.0149947
0.000131438
-0.0149947
0.000135811
-0.0149947
0.000140177
-0.0149947
0.000144551
-0.0149948
-0.0149949
-8.98682e-05
9.39985e-05
-8.55848e-05
-8.11559e-05
-7.659e-05
-7.18965e-05
-6.70853e-05
-6.21668e-05
-5.71524e-05
-5.20538e-05
-4.68831e-05
-4.16532e-05
-3.63769e-05
-3.10676e-05
-2.57388e-05
-2.04041e-05
-1.50772e-05
-9.77167e-06
-4.50101e-06
7.2164e-07
-0.0735609
-0.0117879
0.0134202
0.0719286
-0.0752626
-0.0117602
0.0134618
-0.0770402
-0.011726
0.0135036
-0.078875
-0.0116944
0.0135292
-0.0807427
-0.0116652
0.0135329
-0.0826129
-0.0116378
0.013508
-0.0844482
-0.0116112
0.0134466
-0.0862039
-0.011584
0.0133396
-0.0878266
-0.0115543
0.013177
-0.089254
-0.0115197
0.0129471
-0.0904139
-0.0114771
0.0126371
-0.091223
-0.0114231
0.0122322
-0.0915857
-0.0113535
0.0117161
-0.0913925
-0.0112634
0.0110702
-0.0905177
-0.0111477
0.0102729
-0.0888161
-0.0110008
0.00929919
-0.0861171
-0.0108173
0.00811821
-0.0822153
-0.0105924
0.00669059
-0.0768546
-0.0103222
0.00496156
-0.0100065
0.00282302
-0.018062
-0.0122803
0.0185544
-0.0176134
-0.0122087
-0.0172061
-0.0121333
-0.0168441
-0.0120564
-0.0165305
-0.0119788
-0.0162671
-0.0119013
-0.0160532
-0.011825
-0.0158863
-0.0117509
-0.0157606
-0.01168
-0.015667
-0.0116133
-0.0155926
-0.0115515
-0.0155206
-0.0114951
-0.0154294
-0.0114447
-0.0152928
-0.0114
-0.0150797
-0.0113608
-0.0147542
-0.0113263
-0.014276
-0.0112954
-0.0136015
-0.0112668
-0.0126846
-0.0112392
-0.0112114
-0.0258101
-0.0129558
0.0264856
-0.0250771
-0.0129417
-0.0242823
-0.0129282
-0.0234248
-0.0129139
-0.022505
-0.0128986
-0.021524
-0.0128823
-0.0204842
-0.0128648
-0.0193891
-0.0128461
-0.018243
-0.0128261
-0.0170514
-0.0128048
-0.0158207
-0.0127822
-0.0145574
-0.0127584
-0.0132685
-0.0127336
-0.0119605
-0.012708
-0.0106394
-0.0126819
-0.00930997
-0.0126557
-0.00797536
-0.01263
-0.00663688
-0.0126053
-0.00529389
-0.0125822
-0.0125611
-0.0109372
-0.013225
0.0112064
-0.0106713
-0.0132075
-0.0104102
-0.0131893
-0.0101516
-0.0131724
-0.00989335
-0.0131569
-0.00963276
-0.0131429
-0.00936714
-0.0131304
-0.00909365
-0.0131196
-0.0088094
-0.0131104
-0.00851147
-0.0131027
-0.00819705
-0.0130966
-0.00786351
-0.013092
-0.00750851
-0.0130886
-0.00713007
-0.0130864
-0.00672673
-0.0130852
-0.00629759
-0.0130849
-0.00584241
-0.0130852
-0.00536162
-0.0130861
-0.00485639
-0.0130874
-0.013089
-0.0102966
-0.0137287
0.0108003
-0.00978259
-0.0137215
-0.00925632
-0.0137156
-0.00871925
-0.0137095
-0.00817301
-0.0137031
-0.00761932
-0.0136966
-0.00705996
-0.0136898
-0.00649677
-0.0136828
-0.00593156
-0.0136756
-0.00536607
-0.0136682
-0.00480196
-0.0136607
-0.00424075
-0.0136532
-0.00368378
-0.0136456
-0.00313217
-0.013638
-0.00258684
-0.0136306
-0.00204845
-0.0136233
-0.00151743
-0.0136162
-0.000994022
-0.0136095
-0.000478238
-0.0136032
-0.0135973
-0.00718944
-0.013919
0.00737971
-0.00699695
-0.013914
-0.00680391
-0.0139087
-0.00660955
-0.0139038
-0.0064131
-0.0138996
-0.00621377
-0.0138959
-0.00601075
-0.0138928
-0.00580327
-0.0138903
-0.00559058
-0.0138883
-0.00537199
-0.0138868
-0.00514688
-0.0138859
-0.00491469
-0.0138854
-0.00467498
-0.0138853
-0.00442738
-0.0138856
-0.00417167
-0.0138863
-0.00390769
-0.0138873
-0.00363542
-0.0138885
-0.00335493
-0.01389
-0.00306639
-0.0138917
-0.0138936
-0.00533455
-0.0142176
0.00563323
-0.00503502
-0.0142136
-0.00473346
-0.0142102
-0.00443045
-0.0142068
-0.00412663
-0.0142034
-0.00382261
-0.0141999
-0.003519
-0.0141964
-0.00321643
-0.0141929
-0.00291545
-0.0141893
-0.00261663
-0.0141856
-0.00232047
-0.014182
-0.00202742
-0.0141784
-0.00173788
-0.0141748
-0.00145221
-0.0141713
-0.00117069
-0.0141678
-0.000893542
-0.0141644
-0.000620949
-0.0141611
-0.000353027
-0.0141579
-8.98454e-05
-0.0141549
-0.014152
-0.00485289
-0.0143474
0.0049826
-0.00472107
-0.0143454
-0.00458813
-0.0143432
-0.00445379
-0.0143412
-0.00431774
-0.0143395
-0.00417968
-0.014338
-0.00403933
-0.0143368
-0.00389639
-0.0143358
-0.00375061
-0.014335
-0.00360172
-0.0143345
-0.00344952
-0.0143342
-0.00329379
-0.0143341
-0.00313439
-0.0143342
-0.00297116
-0.0143345
-0.00280402
-0.0143349
-0.00263288
-0.0143355
-0.00245771
-0.0143363
-0.00227852
-0.0143371
-0.00209532
-0.0143381
-0.0143392
-0.00310409
-0.0145257
0.00328242
-0.00292629
-0.0145232
-0.00274832
-0.0145211
-0.00257044
-0.0145191
-0.00239293
-0.014517
-0.00221603
-0.0145149
-0.00204001
-0.0145128
-0.00186512
-0.0145107
-0.00169158
-0.0145086
-0.00151963
-0.0145065
-0.00134947
-0.0145044
-0.00118128
-0.0145023
-0.00101523
-0.0145003
-0.00085147
-0.0144983
-0.000690121
-0.0144963
-0.000531286
-0.0144944
-0.000375045
-0.0144925
-0.000221456
-0.0144907
-7.05567e-05
-0.014489
-0.0144874
-0.00325982
-0.0146126
0.00334672
-0.00317139
-0.0146116
-0.003082
-0.0146105
-0.00299152
-0.0146095
-0.00289982
-0.0146087
-0.00280675
-0.014608
-0.00271219
-0.0146073
-0.00261602
-0.0146069
-0.0025181
-0.0146065
-0.00241834
-0.0146062
-0.00231665
-0.0146061
-0.00221292
-0.0146061
-0.00210709
-0.0146061
-0.0019991
-0.0146063
-0.00188891
-0.0146065
-0.00177647
-0.0146068
-0.00166179
-0.0146072
-0.00154485
-0.0146076
-0.00142568
-0.0146082
-0.0146087
-0.00198044
-0.0147251
0.00209299
-0.00186849
-0.0147236
-0.00175673
-0.0147223
-0.0016453
-0.014721
-0.00153433
-0.0147197
-0.00142394
-0.0147183
-0.00131425
-0.014717
-0.00120539
-0.0147157
-0.00109746
-0.0147144
-0.000990569
-0.0147131
-0.000884818
-0.0147118
-0.000780292
-0.0147106
-0.000677071
-0.0147093
-0.000575224
-0.0147081
-0.000474808
-0.0147069
-0.000375873
-0.0147057
-0.000278454
-0.0147046
-0.000182579
-0.0147035
-8.82624e-05
-0.0147025
-0.0147015
-0.00219578
-0.0147834
0.00225404
-0.00213644
-0.0147829
-0.00207637
-0.0147823
-0.00201549
-0.0147818
-0.00195373
-0.0147814
-0.00189104
-0.014781
-0.00182734
-0.0147807
-0.00176258
-0.0147805
-0.0016967
-0.0147803
-0.00162965
-0.0147802
-0.00156138
-0.0147801
-0.00149186
-0.0147801
-0.00142105
-0.0147801
-0.00134892
-0.0147802
-0.00127547
-0.0147804
-0.00120067
-0.0147805
-0.00112453
-0.0147808
-0.00104704
-0.014781
-0.000968237
-0.0147813
-0.0147816
-0.00118922
-0.0148516
0.00125739
-0.00112153
-0.0148506
-0.00105404
-0.0148498
-0.000986851
-0.014849
-0.000920016
-0.0148482
-0.000853604
-0.0148474
-0.000787682
-0.0148467
-0.000722311
-0.0148459
-0.000657549
-0.0148451
-0.000593451
-0.0148443
-0.000530065
-0.0148435
-0.000467437
-0.0148427
-0.000405608
-0.014842
-0.00034461
-0.0148412
-0.000284475
-0.0148405
-0.000225224
-0.0148398
-0.000166874
-0.0148391
-0.000109438
-0.0148384
-5.29205e-05
-0.0148378
-0.0148372
-0.00141575
-0.0148887
0.00145288
-0.00137788
-0.0148885
-0.00133949
-0.0148882
-0.00130054
-0.014888
-0.00126099
-0.0148878
-0.00122081
-0.0148876
-0.00117997
-0.0148875
-0.00113844
-0.0148874
-0.00109618
-0.0148873
-0.00105318
-0.0148873
-0.0010094
-0.0148873
-0.000964842
-0.0148873
-0.00091948
-0.0148873
-0.000873306
-0.0148874
-0.000826314
-0.0148875
-0.0007785
-0.0148876
-0.000729869
-0.0148877
-0.000680426
-0.0148879
-0.000630184
-0.014888
-0.0148882
-0.000749535
-0.0149317
0.000792511
-0.000706904
-0.0149311
-0.000664463
-0.0149307
-0.000622248
-0.0149302
-0.0005803
-0.0149297
-0.000538654
-0.0149293
-0.000497346
-0.0149288
-0.00045641
-0.0149283
-0.000415877
-0.0149279
-0.000375776
-0.0149274
-0.000336132
-0.0149269
-0.000296971
-0.0149265
-0.000258311
-0.014926
-0.000220171
-0.0149255
-0.000182565
-0.0149251
-0.000145503
-0.0149247
-0.000108994
-0.0149242
-7.30411e-05
-0.0149238
-3.76449e-05
-0.0149234
-0.0149231
-0.000888173
-0.0149544
0.000910858
-0.000864981
-0.0149543
-0.000841423
-0.0149542
-0.000817478
-0.0149541
-0.000793128
-0.0149541
-0.000768353
-0.014954
-0.000743136
-0.014954
-0.000717463
-0.014954
-0.000691317
-0.014954
-0.000664689
-0.014954
-0.000637566
-0.014954
-0.000609942
-0.0149541
-0.000581809
-0.0149541
-0.000553165
-0.0149542
-0.000524009
-0.0149543
-0.000494341
-0.0149543
-0.000464165
-0.0149544
-0.000433488
-0.0149545
-0.000402319
-0.0149546
-0.0149547
-0.000372431
-0.0149778
0.000395864
-0.000349254
-0.0149775
-0.000326233
-0.0149772
-0.000303389
-0.014977
-0.000280743
-0.0149767
-0.000258316
-0.0149765
-0.000236127
-0.0149762
-0.000214195
-0.0149759
-0.000192536
-0.0149757
-0.000171165
-0.0149754
-0.000150096
-0.0149751
-0.000129341
-0.0149748
-0.00010891
-0.0149746
-8.88113e-05
-0.0149743
-6.90516e-05
-0.014974
-4.96353e-05
-0.0149738
-3.05649e-05
-0.0149735
-1.18407e-05
-0.0149732
6.53862e-06
-0.014973
-0.0149728
-0.000476258
-0.0149889
0.00048736
-0.000464835
-0.0149889
-0.000453183
-0.0149889
-0.000441289
-0.0149889
-0.000429142
-0.0149889
-0.00041673
-0.0149889
-0.000404044
-0.0149889
-0.000391074
-0.0149889
-0.000377813
-0.0149889
-0.000364253
-0.0149889
-0.00035039
-0.014989
-0.000336217
-0.014989
-0.000321733
-0.014989
-0.000306936
-0.0149891
-0.000291826
-0.0149891
-0.000276404
-0.0149892
-0.000260672
-0.0149892
-0.000244635
-0.0149893
-0.000228298
-0.0149893
-0.0149894
-0.000114776
-0.0149993
0.000125216
-0.00010453
-0.0149992
-9.44154e-05
-0.014999
-8.44443e-05
-0.0149989
-7.46289e-05
-0.0149987
-6.49806e-05
-0.0149985
-5.55099e-05
-0.0149984
-4.62268e-05
-0.0149982
-3.71401e-05
-0.014998
-2.82576e-05
-0.0149978
-1.95863e-05
-0.0149976
-1.1132e-05
-0.0149975
-2.89944e-06
-0.0149973
5.10774e-06
-0.0149971
1.28871e-05
-0.0149969
2.04374e-05
-0.0149967
2.77585e-05
-0.0149965
3.48515e-05
-0.0149964
4.17188e-05
-0.0149962
-0.014996
-0.000139133
0.000139808
-0.000138288
-0.000137296
-0.000136152
-0.000134849
-0.00013338
-0.000131742
-0.000129929
-0.000127938
-0.000125766
-0.00012341
-0.00012087
-0.000118144
-0.000115234
-0.000112139
-0.000108862
-0.000105405
-0.000101773
-9.79688e-05
-0.0104437
-0.00353093
0.0139746
-0.00789637
-0.00254733
-0.0059908
-0.00190556
-0.00453108
-0.00145972
-0.00339697
-0.00113411
-0.00250902
-0.000887951
-0.00181216
-0.000696855
-0.00126687
-0.000545289
-0.000843871
-0.000423003
-0.000520836
-0.000323035
-0.000280302
-0.000240534
-0.000108241
-0.000172061
6.94473e-06
-0.000115185
7.51985e-05
-6.82538e-05
0.000105489
-3.02901e-05
0.000107284
-1.79533e-06
8.59903e-05
2.12937e-05
5.2654e-05
3.33363e-05
1.8894e-05
3.376e-05
1.8894e-05
-0.0131018
-0.00523106
0.014802
-0.0113179
-0.00433129
-0.0096077
-0.00361575
-0.00803834
-0.00302908
-0.0066334
-0.00253905
-0.00539707
-0.00212428
-0.0043242
-0.00176973
-0.00340513
-0.00146435
-0.00262822
-0.00119992
-0.00198101
-0.000970238
-0.00145099
-0.000770558
-0.0010258
-0.000597254
-0.000693401
-0.000447579
-0.000442115
-0.00031954
-0.000260562
-0.000211843
-0.000138497
-0.00012386
-6.16285e-05
-5.55749e-05
-2.03363e-05
-7.9559e-06
-3.25064e-06
1.66744e-05
1.56433e-05
-0.0119854
-0.00631194
0.0130662
-0.0107602
-0.00555649
-0.00949563
-0.00488028
-0.0082528
-0.00427191
-0.00706974
-0.00372211
-0.00596961
-0.00322441
-0.00496572
-0.00277363
-0.0040646
-0.00236547
-0.00326817
-0.00199635
-0.0025751
-0.00166331
-0.00198173
-0.00136392
-0.00148279
-0.0010962
-0.00107176
-0.000858605
-0.000741312
-0.00064999
-0.000483534
-0.000469621
-0.000290201
-0.000317193
-0.000152885
-0.000192891
-6.34336e-05
-9.74068e-05
-1.47196e-05
-3.20396e-05
9.23694e-07
-0.0105568
-0.00714903
0.0113939
-0.0096325
-0.00648082
-0.00866484
-0.00584794
-0.00768874
-0.00524801
-0.0067308
-0.00468005
-0.00581126
-0.00414395
-0.00494511
-0.00363977
-0.00414301
-0.00316757
-0.00341198
-0.00272737
-0.00275611
-0.00231918
-0.00217705
-0.00194299
-0.00167447
-0.00159878
-0.00124646
-0.00128661
-0.000889886
-0.00100656
-0.000600683
-0.000758825
-0.000374172
-0.000543703
-0.000205406
-0.000361657
-8.94954e-05
-0.000213318
-2.20323e-05
-9.95027e-05
-2.11086e-05
-0.00962568
-0.00789337
0.01037
-0.00882645
-0.00728005
-0.00799719
-0.00667721
-0.00715873
-0.00608646
-0.00632881
-0.00550997
-0.00552238
-0.00495038
-0.0047518
-0.00441035
-0.00402696
-0.00389242
-0.00335541
-0.00339892
-0.00274262
-0.00293197
-0.00219217
-0.00249343
-0.00170597
-0.00208498
-0.00128451
-0.00170808
-0.000927065
-0.00136401
-0.000631988
-0.0010539
-0.000396922
-0.000778769
-0.000219078
-0.000539502
-9.54917e-05
-0.000336903
-2.33167e-05
-0.000171678
-4.44253e-05
-0.00909288
-0.00858948
0.00978898