x,y,z,U_0,U_1,U_2
0,0,0,0.3,-0.000178469,0
0,0.1,0,0.3,-0.000127478,0
0,0.2,0,0.3,-7.64868e-05,0
0,0.3,0,0.3,-2.54956e-05,0
0,0.4,0,0.3,0,0
0,0.5,0,0.3,0,0
0,0.6,0,0.3,0,0
0,0.7,0,0.3,-8.17885e-20,0
0,0.8,0,0.3,0,0
0,0.9,0,0.3,0,0
0,1,0,0.3,0,0
0,1.1,0,0.3,0,0
0,1.2,0,0.3,0,0
0,1.3,0,0.3,0,0
0,1.4,0,0.3,0,0
0,1.5,0,0.3,0,0
0,1.6,0,0.3,0,0
0,1.7,0,0.3,0,0
0,1.8,0,0.3,0,0
0,1.9,0,0.3,0,0
0,2,0,0.3,0,0
0,2.1,0,0.3,0,0
0,2.2,0,0.3,0,0
0,2.3,0,0.3,0,0
0,2.4,0,0.3,0,0
0,2.5,0,0.3,0,0
0,2.6,0,0.3,0,0
0,2.7,0,0.3,0,0
0,2.8,0,0.3,-6.88805e-20,0
0,2.9,0,0.3,0,0
0,3,0,0.3,0,0
0,3.1,0,0.3,0,0
0,3.2,0,0.3,0,0
0,3.3,0,0.3,0,0
0,3.4,0,0.3,0,0
0,3.5,0,0.3,0,0
0,3.6,0,0.3,0,0
0,3.7,0,0.3,0,0
0,3.8,0,0.3,0,0
0,3.9,0,0.3,0,0
0,4,0,0.3,0,0
0,4.1,0,0.3,0,0
0,4.2,0,0.3,0,0
0,4.3,0,0.3,0,0
0,4.4,0,0.3,0,0
0,4.5,0,0.3,0,0
0,4.6,0,0.3,0,0
0,4.7,0,0.3,0,0
0,4.8,0,0.3,0,0
0,4.9,0,0.3,-3.94241e-20,0
0,5,0,0.3,0,0
0,5.1,0,0.3,0,0
0,5.2,0,0.3,0,0
0,5.3,0,0.3,0,0
0,5.4,0,0.3,0,0
0,5.5,0,0.3,0,0
0,5.6,0,0.3,0,0
0,5.7,0,0.3,0,0
0,5.8,0,0.3,0,0
0,5.9,0,0.3,0,0
0,6,0,0.3,0,0
0,6.1,0,0.3,0,0
0,6.2,0,0.3,0,0
0,6.3,0,0.3,-8.54337e-21,0
0,6.4,0,0.3,0,0
0,6.5,0,0.3,0,0
0,6.6,0,0.3,0,0
0,6.7,0,0.3,0,0
0,6.8,0,0.3,0,0
0,6.9,0,0.3,0,0
0,7,0,0.3,0,0
0,7.1,0,0.3,0,0
0,7.2,0,0.3,0,0
0,7.3,0,0.3,0,0
0,7.4,0,0.3,0,0
0,7.5,0,0.3,0,0
0,7.6,0,0.3,0,0
0,7.7,0,0.3,2.46693e-20,0
0,7.8,0,0.3,0,0
0,7.9,0,0.3,0,0
0,8,0,0.3,0,0
0,8.1,0,0.3,0,0
0,8.2,0,0.3,0,0
0,8.3,0,0.3,0,0
0,8.4,0,0.3,0,0
0,8.5,0,0.3,0,0
0,8.6,0,0.3,0,0
0,8.7,0,0.3,0,0
0,8.8,0,0.3,0,0
0,8.9,0,0.3,0,0
0,9,0,0.3,0,0
0,9.1,0,0.3,0,0
0,9.2,0,0.3,0,0
0,9.3,0,0.3,0,0
0,9.4,0,0.3,0,0
0,9.5,0,0.3,0,0
0,9.6,0,0.3,0,0
0,9.7,0,0.3,0,0
0,9.8,0,0.3,0,0
0,9.9,0,0.3,0,0
0,10,0,0.3,0,0
0,10.1,0,0.3,0,0
0,10.2,0,0.3,0,0
0,10.3,0,0.3,0,0
0,10.4,0,0.3,0,0
0,10.5,0,0.3,0,0
0,10.6,0,0.3,0,0
0,10.7,0,0.3,0,0
0,10.8,0,0.3,0,0
0,10.9,0,0.3,0,0
0,11,0,0.3,0,0
0,11.1,0,0.3,0,0
0,11.2,0,0.3,0,0
0,11.3,0,0.3,0,0
0,11.4,0,0.3,0,0
0,11.5,0,0.3,0,0
0,11.6,0,0.3,0,0
0,11.7,0,0.3,0,0
0,11.8,0,0.3,0,0
0,11.9,0,0.3,0,0
0,12,0,0.3,0,0
0,12.1,0,0.3,0,0
0,12.2,0,0.3,0,0
0,12.3,0,0.3,0,0
0,12.4,0,0.3,0,0
0,12.5,0,0.3,2.90049e-05,0
0,12.6,0,0.299999,0.000111876,0
0,12.7,0,0.299999,0.000194747,0
0.1,0,0,0.3,-0.000281353,0
0.1,0.1,0,0.3,-0.000229835,0
0.1,0.2,0,0.3,-0.000178844,0
0.1,0.3,0,0.3,-0.000134844,0
0.1,0.4,0,0.3,-0.000134264,0
0.1,0.5,0,0.3,-0.000134068,0
0.1,0.6,0,0.3,-0.000134068,0
0.1,0.7,0,0.299999,-0.000133943,0
0.1,0.8,0,0.3,-0.000132572,0
0.1,0.9,0,0.3,-0.000132572,0
0.1,1,0,0.299999,-0.000132494,0
0.1,1.1,0,0.299999,-0.0001307,0
0.1,1.2,0,0.3,-0.000130289,0
0.1,1.3,0,0.3,-0.000130289,0
0.1,1.4,0,0.299998,-0.000129771,0
0.1,1.5,0,0.3,-0.000127174,0
0.1,1.6,0,0.3,-0.000127174,0
0.1,1.7,0,0.299999,-0.000127056,0
0.1,1.8,0,0.299999,-0.000123904,0
0.1,1.9,0,0.3,-0.000123163,0
0.1,2,0,0.3,-0.000123163,0
0.1,2.1,0,0.299996,-0.000122752,0
0.1,2.2,0,0.299999,-0.000118179,0
0.1,2.3,0,0.299999,-0.000118179,0
0.1,2.4,0,0.299998,-0.000118172,0
0.1,2.5,0,0.299998,-0.000113434,0
0.1,2.6,0,0.299999,-0.000112148,0
0.1,2.7,0,0.299999,-0.000112148,0
0.1,2.8,0,0.299995,-0.000112804,0
0.1,2.9,0,0.299999,-0.000105018,0
0.1,3,0,0.299999,-0.000105018,0
0.1,3.1,0,0.299998,-0.000105382,0
0.1,3.2,0,0.299997,-9.89124e-05,0
0.1,3.3,0,0.299998,-9.67844e-05,0
0.1,3.4,0,0.299998,-9.67844e-05,0
0.1,3.5,0,0.299993,-9.98776e-05,0
0.1,3.6,0,0.299998,-8.75298e-05,0
0.1,3.7,0,0.299998,-8.75298e-05,0
0.1,3.8,0,0.299997,-8.85476e-05,0
0.1,3.9,0,0.299996,-8.06388e-05,0
0.1,4,0,0.299997,-7.7464e-05,0
0.1,4.1,0,0.299997,-7.7464e-05,0
0.1,4.2,0,0.299992,-8.38962e-05,0
0.1,4.3,0,0.299997,-6.6952e-05,0
0.1,4.4,0,0.299997,-6.6952e-05,0
0.1,4.5,0,0.299996,-6.86083e-05,0
0.1,4.6,0,0.299997,-6.04035e-05,0
0.1,4.7,0,0.299998,-5.65095e-05,0
0.1,4.8,0,0.299998,-5.65095e-05,0
0.1,4.9,0,0.299992,-6.45638e-05,0
0.1,5,0,0.3,-4.67251e-05,0
0.1,5.1,0,0.3,-4.67251e-05,0
0.1,5.2,0,0.299998,-4.81672e-05,0
0.1,5.3,0,0.300002,-4.13683e-05,0
0.1,5.4,0,0.300005,-3.8072e-05,0
0.1,5.5,0,0.300005,-3.8072e-05,0
0.1,5.6,0,0.299991,-4.12909e-05,0
0.1,5.7,0,0.300015,-3.06426e-05,0
0.1,5.8,0,0.300015,-3.06426e-05,0
0.1,5.9,0,0.300009,-3.00989e-05,0
0.1,6,0,0.30002,-2.48197e-05,0
0.1,6.1,0,0.300028,-2.39236e-05,0
0.1,6.2,0,0.300028,-2.39236e-05,0
0.1,6.3,0,0.299988,-1.39913e-05,0
0.1,6.4,0,0.300044,-1.6567e-05,0
0.1,6.5,0,0.300044,-1.6567e-05,0
0.1,6.6,0,0.300032,-1.28056e-05,0
0.1,6.7,0,0.300045,-6.90303e-06,0
0.1,6.8,0,0.300061,-9.05458e-06,0
0.1,6.9,0,0.300061,-9.05458e-06,0
0.1,7,0,0.299983,1.31127e-05,0
0.1,7.1,0,0.299982,1.91607e-05,0
0.1,7.2,0,0.299982,2.27164e-05,0
0.1,7.3,0,0.299982,2.62413e-05,0
0.1,7.4,0,0.299981,2.97806e-05,0
0.1,7.5,0,0.299981,3.33254e-05,0
0.1,7.6,0,0.299981,3.68673e-05,0
0.1,7.7,0,0.299982,4.04002e-05,0
0.1,7.8,0,0.299982,4.39182e-05,0
0.1,7.9,0,0.299982,4.7445e-05,0
0.1,8,0,0.299983,5.22918e-05,0
0.1,8.1,0,0.300066,6.56698e-05,0
0.1,8.2,0,0.300051,6.46692e-05,0
0.1,8.3,0,0.300055,7.40796e-05,0
0.1,8.4,0,0.300055,7.40796e-05,0
0.1,8.5,0,0.300026,7.77334e-05,0
0.1,8.6,0,0.300043,8.12171e-05,0
0.1,8.7,0,0.299995,7.90071e-05,0
0.1,8.8,0,0.300031,8.72658e-05,0
0.1,8.9,0,0.300029,8.72876e-05,0
0.1,9,0,0.30002,9.23367e-05,0
0.1,9.1,0,0.30002,9.23367e-05,0
0.1,9.2,0,0.300003,9.65139e-05,0
0.1,9.3,0,0.300011,9.67702e-05,0
0.1,9.4,0,0.299997,0.000102522,0
0.1,9.5,0,0.300004,0.000100922,0
0.1,9.6,0,0.300004,0.000100922,0
0.1,9.7,0,0.299999,0.000105078,0
0.1,9.8,0,0.299999,0.000105078,0
0.1,9.9,0,0.299995,0.000114518,0
0.1,10,0,0.299996,0.000109418,0
0.1,10.1,0,0.299995,0.000119867,0
0.1,10.2,0,0.299995,0.000114008,0
0.1,10.3,0,0.299995,0.000114008,0
0.1,10.4,0,0.299995,0.000118808,0
0.1,10.5,0,0.299995,0.000118808,0
0.1,10.6,0,0.299994,0.000132191,0
0.1,10.7,0,0.299995,0.000123708,0
0.1,10.8,0,0.299995,0.00013319,0
0.1,10.9,0,0.299995,0.000128559,0
0.1,11,0,0.299995,0.000128559,0
0.1,11.1,0,0.299996,0.000133201,0
0.1,11.2,0,0.299996,0.000133201,0
0.1,11.3,0,0.299996,0.000146556,0
0.1,11.4,0,0.299996,0.000137482,0
0.1,11.5,0,0.299996,0.000143665,0
0.1,11.6,0,0.299997,0.000141268,0
0.1,11.7,0,0.299997,0.000141268,0
0.1,11.8,0,0.299997,0.000145111,0
0.1,11.9,0,0.299997,0.000144445,0
0.1,12,0,0.299998,0.000155674,0
0.1,12.1,0,0.299998,0.000146918,0
0.1,12.2,0,0.299998,0.000150289,0
0.1,12.3,0,0.299999,0.000148611,0
0.1,12.4,0,0.299999,0.000148611,0
0.1,12.5,0,0.299999,0.000151228,0
0.1,12.6,0,0.299999,0.000225963,0
0.1,12.7,0,0.299999,0.000318701,0
0.2,0,0,0.299999,-0.000384236,0
0.2,0.1,0,0.3,-0.000332417,0
0.2,0.2,0,0.3,-0.000281201,0
0.2,0.3,0,0.299999,-0.000269828,0
0.2,0.4,0,0.299999,-0.000269248,0
0.2,0.5,0,0.3,-0.000268135,0
0.2,0.6,0,0.299999,-0.000268082,0
0.2,0.7,0,0.299998,-0.000267885,0
0.2,0.8,0,0.299999,-0.000265732,0
0.2,0.9,0,0.299999,-0.000265145,0
0.2,1,0,0.299998,-0.000264702,0
0.2,1.1,0,0.299998,-0.000262908,0
0.2,1.2,0,0.299999,-0.000260577,0
0.2,1.3,0,0.299998,-0.000260356,0
0.2,1.4,0,0.299995,-0.000259542,0
0.2,1.5,0,0.299998,-0.000255461,0
0.2,1.6,0,0.299999,-0.000254348,0
0.2,1.7,0,0.299996,-0.000253679,0
0.2,1.8,0,0.299996,-0.000250527,0
0.2,1.9,0,0.299999,-0.000246325,0
0.2,2,0,0.299998,-0.000246149,0
0.2,2.1,0,0.299993,-0.000245504,0
0.2,2.2,0,0.299997,-0.000238318,0
0.2,2.3,0,0.299999,-0.000236358,0
0.2,2.4,0,0.299994,-0.00023632,0
0.2,2.5,0,0.299994,-0.000231582,0
0.2,2.6,0,0.299998,-0.000224297,0
0.2,2.7,0,0.299996,-0.000224578,0
0.2,2.8,0,0.29999,-0.000225607,0
0.2,2.9,0,0.299995,-0.000213373,0
0.2,3,0,0.299997,-0.000210036,0
0.2,3.1,0,0.299992,-0.000212097,0
0.2,3.2,0,0.299991,-0.000205628,0
0.2,3.3,0,0.299996,-0.000193569,0
0.2,3.4,0,0.299994,-0.000194894,0
0.2,3.5,0,0.299987,-0.000199755,0
0.2,3.6,0,0.299994,-0.000180352,0
0.2,3.7,0,0.299996,-0.00017506,0
0.2,3.8,0,0.29999,-0.000180827,0
0.2,3.9,0,0.299989,-0.000172918,0
0.2,4,0,0.299995,-0.000154928,0
0.2,4.1,0,0.299993,-0.000157685,0
0.2,4.2,0,0.299984,-0.000167792,0
0.2,4.3,0,0.299993,-0.000141166,0
0.2,4.4,0,0.299995,-0.000133904,0
0.2,4.5,0,0.299988,-0.00014329,0
0.2,4.6,0,0.299989,-0.000135085,0
0.2,4.7,0,0.299996,-0.000113019,0
0.2,4.8,0,0.299994,-0.000116471,0
0.2,4.9,0,0.299983,-0.000129128,0
0.2,5,0,0.299997,-0.000101095,0
0.2,5.1,0,0.300001,-9.34502e-05,0
0.2,5.2,0,0.29999,-0.000101622,0
0.2,5.3,0,0.299994,-9.48233e-05,0
0.2,5.4,0,0.300011,-7.6144e-05,0
0.2,5.5,0,0.300005,-7.75235e-05,0
0.2,5.6,0,0.299981,-8.25818e-05,0
0.2,5.7,0,0.300019,-6.58487e-05,0
0.2,5.8,0,0.300029,-6.12852e-05,0
0.2,5.9,0,0.299999,-5.82045e-05,0
0.2,6,0,0.300009,-5.29253e-05,0
0.2,6.1,0,0.300056,-4.78472e-05,0
0.2,6.2,0,0.300039,-4.35905e-05,0
0.2,6.3,0,0.299975,-2.79825e-05,0
0.2,6.4,0,0.300064,-3.20301e-05,0
0.2,6.5,0,0.300089,-3.3134e-05,0
0.2,6.6,0,0.300017,-1.18196e-05,0
0.2,6.7,0,0.30003,-5.91701e-06,0
0.2,6.8,0,0.300121,-1.81092e-05,0
0.2,6.9,0,0.300088,-8.60891e-06,0
0.2,7,0,0.299967,2.62254e-05,0
0.2,7.1,0,0.299965,3.83214e-05,0
0.2,7.2,0,0.299964,4.54328e-05,0
0.2,7.3,0,0.299963,5.24825e-05,0
0.2,7.4,0,0.299963,5.95612e-05,0
0.2,7.5,0,0.299963,6.66509e-05,0
0.2,7.6,0,0.299963,7.37346e-05,0
0.2,7.7,0,0.299963,8.08005e-05,0
0.2,7.8,0,0.299964,8.78365e-05,0
0.2,7.9,0,0.299965,9.489e-05,0
0.2,8,0,0.299966,0.000104584,0
0.2,8.1,0,0.300132,0.00013134,0
0.2,8.2,0,0.300036,0.000124806,0
0.2,8.3,0,0.300077,0.000141485,0
0.2,8.4,0,0.300086,0.000146511,0
0.2,8.5,0,0.300013,0.000147255,0
0.2,8.6,0,0.300087,0.000162434,0
0.2,8.7,0,0.299983,0.000157721,0
0.2,8.8,0,0.300063,0.000174532,0
0.2,8.9,0,0.300018,0.000174895,0
0.2,9,0,0.300022,0.000181856,0
0.2,9.1,0,0.300033,0.000185607,0
0.2,9.2,0,0.299994,0.000192666,0
0.2,9.3,0,0.300022,0.00019354,0
0.2,9.4,0,0.299989,0.000206802,0
0.2,9.5,0,0.300008,0.000201844,0
0.2,9.6,0,0.299998,0.000212253,0
0.2,9.7,0,0.299994,0.000215029,0
0.2,9.8,0,0.299998,0.000211934,0
0.2,9.9,0,0.299988,0.000233524,0
0.2,10,0,0.299993,0.000218836,0
0.2,10.1,0,0.299988,0.000245387,0
0.2,10.2,0,0.29999,0.000228138,0
0.2,10.3,0,0.299989,0.000242484,0
0.2,10.4,0,0.299989,0.000248101,0
0.2,10.5,0,0.299989,0.000237806,0
0.2,10.6,0,0.299989,0.000268971,0
0.2,10.7,0,0.299989,0.000247415,0
0.2,10.8,0,0.299989,0.000274723,0
0.2,10.9,0,0.29999,0.000258773,0
0.2,11,0,0.29999,0.000269345,0
0.2,11.1,0,0.299991,0.000278249,0
0.2,11.2,0,0.299991,0.000266402,0
0.2,11.3,0,0.299991,0.000295884,0
0.2,11.4,0,0.299993,0.000274964,0
0.2,11.5,0,0.299993,0.000296048,0
0.2,11.6,0,0.299994,0.000285255,0
0.2,11.7,0,0.299994,0.000290647,0
0.2,11.8,0,0.299994,0.000299995,0
0.2,11.9,0,0.299995,0.000288889,0
0.2,12,0,0.299995,0.000312508,0
0.2,12.1,0,0.299996,0.000293836,0
0.2,12.2,0,0.299997,0.000308522,0
0.2,12.3,0,0.299998,0.000300702,0
0.2,12.4,0,0.299998,0.000302233,0
0.2,12.5,0,0.299998,0.000310307,0
0.2,12.6,0,0.299998,0.000340049,0
0.2,12.7,0,0.299998,0.000442656,0
0.3,0,0,0.299999,-0.000487119,0
0.3,0.1,0,0.3,-0.000435301,0
0.3,0.2,0,0.3,-0.000404532,0
0.3,0.3,0,0.299999,-0.000404811,0
0.3,0.4,0,0.299999,-0.000404231,0
0.3,0.5,0,0.3,-0.000402792,0
0.3,0.6,0,0.299998,-0.000402024,0
0.3,0.7,0,0.299996,-0.000401828,0
0.3,0.8,0,0.299998,-0.000399675,0
0.3,0.9,0,0.299998,-0.000397483,0
0.3,1,0,0.299996,-0.00039691,0
0.3,1.1,0,0.299996,-0.000395116,0
0.3,1.2,0,0.299998,-0.0003921,0
0.3,1.3,0,0.299996,-0.000390127,0
0.3,1.4,0,0.299993,-0.000389313,0
0.3,1.5,0,0.299996,-0.000385232,0
0.3,1.6,0,0.299997,-0.000381167,0
0.3,1.7,0,0.299993,-0.000380302,0
0.3,1.8,0,0.299993,-0.00037715,0
0.3,1.9,0,0.299997,-0.000371712,0
0.3,2,0,0.299994,-0.000368901,0
0.3,2.1,0,0.299989,-0.000368257,0
0.3,2.2,0,0.299994,-0.00036107,0
0.3,2.3,0,0.299995,-0.000354517,0
0.3,2.4,0,0.29999,-0.000354468,0
0.3,2.5,0,0.299989,-0.00034973,0
0.3,2.6,0,0.299995,-0.000340302,0
0.3,2.7,0,0.299991,-0.000337381,0
0.3,2.8,0,0.299984,-0.000338411,0
0.3,2.9,0,0.29999,-0.000326177,0
0.3,3,0,0.299993,-0.000316146,0
0.3,3.1,0,0.299986,-0.000318812,0
0.3,3.2,0,0.299985,-0.000312343,0
0.3,3.3,0,0.299992,-0.000296737,0
0.3,3.4,0,0.299988,-0.000294772,0
0.3,3.5,0,0.29998,-0.000299633,0
0.3,3.6,0,0.299987,-0.000280229,0
0.3,3.7,0,0.29999,-0.000265643,0
0.3,3.8,0,0.299982,-0.000273107,0
0.3,3.9,0,0.299982,-0.000265198,0
0.3,4,0,0.299989,-0.000241916,0
0.3,4.1,0,0.299985,-0.000241581,0
0.3,4.2,0,0.299977,-0.000251689,0
0.3,4.3,0,0.299985,-0.000225062,0
0.3,4.4,0,0.299989,-0.000205825,0
0.3,4.5,0,0.29998,-0.000217971,0
0.3,4.6,0,0.299981,-0.000209766,0
0.3,4.7,0,0.29999,-0.00018121,0
0.3,4.8,0,0.299985,-0.000181035,0
0.3,4.9,0,0.299975,-0.000193691,0
0.3,5,0,0.299989,-0.000165659,0
0.3,5.1,0,0.299995,-0.000144502,0
0.3,5.2,0,0.299981,-0.000155077,0
0.3,5.3,0,0.299985,-0.000148278,0
0.3,5.4,0,0.300007,-0.000124105,0
0.3,5.5,0,0.299995,-0.000118814,0
0.3,5.6,0,0.299972,-0.000123873,0
0.3,5.7,0,0.30001,-0.00010714,0
0.3,5.8,0,0.300028,-9.02968e-05,0
0.3,5.9,0,0.299988,-8.631e-05,0
0.3,6,0,0.299999,-8.10308e-05,0
0.3,6.1,0,0.300059,-7.44592e-05,0
0.3,6.2,0,0.300026,-5.75817e-05,0
0.3,6.3,0,0.299963,-4.19737e-05,0
0.3,6.4,0,0.300052,-4.60213e-05,0
0.3,6.5,0,0.300095,-3.84169e-05,0
0.3,6.6,0,0.300002,-1.08336e-05,0
0.3,6.7,0,0.300015,-4.931e-06,0
0.3,6.8,0,0.300134,-2.07091e-05,0
0.3,6.9,0,0.300072,4.50378e-06,0
0.3,7,0,0.29995,3.93381e-05,0
0.3,7.1,0,0.299947,5.7482e-05,0
0.3,7.2,0,0.299946,6.81492e-05,0
0.3,7.3,0,0.299945,7.87238e-05,0
0.3,7.4,0,0.299944,8.93418e-05,0
0.3,7.5,0,0.299944,9.99764e-05,0
0.3,7.6,0,0.299944,0.000110602,0
0.3,7.7,0,0.299945,0.000121201,0
0.3,7.8,0,0.299946,0.000131755,0
0.3,7.9,0,0.299947,0.000142335,0
0.3,8,0,0.299949,0.000156875,0
0.3,8.1,0,0.300143,0.000188186,0
0.3,8.2,0,0.30002,0.000184943,0
0.3,8.3,0,0.300061,0.000201622,0
0.3,8.4,0,0.300072,0.000216033,0
0.3,8.5,0,0.299999,0.000216777,0
0.3,8.6,0,0.3001,0.000242293,0
0.3,8.7,0,0.299971,0.000236435,0
0.3,8.8,0,0.30006,0.000255156,0
0.3,8.9,0,0.300008,0.000262502,0
0.3,9,0,0.300012,0.000269463,0
0.3,9.1,0,0.300024,0.00028176,0
0.3,9.2,0,0.299985,0.000288819,0
0.3,9.3,0,0.300023,0.00029346,0
0.3,9.4,0,0.299981,0.000311082,0
0.3,9.5,0,0.300002,0.000305767,0
0.3,9.6,0,0.299991,0.000324169,0
0.3,9.7,0,0.299987,0.000326945,0
0.3,9.8,0,0.299991,0.00033094,0
0.3,9.9,0,0.299982,0.000352531,0
0.3,10,0,0.299988,0.000335058,0
0.3,10.1,0,0.299982,0.000370907,0
0.3,10.2,0,0.299984,0.000353658,0
0.3,10.3,0,0.299983,0.000373929,0
0.3,10.4,0,0.299983,0.000379546,0
0.3,10.5,0,0.299983,0.000374587,0
0.3,10.6,0,0.299983,0.000405752,0
0.3,10.7,0,0.299984,0.000378569,0
0.3,10.8,0,0.299984,0.000416257,0
0.3,10.9,0,0.299984,0.000400307,0
0.3,11,0,0.299985,0.000415058,0
0.3,11.1,0,0.299986,0.000423963,0
0.3,11.2,0,0.299987,0.000414015,0
0.3,11.3,0,0.299987,0.000445212,0
0.3,11.4,0,0.299989,0.000418597,0
0.3,11.5,0,0.299989,0.000448431,0
0.3,11.6,0,0.29999,0.000437638,0
0.3,11.7,0,0.299991,0.000445531,0
0.3,11.8,0,0.299991,0.000454879,0
0.3,11.9,0,0.299992,0.000442956,0
0.3,12,0,0.299993,0.000469343,0
0.3,12.1,0,0.299994,0.000446135,0
0.3,12.2,0,0.299995,0.000466755,0
0.3,12.3,0,0.299996,0.000458936,0
0.3,12.4,0,0.299997,0.000461312,0
0.3,12.5,0,0.299997,0.000469386,0
0.3,12.6,0,0.299998,0.000460645,0
0.3,12.7,0,0.299998,0.00056661,0
0.4,0,0,0.299999,-0.000590003,0
0.4,0.1,0,0.299999,-0.000540515,0
0.4,0.2,0,0.299999,-0.000539967,0
0.4,0.3,0,0.299998,-0.000539795,0
0.4,0.4,0,0.299998,-0.000539215,0
0.4,0.5,0,0.299998,-0.000537668,0
0.4,0.6,0,0.299997,-0.000536033,0
0.4,0.7,0,0.299995,-0.000535771,0
0.4,0.8,0,0.299996,-0.000533591,0
0.4,0.9,0,0.299995,-0.000530866,0
0.4,1,0,0.299994,-0.000529119,0
0.4,1.1,0,0.299994,-0.000527324,0
0.4,1.2,0,0.299994,-0.000523864,0
0.4,1.3,0,0.299993,-0.000520035,0
0.4,1.4,0,0.29999,-0.000519084,0
0.4,1.5,0,0.299993,-0.000514963,0
0.4,1.6,0,0.299992,-0.000510016,0
0.4,1.7,0,0.29999,-0.000506925,0
0.4,1.8,0,0.29999,-0.000503773,0
0.4,1.9,0,0.299991,-0.000497983,0
0.4,2,0,0.29999,-0.000491901,0
0.4,2.1,0,0.299985,-0.000491009,0
0.4,2.2,0,0.29999,-0.00048382,0
0.4,2.3,0,0.299988,-0.000476585,0
0.4,2.4,0,0.299985,-0.000472617,0
0.4,2.5,0,0.299985,-0.000467878,0
0.4,2.6,0,0.299987,-0.000459012,0
0.4,2.7,0,0.299985,-0.000450614,0
0.4,2.8,0,0.299979,-0.000451215,0
0.4,2.9,0,0.299985,-0.000439102,0
0.4,3,0,0.299984,-0.000429534,0
0.4,3.1,0,0.29998,-0.000425528,0
0.4,3.2,0,0.29998,-0.000419058,0
0.4,3.3,0,0.299982,-0.000406104,0
0.4,3.4,0,0.299981,-0.000395359,0
0.4,3.5,0,0.299974,-0.00039951,0
0.4,3.6,0,0.29998,-0.000380446,0
0.4,3.7,0,0.299979,-0.000368506,0
0.4,3.8,0,0.299975,-0.000365386,0
0.4,3.9,0,0.299975,-0.000357477,0
0.4,4,0,0.299978,-0.000339709,0
0.4,4.1,0,0.299977,-0.000326535,0
0.4,4.2,0,0.299969,-0.000335585,0
0.4,4.3,0,0.299977,-0.00030951,0
0.4,4.4,0,0.299976,-0.00029503,0
0.4,4.5,0,0.299972,-0.000292653,0
0.4,4.6,0,0.299972,-0.000284448,0
0.4,4.7,0,0.299977,-0.000262796,0
0.4,4.8,0,0.299976,-0.000246896,0
0.4,4.9,0,0.299966,-0.000258255,0
0.4,5,0,0.29998,-0.000230704,0
0.4,5.1,0,0.299979,-0.000213247,0
0.4,5.2,0,0.299972,-0.000208532,0
0.4,5.3,0,0.299976,-0.000201733,0
0.4,5.4,0,0.299986,-0.000180319,0
0.4,5.5,0,0.299985,-0.000161204,0
0.4,5.6,0,0.299963,-0.000165164,0
0.4,5.7,0,0.299998,-0.000148249,0
0.4,5.8,0,0.299997,-0.000127529,0
0.4,5.9,0,0.299978,-0.000114416,0
0.4,6,0,0.299988,-0.000109136,0
0.4,6.1,0,0.300014,-9.40513e-05,0
0.4,6.2,0,0.300011,-7.18717e-05,0
0.4,6.3,0,0.299951,-5.5965e-05,0
0.4,6.4,0,0.300036,-5.87588e-05,0
0.4,6.5,0,0.300032,-3.52231e-05,0
0.4,6.6,0,0.299988,-9.84758e-06,0
0.4,6.7,0,0.300001,-3.94498e-06,0
0.4,6.8,0,0.300053,-7.22547e-07,0
0.4,6.9,0,0.300049,1.83337e-05,0
0.4,7,0,0.299933,5.24507e-05,0
0.4,7.1,0,0.29993,7.66427e-05,0
0.4,7.2,0,0.299928,9.08656e-05,0
0.4,7.3,0,0.299926,0.000104965,0
0.4,7.4,0,0.299925,0.000119122,0
0.4,7.5,0,0.299925,0.000133302,0
0.4,7.6,0,0.299925,0.000147469,0
0.4,7.7,0,0.299926,0.000161601,0
0.4,7.8,0,0.299928,0.000175673,0
0.4,7.9,0,0.299929,0.00018978,0
0.4,8,0,0.299932,0.000209167,0
0.4,8.1,0,0.300058,0.000235828,0
0.4,8.2,0,0.300004,0.00024508,0
0.4,8.3,0,0.300044,0.000261662,0
0.4,8.4,0,0.300048,0.000283626,0
0.4,8.5,0,0.299985,0.000286299,0
0.4,8.6,0,0.300034,0.00030981,0
0.4,8.7,0,0.299959,0.00031515,0
0.4,8.8,0,0.300019,0.000334117,0
0.4,8.9,0,0.299998,0.000350108,0
0.4,9,0,0.300002,0.00035707,0
0.4,9.1,0,0.300008,0.000376705,0
0.4,9.2,0,0.299976,0.000384972,0
0.4,9.3,0,0.299996,0.000397122,0
0.4,9.4,0,0.299973,0.000415362,0
0.4,9.5,0,0.299987,0.000416713,0
0.4,9.6,0,0.299984,0.000436084,0
0.4,9.7,0,0.29998,0.000438861,0
0.4,9.8,0,0.299982,0.000452492,0
0.4,9.9,0,0.299975,0.000471537,0
0.4,10,0,0.299979,0.000470166,0
0.4,10.1,0,0.299976,0.000496427,0
0.4,10.2,0,0.299977,0.000487711,0
0.4,10.3,0,0.299977,0.000505374,0
0.4,10.4,0,0.299977,0.000510991,0
0.4,10.5,0,0.299977,0.000517551,0
0.4,10.6,0,0.299977,0.000542532,0
0.4,10.7,0,0.299978,0.000533176,0
0.4,10.8,0,0.299979,0.000557791,0
0.4,10.9,0,0.299979,0.000548228,0
0.4,11,0,0.29998,0.000560772,0
0.4,11.1,0,0.299981,0.000569676,0
0.4,11.2,0,0.299982,0.00057093,0
0.4,11.3,0,0.299983,0.00059454,0
0.4,11.4,0,0.299984,0.000582826,0
0.4,11.5,0,0.299985,0.000600814,0
0.4,11.6,0,0.299986,0.000593498,0
0.4,11.7,0,0.299988,0.000600415,0
0.4,11.8,0,0.299988,0.000609763,0
0.4,11.9,0,0.29999,0.000607342,0
0.4,12,0,0.29999,0.000626177,0
0.4,12.1,0,0.299992,0.000613803,0
0.4,12.2,0,0.299993,0.000624989,0
0.4,12.3,0,0.299994,0.000618617,0
0.4,12.4,0,0.299996,0.000620595,0
0.4,12.5,0,0.299997,0.000628465,0
0.4,12.6,0,0.299997,0.000622411,0
0.4,12.7,0,0.299998,0.000690564,0
0.5,0,0,0.299999,-0.000692886,0
0.5,0.1,0,0.299998,-0.000676025,0
0.5,0.2,0,0.299998,-0.000675477,0
0.5,0.3,0,0.299998,-0.000674929,0
0.5,0.4,0,0.299997,-0.000674163,0
0.5,0.5,0,0.299996,-0.000672527,0
0.5,0.6,0,0.299995,-0.000670891,0
0.5,0.7,0,0.299994,-0.000669714,0
0.5,0.8,0,0.299994,-0.00066717,0
0.5,0.9,0,0.299993,-0.000664444,0
0.5,1,0,0.299992,-0.000661718,0
0.5,1.1,0,0.299991,-0.000659384,0
0.5,1.2,0,0.299991,-0.000655555,0
0.5,1.3,0,0.29999,-0.000651725,0
0.5,1.4,0,0.299988,-0.000648855,0
0.5,1.5,0,0.299988,-0.000644184,0
0.5,1.6,0,0.299987,-0.000639237,0
0.5,1.7,0,0.299986,-0.00063429,0
0.5,1.8,0,0.299986,-0.000630279,0
0.5,1.9,0,0.299985,-0.000624196,0
0.5,2,0,0.299984,-0.000618114,0
0.5,2.1,0,0.299982,-0.000613761,0
0.5,2.2,0,0.299982,-0.000606541,0
0.5,2.3,0,0.299981,-0.000599306,0
0.5,2.4,0,0.29998,-0.000592071,0
0.5,2.5,0,0.299979,-0.000586214,0
0.5,2.6,0,0.299978,-0.000577815,0
0.5,2.7,0,0.299977,-0.000569417,0
0.5,2.8,0,0.299974,-0.000564019,0
0.5,2.9,0,0.299975,-0.000553603,0
0.5,3,0,0.299974,-0.000544035,0
0.5,3.1,0,0.299973,-0.000534467,0
0.5,3.2,0,0.299972,-0.000526657,0
0.5,3.3,0,0.299971,-0.000515912,0
0.5,3.4,0,0.29997,-0.000505167,0
0.5,3.5,0,0.299967,-0.000499388,0
0.5,3.6,0,0.299969,-0.000485073,0
0.5,3.7,0,0.299968,-0.000473133,0
0.5,3.8,0,0.299967,-0.000461194,0
0.5,3.9,0,0.299966,-0.000451595,0
0.5,4,0,0.299965,-0.000438421,0
0.5,4.1,0,0.299964,-0.000425247,0
0.5,4.2,0,0.299961,-0.000419481,0
0.5,4.3,0,0.299963,-0.000401136,0
0.5,4.4,0,0.299963,-0.000386656,0
0.5,4.5,0,0.299962,-0.000372176,0
0.5,4.6,0,0.299962,-0.000361431,0
0.5,4.7,0,0.299962,-0.000345531,0
0.5,4.8,0,0.299962,-0.000329632,0
0.5,4.9,0,0.299958,-0.000322819,0
0.5,5,0,0.299962,-0.000301997,0
0.5,5.1,0,0.299961,-0.000284541,0
0.5,5.2,0,0.299961,-0.000267084,0
0.5,5.3,0,0.299963,-0.000256108,0
0.5,5.4,0,0.299962,-0.000236993,0
0.5,5.5,0,0.299961,-0.000217878,0
0.5,5.6,0,0.299953,-0.000206455,0
0.5,5.7,0,0.299964,-0.000187003,0
0.5,5.8,0,0.299962,-0.000166283,0
0.5,5.9,0,0.299961,-0.000145563,0
0.5,6,0,0.299966,-0.000134404,0
0.5,6.1,0,0.299964,-0.000112224,0
0.5,6.2,0,0.299961,-9.00449e-05,0
0.5,6.3,0,0.299939,-6.99562e-05,0
0.5,6.4,0,0.299964,-5.5197e-05,0
0.5,6.5,0,0.299961,-3.16613e-05,0
0.5,6.6,0,0.299957,-8.12565e-06,0
0.5,6.7,0,0.299964,3.37453e-06,0
0.5,6.8,0,0.299961,2.24307e-05,0
0.5,6.9,0,0.299957,4.14869e-05,0
0.5,7,0,0.299917,6.55634e-05,0
0.5,7.1,0,0.299912,9.58034e-05,0
0.5,7.2,0,0.29991,0.000113582,0
0.5,7.3,0,0.299908,0.000131206,0
0.5,7.4,0,0.299907,0.000148903,0
0.5,7.5,0,0.299906,0.000166627,0
0.5,7.6,0,0.299907,0.000184337,0
0.5,7.7,0,0.299908,0.000202001,0
0.5,7.8,0,0.29991,0.000219591,0
0.5,7.9,0,0.299912,0.000237225,0
0.5,8,0,0.299915,0.000261459,0
0.5,8.1,0,0.299959,0.000282587,0
0.5,8.2,0,0.299963,0.000300948,0
0.5,8.3,0,0.29996,0.000317241,0
0.5,8.4,0,0.299964,0.000339206,0
0.5,8.5,0,0.29996,0.000355315,0
0.5,8.6,0,0.299965,0.000376829,0
0.5,8.7,0,0.299947,0.000393864,0
0.5,8.8,0,0.299965,0.000413173,0
0.5,8.9,0,0.299969,0.000433985,0
0.5,9,0,0.299965,0.000448127,0
0.5,9.1,0,0.299969,0.000468127,0
0.5,9.2,0,0.299966,0.000481763,0
0.5,9.3,0,0.299968,0.000500785,0
0.5,9.4,0,0.299966,0.000519642,0
0.5,9.5,0,0.299968,0.000531986,0
0.5,9.6,0,0.29997,0.000549857,0
0.5,9.7,0,0.299968,0.000561741,0
0.5,9.8,0,0.29997,0.000578336,0
0.5,9.9,0,0.299969,0.000590543,0
0.5,10,0,0.299969,0.000605274,0
0.5,10.1,0,0.29997,0.000621947,0
0.5,10.2,0,0.29997,0.000630668,0
0.5,10.3,0,0.29997,0.000644534,0
0.5,10.4,0,0.299971,0.000654481,0
0.5,10.5,0,0.299971,0.000666968,0
0.5,10.6,0,0.299972,0.000679312,0
0.5,10.7,0,0.299972,0.000687782,0
0.5,10.8,0,0.299973,0.000699325,0
0.5,10.9,0,0.299974,0.000706917,0
0.5,11,0,0.299975,0.0007167,0
0.5,11.1,0,0.299976,0.000724311,0
0.5,11.2,0,0.299977,0.000732771,0
0.5,11.3,0,0.299978,0.000743868,0
0.5,11.4,0,0.29998,0.000747055,0
0.5,11.5,0,0.299981,0.000754206,0
0.5,11.6,0,0.299982,0.000759498,0
0.5,11.7,0,0.299984,0.000765351,0
0.5,11.8,0,0.299985,0.000770051,0
0.5,11.9,0,0.299987,0.000774616,0
0.5,12,0,0.299988,0.000783012,0
0.5,12.1,0,0.29999,0.000781953,0
0.5,12.2,0,0.299991,0.000785227,0
0.5,12.3,0,0.299993,0.000787318,0
0.5,12.4,0,0.299995,0.000789296,0
0.5,12.5,0,0.299996,0.000790693,0
0.5,12.6,0,0.299997,0.000791358,0
0.5,12.7,0,0.299997,0.000814519,0
0.6,0,0,0.299998,-0.000812812,0
0.6,0.1,0,0.299998,-0.000811884,0
0.6,0.2,0,0.299998,-0.000811336,0
0.6,0.3,0,0.299997,-0.000810788,0
0.6,0.4,0,0.299996,-0.000809366,0
0.6,0.5,0,0.299995,-0.00080773,0
0.6,0.6,0,0.299994,-0.000806094,0
0.6,0.7,0,0.299992,-0.000804466,0
0.6,0.8,0,0.299991,-0.000801098,0
0.6,0.9,0,0.29999,-0.000798372,0
0.6,1,0,0.299989,-0.000795647,0
0.6,1.1,0,0.299988,-0.000791427,0
0.6,1.2,0,0.299987,-0.000787598,0
0.6,1.3,0,0.299986,-0.000783768,0
0.6,1.4,0,0.299983,-0.000779457,0
0.6,1.5,0,0.299983,-0.000773762,0
0.6,1.6,0,0.299982,-0.000768815,0
0.6,1.7,0,0.299981,-0.000763868,0
0.6,1.8,0,0.29998,-0.000756856,0
0.6,1.9,0,0.299979,-0.000750773,0
0.6,2,0,0.299978,-0.00074469,0
0.6,2.1,0,0.299975,-0.00073732,0
0.6,2.2,0,0.299975,-0.000729632,0
0.6,2.3,0,0.299974,-0.000722397,0
0.6,2.4,0,0.299972,-0.000715162,0
0.6,2.5,0,0.299971,-0.000705388,0
0.6,2.6,0,0.29997,-0.00069699,0
0.6,2.7,0,0.299968,-0.000688592,0
0.6,2.8,0,0.299965,-0.000677421,0
0.6,2.9,0,0.299966,-0.000668476,0
0.6,3,0,0.299964,-0.000658909,0
0.6,3.1,0,0.299963,-0.000649341,0
0.6,3.2,0,0.299962,-0.000636842,0
0.6,3.3,0,0.299961,-0.000626097,0
0.6,3.4,0,0.299959,-0.000615352,0
0.6,3.5,0,0.299955,-0.00059929,0
0.6,3.6,0,0.299957,-0.000590085,0
0.6,3.7,0,0.299956,-0.000578145,0
0.6,3.8,0,0.299955,-0.000566205,0
0.6,3.9,0,0.299954,-0.000550707,0
0.6,4,0,0.299953,-0.000537533,0
0.6,4.1,0,0.299952,-0.00052436,0
0.6,4.2,0,0.299946,-0.000502406,0
0.6,4.3,0,0.29995,-0.000493192,0
0.6,4.4,0,0.299949,-0.000478712,0
0.6,4.5,0,0.299949,-0.000464232,0
0.6,4.6,0,0.299948,-0.000444639,0
0.6,4.7,0,0.299947,-0.00042874,0
0.6,4.8,0,0.299947,-0.000412841,0
0.6,4.9,0,0.299941,-0.000385421,0
0.6,5,0,0.299945,-0.000373809,0
0.6,5.1,0,0.299944,-0.000356353,0
0.6,5.2,0,0.299944,-0.000338896,0
0.6,5.3,0,0.29994,-0.000313319,0
0.6,5.4,0,0.299939,-0.000294204,0
0.6,5.5,0,0.299938,-0.000275089,0
0.6,5.6,0,0.299935,-0.000245919,0
0.6,5.7,0,0.29993,-0.000226242,0
0.6,5.8,0,0.299928,-0.000205522,0
0.6,5.9,0,0.299927,-0.000184802,0
0.6,6,0,0.299916,-0.000153022,0
0.6,6.1,0,0.299913,-0.000130842,0
0.6,6.2,0,0.29991,-0.000108663,0
0.6,6.3,0,0.29992,-8.42578e-05,0
0.6,6.4,0,0.299893,-5.20538e-05,0
0.6,6.5,0,0.299889,-2.85181e-05,0
0.6,6.6,0,0.299886,-4.98241e-06,0
0.6,6.7,0,0.299871,2.97969e-05,0
0.6,6.8,0,0.299868,4.88531e-05,0
0.6,6.9,0,0.299865,6.79093e-05,0
0.6,7,0,0.299898,7.56276e-05,0
0.6,7.1,0,0.299894,0.000112293,0
0.6,7.2,0,0.299891,0.000134163,0
0.6,7.3,0,0.299889,0.000155888,0
0.6,7.4,0,0.299888,0.000177683,0
0.6,7.5,0,0.299888,0.000199504,0
0.6,7.6,0,0.299888,0.000221303,0
0.6,7.7,0,0.299889,0.000243047,0
0.6,7.8,0,0.299891,0.000264704,0
0.6,7.9,0,0.299893,0.000286378,0
0.6,8,0,0.299897,0.000315884,0
0.6,8.1,0,0.29986,0.000327755,0
0.6,8.2,0,0.299864,0.000346116,0
0.6,8.3,0,0.299875,0.000372872,0
0.6,8.4,0,0.299879,0.000394836,0
0.6,8.5,0,0.299892,0.000422476,0
0.6,8.6,0,0.299896,0.000443989,0
0.6,8.7,0,0.299918,0.000470414,0
0.6,8.8,0,0.299912,0.000492386,0
0.6,8.9,0,0.299916,0.000513199,0
0.6,9,0,0.299927,0.000539739,0
0.6,9.1,0,0.29993,0.000559739,0
0.6,9.2,0,0.299939,0.000585655,0
0.6,9.3,0,0.299941,0.000604676,0
0.6,9.4,0,0.299944,0.000623136,0
0.6,9.5,0,0.29995,0.000647522,0
0.6,9.6,0,0.299952,0.000665393,0
0.6,9.7,0,0.299956,0.000687868,0
0.6,9.8,0,0.299957,0.000704463,0
0.6,9.9,0,0.299959,0.000724786,0
0.6,10,0,0.29996,0.000740676,0
0.6,10.1,0,0.299959,0.000753866,0
0.6,10.2,0,0.299963,0.00077392,0
0.6,10.3,0,0.299963,0.000787786,0
0.6,10.4,0,0.299964,0.000804191,0
0.6,10.5,0,0.299965,0.000816679,0
0.6,10.6,0,0.299964,0.000828366,0
0.6,10.7,0,0.299967,0.000842678,0
0.6,10.8,0,0.299967,0.00085329,0
0.6,10.9,0,0.299969,0.000865891,0
0.6,11,0,0.29997,0.000875673,0
0.6,11.1,0,0.299971,0.000886433,0
0.6,11.2,0,0.299972,0.000894892,0
0.6,11.3,0,0.299972,0.000900027,0
0.6,11.4,0,0.299975,0.000911563,0
0.6,11.5,0,0.299977,0.000918714,0
0.6,11.6,0,0.299978,0.000925773,0
0.6,11.7,0,0.29998,0.000931626,0
0.6,11.8,0,0.299982,0.0009376,0
0.6,11.9,0,0.299983,0.000942165,0
0.6,12,0,0.299984,0.000942836,0
0.6,12.1,0,0.299987,0.000950379,0
0.6,12.2,0,0.299989,0.000953653,0
0.6,12.3,0,0.299991,0.000956296,0
0.6,12.4,0,0.299993,0.000958275,0
0.6,12.5,0,0.299995,0.000959923,0
0.6,12.6,0,0.299996,0.000960588,0
0.6,12.7,0,0.299996,0.000956955,0
0.7,0,0,0.299997,-0.000949781,0
0.7,0.1,0,0.299998,-0.000948091,0
0.7,0.2,0,0.299997,-0.000947544,0
0.7,0.3,0,0.299996,-0.000947282,0
0.7,0.4,0,0.299994,-0.000945671,0
0.7,0.5,0,0.299993,-0.000943276,0
0.7,0.6,0,0.299992,-0.00094164,0
0.7,0.7,0,0.299989,-0.000940029,0
0.7,0.8,0,0.299988,-0.000935377,0
0.7,0.9,0,0.299987,-0.000932651,0
0.7,1,0,0.299985,-0.000929617,0
0.7,1.1,0,0.299983,-0.00092486,0
0.7,1.2,0,0.299983,-0.000919993,0
0.7,1.3,0,0.299982,-0.000916163,0
0.7,1.4,0,0.299977,-0.00091089,0
0.7,1.5,0,0.299978,-0.000903699,0
0.7,1.6,0,0.299977,-0.000898752,0
0.7,1.7,0,0.299974,-0.000892626,0
0.7,1.8,0,0.299972,-0.000884757,0
0.7,1.9,0,0.299973,-0.000877714,0
0.7,2,0,0.299972,-0.000871632,0
0.7,2.1,0,0.299965,-0.000861685,0
0.7,2.2,0,0.299967,-0.000853092,0
0.7,2.3,0,0.299966,-0.000845857,0
0.7,2.4,0,0.299962,-0.00083588,0
0.7,2.5,0,0.29996,-0.000824988,0
0.7,2.6,0,0.299961,-0.000816536,0
0.7,2.7,0,0.29996,-0.000808137,0
0.7,2.8,0,0.299951,-0.000791421,0
0.7,2.9,0,0.299956,-0.000783723,0
0.7,3,0,0.299955,-0.000774156,0
0.7,3.1,0,0.299949,-0.000759018,0
0.7,3.2,0,0.299947,-0.00074518,0
0.7,3.3,0,0.29995,-0.000736658,0
0.7,3.4,0,0.299949,-0.000725913,0
0.7,3.5,0,0.299937,-0.000699216,0
0.7,3.6,0,0.299945,-0.00069548,0
0.7,3.7,0,0.299944,-0.00068354,0
0.7,3.8,0,0.299937,-0.000661616,0
0.7,3.9,0,0.299936,-0.000644437,0
0.7,4,0,0.29994,-0.000637047,0
0.7,4.1,0,0.299939,-0.000623873,0
0.7,4.2,0,0.299925,-0.000584359,0
0.7,4.3,0,0.299936,-0.000585678,0
0.7,4.4,0,0.299936,-0.000571198,0
0.7,4.5,0,0.299928,-0.000541824,0
0.7,4.6,0,0.299927,-0.000519716,0
0.7,4.7,0,0.299933,-0.000512421,0
0.7,4.8,0,0.299932,-0.000496522,0
0.7,4.9,0,0.299916,-0.000446062,0
0.7,5,0,0.299927,-0.00044614,0
0.7,5.1,0,0.299927,-0.000428683,0
0.7,5.2,0,0.29992,-0.00039472,0
0.7,5.3,0,0.299914,-0.000364976,0
0.7,5.4,0,0.299916,-0.000351951,0
0.7,5.5,0,0.299915,-0.000332836,0
0.7,5.6,0,0.299908,-0.000283557,0
0.7,5.7,0,0.299896,-0.000265964,0
0.7,5.8,0,0.299895,-0.000245245,0
0.7,5.9,0,0.299898,-0.000214774,0
0.7,6,0,0.299883,-0.000177091,0
0.7,6.1,0,0.299863,-0.000149904,0
0.7,6.2,0,0.29986,-0.000127725,0
0.7,6.3,0,0.299896,-9.88697e-05,0
0.7,6.4,0,0.299822,-4.93291e-05,0
0.7,6.5,0,0.299819,-2.57934e-05,0
0.7,6.6,0,0.29985,-6.56395e-06,0