/*--------------------------------*- C++ -*----------------------------------*\
| =========                 |                                                 |
| \\      /  F ield         | OpenFOAM: The Open Source CFD Toolbox           |
|  \\    /   O peration     | Version:  v1806                                 |
|   \\  /    A nd           | Web:      www.OpenFOAM.com                      |
|    \\/     M anipulation  |                                                 |
\*---------------------------------------------------------------------------*/
FoamFile
{
    version     2.0;
    format      ascii;
    class       volVectorField;
    location    "190";
    object      U;
}
// * * * * * * * * * * * * * * * * * * * * * * * * * * * * * * * * * * * * * //

dimensions      [0 1 -1 0 0 0 0];


internalField   nonuniform List<vector> 
2400
(
(0.3 -0.000180572 0)
(0.299995 -0.000616489 0)
(0.299987 -0.00100558 0)
(0.299973 -0.00150023 0)
(0.299954 -0.00196108 0)
(0.299925 -0.00255467 0)
(0.29989 -0.0031454 0)
(0.299842 -0.00391695 0)
(0.299787 -0.00470052 0)
(0.299717 -0.0056608 0)
(0.299643 -0.00668415 0)
(0.299555 -0.0079252 0)
(0.299463 -0.00921682 0)
(0.299365 -0.0106313 0)
(0.299284 -0.0120962 0)
(0.299216 -0.0136347 0)
(0.299178 -0.0150552 0)
(0.299186 -0.0162849 0)
(0.299261 -0.0171926 0)
(0.299402 -0.0177287 0)
(0.299999 -0.000177242 0)
(0.299988 -0.000615089 0)
(0.299971 -0.000995082 0)
(0.299944 -0.00149261 0)
(0.299907 -0.00194158 0)
(0.299856 -0.00253937 0)
(0.299796 -0.00311518 0)
(0.299718 -0.00389197 0)
(0.299632 -0.00465743 0)
(0.299525 -0.00562534 0)
(0.299419 -0.00663177 0)
(0.299294 -0.00788153 0)
(0.299177 -0.00916014 0)
(0.299059 -0.0105908 0)
(0.298982 -0.0120597 0)
(0.29894 -0.0136199 0)
(0.298965 -0.0150629 0)
(0.299078 -0.0163291 0)
(0.299301 -0.0172772 0)
(0.299626 -0.0178415 0)
(0.299997 -0.000170979 0)
(0.299981 -0.000611993 0)
(0.299951 -0.000975785 0)
(0.29991 -0.00147907 0)
(0.29985 -0.0019073 0)
(0.299771 -0.00251425 0)
(0.299677 -0.00306417 0)
(0.299559 -0.00385349 0)
(0.29943 -0.00458802 0)
(0.299272 -0.0055742 0)
(0.299117 -0.00655054 0)
(0.298938 -0.0078236 0)
(0.298779 -0.00908059 0)
(0.298622 -0.010548 0)
(0.298537 -0.0120224 0)
(0.29851 -0.0136309 0)
(0.298599 -0.0151141 0)
(0.298826 -0.0164465 0)
(0.299222 -0.0174536 0)
(0.299771 -0.0180739 0)
(0.299996 -0.000161615 0)
(0.299973 -0.000607502 0)
(0.299932 -0.000947111 0)
(0.299875 -0.00145978 0)
(0.299791 -0.00185704 0)
(0.299683 -0.00247947 0)
(0.299553 -0.00299038 0)
(0.299392 -0.00380193 0)
(0.299215 -0.00448912 0)
(0.299 -0.00550792 0)
(0.298791 -0.00643584 0)
(0.298547 -0.00775257 0)
(0.298337 -0.00897157 0)
(0.298126 -0.0105032 0)
(0.298023 -0.0119777 0)
(0.297995 -0.0136686 0)
(0.298143 -0.0152057 0)
(0.298477 -0.0166379 0)
(0.299051 -0.0177313 0)
(0.299844 -0.0184213 0)
(0.299995 -0.000149239 0)
(0.299967 -0.000601782 0)
(0.299913 -0.000908812 0)
(0.299841 -0.00143482 0)
(0.299732 -0.00178983 0)
(0.299596 -0.0024349 0)
(0.299428 -0.00289137 0)
(0.299224 -0.00373668 0)
(0.298997 -0.00435586 0)
(0.298722 -0.00542549 0)
(0.298455 -0.00627946 0)
(0.298139 -0.00766666 0)
(0.297874 -0.00882035 0)
(0.297595 -0.0104543 0)
(0.297467 -0.0119096 0)
(0.297417 -0.0137304 0)
(0.297619 -0.0153251 0)
(0.298049 -0.0169044 0)
(0.29881 -0.0181121 0)
(0.299864 -0.018896 0)
(0.299993 -0.000134018 0)
(0.299961 -0.000594842 0)
(0.299894 -0.000860896 0)
(0.299809 -0.00140438 0)
(0.299674 -0.00170536 0)
(0.29951 -0.00238102 0)
(0.299305 -0.00276588 0)
(0.299057 -0.00365848 0)
(0.298779 -0.00418511 0)
(0.298442 -0.00532819 0)
(0.298114 -0.00607465 0)
(0.297719 -0.00756783 0)
(0.297393 -0.00861513 0)
(0.297031 -0.0104045 0)
(0.296872 -0.0118007 0)
(0.296774 -0.0138207 0)
(0.297029 -0.0154573 0)
(0.297536 -0.0172537 0)
(0.298499 -0.018601 0)
(0.299838 -0.0195147 0)
(0.299991 -0.000116241 0)
(0.299956 -0.00058655 0)
(0.299876 -0.000803606 0)
(0.299778 -0.00136854 0)
(0.299617 -0.00160372 0)
(0.299427 -0.00231825 0)
(0.299182 -0.00261328 0)
(0.298893 -0.00356831 0)
(0.298562 -0.00397454 0)
(0.298163 -0.00521779 0)
(0.29777 -0.00581529 0)
(0.297288 -0.00745915 0)
(0.296896 -0.00834312 0)
(0.296432 -0.0103587 0)
(0.296235 -0.011629 0)
(0.296057 -0.0139487 0)
(0.296364 -0.0155782 0)
(0.296917 -0.0177007 0)
(0.298108 -0.0192 0)
(0.299755 -0.0202991 0)
(0.299989 -9.63874e-05 0)
(0.299952 -0.00057653 0)
(0.299858 -0.000737521 0)
(0.299749 -0.00132706 0)
(0.299561 -0.00148552 0)
(0.299347 -0.00224658 0)
(0.299062 -0.00243365 0)
(0.298733 -0.00346647 0)
(0.298345 -0.00372264 0)
(0.297884 -0.00509518 0)
(0.297421 -0.00549588 0)
(0.296848 -0.00734266 0)
(0.296381 -0.00799077 0)
(0.295796 -0.010322 0)
(0.295551 -0.0113677 0)
(0.295251 -0.014127 0)
(0.295613 -0.0156512 0)
(0.296159 -0.0182707 0)
(0.297622 -0.0198989 0)
(0.299598 -0.0212819 0)
(0.299987 -7.51622e-05 0)
(0.29995 -0.000564074 0)
(0.299841 -0.000663674 0)
(0.299722 -0.00127922 0)
(0.299506 -0.00135207 0)
(0.299271 -0.00216527 0)
(0.298944 -0.00222809 0)
(0.298577 -0.00335216 0)
(0.298131 -0.0034293 0)
(0.297609 -0.00495952 0)
(0.29707 -0.00511258 0)
(0.2964 -0.00721797 0)
(0.295847 -0.00754566 0)
(0.295122 -0.0102965 0)
(0.294813 -0.010988 0)
(0.294342 -0.0143682 0)
(0.29476 -0.0156279 0)
(0.295221 -0.0190012 0)
(0.297024 -0.0206651 0)
(0.299329 -0.0225167 0)
(0.299985 -5.35381e-05 0)
(0.299951 -0.000548058 0)
(0.299825 -0.000583657 0)
(0.299698 -0.00122374 0)
(0.299452 -0.00120555 0)
(0.2992 -0.00207263 0)
(0.298828 -0.00199907 0)
(0.298429 -0.0032231 0)
(0.297918 -0.00309645 0)
(0.297339 -0.00480766 0)
(0.296716 -0.00466445 0)
(0.295947 -0.00708094 0)
(0.295294 -0.00699866 0)
(0.29441 -0.0102792 0)
(0.294015 -0.0104622 0)
(0.293321 -0.0146798 0)
(0.293787 -0.0154514 0)
(0.294059 -0.0199376 0)
(0.296293 -0.0214421 0)
(0.298883 -0.0240842 0)
(0.299982 -3.27808e-05 0)
(0.299954 -0.000526882 0)
(0.29981 -0.000499727 0)
(0.299678 -0.00115862 0)
(0.299399 -0.00104924 0)
(0.299137 -0.00196583 0)
(0.298714 -0.00175076 0)
(0.298291 -0.00307519 0)
(0.297708 -0.00272866 0)
(0.29708 -0.0046335 0)
(0.296359 -0.00415445 0)
(0.295496 -0.00692262 0)
(0.29472 -0.00634596 0)
(0.293666 -0.0102586 0)
(0.293151 -0.00976792 0)
(0.292182 -0.0150579 0)
(0.292671 -0.0150633 0)
(0.292625 -0.0211239 0)
(0.295401 -0.0221557 0)
(0.298156 -0.0260986 0)
(0.29998 -1.44637e-05 0)
(0.29996 -0.00049843 0)
(0.299794 -0.000414899 0)
(0.299664 -0.00108105 0)
(0.299347 -0.000887689 0)
(0.299083 -0.00184062 0)
(0.298601 -0.00148943 0)
(0.298168 -0.00290211 0)
(0.297497 -0.00233375 0)
(0.29684 -0.00442746 0)
(0.295995 -0.00359048 0)
(0.295058 -0.00672839 0)
(0.29412 -0.00559073 0)
(0.292903 -0.0102134 0)
(0.292211 -0.00889068 0)
(0.290929 -0.0154826 0)
(0.291382 -0.0144074 0)
(0.290876 -0.0225912 0)
(0.294306 -0.0227142 0)
(0.297006 -0.0287244 0)
(0.299978 -3.73968e-07 0)
(0.299969 -0.000460074 0)
(0.29978 -0.00033298 0)
(0.299655 -0.000987326 0)
(0.299294 -0.00072691 0)
(0.299041 -0.00169104 0)
(0.298486 -0.00122398 0)
(0.298066 -0.00269463 0)
(0.297281 -0.00192387 0)
(0.296631 -0.00417535 0)
(0.295617 -0.00298697 0)
(0.294656 -0.00647656 0)
(0.293481 -0.0047453 0)
(0.292154 -0.010111 0)
(0.291172 -0.00782762 0)
(0.289589 -0.0159137 0)
(0.289875 -0.0134318 0)
(0.288782 -0.0243477 0)
(0.292941 -0.0229966 0)
(0.295237 -0.0322021 0)
(0.299979 7.79221e-06 0)
(0.299978 -0.000408852 0)
(0.299769 -0.000258332 0)
(0.299648 -0.00087293 0)
(0.299244 -0.0005744 0)
(0.299009 -0.0015092 0)
(0.298372 -0.000966521 0)
(0.297987 -0.00243968 0)
(0.297057 -0.00151717 0)
(0.296467 -0.00385624 0)
(0.295211 -0.00236794 0)
(0.294322 -0.00613498 0)
(0.292773 -0.00383523 0)
(0.291477 -0.00990318 0)
(0.289978 -0.00659209 0)
(0.288243 -0.0162891 0)
(0.288058 -0.0120944 0)
(0.286367 -0.0263748 0)
(0.291186 -0.0228497 0)
(0.292592 -0.0368125 0)
(0.299989 8.6941e-06 0)
(0.299978 -0.000342441 0)
(0.299769 -0.000195012 0)
(0.299633 -0.000733575 0)
(0.299207 -0.000437969 0)
(0.298976 -0.00128619 0)
(0.29827 -0.000731863 0)
(0.297922 -0.00211993 0)
(0.296837 -0.00113974 0)
(0.296343 -0.00343914 0)
(0.294779 -0.00177331 0)
(0.294076 -0.00565268 0)
(0.291966 -0.00291 0)
(0.290947 -0.00951262 0)
(0.288531 -0.00522456 0)
(0.287054 -0.0165115 0)
(0.285716 -0.0103795 0)
(0.283822 -0.0286289 0)
(0.288782 -0.0220951 0)
(0.288781 -0.0428899 0)
(0.300014 2.15878e-06 0)
(0.299958 -0.000260247 0)
(0.299792 -0.000145213 0)
(0.299593 -0.000567375 0)
(0.299205 -0.000322851 0)
(0.298914 -0.00101602 0)
(0.298215 -0.000532482 0)
(0.297831 -0.00171942 0)
(0.296667 -0.000819603 0)
(0.296215 -0.00288557 0)
(0.294377 -0.00126228 0)
(0.293881 -0.00494902 0)
(0.2911 -0.00206843 0)
(0.290581 -0.00879784 0)
(0.28676 -0.00382942 0)
(0.286198 -0.016386 0)
(0.28247 -0.00832866 0)
(0.281629 -0.0310608 0)
(0.284995 -0.0204349 0)
(0.283821 -0.0515509 0)
(0.300062 -9.80728e-06 0)
(0.299903 -0.000164163 0)
(0.299853 -0.00010782 0)
(0.299505 -0.000377013 0)
(0.299266 -0.000228839 0)
(0.298784 -0.000700843 0)
(0.298259 -0.000371619 0)
(0.297647 -0.00123554 0)
(0.296644 -0.000570467 0)
(0.295967 -0.002174 0)
(0.294165 -0.000880684 0)
(0.293566 -0.0039468 0)
(0.2904 -0.00144307 0)
(0.290179 -0.00754082 0)
(0.28488 -0.00267168 0)
(0.285564 -0.0154616 0)
(0.278054 -0.00615155 0)
(0.280342 -0.0333551 0)
(0.277839 -0.0174501 0)
(0.279148 -0.0647315 0)
(0.300135 -2.36288e-05 0)
(0.299807 -5.94296e-05 0)
(0.29996 -7.77482e-05 0)
(0.299354 -0.000170772 0)
(0.299412 -0.000148399 0)
(0.298555 -0.000353813 0)
(0.298451 -0.000238708 0)
(0.297302 -0.000687737 0)
(0.296875 -0.000379374 0)
(0.295456 -0.00132905 0)
(0.294373 -0.000620539 0)
(0.29283 -0.0026547 0)
(0.290353 -0.00107917 0)
(0.289166 -0.00563156 0)
(0.283769 -0.00201866 0)
(0.28424 -0.0131323 0)
(0.273387 -0.00440441 0)
(0.279157 -0.0341198 0)
(0.264783 -0.0127824 0)
(0.278305 -0.082653 0)
(0.300227 -3.28332e-05 0)
(0.299676 4.46521e-05 0)
(0.300103 -4.52584e-05 0)
(0.29915 3.88007e-05 0)
(0.299634 -6.16163e-05 0)
(0.298235 3.0764e-06 0)
(0.29879 -9.82647e-05 0)
(0.29679 -0.000117308 0)
(0.297386 -0.000184205 0)
(0.294629 -0.000432199 0)
(0.295125 -0.000376626 0)
(0.291475 -0.00119997 0)
(0.291377 -0.000804242 0)
(0.286916 -0.00318373 0)
(0.28475 -0.00181449 0)
(0.280489 -0.00896634 0)
(0.271894 -0.00436082 0)
(0.273675 -0.0296983 0)
(0.249534 -0.0119425 0)
(0.281905 -0.106096 0)
(0.300319 -3.8426e-05 0)
(0.299536 0.000149849 0)
(0.300254 -1.63478e-05 0)
(0.298936 0.000247958 0)
(0.299883 1.98212e-05 0)
(0.297891 0.000364066 0)
(0.29919 3.23982e-05 0)
(0.296222 0.000469543 0)
(0.298036 -6.19099e-06 0)
(0.293666 0.000512827 0)
(0.296201 -0.000160339 0)
(0.289776 0.000352432 0)
(0.293196 -0.000572897 0)
(0.283697 -0.000526919 0)
(0.287891 -0.00151515 0)
(0.273651 -0.00409784 0)
(0.276929 -0.00400811 0)
(0.256283 -0.0217306 0)
(0.25208 -0.0118992 0)
(0.276251 -0.161883 0)
(0.299535 -0.0177106 0)
(0.299567 -0.017696 0)
(0.299595 -0.0176721 0)
(0.299622 -0.0176397 0)
(0.29965 -0.0175988 0)
(0.299678 -0.0175495 0)
(0.299707 -0.0174917 0)
(0.299737 -0.0174255 0)
(0.299766 -0.017351 0)
(0.299794 -0.017269 0)
(0.299862 -0.0178471 0)
(0.299917 -0.0178387 0)
(0.299969 -0.0178207 0)
(0.30002 -0.0177932 0)
(0.300071 -0.0177563 0)
(0.300123 -0.0177101 0)
(0.300175 -0.0176546 0)
(0.300227 -0.01759 0)
(0.300279 -0.0175164 0)
(0.30033 -0.0174345 0)
(0.300159 -0.0180821 0)
(0.300249 -0.0180729 0)
(0.300335 -0.0180533 0)
(0.300419 -0.0180236 0)
(0.300502 -0.0179842 0)
(0.300585 -0.0179351 0)
(0.300668 -0.0178763 0)
(0.300749 -0.017808 0)
(0.300829 -0.0177303 0)
(0.300907 -0.0176441 0)
(0.300401 -0.0184358 0)
(0.30053 -0.0184272 0)
(0.300652 -0.0184073 0)
(0.300771 -0.0183767 0)
(0.300889 -0.0183353 0)
(0.301007 -0.0182833 0)
(0.301124 -0.0182207 0)
(0.301239 -0.0181476 0)
(0.301352 -0.0180642 0)
(0.301463 -0.0179713 0)
(0.300607 -0.0189208 0)
(0.300779 -0.0189132 0)
(0.300942 -0.0188929 0)
(0.3011 -0.0188602 0)
(0.301258 -0.0188153 0)
(0.301415 -0.0187582 0)
(0.301571 -0.018689 0)
(0.301724 -0.018608 0)
(0.301874 -0.0185153 0)
(0.302021 -0.018412 0)
(0.300789 -0.0195546 0)
(0.301009 -0.0195487 0)
(0.301219 -0.0195277 0)
(0.301424 -0.0194922 0)
(0.301627 -0.0194423 0)
(0.30183 -0.0193782 0)
(0.30203 -0.0192999 0)
(0.302227 -0.0192078 0)
(0.302419 -0.0191021 0)
(0.302607 -0.0189843 0)
(0.300947 -0.020362 0)
(0.301225 -0.0203587 0)
(0.301491 -0.0203372 0)
(0.301751 -0.0202979 0)
(0.302008 -0.0202411 0)
(0.302265 -0.0201671 0)
(0.302517 -0.0200761 0)
(0.302765 -0.0199688 0)
(0.303008 -0.0198452 0)
(0.303243 -0.0197073 0)
(0.301077 -0.0213798 0)
(0.301424 -0.0213803 0)
(0.30176 -0.0213579 0)
(0.302088 -0.021313 0)
(0.302412 -0.0212463 0)
(0.302733 -0.0211584 0)
(0.30305 -0.0210496 0)
(0.30336 -0.0209208 0)
(0.303661 -0.0207724 0)
(0.303953 -0.0206071 0)
(0.30117 -0.0226642 0)
(0.301606 -0.0226688 0)
(0.302031 -0.0226431 0)
(0.302445 -0.0225887 0)
(0.302853 -0.0225067 0)
(0.303256 -0.0223981 0)
(0.303651 -0.0222636 0)
(0.304036 -0.0221043 0)
(0.30441 -0.021921 0)
(0.30477 -0.0217174 0)
(0.30122 -0.0242961 0)
(0.301778 -0.0243023 0)
(0.30232 -0.0242673 0)
(0.302844 -0.0241952 0)
(0.303358 -0.0240884 0)
(0.303862 -0.023948 0)
(0.304356 -0.0237752 0)
(0.304834 -0.0235716 0)
(0.305297 -0.0233384 0)
(0.305739 -0.0230808 0)
(0.301228 -0.0263849 0)
(0.301961 -0.0263859 0)
(0.302659 -0.0263294 0)
(0.303324 -0.0262252 0)
(0.303971 -0.0260775 0)
(0.304604 -0.0258877 0)
(0.30522 -0.0256571 0)
(0.305814 -0.0253883 0)
(0.306384 -0.0250829 0)
(0.306927 -0.0247487 0)
(0.301209 -0.0290771 0)
(0.302199 -0.0290575 0)
(0.303109 -0.0289576 0)
(0.303951 -0.0287972 0)
(0.304764 -0.0285832 0)
(0.305558 -0.0283164 0)
(0.306328 -0.0279985 0)
(0.307066 -0.0276332 0)
(0.307767 -0.0272232 0)
(0.308429 -0.0267796 0)
(0.301205 -0.0325719 0)
(0.302577 -0.0325018 0)
(0.303768 -0.0323212 0)
(0.304832 -0.0320661 0)
(0.305851 -0.031746 0)
(0.306848 -0.0313608 0)
(0.307811 -0.0309119 0)
(0.308725 -0.0304048 0)
(0.309587 -0.0298435 0)
(0.31039 -0.0292442 0)
(0.301317 -0.0371073 0)
(0.303246 -0.0369423 0)
(0.304808 -0.0366272 0)
(0.306145 -0.03622 0)
(0.307422 -0.035734 0)
(0.308675 -0.0351682 0)
(0.309882 -0.0345245 0)
(0.311019 -0.0338112 0)
(0.312079 -0.0330331 0)
(0.313055 -0.032215 0)
(0.301754 -0.0429811 0)
(0.304497 -0.0426688 0)
(0.30657 -0.0421585 0)
(0.308271 -0.04153 0)
(0.309886 -0.0407991 0)
(0.311475 -0.0399642 0)
(0.312997 -0.0390301 0)
(0.314413 -0.0380104 0)
(0.315717 -0.0369125 0)
(0.316903 -0.0357772 0)
(0.303156 -0.0508336 0)
(0.307045 -0.0502204 0)
(0.309824 -0.0493898 0)
(0.31204 -0.0484415 0)
(0.314134 -0.0473785 0)
(0.316178 -0.0461877 0)
(0.318098 -0.0448707 0)
(0.319838 -0.0434457 0)
(0.321388 -0.0419149 0)
(0.322737 -0.0403564 0)
(0.307591 -0.0617736 0)
(0.312773 -0.0603852 0)
(0.31611 -0.0586968 0)
(0.318644 -0.0568995 0)
(0.321038 -0.0550072 0)
(0.323354 -0.0529981 0)
(0.325458 -0.05087 0)
(0.327264 -0.0486474 0)
(0.32876 -0.0463255 0)
(0.329972 -0.0440342 0)
(0.31745 -0.0776673 0)
(0.323839 -0.0756278 0)
(0.32687 -0.073165 0)
(0.328374 -0.070413 0)
(0.329531 -0.0673754 0)
(0.330499 -0.0640739 0)
(0.33111 -0.060559 0)
(0.331259 -0.0568961 0)
(0.330976 -0.0530823 0)
(0.330244 -0.0493488 0)
(0.316386 -0.0799086 0)
(0.319665 -0.0736312 0)
(0.318617 -0.0684107 0)
(0.316008 -0.0637714 0)
(0.31307 -0.0592785 0)
(0.309815 -0.0548139 0)
(0.306084 -0.0503797 0)
(0.30189 -0.0459728 0)
(0.297425 -0.041557 0)
(0.292515 -0.0371367 0)
(0.265184 -0.100317 0)
(0.246238 -0.0862621 0)
(0.222098 -0.0739864 0)
(0.20189 -0.0631138 0)
(0.185549 -0.0532722 0)
(0.171358 -0.044383 0)
(0.158652 -0.0364434 0)
(0.147438 -0.0293932 0)
(0.137547 -0.0230587 0)
(0.12849 -0.0168962 0)
(0.299878 -0.0170051 0)
(0.300024 -0.0164134 0)
(0.300171 -0.0156748 0)
(0.300299 -0.0148581 0)
(0.300419 -0.0139725 0)
(0.300507 -0.0131077 0)
(0.300588 -0.0122427 0)
(0.300627 -0.0114764 0)
(0.300669 -0.0107426 0)
(0.300659 -0.0101556 0)
(0.300669 -0.0096043 0)
(0.300621 -0.00923491 0)
(0.300613 -0.00888866 0)
(0.300545 -0.00875279 0)
(0.300533 -0.00861556 0)
(0.300463 -0.00869832 0)
(0.300455 -0.00873242 0)
(0.300395 -0.00898447 0)
(0.300392 -0.00908513 0)
(0.300339 -0.00948236 0)
(0.300476 -0.017165 0)
(0.300687 -0.016556 0)
(0.300872 -0.0157976 0)
(0.301011 -0.0149607 0)
(0.301117 -0.0140531 0)
(0.301166 -0.0131668 0)
(0.301194 -0.0122798 0)
(0.301164 -0.0114931 0)
(0.301133 -0.0107402 0)
(0.301041 -0.0101366 0)
(0.300976 -0.00957297 0)
(0.300845 -0.00919334 0)
(0.300771 -0.00884475 0)
(0.300633 -0.00870523 0)
(0.300575 -0.00857494 0)
(0.300456 -0.00865786 0)
(0.300426 -0.00870331 0)
(0.30034 -0.00895527 0)
(0.300333 -0.0090649 0)
(0.30027 -0.00945812 0)
(0.301129 -0.0173638 0)
(0.301444 -0.0167275 0)
(0.301704 -0.0159327 0)
(0.301885 -0.0150556 0)
(0.302002 -0.0141071 0)
(0.302031 -0.0131827 0)
(0.302016 -0.0122612 0)
(0.30192 -0.0114449 0)
(0.301815 -0.0106676 0)
(0.301631 -0.0100447 0)
(0.301478 -0.0094699 0)
(0.301245 -0.00908237 0)
(0.301087 -0.00873831 0)
(0.300854 -0.00860132 0)
(0.300731 -0.00848952 0)
(0.30054 -0.00858038 0)
(0.300473 -0.00865028 0)
(0.300346 -0.00890812 0)
(0.300329 -0.00903597 0)
(0.30025 -0.00942709 0)
(0.301774 -0.0176673 0)
(0.30221 -0.0169763 0)
(0.30256 -0.0161166 0)
(0.302794 -0.0151721 0)
(0.302931 -0.0141583 0)
(0.302944 -0.0131756 0)
(0.302893 -0.0122032 0)
(0.302733 -0.0113444 0)
(0.302559 -0.0105338 0)
(0.302282 -0.00988477 0)
(0.302042 -0.00929644 0)
(0.301703 -0.00890002 0)
(0.301459 -0.00856523 0)
(0.301123 -0.00843524 0)
(0.300931 -0.00835343 0)
(0.300662 -0.00846029 0)
(0.300555 -0.00856976 0)
(0.300388 -0.00884108 0)
(0.300358 -0.00899929 0)
(0.300271 -0.00939117 0)
(0.302432 -0.0180732 0)
(0.303002 -0.0173032 0)
(0.303449 -0.0163517 0)
(0.303738 -0.0153135 0)
(0.303892 -0.0142104 0)
(0.303886 -0.0131492 0)
(0.303795 -0.0121094 0)
(0.303567 -0.0111951 0)
(0.303319 -0.0103412 0)
(0.302944 -0.0096585 0)
(0.302615 -0.00905291 0)
(0.302164 -0.00864533 0)
(0.301829 -0.00832353 0)
(0.301385 -0.0082043 0)
(0.301119 -0.00816442 0)
(0.300771 -0.00829589 0)
(0.30062 -0.00846202 0)
(0.300422 -0.00875598 0)
(0.300379 -0.0089586 0)
(0.300305 -0.00935575 0)
(0.303132 -0.0185967 0)
(0.30385 -0.0177175 0)
(0.3044 -0.0166412 0)
(0.304742 -0.0154785 0)
(0.304907 -0.0142594 0)
(0.304872 -0.0130983 0)
(0.30473 -0.0119743 0)
(0.304424 -0.0109914 0)
(0.304094 -0.0100844 0)
(0.303613 -0.00936035 0)
(0.303186 -0.00873361 0)
(0.302612 -0.00831233 0)
(0.302177 -0.00800755 0)
(0.301616 -0.00790324 0)
(0.301268 -0.00791921 0)
(0.300838 -0.00808566 0)
(0.30064 -0.0083291 0)
(0.300422 -0.00865748 0)
(0.300366 -0.00892158 0)
(0.300335 -0.00933081 0)
(0.3039 -0.0192525 0)
(0.304784 -0.0182258 0)
(0.305443 -0.0169852 0)
(0.305833 -0.0156622 0)
(0.305998 -0.0142976 0)
(0.305918 -0.0130144 0)
(0.305712 -0.0117891 0)
(0.305314 -0.010725 0)
(0.304892 -0.00975542 0)
(0.304291 -0.00898221 0)
(0.303757 -0.00833015 0)
(0.303045 -0.00789201 0)
(0.302498 -0.0076088 0)
(0.301805 -0.00752391 0)
(0.301363 -0.00761263 0)
(0.300846 -0.00782665 0)
(0.300594 -0.00817339 0)
(0.300372 -0.00855139 0)
(0.300302 -0.00889886 0)
(0.30035 -0.00933 0)
(0.304766 -0.0200599 0)
(0.305838 -0.0188362 0)
(0.30661 -0.017382 0)
(0.307037 -0.0158568 0)
(0.307184 -0.0143146 0)
(0.307041 -0.0128864 0)
(0.306754 -0.0115433 0)
(0.306248 -0.0103865 0)
(0.305722 -0.00934483 0)
(0.304986 -0.00851454 0)
(0.304331 -0.00783222 0)
(0.303464 -0.00737289 0)
(0.302789 -0.00711603 0)
(0.301945 -0.00705508 0)
(0.301392 -0.0072373 0)
(0.300781 -0.00751397 0)
(0.300465 -0.00799746 0)
(0.300255 -0.00844459 0)
(0.300171 -0.00890427 0)
(0.300346 -0.00937067 0)
(0.305769 -0.0210427 0)
(0.307051 -0.0195563 0)
(0.307936 -0.0178272 0)
(0.308384 -0.0160508 0)
(0.308489 -0.014296 0)
(0.308254 -0.0127002 0)
(0.307866 -0.0112243 0)
(0.307233 -0.0099645 0)
(0.306589 -0.00884218 0)
(0.305703 -0.00794653 0)
(0.304914 -0.00722753 0)
(0.303871 -0.00674082 0)
(0.303047 -0.00651462 0)
(0.302027 -0.00648174 0)
(0.301342 -0.00678285 0)
(0.300622 -0.00714014 0)
(0.30023 -0.00780398 0)
(0.300049 -0.0083448 0)
(0.299952 -0.00895526 0)
(0.300309 -0.00947405 0)
(0.306961 -0.0222285 0)
(0.308476 -0.0203915 0)
(0.309468 -0.0183106 0)
(0.309905 -0.0162261 0)
(0.309933 -0.0142223 0)
(0.309573 -0.0124379 0)
(0.309059 -0.010817 0)
(0.308277 -0.00944733 0)
(0.307504 -0.0082366 0)
(0.306451 -0.00726686 0)
(0.305515 -0.00650183 0)
(0.304267 -0.00597874 0)
(0.303273 -0.00578544 0)
(0.302038 -0.00578379 0)
(0.301196 -0.00623421 0)
(0.300338 -0.00669323 0)
(0.299856 -0.00759458 0)
(0.299713 -0.00825891 0)
(0.299605 -0.00907256 0)
(0.300199 -0.00966364 0)
(0.308414 -0.0236473 0)
(0.310182 -0.0213418 0)
(0.311258 -0.0188136 0)
(0.311638 -0.0163567 0)
(0.31154 -0.0140674 0)
(0.311013 -0.0120771 0)
(0.310343 -0.0103047 0)
(0.309392 -0.00882305 0)
(0.308478 -0.00751774 0)
(0.307241 -0.00646423 0)
(0.306144 -0.00563839 0)
(0.304657 -0.00506552 0)
(0.303459 -0.00490243 0)
(0.301956 -0.00493378 0)
(0.300916 -0.00556772 0)
(0.29987 -0.00615304 0)
(0.299274 -0.00736543 0)
(0.299154 -0.00818803 0)
(0.299038 -0.00927592 0)
(0.299898 -0.00995875 0)
(0.310231 -0.0253274 0)
(0.31226 -0.0223967 0)
(0.313379 -0.0193056 0)
(0.313633 -0.016406 0)
(0.313344 -0.0137973 0)
(0.312594 -0.0115907 0)
(0.311734 -0.009669 0)
(0.310587 -0.00807987 0)
(0.309521 -0.00667556 0)
(0.30808 -0.00552626 0)
(0.306797 -0.00461517 0)
(0.305021 -0.00397125 0)
(0.303563 -0.00382475 0)
(0.301706 -0.00388959 0)
(0.300399 -0.004742 0)
(0.299071 -0.00548374 0)
(0.298313 -0.00709689 0)
(0.298143 -0.00811669 0)
(0.298011 -0.00957159 0)
(0.299089 -0.0103588 0)
(0.312563 -0.0272954 0)
(0.314847 -0.0235323 0)
(0.315936 -0.0197417 0)
(0.315964 -0.0163251 0)
(0.31539 -0.0133677 0)
(0.314338 -0.0109439 0)
(0.313229 -0.00888655 0)
(0.311843 -0.00720194 0)
(0.310588 -0.0056945 0)
(0.308902 -0.00443149 0)
(0.307374 -0.00339628 0)
(0.305224 -0.00264777 0)
(0.303397 -0.00248334 0)
(0.301051 -0.00257717 0)
(0.299342 -0.00367335 0)
(0.297572 -0.0046135 0)
(0.296537 -0.00672839 0)
(0.296148 -0.00799105 0)
(0.295946 -0.00992588 0)
(0.297045 -0.0108161 0)
(0.315672 -0.0295589 0)
(0.318173 -0.0246931 0)
(0.319091 -0.0200449 0)
(0.318719 -0.016033 0)
(0.317687 -0.0127042 0)
(0.31617 -0.0100725 0)
(0.314671 -0.00790542 0)
(0.312926 -0.00614512 0)
(0.31137 -0.00453007 0)
(0.309329 -0.00312412 0)
(0.30742 -0.00190749 0)
(0.304747 -0.00100945 0)
(0.302355 -0.000767472 0)
(0.299317 -0.000882179 0)
(0.29696 -0.00221337 0)
(0.294502 -0.00339936 0)
(0.292951 -0.00610633 0)
(0.292044 -0.00767361 0)
(0.291605 -0.0102142 0)
(0.292332 -0.0112009 0)
(0.320048 -0.0321075 0)
(0.322559 -0.0257903 0)
(0.322935 -0.0200861 0)
(0.321748 -0.0153821 0)
(0.319836 -0.0116525 0)
(0.317464 -0.00882897 0)
(0.315216 -0.0065902 0)
(0.312805 -0.00478012 0)
(0.310678 -0.00306015 0)
(0.308048 -0.00147143 0)
(0.305513 -8.95868e-07 0)
(0.3021 0.00111959 0)
(0.29887 0.0015243 0)
(0.294906 0.00139891 0)
(0.291557 -0.000146134 0)
(0.288107 -0.00164524 0)
(0.285611 -0.00497388 0)
(0.283796 -0.00691973 0)
(0.282761 -0.0101804 0)
(0.282643 -0.011292 0)
(0.326192 -0.0351088 0)
(0.327797 -0.026747 0)
(0.326548 -0.0196111 0)
(0.323499 -0.0140005 0)
(0.31975 -0.00981337 0)
(0.315685 -0.00685605 0)
(0.311974 -0.00464973 0)
(0.308335 -0.00286356 0)
(0.305197 -0.00106773 0)
(0.301683 0.000708111 0)
(0.298294 0.00248711 0)
(0.293999 0.00391787 0)
(0.289748 0.00459207 0)
(0.284712 0.0044895 0)
(0.280083 0.00281102 0)
(0.275435 0.000920614 0)
(0.271492 -0.00300331 0)
(0.268456 -0.00542277 0)
(0.266313 -0.00950221 0)
(0.26521 -0.0108744 0)
(0.332623 -0.0363707 0)
(0.330393 -0.0257213 0)
(0.324986 -0.0169978 0)
(0.318012 -0.0104452 0)
(0.310782 -0.00592432 0)
(0.303807 -0.0030751 0)
(0.297788 -0.00121519 0)
(0.292453 0.000239363 0)
(0.288098 0.00185396 0)
(0.283775 0.00366466 0)
(0.279802 0.00568007 0)
(0.275011 0.00742329 0)
(0.270104 0.00844886 0)
(0.26432 0.00845988 0)
(0.258547 0.00680824 0)
(0.252767 0.00454182 0)
(0.247201 8.70018e-05 0)
(0.243089 -0.00297481 0)
(0.239641 -0.00805553 0)
(0.238336 -0.00999334 0)
(0.327312 -0.0364835 0)
(0.315271 -0.0221223 0)
(0.302635 -0.0113719 0)
(0.28997 -0.0042581 0)
(0.27842 0.000134866 0)
(0.268384 0.00242706 0)
(0.260456 0.00355057 0)
(0.254333 0.00427583 0)
(0.250022 0.00530358 0)
(0.246404 0.00686027 0)
(0.243399 0.008953 0)
(0.239652 0.0110046 0)
(0.235501 0.0124803 0)
(0.230099 0.0128186 0)
(0.224123 0.0114832 0)
(0.217883 0.0090264 0)
(0.211478 0.0041549 0)
(0.20734 0.000125058 0)
(0.203483 -0.00638016 0)
(0.203674 -0.00921678 0)
(0.279605 -0.024037 0)
(0.251679 -0.00891392 0)
(0.232942 0.00242839 0)
(0.217447 0.00778476 0)
(0.205904 0.0101206 0)
(0.197337 0.0101959 0)
(0.191946 0.00924825 0)
(0.189126 0.00816337 0)
(0.188477 0.00785286 0)
(0.188735 0.00871042 0)
(0.189337 0.0107243 0)
(0.188846 0.0132056 0)
(0.187297 0.0154237 0)
(0.183862 0.0165219 0)
(0.179255 0.0158741 0)
(0.174085 0.0133822 0)
(0.168833 0.00803269 0)
(0.166448 0.00267806 0)
(0.164016 -0.00574664 0)
(0.166958 -0.00940877 0)
(0.12049 0.00757524 0)
(0.109377 0.00847435 0)
(0.107277 0.0140702 0)
(0.10365 0.0143043 0)
(0.104193 0.01419 0)
(0.10565 0.0118715 0)
(0.108975 0.00911393 0)
(0.113628 0.00662759 0)
(0.11933 0.00557975 0)
(0.125113 0.0064191 0)
(0.130374 0.00905048 0)
(0.133984 0.0126626 0)
(0.13587 0.0162427 0)
(0.135532 0.0185579 0)
(0.133873 0.01869 0)
(0.131698 0.0160089 0)
(0.129686 0.00993983 0)
(0.130208 0.00308663 0)
(0.130192 -0.00703303 0)
(0.135421 -0.0109297 0)
(0.0407647 -0.00368801 0)
(0.037172 0.00397871 0)
(0.0475636 0.0107965 0)
(0.0495697 0.0113463 0)
(0.0559409 0.011321 0)
(0.0617604 0.00865568 0)
(0.0690459 0.00557416 0)
(0.0768763 0.00282589 0)
(0.0852014 0.00174603 0)
(0.0932598 0.00286469 0)
(0.100564 0.00611269 0)
(0.106237 0.0105881 0)
(0.11018 0.0151128 0)
(0.112088 0.0182254 0)
(0.112783 0.0187993 0)
(0.113032 0.0161299 0)
(0.113329 0.00965583 0)
(0.115529 0.00232808 0)
(0.116768 -0.00852631 0)
(0.122367 -0.0123398 0)
(0.0165781 -0.0115303 0)
(0.0126203 0.00274014 0)
(0.02536 0.0094345 0)
(0.0292944 0.0100936 0)
(0.0378538 0.0098422 0)
(0.0453351 0.00705175 0)
(0.0540943 0.00382433 0)
(0.0630518 0.000998893 0)
(0.07226 -8.16803e-05 0)
(0.0810633 0.00115839 0)
(0.0890525 0.0046625 0)
(0.0954746 0.00949248 0)
(0.100232 0.0144065 0)
(0.103098 0.017848 0)
(0.10484 0.0185951 0)
(0.106176 0.0159542 0)
(0.107498 0.00931362 0)
(0.110394 0.00188278 0)
(0.112141 -0.00925783 0)
(0.117749 -0.0129679 0)
(0.0011252 -0.0121854 0)
(-0.00536105 0.00179831 0)
(0.00799469 0.00773729 0)
(0.0133243 0.00855513 0)
(0.0236163 0.00804153 0)
(0.0324369 0.00518871 0)
(0.0423347 0.00185775 0)
(0.0520965 -0.000996882 0)
(0.061874 -0.00203987 0)
(0.0711347 -0.000664139 0)
(0.0795664 0.00308634 0)
(0.0865512 0.0082457 0)
(0.0920031 0.0135166 0)
(0.0957617 0.0172576 0)
(0.0985212 0.0181584 0)
(0.100914 0.0155574 0)
(0.10323 0.00878591 0)
(0.10674 0.00132319 0)
(0.108932 -0.0100334 0)
(0.114389 -0.0135901 0)
(-0.00793098 -0.0100083 0)
(-0.0174066 0.00109078 0)
(-0.00424978 0.00580327 0)
(0.00204609 0.00671333 0)
(0.0136007 0.00593887 0)
(0.0234038 0.00308704 0)
(0.0340729 -0.000286567 0)
(0.044296 -0.00311579 0)
(0.0543152 -0.00407997 0)
(0.0637323 -0.00255684 0)
(0.0723511 0.00142471 0)
(0.0796968 0.00688254 0)
(0.0857031 0.0124701 0)
(0.0902614 0.016474 0)
(0.0939779 0.017508 0)
(0.0973611 0.0149527 0)
(0.100609 0.00809591 0)
(0.104628 0.000660733 0)
(0.107194 -0.0108251 0)
(0.112341 -0.0141938 0)
(-0.0122569 -0.00638543 0)
(-0.0239641 0.000633272 0)
(-0.0112084 0.00383645 0)
(-0.00430891 0.00467481 0)
(0.00804963 0.00362846 0)
(0.0184634 0.000834033 0)
(0.0295227 -0.00252513 0)
(0.0398563 -0.00527078 0)
(0.0497861 -0.00613034 0)
(0.0590572 -0.00445777 0)
(0.0676018 -0.000271929 0)
(0.0750956 0.00544144 0)
(0.0814974 0.0112941 0)
(0.0867359 0.0155165 0)
(0.0913168 0.0166605 0)
(0.0955911 0.0141572 0)
(0.0996824 0.00726294 0)
(0.104088 -8.35878e-05 0)
(0.106954 -0.0116084 0)
(0.11164 -0.0147615 0)
(-0.0127736 -0.00213878 0)
(-0.0253247 0.000380451 0)
(-0.0128231 0.00188992 0)
(-0.00563116 0.00252385 0)
(0.00709147 0.0012057 0)
(0.0177365 -0.0014834 0)
(0.0288019 -0.00477589 0)
(0.0389004 -0.00739093 0)
(0.0484179 -0.00812236 0)
(0.0572476 -0.00630629 0)
(0.0654575 -0.00195101 0)
(0.0728791 0.00396293 0)
(0.0795012 0.0100196 0)
(0.0852755 0.0144096 0)
(0.0905991 0.0156382 0)
(0.0956351 0.0131936 0)
(0.10046 0.00630993 0)
(0.105119 -0.000887105 0)
(0.108216 -0.0123611 0)
(0.112299 -0.0152767 0)
(-0.00972853 0.00187529 0)
(-0.0216036 0.000164094 0)
(-0.00909286 -6.32225e-05 0)
(-0.00190089 0.000342761 0)
(0.0107448 -0.00123337 0)
(0.0212393 -0.00378415 0)
(0.0319322 -0.0069629 0)
(0.0414646 -0.00940765 0)
(0.0502647 -0.00999239 0)
(0.0583739 -0.00804477 0)
(0.0659964 -0.00356191 0)
(0.073123 0.0024895 0)
(0.0797778 0.00868201 0)
(0.0859216 0.013184 0)
(0.0918413 0.0144703 0)
(0.0974851 0.0120896 0)
(0.102916 0.00526359 0)
(0.107692 -0.00172719 0)
(0.110958 -0.0130628 0)
(0.114312 -0.0157237 0)
(-0.00275343 0.00478089 0)
(-0.0127245 -0.000185484 0)
(-6.07468e-05 -0.00203547 0)
(0.00681976 -0.00178634 0)
(0.0189239 -0.00359397 0)
(0.0288828 -0.00598657 0)
(0.0388364 -0.00901311 0)
(0.0474937 -0.0112559 0)
(0.0552983 -0.0116813 0)
(0.0624325 -0.00961884 0)
(0.0692316 -0.00505645 0)
(0.0758449 0.00106472 0)
(0.0823378 0.00732067 0)
(0.0886684 0.0118754 0)
(0.0950176 0.0131917 0)
(0.101097 0.0108768 0)
(0.106996 0.00415346 0)
(0.111749 -0.0025839 0)
(0.115129 -0.0136961 0)
(0.117645 -0.0160874 0)
(0.00910357 0.00543121 0)
(0.00157363 -0.000719111 0)
(0.0141819 -0.00395745 0)
(0.0203814 -0.00378175 0)
(0.0314374 -0.00578622 0)
(0.0404726 -0.00801086 0)
(0.0493362 -0.0108572 0)
(0.0568371 -0.0128763 0)
(0.0634026 -0.0131357 0)
(0.0693416 -0.0109789 0)
(0.0751071 -0.0063875 0)
(0.0810028 -0.00026779 0)
(0.0871398 0.00597727 0)
(0.0934643 0.010523 0)
(0.100063 0.0118413 0)
(0.106392 0.00958932 0)
(0.112614 0.00301171 0)
(0.117204 -0.00343747 0)
(0.120652 -0.0142461 0)
(0.122244 -0.016356 0)
(0.0273419 0.00188339 0)
(0.0217725 -0.00152157 0)
(0.0334626 -0.00572133 0)
(0.0385251 -0.00559296 0)
(0.0479867 -0.00772923 0)
(0.0557087 -0.00979597 0)
(0.0631504 -0.0124365 0)
(0.0692468 -0.0142209 0)
(0.0743714 -0.0143119 0)
(0.0789378 -0.0120835 0)
(0.0834962 -0.00751416 0)
(0.0884935 -0.00146692 0)
(0.0940912 0.00468887 0)