x,y,z,p
0,0,0,5.67574e-06
0,0.1,0,9.76465e-06
0,0.2,0,1.38536e-05
0,0.3,0,1.79425e-05
0,0.4,0,2.28215e-05
0,0.5,0,2.84905e-05
0,0.6,0,3.41596e-05
0,0.7,0,3.98286e-05
0,0.8,0,4.54419e-05
0,0.9,0,5.10552e-05
0,1,0,5.66685e-05
0,1.1,0,6.22361e-05
0,1.2,0,6.7758e-05
0,1.3,0,7.328e-05
0,1.4,0,7.8802e-05
0,1.5,0,8.42032e-05
0,1.6,0,8.96044e-05
0,1.7,0,9.50056e-05
0,1.8,0,0.000100332
0,1.9,0,0.000105583
0,2,0,0.000110834
0,2.1,0,0.000116085
0,2.2,0,0.000121156
0,2.3,0,0.000126226
0,2.4,0,0.000131297
0,2.5,0,0.000136262
0,2.6,0,0.000141121
0,2.7,0,0.00014598
0,2.8,0,0.00015084
0,2.9,0,0.000155456
0,3,0,0.000160073
0,3.1,0,0.000164689
0,3.2,0,0.000169168
0,3.3,0,0.000173508
0,3.4,0,0.000177849
0,3.5,0,0.000182189
0,3.6,0,0.000186218
0,3.7,0,0.000190246
0,3.8,0,0.000194275
0,3.9,0,0.000198128
0,4,0,0.000201805
0,4.1,0,0.000205482
0,4.2,0,0.00020916
0,4.3,0,0.000212441
0,4.4,0,0.000215723
0,4.5,0,0.000219005
0,4.6,0,0.000222065
0,4.7,0,0.000224905
0,4.8,0,0.000227744
0,4.9,0,0.000230584
0,5,0,0.000232934
0,5.1,0,0.000235283
0,5.2,0,0.000237634
0,5.3,0,0.000239715
0,5.4,0,0.000241527
0,5.5,0,0.000243339
0,5.6,0,0.000245151
0,5.7,0,0.000246371
0,5.8,0,0.000247592
0,5.9,0,0.000248812
0,6,0,0.000249726
0,6.1,0,0.000250333
0,6.2,0,0.000250941
0,6.3,0,0.000251548
0,6.4,0,0.000251404
0,6.5,0,0.00025126
0,6.6,0,0.000251116
0,6.7,0,0.000250748
0,6.8,0,0.000250156
0,6.9,0,0.000249564
0,7,0,0.000248972
0,7.1,0,0.000247386
0,7.2,0,0.000246079
0,7.3,0,0.000244626
0,7.4,0,0.000243071
0,7.5,0,0.00024141
0,7.6,0,0.000239635
0,7.7,0,0.000237749
0,7.8,0,0.000235759
0,7.9,0,0.000233645
0,8,0,0.000230472
0,8.1,0,0.000228269
0,8.2,0,0.000226066
0,8.3,0,0.000223472
0,8.4,0,0.000220666
0,8.5,0,0.000217745
0,8.6,0,0.000214552
0,8.7,0,0.000211359
0,8.8,0,0.000207841
0,8.9,0,0.000204306
0,9,0,0.000200582
0,9.1,0,0.000196731
0,9.2,0,0.000192807
0,9.3,0,0.000188661
0,9.4,0,0.000184515
0,9.5,0,0.000180121
0,9.6,0,0.0001757
0,9.7,0,0.000171138
0,9.8,0,0.00016646
0,9.9,0,0.000161736
0,10,0,0.000156821
0,10.1,0,0.000151907
0,10.2,0,0.000146807
0,10.3,0,0.000141674
0,10.4,0,0.000136442
0,10.5,0,0.000131109
0,10.6,0,0.000125748
0,10.7,0,0.000120234
0,10.8,0,0.000114719
0,10.9,0,0.000109074
0,11,0,0.000103396
0,11.1,0,9.76526e-05
0,11.2,0,9.18303e-05
0,11.3,0,8.59955e-05
0,11.4,0,8.00487e-05
0,11.5,0,7.41019e-05
0,11.6,0,6.80767e-05
0,11.7,0,6.20254e-05
0,11.8,0,5.59404e-05
0,11.9,0,4.98048e-05
0,12,0,4.36661e-05
0,12.1,0,3.74663e-05
0,12.2,0,3.12664e-05
0,12.3,0,2.50347e-05
0,12.4,0,1.87893e-05
0,12.5,0,1.31651e-05
0,12.6,0,8.69458e-06
0,12.7,0,4.22404e-06
0.1,0,0,5.07829e-06
0.1,0.1,0,9.17603e-06
0.1,0.2,0,1.3265e-05
0.1,0.3,0,1.73539e-05
0.1,0.4,0,2.28279e-05
0.1,0.5,0,2.8497e-05
0.1,0.6,0,3.4166e-05
0.1,0.7,0,4.01406e-05
0.1,0.8,0,4.5456e-05
0.1,0.9,0,5.10692e-05
0.1,1,0,5.66825e-05
0.1,1.1,0,6.22557e-05
0.1,1.2,0,6.77776e-05
0.1,1.3,0,7.32996e-05
0.1,1.4,0,7.93705e-05
0.1,1.5,0,8.42281e-05
0.1,1.6,0,8.96293e-05
0.1,1.7,0,9.50305e-05
0.1,1.8,0,0.000100362
0.1,1.9,0,0.000105613
0.1,2,0,0.000110864
0.1,2.1,0,0.000116812
0.1,2.2,0,0.000121192
0.1,2.3,0,0.000126262
0.1,2.4,0,0.000131333
0.1,2.5,0,0.000136303
0.1,2.6,0,0.000141163
0.1,2.7,0,0.000146022
0.1,2.8,0,0.000151589
0.1,2.9,0,0.000155504
0.1,3,0,0.00016012
0.1,3.1,0,0.000164737
0.1,3.2,0,0.000169222
0.1,3.3,0,0.000173562
0.1,3.4,0,0.000177903
0.1,3.5,0,0.000182804
0.1,3.6,0,0.000186278
0.1,3.7,0,0.000190307
0.1,3.8,0,0.000194336
0.1,3.9,0,0.000198196
0.1,4,0,0.000201874
0.1,4.1,0,0.000205551
0.1,4.2,0,0.000209491
0.1,4.3,0,0.000212518
0.1,4.4,0,0.0002158
0.1,4.5,0,0.000219082
0.1,4.6,0,0.000222151
0.1,4.7,0,0.00022499
0.1,4.8,0,0.00022783
0.1,4.9,0,0.000230537
0.1,5,0,0.000233028
0.1,5.1,0,0.000235378
0.1,5.2,0,0.000237728
0.1,5.3,0,0.000239818
0.1,5.4,0,0.00024163
0.1,5.5,0,0.000243442
0.1,5.6,0,0.000244734
0.1,5.7,0,0.000246486
0.1,5.8,0,0.000247706
0.1,5.9,0,0.000248927
0.1,6,0,0.000249838
0.1,6.1,0,0.000250445
0.1,6.2,0,0.000251052
0.1,6.3,0,0.000250892
0.1,6.4,0,0.000251569
0.1,6.5,0,0.000251425
0.1,6.6,0,0.000251281
0.1,6.7,0,0.000250748
0.1,6.8,0,0.000250156
0.1,6.9,0,0.000249564
0.1,7,0,0.000248323
0.1,7.1,0,0.000246712
0.1,7.2,0,0.00024542
0.1,7.3,0,0.000243984
0.1,7.4,0,0.000242441
0.1,7.5,0,0.000240785
0.1,7.6,0,0.000239011
0.1,7.7,0,0.00023712
0.1,7.8,0,0.000235121
0.1,7.9,0,0.000232997
0.1,8,0,0.000229833
0.1,8.1,0,0.000228367
0.1,8.2,0,0.000226164
0.1,8.3,0,0.000223523
0.1,8.4,0,0.000220718
0.1,8.5,0,0.000217789
0.1,8.6,0,0.000214596
0.1,8.7,0,0.000210824
0.1,8.8,0,0.000207881
0.1,8.9,0,0.000204346
0.1,9,0,0.000200619
0.1,9.1,0,0.000196769
0.1,9.2,0,0.000192842
0.1,9.3,0,0.000188696
0.1,9.4,0,0.000184152
0.1,9.5,0,0.000180154
0.1,9.6,0,0.000175732
0.1,9.7,0,0.000171168
0.1,9.8,0,0.000166491
0.1,9.9,0,0.000161651
0.1,10,0,0.00015685
0.1,10.1,0,0.000151719
0.1,10.2,0,0.000146833
0.1,10.3,0,0.0001417
0.1,10.4,0,0.000136465
0.1,10.5,0,0.000131132
0.1,10.6,0,0.000125593
0.1,10.7,0,0.000120255
0.1,10.8,0,0.000114663
0.1,10.9,0,0.000109093
0.1,11,0,0.000103415
0.1,11.1,0,9.76692e-05
0.1,11.2,0,9.18469e-05
0.1,11.3,0,8.58328e-05
0.1,11.4,0,8.00629e-05
0.1,11.5,0,7.41161e-05
0.1,11.6,0,6.80884e-05
0.1,11.7,0,6.20371e-05
0.1,11.8,0,5.59495e-05
0.1,11.9,0,4.9814e-05
0.1,12,0,4.35557e-05
0.1,12.1,0,3.7473e-05
0.1,12.2,0,3.12732e-05
0.1,12.3,0,2.50393e-05
0.1,12.4,0,1.87938e-05
0.1,12.5,0,1.27215e-05
0.1,12.6,0,8.251e-06
0.1,12.7,0,3.77941e-06
0.2,0,0,4.48084e-06
0.2,0.1,0,8.58742e-06
0.2,0.2,0,1.26763e-05
0.2,0.3,0,1.72455e-05
0.2,0.4,0,2.29321e-05
0.2,0.5,0,2.85035e-05
0.2,0.6,0,3.41725e-05
0.2,0.7,0,4.04526e-05
0.2,0.8,0,4.547e-05
0.2,0.9,0,5.10833e-05
0.2,1,0,5.69767e-05
0.2,1.1,0,6.25518e-05
0.2,1.2,0,6.77972e-05
0.2,1.3,0,7.33191e-05
0.2,1.4,0,7.99391e-05
0.2,1.5,0,8.4253e-05
0.2,1.6,0,8.96542e-05
0.2,1.7,0,9.54655e-05
0.2,1.8,0,0.000100799
0.2,1.9,0,0.000105644
0.2,2,0,0.000110895
0.2,2.1,0,0.00011754
0.2,2.2,0,0.000121228
0.2,2.3,0,0.000126298
0.2,2.4,0,0.000131833
0.2,2.5,0,0.000136805
0.2,2.6,0,0.000141204
0.2,2.7,0,0.000146064
0.2,2.8,0,0.000152339
0.2,2.9,0,0.000155551
0.2,3,0,0.000160168
0.2,3.1,0,0.000165206
0.2,3.2,0,0.000169693
0.2,3.3,0,0.000173616
0.2,3.4,0,0.000177957
0.2,3.5,0,0.000183419
0.2,3.6,0,0.000186339
0.2,3.7,0,0.000190368
0.2,3.8,0,0.000194672
0.2,3.9,0,0.000198535
0.2,4,0,0.000201942
0.2,4.1,0,0.000205619
0.2,4.2,0,0.000209822
0.2,4.3,0,0.000212596
0.2,4.4,0,0.000215877
0.2,4.5,0,0.000219205
0.2,4.6,0,0.000222277
0.2,4.7,0,0.000225076
0.2,4.8,0,0.000227916
0.2,4.9,0,0.000230491
0.2,5,0,0.000233123
0.2,5.1,0,0.000235473
0.2,5.2,0,0.000237607
0.2,5.3,0,0.000239701
0.2,5.4,0,0.000241734
0.2,5.5,0,0.000243546
0.2,5.6,0,0.000244316
0.2,5.7,0,0.0002466
0.2,5.8,0,0.000247821
0.2,5.9,0,0.000248608
0.2,6,0,0.000249518
0.2,6.1,0,0.000250556
0.2,6.2,0,0.000251164
0.2,6.3,0,0.000250235
0.2,6.4,0,0.000251735
0.2,6.5,0,0.000251591
0.2,6.6,0,0.000250917
0.2,6.7,0,0.000250325
0.2,6.8,0,0.000250156
0.2,6.9,0,0.000249564
0.2,7,0,0.000247674
0.2,7.1,0,0.000246038
0.2,7.2,0,0.00024476
0.2,7.3,0,0.000243342
0.2,7.4,0,0.000241811
0.2,7.5,0,0.00024016
0.2,7.6,0,0.000238386
0.2,7.7,0,0.000236492
0.2,7.8,0,0.000234483
0.2,7.9,0,0.000232349
0.2,8,0,0.000229195
0.2,8.1,0,0.000228464
0.2,8.2,0,0.000225828
0.2,8.3,0,0.000223574
0.2,8.4,0,0.000220769
0.2,8.5,0,0.000217271
0.2,8.6,0,0.000214641
0.2,8.7,0,0.000210143
0.2,8.8,0,0.000207922
0.2,8.9,0,0.000204112
0.2,9,0,0.000200657
0.2,9.1,0,0.000196807
0.2,9.2,0,0.00019219
0.2,9.3,0,0.000188732
0.2,9.4,0,0.000183518
0.2,9.5,0,0.000180187
0.2,9.6,0,0.000175651
0.2,9.7,0,0.000171198
0.2,9.8,0,0.000166521
0.2,9.9,0,0.000161087
0.2,10,0,0.000156878
0.2,10.1,0,0.000151198
0.2,10.2,0,0.000146859
0.2,10.3,0,0.000141726
0.2,10.4,0,0.000136489
0.2,10.5,0,0.000131156
0.2,10.6,0,0.000125164
0.2,10.7,0,0.000120276
0.2,10.8,0,0.000114283
0.2,10.9,0,0.000109112
0.2,11,0,0.000103434
0.2,11.1,0,9.76229e-05
0.2,11.2,0,9.18635e-05
0.2,11.3,0,8.555e-05
0.2,11.4,0,8.00771e-05
0.2,11.5,0,7.38842e-05
0.2,11.6,0,6.81001e-05
0.2,11.7,0,6.20488e-05
0.2,11.8,0,5.58836e-05
0.2,11.9,0,4.98231e-05
0.2,12,0,4.34156e-05
0.2,12.1,0,3.74797e-05
0.2,12.2,0,3.1201e-05
0.2,12.3,0,2.50438e-05
0.2,12.4,0,1.87984e-05
0.2,12.5,0,1.25102e-05
0.2,12.6,0,7.80741e-06
0.2,12.7,0,3.33477e-06
0.3,0,0,3.8834e-06
0.3,0.1,0,7.99627e-06
0.3,0.2,0,1.20877e-05
0.3,0.3,0,1.7404e-05
0.3,0.4,0,2.30906e-05
0.3,0.5,0,2.85099e-05
0.3,0.6,0,3.42663e-05
0.3,0.7,0,4.07646e-05
0.3,0.8,0,4.55692e-05
0.3,0.9,0,5.10974e-05
0.3,1,0,5.74265e-05
0.3,1.1,0,6.30016e-05
0.3,1.2,0,6.78168e-05
0.3,1.3,0,7.34956e-05
0.3,1.4,0,8.05076e-05
0.3,1.5,0,8.44332e-05
0.3,1.6,0,8.96791e-05
0.3,1.7,0,9.61284e-05
0.3,1.8,0,0.000101462
0.3,1.9,0,0.000105674
0.3,2,0,0.000111124
0.3,2.1,0,0.000118267
0.3,2.2,0,0.000121461
0.3,2.3,0,0.000126334
0.3,2.4,0,0.00013259
0.3,2.5,0,0.000137563
0.3,2.6,0,0.000141246
0.3,2.7,0,0.000146308
0.3,2.8,0,0.000153089
0.3,2.9,0,0.0001558
0.3,3,0,0.000160216
0.3,3.1,0,0.000165908
0.3,3.2,0,0.000170395
0.3,3.3,0,0.00017367
0.3,3.4,0,0.000178171
0.3,3.5,0,0.000184034
0.3,3.6,0,0.000186558
0.3,3.7,0,0.000190429
0.3,3.8,0,0.000195161
0.3,3.9,0,0.000199025
0.3,4,0,0.000202011
0.3,4.1,0,0.000205763
0.3,4.2,0,0.000210153
0.3,4.3,0,0.000212745
0.3,4.4,0,0.000215954
0.3,4.5,0,0.000219354
0.3,4.6,0,0.000222426
0.3,4.7,0,0.000225162
0.3,4.8,0,0.000227964
0.3,4.9,0,0.000230444
0.3,5,0,0.000233177
0.3,5.1,0,0.000235567
0.3,5.2,0,0.000237367
0.3,5.3,0,0.00023946
0.3,5.4,0,0.000241838
0.3,5.5,0,0.000243501
0.3,5.6,0,0.000243899
0.3,5.7,0,0.000246563
0.3,5.8,0,0.000247935
0.3,5.9,0,0.000248049
0.3,6,0,0.000248959
0.3,6.1,0,0.000250668
0.3,6.2,0,0.000251056
0.3,6.3,0,0.000249578
0.3,6.4,0,0.000251665
0.3,6.5,0,0.000251756
0.3,6.6,0,0.00025026
0.3,6.7,0,0.000249667
0.3,6.8,0,0.000250155
0.3,6.9,0,0.000249378
0.3,7,0,0.000247025
0.3,7.1,0,0.000245363
0.3,7.2,0,0.000244101
0.3,7.3,0,0.000242701
0.3,7.4,0,0.00024118
0.3,7.5,0,0.000239535
0.3,7.6,0,0.000237762
0.3,7.7,0,0.000235863
0.3,7.8,0,0.000233844
0.3,7.9,0,0.000231701
0.3,8,0,0.000228556
0.3,8.1,0,0.000228562
0.3,8.2,0,0.000225186
0.3,8.3,0,0.000223368
0.3,8.4,0,0.000220698
0.3,8.5,0,0.0002166
0.3,8.6,0,0.000214685
0.3,8.7,0,0.000209462
0.3,8.8,0,0.000207962
0.3,8.9,0,0.000203436
0.3,9,0,0.000200285
0.3,9.1,0,0.000196845
0.3,9.2,0,0.000191531
0.3,9.3,0,0.000188767
0.3,9.4,0,0.000182884
0.3,9.5,0,0.00018022
0.3,9.6,0,0.000175049
0.3,9.7,0,0.000170738
0.3,9.8,0,0.000166552
0.3,9.9,0,0.000160524
0.3,10,0,0.000156906
0.3,10.1,0,0.000150678
0.3,10.2,0,0.000146885
0.3,10.3,0,0.000141261
0.3,10.4,0,0.000136024
0.3,10.5,0,0.000131179
0.3,10.6,0,0.000124736
0.3,10.7,0,0.000120298
0.3,10.8,0,0.000113903
0.3,10.9,0,0.000109131
0.3,11,0,0.000103181
0.3,11.1,0,9.72915e-05
0.3,11.2,0,9.18801e-05
0.3,11.3,0,8.52673e-05
0.3,11.4,0,8.00913e-05
0.3,11.5,0,7.36496e-05
0.3,11.6,0,6.81118e-05
0.3,11.7,0,6.19463e-05
0.3,11.8,0,5.56966e-05
0.3,11.9,0,4.98323e-05
0.3,12,0,4.32755e-05
0.3,12.1,0,3.74865e-05
0.3,12.2,0,3.11074e-05
0.3,12.3,0,2.50316e-05
0.3,12.4,0,1.87839e-05
0.3,12.5,0,1.24635e-05
0.3,12.6,0,7.36383e-06
0.3,12.7,0,2.89014e-06
0.4,0,0,3.28595e-06
0.4,0.1,0,7.39883e-06
0.4,0.2,0,1.14991e-05
0.4,0.3,0,1.75625e-05
0.4,0.4,0,2.32491e-05
0.4,0.5,0,2.85164e-05
0.4,0.6,0,3.45783e-05
0.4,0.7,0,4.10766e-05
0.4,0.8,0,4.58812e-05
0.4,0.9,0,5.11115e-05
0.4,1,0,5.78763e-05
0.4,1.1,0,6.34513e-05
0.4,1.2,0,6.78363e-05
0.4,1.3,0,7.40641e-05
0.4,1.4,0,8.10761e-05
0.4,1.5,0,8.50018e-05
0.4,1.6,0,8.9704e-05
0.4,1.7,0,9.67913e-05
0.4,1.8,0,0.000102125
0.4,1.9,0,0.000105704
0.4,2,0,0.000111852
0.4,2.1,0,0.000118994
0.4,2.2,0,0.000122189
0.4,2.3,0,0.000126371
0.4,2.4,0,0.000133348
0.4,2.5,0,0.00013832
0.4,2.6,0,0.000141288
0.4,2.7,0,0.000147058
0.4,2.8,0,0.000153839
0.4,2.9,0,0.00015655
0.4,3,0,0.000160263
0.4,3.1,0,0.000166611
0.4,3.2,0,0.000171098
0.4,3.3,0,0.000173724
0.4,3.4,0,0.000178786
0.4,3.5,0,0.000184649
0.4,3.6,0,0.000187173
0.4,3.7,0,0.00019049
0.4,3.8,0,0.000195651
0.4,3.9,0,0.000199514
0.4,4,0,0.000202079
0.4,4.1,0,0.000206094
0.4,4.2,0,0.000210484
0.4,4.3,0,0.000213076
0.4,4.4,0,0.000216032
0.4,4.5,0,0.000219502
0.4,4.6,0,0.000222575
0.4,4.7,0,0.000225248
0.4,4.8,0,0.000227917
0.4,4.9,0,0.000230398
0.4,5,0,0.00023313
0.4,5.1,0,0.000235662
0.4,5.2,0,0.000237127
0.4,5.3,0,0.00023922
0.4,5.4,0,0.000241941
0.4,5.5,0,0.000243084
0.4,5.6,0,0.000243482
0.4,5.7,0,0.000246145
0.4,5.8,0,0.000248049
0.4,5.9,0,0.000247489
0.4,6,0,0.000248399
0.4,6.1,0,0.00025078
0.4,6.2,0,0.000250399
0.4,6.3,0,0.000248922
0.4,6.4,0,0.000251009
0.4,6.5,0,0.000251921
0.4,6.6,0,0.000249602
0.4,6.7,0,0.000249009
0.4,6.8,0,0.000250155
0.4,6.9,0,0.000248729
0.4,7,0,0.000246375
0.4,7.1,0,0.000244689
0.4,7.2,0,0.000243442
0.4,7.3,0,0.000242059
0.4,7.4,0,0.00024055
0.4,7.5,0,0.00023891
0.4,7.6,0,0.000237138
0.4,7.7,0,0.000235235
0.4,7.8,0,0.000233206
0.4,7.9,0,0.000231053
0.4,8,0,0.000227917
0.4,8.1,0,0.000228659
0.4,8.2,0,0.000224544
0.4,8.3,0,0.000222726
0.4,8.4,0,0.000220027
0.4,8.5,0,0.000215929
0.4,8.6,0,0.00021473
0.4,8.7,0,0.00020878
0.4,8.8,0,0.000207887
0.4,8.9,0,0.00020276
0.4,9,0,0.000199609
0.4,9.1,0,0.000196207
0.4,9.2,0,0.000190871
0.4,9.3,0,0.000188803
0.4,9.4,0,0.00018225
0.4,9.5,0,0.000180011
0.4,9.6,0,0.000174448
0.4,9.7,0,0.000170137
0.4,9.8,0,0.000166127
0.4,9.9,0,0.000159961
0.4,10,0,0.000156934
0.4,10.1,0,0.000150157
0.4,10.2,0,0.000146602
0.4,10.3,0,0.000140786
0.4,10.4,0,0.000135548
0.4,10.5,0,0.000130948
0.4,10.6,0,0.000124308
0.4,10.7,0,0.000120319
0.4,10.8,0,0.000113523
0.4,10.9,0,0.000108844
0.4,11,0,0.000102849
0.4,11.1,0,9.69602e-05
0.4,11.2,0,9.17884e-05
0.4,11.3,0,8.49845e-05
0.4,11.4,0,8.01055e-05
0.4,11.5,0,7.3415e-05
0.4,11.6,0,6.78851e-05
0.4,11.7,0,6.17593e-05
0.4,11.8,0,5.55096e-05
0.4,11.9,0,4.98176e-05
0.4,12,0,4.31355e-05
0.4,12.1,0,3.74932e-05
0.4,12.2,0,3.10139e-05
0.4,12.3,0,2.49381e-05
0.4,12.4,0,1.87372e-05
0.4,12.5,0,1.24168e-05
0.4,12.6,0,6.92024e-06
0.4,12.7,0,2.4455e-06
0.5,0,0,2.68851e-06
0.5,0.1,0,6.80138e-06
0.5,0.2,0,1.16042e-05
0.5,0.3,0,1.77209e-05
0.5,0.4,0,2.34075e-05
0.5,0.5,0,2.8664e-05
0.5,0.6,0,3.48903e-05
0.5,0.7,0,4.13886e-05
0.5,0.8,0,4.61932e-05
0.5,0.9,0,5.15301e-05
0.5,1,0,5.8326e-05
0.5,1.1,0,6.39011e-05
0.5,1.2,0,6.82554e-05
0.5,1.3,0,7.46327e-05
0.5,1.4,0,8.16447e-05
0.5,1.5,0,8.55703e-05
0.5,1.6,0,9.03213e-05
0.5,1.7,0,9.74542e-05
0.5,1.8,0,0.000102788
0.5,1.9,0,0.000106322
0.5,2,0,0.000112579
0.5,2.1,0,0.000119722
0.5,2.2,0,0.000122916
0.5,2.3,0,0.000127077
0.5,2.4,0,0.000134105
0.5,2.5,0,0.000139078
0.5,2.6,0,0.000141994
0.5,2.7,0,0.000147808
0.5,2.8,0,0.000154589
0.5,2.9,0,0.0001573
0.5,3,0,0.000160919
0.5,3.1,0,0.000167313
0.5,3.2,0,0.0001718
0.5,3.3,0,0.000174381
0.5,3.4,0,0.000179401
0.5,3.5,0,0.000185264
0.5,3.6,0,0.000187788
0.5,3.7,0,0.000190948
0.5,3.8,0,0.00019614
0.5,3.9,0,0.000200004
0.5,4,0,0.000202539
0.5,4.1,0,0.000206425
0.5,4.2,0,0.000210815
0.5,4.3,0,0.000213408
0.5,4.4,0,0.000216175
0.5,4.5,0,0.000219651
0.5,4.6,0,0.000222723
0.5,4.7,0,0.000225392
0.5,4.8,0,0.000227871
0.5,4.9,0,0.000230352
0.5,5,0,0.000233084
0.5,5.1,0,0.000235445
0.5,5.2,0,0.000236887
0.5,5.3,0,0.00023898
0.5,5.4,0,0.000241726
0.5,5.5,0,0.000242666
0.5,5.6,0,0.000243064
0.5,5.7,0,0.000245728
0.5,5.8,0,0.000247538
0.5,5.9,0,0.00024693
0.5,6,0,0.00024784
0.5,6.1,0,0.000250268
0.5,6.2,0,0.000249743
0.5,6.3,0,0.000248265
0.5,6.4,0,0.000250352
0.5,6.5,0,0.000251322
0.5,6.6,0,0.000248944
0.5,6.7,0,0.000248351
0.5,6.8,0,0.000249544
0.5,6.9,0,0.00024808
0.5,7,0,0.000245726
0.5,7.1,0,0.000244015
0.5,7.2,0,0.000242782
0.5,7.3,0,0.000241418
0.5,7.4,0,0.000239919
0.5,7.5,0,0.000238285
0.5,7.6,0,0.000236514
0.5,7.7,0,0.000234606
0.5,7.8,0,0.000232568
0.5,7.9,0,0.000230405
0.5,8,0,0.000227278
0.5,8.1,0,0.000228052
0.5,8.2,0,0.000223902
0.5,8.3,0,0.000222083
0.5,8.4,0,0.000219356
0.5,8.5,0,0.000215259
0.5,8.6,0,0.000214226
0.5,8.7,0,0.000208099
0.5,8.8,0,0.000207206
0.5,8.9,0,0.000202084
0.5,9,0,0.000198933
0.5,9.1,0,0.000195548
0.5,9.2,0,0.000190212
0.5,9.3,0,0.000188468
0.5,9.4,0,0.000181616
0.5,9.5,0,0.000179377
0.5,9.6,0,0.000173846
0.5,9.7,0,0.000169536
0.5,9.8,0,0.000165564
0.5,9.9,0,0.000159398
0.5,10,0,0.000156681
0.5,10.1,0,0.000149636
0.5,10.2,0,0.000146082
0.5,10.3,0,0.00014031
0.5,10.4,0,0.000135073
0.5,10.5,0,0.00013052
0.5,10.6,0,0.00012388
0.5,10.7,0,0.000120123
0.5,10.8,0,0.000113143
0.5,10.9,0,0.000108464
0.5,11,0,0.000102518
0.5,11.1,0,9.66288e-05
0.5,11.2,0,9.15057e-05
0.5,11.3,0,8.47017e-05
0.5,11.4,0,7.99554e-05
0.5,11.5,0,7.31804e-05
0.5,11.6,0,6.76505e-05
0.5,11.7,0,6.15723e-05
0.5,11.8,0,5.53226e-05
0.5,11.9,0,4.96776e-05
0.5,12,0,4.29954e-05
0.5,12.1,0,3.73891e-05
0.5,12.2,0,3.09203e-05
0.5,12.3,0,2.48445e-05
0.5,12.4,0,1.86905e-05
0.5,12.5,0,1.23702e-05
0.5,12.6,0,6.47565e-06
0.5,12.7,0,2.00086e-06
0.6,0,0,2.09106e-06
0.6,0.1,0,6.20394e-06
0.6,0.2,0,1.17576e-05
0.6,0.3,0,1.78794e-05
0.6,0.4,0,2.3566e-05
0.6,0.5,0,2.89971e-05
0.6,0.6,0,3.52023e-05
0.6,0.7,0,4.17006e-05
0.6,0.8,0,4.65052e-05
0.6,0.9,0,5.21501e-05
0.6,1,0,5.87758e-05
0.6,1.1,0,6.43509e-05
0.6,1.2,0,6.90189e-05
0.6,1.3,0,7.52012e-05
0.6,1.4,0,8.22133e-05
0.6,1.5,0,8.61389e-05
0.6,1.6,0,9.12949e-05
0.6,1.7,0,9.81171e-05
0.6,1.8,0,0.000103451
0.6,1.9,0,0.000107383
0.6,2,0,0.000113306
0.6,2.1,0,0.000120449
0.6,2.2,0,0.000123643
0.6,2.3,0,0.000128229
0.6,2.4,0,0.000134863
0.6,2.5,0,0.000139835
0.6,2.6,0,0.000143157
0.6,2.7,0,0.000148558
0.6,2.8,0,0.000155339
0.6,2.9,0,0.00015805
0.6,3,0,0.000162023
0.6,3.1,0,0.000168016
0.6,3.2,0,0.000172503
0.6,3.3,0,0.000175404
0.6,3.4,0,0.000180016
0.6,3.5,0,0.000185879
0.6,3.6,0,0.000188403
0.6,3.7,0,0.000191754
0.6,3.8,0,0.00019663
0.6,3.9,0,0.000200493
0.6,4,0,0.000203178
0.6,4.1,0,0.000206757
0.6,4.2,0,0.000211147
0.6,4.3,0,0.000213739
0.6,4.4,0,0.000216469
0.6,4.5,0,0.0002198
0.6,4.6,0,0.000222872
0.6,4.7,0,0.000225465
0.6,4.8,0,0.000227825
0.6,4.9,0,0.000230305
0.6,5,0,0.000233038
0.6,5.1,0,0.000235124
0.6,5.2,0,0.000236646
0.6,5.3,0,0.00023874
0.6,5.4,0,0.000241188
0.6,5.5,0,0.000242249
0.6,5.6,0,0.000242647
0.6,5.7,0,0.000245311
0.6,5.8,0,0.000246675
0.6,5.9,0,0.00024637
0.6,6,0,0.00024728
0.6,6.1,0,0.00024927
0.6,6.2,0,0.000249086
0.6,6.3,0,0.000247609
0.6,6.4,0,0.000249695
0.6,6.5,0,0.000250195
0.6,6.6,0,0.000248286
0.6,6.7,0,0.000247694
0.6,6.8,0,0.000248516
0.6,6.9,0,0.00024743
0.6,7,0,0.000245077
0.6,7.1,0,0.000243341
0.6,7.2,0,0.000242123
0.6,7.3,0,0.000240776
0.6,7.4,0,0.000239289
0.6,7.5,0,0.00023766
0.6,7.6,0,0.000235889
0.6,7.7,0,0.000233978
0.6,7.8,0,0.000231929
0.6,7.9,0,0.000229757
0.6,8,0,0.00022664
0.6,8.1,0,0.000227012
0.6,8.2,0,0.00022326
0.6,8.3,0,0.000221441
0.6,8.4,0,0.000218686
0.6,8.5,0,0.000214588
0.6,8.6,0,0.000213012
0.6,8.7,0,0.000207417
0.6,8.8,0,0.00020628
0.6,8.9,0,0.000201408
0.6,9,0,0.000198256
0.6,9.1,0,0.000194888
0.6,9.2,0,0.000189552
0.6,9.3,0,0.000187176
0.6,9.4,0,0.000180982
0.6,9.5,0,0.000178655
0.6,9.6,0,0.000173245
0.6,9.7,0,0.000168934
0.6,9.8,0,0.000165001
0.6,9.9,0,0.000158835
0.6,10,0,0.000155569
0.6,10.1,0,0.000149115
0.6,10.2,0,0.000145561
0.6,10.3,0,0.000139835
0.6,10.4,0,0.000134597
0.6,10.5,0,0.000130092
0.6,10.6,0,0.000123451
0.6,10.7,0,0.000119293
0.6,10.8,0,0.000112763
0.6,10.9,0,0.000108084
0.6,11,0,0.000102187
0.6,11.1,0,9.62974e-05
0.6,11.2,0,9.11748e-05
0.6,11.3,0,8.4419e-05
0.6,11.4,0,7.94371e-05
0.6,11.5,0,7.29459e-05
0.6,11.6,0,6.74159e-05
0.6,11.7,0,6.13853e-05
0.6,11.8,0,5.51356e-05
0.6,11.9,0,4.94707e-05
0.6,12,0,4.28553e-05
0.6,12.1,0,3.71743e-05
0.6,12.2,0,3.08268e-05
0.6,12.3,0,2.4751e-05
0.6,12.4,0,1.86438e-05
0.6,12.5,0,1.23235e-05
0.6,12.6,0,6.24636e-06
0.6,12.7,0,1.55623e-06
0.7,0,0,1.49361e-06
0.7,0.1,0,5.76658e-06
0.7,0.2,0,1.19073e-05
0.7,0.3,0,1.80378e-05
0.7,0.4,0,2.37244e-05
0.7,0.5,0,2.9461e-05
0.7,0.6,0,3.55468e-05
0.7,0.7,0,4.20126e-05
0.7,0.8,0,4.69106e-05
0.7,0.9,0,5.28979e-05
0.7,1,0,5.92256e-05
0.7,1.1,0,6.48007e-05
0.7,1.2,0,7.00176e-05
0.7,1.3,0,7.5862e-05
0.7,1.4,0,8.27818e-05
0.7,1.5,0,8.68441e-05
0.7,1.6,0,9.25014e-05
0.7,1.7,0,9.878e-05
0.7,1.8,0,0.000104114
0.7,1.9,0,0.000108743
0.7,2,0,0.000114169
0.7,2.1,0,0.000121177
0.7,2.2,0,0.000124525
0.7,2.3,0,0.000129678
0.7,2.4,0,0.00013562
0.7,2.5,0,0.000140593
0.7,2.6,0,0.000144622
0.7,2.7,0,0.000149461
0.7,2.8,0,0.000156089
0.7,2.9,0,0.00015894
0.7,3,0,0.000163428
0.7,3.1,0,0.000168718
0.7,3.2,0,0.000173205
0.7,3.3,0,0.000176667
0.7,3.4,0,0.00018077
0.7,3.5,0,0.000186494
0.7,3.6,0,0.00018911
0.7,3.7,0,0.000192798
0.7,3.8,0,0.000197119
0.7,3.9,0,0.000200983
0.7,4,0,0.00020393
0.7,4.1,0,0.000207178
0.7,4.2,0,0.000211478
0.7,4.3,0,0.000214085
0.7,4.4,0,0.000216872
0.7,4.5,0,0.000219949
0.7,4.6,0,0.000223021
0.7,4.7,0,0.000225482
0.7,4.8,0,0.000227792
0.7,4.9,0,0.000230259
0.7,5,0,0.00023292
0.7,5.1,0,0.000234743
0.7,5.2,0,0.000236406
0.7,5.3,0,0.000238499
0.7,5.4,0,0.000240426
0.7,5.5,0,0.000241758
0.7,5.6,0,0.000242229
0.7,5.7,0,0.000244749
0.7,5.8,0,0.000245584
0.7,5.9,0,0.000245811
0.7,6,0,0.000246721
0.7,6.1,0,0.000247942
0.7,6.2,0,0.000248286
0.7,6.3,0,0.000246952
0.7,6.4,0,0.000248863
0.7,6.5,0,0.000248715
0.7,6.6,0,0.000247628
0.7,6.7,0,0.000247036
0.7,6.8,0,0.000247209
0.7,6.9,0,0.00024664
0.7,7,0,0.000244428
0.7,7.1,0,0.000242667
0.7,7.2,0,0.000241464
0.7,7.3,0,0.000240134
0.7,7.4,0,0.000238658
0.7,7.5,0,0.000237035
0.7,7.6,0,0.000235265
0.7,7.7,0,0.000233349
0.7,7.8,0,0.000231291
0.7,7.9,0,0.000229109
0.7,8,0,0.000226001
0.7,8.1,0,0.000225634
0.7,8.2,0,0.000222618
0.7,8.3,0,0.000220707
0.7,8.4,0,0.000217786
0.7,8.5,0,0.000213917
0.7,8.6,0,0.000211615
0.7,8.7,0,0.000206736
0.7,8.8,0,0.000204883
0.7,8.9,0,0.000200732
0.7,9,0,0.00019758
0.7,9.1,0,0.000193849
0.7,9.2,0,0.000188893
0.7,9.3,0,0.000185847
0.7,9.4,0,0.000180348
0.7,9.5,0,0.000177387
0.7,9.6,0,0.000172644
0.7,9.7,0,0.000168333
0.7,9.8,0,0.000163974
0.7,9.9,0,0.000158272
0.7,10,0,0.000154457
0.7,10.1,0,0.000148594
0.7,10.2,0,0.000144571
0.7,10.3,0,0.000139359
0.7,10.4,0,0.000134122
0.7,10.5,0,0.000129196
0.7,10.6,0,0.000123023
0.7,10.7,0,0.000118463
0.7,10.8,0,0.000112383
0.7,10.9,0,0.000107447
0.7,11,0,0.000101855
0.7,11.1,0,9.59661e-05
0.7,11.2,0,9.0544e-05
0.7,11.3,0,8.41362e-05
0.7,11.4,0,7.89055e-05
0.7,11.5,0,7.27113e-05
0.7,11.6,0,6.70756e-05
0.7,11.7,0,6.11983e-05
0.7,11.8,0,5.49485e-05
0.7,11.9,0,4.91345e-05
0.7,12,0,4.27153e-05
0.7,12.1,0,3.6934e-05
0.7,12.2,0,3.07332e-05
0.7,12.3,0,2.46405e-05
0.7,12.4,0,1.85846e-05
0.7,12.5,0,1.22768e-05
0.7,12.6,0,6.19863e-06
0.7,12.7,0,1.11159e-06
0.8,0,0,8.96169e-07
0.8,0.1,0,5.91622e-06
0.8,0.2,0,1.20569e-05
0.8,0.3,0,1.81963e-05
0.8,0.4,0,2.38829e-05
0.8,0.5,0,2.9925e-05
0.8,0.6,0,3.60108e-05
0.8,0.7,0,4.23246e-05
0.8,0.8,0,4.76583e-05
0.8,0.9,0,5.36456e-05
0.8,1,0,5.96754e-05
0.8,1.1,0,6.52505e-05
0.8,1.2,0,7.10164e-05
0.8,1.3,0,7.68607e-05
0.8,1.4,0,8.33504e-05
0.8,1.5,0,8.80507e-05
0.8,1.6,0,9.37079e-05
0.8,1.7,0,9.94428e-05
0.8,1.8,0,0.000104776
0.8,1.9,0,0.000110103
0.8,2,0,0.000115529
0.8,2.1,0,0.000121904
0.8,2.2,0,0.000125974
0.8,2.3,0,0.000131127
0.8,2.4,0,0.000136378
0.8,2.5,0,0.000141351
0.8,2.6,0,0.000146088
0.8,2.7,0,0.000150927
0.8,2.8,0,0.000156839
0.8,2.9,0,0.000160345
0.8,3,0,0.000164832
0.8,3.1,0,0.000169421
0.8,3.2,0,0.000173908
0.8,3.3,0,0.00017793
0.8,3.4,0,0.000182033
0.8,3.5,0,0.000187109
0.8,3.6,0,0.000190154
0.8,3.7,0,0.000193842
0.8,3.8,0,0.000197609
0.8,3.9,0,0.000201472
0.8,4,0,0.000204682
0.8,4.1,0,0.00020793
0.8,4.2,0,0.000211809
0.8,4.3,0,0.000214488
0.8,4.4,0,0.000217275
0.8,4.5,0,0.000220097
0.8,4.6,0,0.00022317
0.8,4.7,0,0.000225498
0.8,4.8,0,0.000227808
0.8,4.9,0,0.000230213
0.8,5,0,0.000232539
0.8,5.1,0,0.000234362
0.8,5.2,0,0.000236166
0.8,5.3,0,0.000238259
0.8,5.4,0,0.000239665
0.8,5.5,0,0.000240996
0.8,5.6,0,0.000241812
0.8,5.7,0,0.000243658
0.8,5.8,0,0.000244493
0.8,5.9,0,0.000245252
0.8,6,0,0.000246162
0.8,6.1,0,0.000246615
0.8,6.2,0,0.000246959
0.8,6.3,0,0.000246296
0.8,6.4,0,0.000247383
0.8,6.5,0,0.000247235
0.8,6.6,0,0.000246971
0.8,6.7,0,0.000246378
0.8,6.8,0,0.000245902
0.8,6.9,0,0.000245333
0.8,7,0,0.000243778
0.8,7.1,0,0.000241993
0.8,7.2,0,0.000240804
0.8,7.3,0,0.000239493
0.8,7.4,0,0.000238028
0.8,7.5,0,0.00023641
0.8,7.6,0,0.000234641
0.8,7.7,0,0.000232721
0.8,7.8,0,0.000230652
0.8,7.9,0,0.000228461
0.8,8,0,0.000225362
0.8,8.1,0,0.000224255
0.8,8.2,0,0.000221976
0.8,8.3,0,0.000219343
0.8,8.4,0,0.000216422
0.8,8.5,0,0.000213247
0.8,8.6,0,0.000210219
0.8,8.7,0,0.000206055
0.8,8.8,0,0.000203485
0.8,8.9,0,0.000199971
0.8,9,0,0.000196259
0.8,9.1,0,0.000192476
0.8,9.2,0,0.000188233
0.8,9.3,0,0.000184518
0.8,9.4,0,0.000179713
0.8,9.5,0,0.000176119
0.8,9.6,0,0.00017183
0.8,9.7,0,0.000167302
0.8,9.8,0,0.000162779
0.8,9.9,0,0.000157708
0.8,10,0,0.000153345
0.8,10.1,0,0.000148074
0.8,10.2,0,0.000143549
0.8,10.3,0,0.000138599
0.8,10.4,0,0.000133411
0.8,10.5,0,0.000128269
0.8,10.6,0,0.000122595
0.8,10.7,0,0.000117634
0.8,10.8,0,0.000112003
0.8,10.9,0,0.000106716
0.8,11,0,0.000101235
0.8,11.1,0,9.55391e-05
0.8,11.2,0,8.99133e-05
0.8,11.3,0,8.38534e-05
0.8,11.4,0,7.8374e-05
0.8,11.5,0,7.24767e-05
0.8,11.6,0,6.66424e-05
0.8,11.7,0,6.07834e-05
0.8,11.8,0,5.47441e-05
0.8,11.9,0,4.87983e-05
0.8,12,0,4.25752e-05
0.8,12.1,0,3.66936e-05
0.8,12.2,0,3.06397e-05
0.8,12.3,0,2.44958e-05
0.8,12.4,0,1.84399e-05
0.8,12.5,0,1.22301e-05
0.8,12.6,0,6.15091e-06
0.8,12.7,0,6.66954e-07
0.9,0,0,2.98723e-07
0.9,0.1,0,6.06586e-06
0.9,0.2,0,1.22065e-05
0.9,0.3,0,1.83472e-05
0.9,0.4,0,2.43033e-05
0.9,0.5,0,3.0389e-05
0.9,0.6,0,3.64748e-05
0.9,0.7,0,4.26366e-05
0.9,0.8,0,4.8406e-05
0.9,0.9,0,5.43933e-05
0.9,1,0,6.03805e-05
0.9,1.1,0,6.61708e-05
0.9,1.2,0,7.20151e-05
0.9,1.3,0,7.78595e-05
0.9,1.4,0,8.39189e-05
0.9,1.5,0,8.92572e-05
0.9,1.6,0,9.49144e-05
0.9,1.7,0,0.000100572
0.9,1.8,0,0.000106037
0.9,1.9,0,0.000111463
0.9,2,0,0.000116889
0.9,2.1,0,0.000122631
0.9,2.2,0,0.000127423
0.9,2.3,0,0.000132576
0.9,2.4,0,0.000137728
0.9,2.5,0,0.000142715
0.9,2.6,0,0.000147554
0.9,2.7,0,0.000152393
0.9,2.8,0,0.000157589
0.9,2.9,0,0.00016175
0.9,3,0,0.000166237
0.9,3.1,0,0.000170725
0.9,3.2,0,0.000175091
0.9,3.3,0,0.000179194
0.9,3.4,0,0.000183297
0.9,3.5,0,0.000187724
0.9,3.6,0,0.000191197
0.9,3.7,0,0.000194885
0.9,3.8,0,0.000198573
0.9,3.9,0,0.000202187
0.9,4,0,0.000205434
0.9,4.1,0,0.000208682
0.9,4.2,0,0.00021214
0.9,4.3,0,0.000214891
0.9,4.4,0,0.000217677
0.9,4.5,0,0.000220464
0.9,4.6,0,0.000223205
0.9,4.7,0,0.000225515
0.9,4.8,0,0.000227825
0.9,4.9,0,0.000230166
0.9,5,0,0.000232157
0.9,5.1,0,0.000233981
0.9,5.2,0,0.000235805
0.9,5.3,0,0.000237572
0.9,5.4,0,0.000238904
0.9,5.5,0,0.000240235
0.9,5.6,0,0.000241395
0.9,5.7,0,0.000242567
0.9,5.8,0,0.000243402
0.9,5.9,0,0.000244237
0.9,6,0,0.000244944
0.9,6.1,0,0.000245288
0.9,6.2,0,0.000245631
0.9,6.3,0,0.000245639
0.9,6.4,0,0.000245903
0.9,6.5,0,0.000245756
0.9,6.6,0,0.000245608
0.9,6.7,0,0.000245164
0.9,6.8,0,0.000244595
0.9,6.9,0,0.000244027
0.9,7,0,0.000243129
0.9,7.1,0,0.000241318
0.9,7.2,0,0.000240145
0.9,7.3,0,0.000238851
0.9,7.4,0,0.000237397
0.9,7.5,0,0.000235785
0.9,7.6,0,0.000234017
0.9,7.7,0,0.000232092
0.9,7.8,0,0.000230014
0.9,7.9,0,0.000227813
0.9,8,0,0.000224724
0.9,8.1,0,0.000222877
0.9,8.2,0,0.00022066
0.9,8.3,0,0.000217979
0.9,8.4,0,0.000215058
0.9,8.5,0,0.000212059
0.9,8.6,0,0.000208823
0.9,8.7,0,0.000205373
0.9,8.8,0,0.000202087
0.9,8.9,0,0.000198573
0.9,9,0,0.000194885
0.9,9.1,0,0.000191102
0.9,9.2,0,0.000187232
0.9,9.3,0,0.000183189
0.9,9.4,0,0.000179079
0.9,9.5,0,0.000174851
0.9,9.6,0,0.000170561
0.9,9.7,0,0.000166107
0.9,9.8,0,0.000161584
0.9,9.9,0,0.000156976
0.9,10,0,0.000152233
0.9,10.1,0,0.00014749
0.9,10.2,0,0.000142526
0.9,10.3,0,0.000137577
0.9,10.4,0,0.000132484
0.9,10.5,0,0.000127341
0.9,10.6,0,0.000122124
0.9,10.7,0,0.000116804
0.9,10.8,0,0.000111484
0.9,10.9,0,0.000105986
0.9,11,0,0.000100505
0.9,11.1,0,9.49084e-05
0.9,11.2,0,8.92825e-05
0.9,11.3,0,8.35707e-05
0.9,11.4,0,7.78425e-05
0.9,11.5,0,7.20905e-05
0.9,11.6,0,6.62091e-05
0.9,11.7,0,6.03501e-05
0.9,11.8,0,5.44079e-05
0.9,11.9,0,4.8462e-05
0.9,12,0,4.24351e-05
0.9,12.1,0,3.64532e-05
0.9,12.2,0,3.04415e-05
0.9,12.3,0,2.4351e-05
0.9,12.4,0,1.82951e-05
0.9,12.5,0,1.21825e-05
0.9,12.6,0,6.10318e-06
0.9,12.7,0,2.22318e-07
1,0,0,0
1,0.1,0,6.22175e-06
1,0.2,0,1.23624e-05
1,0.3,0,1.85031e-05
1,0.4,0,2.47812e-05
1,0.5,0,3.0867e-05
1,0.6,0,3.69528e-05
1,0.7,0,4.29837e-05
1,0.8,0,4.9176e-05
1,0.9,0,5.51633e-05
1,1,0,6.11506e-05
1,1.1,0,6.71999e-05
1,1.2,0,7.30442e-05
1,1.3,0,7.88885e-05
1,1.4,0,8.45705e-05
1,1.5,0,9.05023e-05
1,1.6,0,9.61596e-05
1,1.7,0,0.000101817
1,1.8,0,0.000107443
1,1.9,0,0.000112869
1,2,0,0.000118295
1,2.1,0,0.000123517
1,2.2,0,0.000128926
1,2.3,0,0.000134079
1,2.4,0,0.000139231
1,2.5,0,0.000144242
1,2.6,0,0.000149081
1,2.7,0,0.00015392
1,2.8,0,0.000158612
1,2.9,0,0.000163222
1,3,0,0.00016771
1,3.1,0,0.000172198
1,3.2,0,0.000176428
1,3.3,0,0.000180531
1,3.4,0,0.000184634
1,3.5,0,0.000188775
1,3.6,0,0.00019232
1,3.7,0,0.000196008
1,3.8,0,0.000199696
1,3.9,0,0.000203022
1,4,0,0.00020627
1,4.1,0,0.000209517
1,4.2,0,0.000213119
1,4.3,0,0.00021538
1,4.4,0,0.000218167
1,4.5,0,0.000220953
1,4.6,0,0.00022331
1,4.7,0,0.00022562
1,4.8,0,0.00022793
1,4.9,0,0.00023101
1,5,0,0.000231867
1,5.1,0,0.00023369
1,5.2,0,0.000235514
1,5.3,0,0.000236902
1,5.4,0,0.000238234
1,5.5,0,0.000239565
1,5.6,0,0.000242101
1,5.7,0,0.000241567
1,5.8,0,0.000242402
1,5.9,0,0.000243237
1,6,0,0.000243706
1,6.1,0,0.000244049
1,6.2,0,0.000244393
1,6.3,0,0.000246281
1,6.4,0,0.000244516
1,6.5,0,0.000244368
1,6.6,0,0.000244221
1,6.7,0,0.00024392
1,6.8,0,0.000243352
1,6.9,0,0.000242783
1,7,0,0.000243852
1,7.1,0,0.000242079
1,7.2,0,0.00024092
1,7.3,0,0.00023964
1,7.4,0,0.000238195
1,7.5,0,0.000236586
1,7.6,0,0.000234817
1,7.7,0,0.000232888
1,7.8,0,0.000230801
1,7.9,0,0.000228587
1,8,0,0.000225479
1,8.1,0,0.00022163
1,8.2,0,0.000219413
1,8.3,0,0.000216658
1,8.4,0,0.000213737
1,8.5,0,0.000210697
1,8.6,0,0.000207461
1,8.7,0,0.000205202
1,8.8,0,0.000200723
1,8.9,0,0.000197209
1,9,0,0.000193545
1,9.1,0,0.000189762
1,9.2,0,0.000185934
1,9.3,0,0.000181891
1,9.4,0,0.000178133
1,9.5,0,0.000173612
1,9.6,0,0.000169323
1,9.7,0,0.00016494
1,9.8,0,0.000160417
1,9.9,0,0.00015589
1,10,0,0.000151147
1,10.1,0,0.000146404
1,10.2,0,0.000141529
1,10.3,0,0.000136579
1,10.4,0,0.000131579
1,10.5,0,0.000126437
1,10.6,0,0.000121315
1,10.7,0,0.000115996
1,10.8,0,0.000110676
1,10.9,0,0.000105274
1,11,0,9.97932e-05