/*--------------------------------*- C++ -*----------------------------------*\
| =========                 |                                                 |
| \\      /  F ield         | OpenFOAM: The Open Source CFD Toolbox           |
|  \\    /   O peration     | Version:  v1806                                 |
|   \\  /    A nd           | Web:      www.OpenFOAM.com                      |
|    \\/     M anipulation  |                                                 |
\*---------------------------------------------------------------------------*/
FoamFile
{
    version     2.0;
    format      ascii;
    class       volScalarField;
    location    "410";
    object      p;
}
// * * * * * * * * * * * * * * * * * * * * * * * * * * * * * * * * * * * * * //

dimensions      [0 2 -2 0 0 0 0];


internalField   nonuniform List<scalar> 
2400
(
0.000111964
0.000112469
0.000113485
0.000114954
0.000116754
0.000118715
0.000120613
0.00012218
0.000123088
0.000122956
0.000121355
0.000117838
0.00011195
0.000103283
9.15107e-05
7.64708e-05
5.82216e-05
3.71648e-05
1.39281e-05
-1.23929e-05
0.000335558
0.000337057
0.000340081
0.00034448
0.000349899
0.000355829
0.00036161
0.000366449
0.000369376
0.00036928
0.000364895
0.000354893
0.000337906
0.000312703
0.000278256
0.000234016
0.000179964
0.000116896
4.61553e-05
-2.9729e-05
0.00055815
0.000560701
0.000565841
0.000573345
0.000582637
0.00059289
0.000603009
0.000611689
0.00061732
0.000618056
0.000611767
0.000596197
0.000568994
0.000528006
0.000471385
0.000398055
0.000307796
0.000201811
8.25847e-05
-4.51995e-05
0.000779022
0.000782728
0.000790198
0.000801148
0.000814789
0.000829996
0.000845247
0.00085874
0.000868212
0.000871073
0.000864271
0.000844558
0.000808468
0.000752773
0.000674611
0.000572168
0.000444882
0.000294269
0.000123877
-6.02532e-05
0.0009974
0.00100241
0.00101251
0.00102738
0.00104602
0.00106705
0.00108852
0.00110818
0.00112307
0.00112988
0.00112454
0.00110275
0.00105973
0.000990988
0.000892335
0.000760933
0.000595549
0.000397772
0.000171956
-7.4059e-05
0.00121242
0.00121892
0.00123201
0.00125138
0.00127583
0.00130378
0.00133286
0.00136041
0.00138278
0.00139594
0.00139471
0.00137366
0.00132644
0.00124706
0.00112955
0.000969653
0.000764935
0.000516696
0.000229916
-8.53938e-05
0.00142311
0.00143132
0.00144782
0.00147237
0.00150358
0.00153976
0.00157809
0.00161566
0.00164802
0.00167056
0.0016768
0.00166021
0.00161245
0.00152584
0.00139194
0.00120456
0.000959301
0.000656629
0.000301817
-9.28088e-05
0.00162835
0.00163851
0.00165889
0.00168938
0.0017284
0.00177429
0.00182376
0.00187382
0.00191916
0.00195481
0.00197266
0.00196531
0.00192178
0.00183269
0.00168601
0.00147319
0.00118647
0.000824809
0.00039302
-9.42468e-05
0.0018269
0.00183927
0.00186399
0.00190124
0.00194919
0.00200641
0.00206908
0.00213447
0.00219617
0.00224937
0.00228381
0.00229176
0.00225857
0.00217358
0.00201928
0.00178475
0.0014563
0.0010308
0.00051089
-8.66185e-05
0.00201736
0.00203218
0.00206173
0.00210655
0.00216458
0.00223482
0.00231287
0.00239666
0.00247849
0.00255437
0.00261126
0.00264209
0.00262687
0.00255507
0.00240035
0.00215064
0.00178132
0.00128755
0.000665702
-6.52545e-05
0.00219819
0.00221568
0.0022505
0.00230367
0.00237289
0.00245785
0.00255349
0.00265891
0.00276488
0.00286919
0.00295519
0.0030182
0.00303044
0.00298419
0.00283892
0.00258516
0.00217746
0.00161305
0.000871715
-2.30646e-05
0.00236773
0.00238803
0.00242853
0.00249073
0.00257219
0.0026734
0.00278877
0.00291902
0.00305331
0.0031922
0.00331477
0.00342081
0.00347218
0.00346795
0.00334562
0.00310602
0.00266511
0.00203343
0.00114863
5.09381e-05
0.00252421
0.00254735
0.00259387
0.00266561
0.00276021
0.00287892
0.00301603
0.00317396
0.0033408
0.00352042
0.00368777
0.00384886
0.00395351
0.0040122
0.00393151
0.00373425
0.00327015
0.00258819
0.00152513
0.000175614
0.00266579
0.00269165
0.00274446
0.00282599
0.00293445
0.00307141
0.00323202
0.00341982
0.00362337
0.00384919
0.00407027
0.00429867
0.00447375
0.00461965
0.00460724
0.004492
0.00402436
0.00333411
0.00204502
0.00039397
0.0027906
0.00281887
0.00287815
0.00296939
0.00309219
0.00324746
0.00343297
0.00365171
0.00389588
0.00417187
0.00445631
0.00476298
0.00502947
0.00528802
0.00538207
0.00539798
0.00496636
0.00433939
0.00276554
0.000822826
0.00289678
0.00292699
0.00299276
0.00309326
0.00323053
0.00340335
0.0036146
0.00386387
0.00415192
0.00447963
0.00483724
0.00523005
0.00561321
0.00600746
0.00626237
0.00646103
0.00614807
0.00567386
0.00375307
0.00164121
0.00298251
0.00301407
0.0030862
0.00319507
0.00334647
0.00353523
0.00377225
0.00404991
0.0043838
0.00476151
0.00520082
0.00568271
0.00621079
0.0067587
0.00724922
0.00767777
0.00764258
0.00740948
0.00519358
0.00293035
0.00304602
0.00307837
0.00315644
0.00327245
0.00343701
0.00363935
0.00390103
0.00420327
0.00458281
0.00500492
0.00553088
0.00609655
0.00679522
0.00750703
0.0083292
0.00903461
0.00952003
0.00960653
0.00762249
0.00529998
0.00308573
0.00311849
0.00320165
0.00332326
0.00349911
0.00371228
0.00399574
0.00431785
0.00473919
0.00519756
0.00580747
0.00644429
0.00732605
0.00818787
0.00943455
0.0104686
0.011846
0.0122361
0.0113725
0.00993266
0.00309991
0.00313383
0.0032206
0.00334631
0.00353036
0.00375204
0.00405189
0.00438994
0.00484394
0.00533222
0.00601079
0.00670513
0.00775164
0.00874031
0.0104563
0.0117747
0.014707
0.0151159
0.0174327
-0.00269424
-3.36252e-05
-4.1772e-05
-4.79646e-05
-5.30122e-05
-5.7925e-05
-6.29351e-05
-6.79105e-05
-7.27091e-05
-7.72333e-05
-8.14083e-05
-7.65726e-05
-9.30044e-05
-0.000109278
-0.000125497
-0.000141627
-0.000157609
-0.000173382
-0.000188902
-0.000204158
-0.000219146
-0.000126023
-0.000155457
-0.000184434
-0.000212898
-0.000240946
-0.000268587
-0.000295752
-0.000322358
-0.00034833
-0.000373592
-0.000178471
-0.000221274
-0.000262878
-0.000303546
-0.000343686
-0.000383355
-0.00042241
-0.0004607
-0.00049812
-0.000534576
-0.000233043
-0.00029055
-0.000346347
-0.000400876
-0.000454738
-0.000507998
-0.000560434
-0.000611818
-0.00066199
-0.000710812
-0.000290598
-0.000364888
-0.000436936
-0.000507298
-0.000576771
-0.000645446
-0.000713026
-0.000779201
-0.000843753
-0.000906498
-0.00035197
-0.000445889
-0.0005369
-0.000625699
-0.000713343
-0.000799952
-0.00088513
-0.000968458
-0.00104964
-0.00112842
-0.000417885
-0.000535303
-0.000648963
-0.00075974
-0.000869026
-0.000976978
-0.00108306
-0.0011867
-0.00128749
-0.0013851
-0.000489012
-0.000635204
-0.00077656
-0.000914161
-0.00104983
-0.00118375
-0.0013152
-0.0014434
-0.00156779
-0.00168793
-0.000565885
-0.000748118
-0.000924186
-0.00109537
-0.00126399
-0.00143026
-0.00159317
-0.00175166
-0.00190496
-0.0020525
-0.000648631
-0.000877095
-0.00109797
-0.00131244
-0.00152332
-0.00173081
-0.00193353
-0.00213006
-0.00231936
-0.00250067
-0.000736663
-0.00102616
-0.00130714
-0.00157957
-0.0018463
-0.00210747
-0.00236141
-0.00260631
-0.00284082
-0.00306397
-0.000829875
-0.00120309
-0.00156793
-0.00192068
-0.00226343
-0.00259633
-0.00291751
-0.00322474
-0.0035163
-0.00379101
-0.000936006
-0.00143482
-0.00192026
-0.00238294
-0.00282679
-0.00325399
-0.00366276
-0.00405009
-0.00441349
-0.00475144
-0.00107333
-0.00179392
-0.00247028
-0.00308666
-0.00366162
-0.00420643
-0.00472086
-0.005201
-0.00564441
-0.0060508
-0.00126716
-0.00237012
-0.00334775
-0.0041935
-0.00496421
-0.00568572
-0.00635427
-0.00696048
-0.0075
-0.00797406
-0.00192898
-0.00357194
-0.00480252
-0.00577325
-0.00666792
-0.00753356
-0.00834322
-0.00906879
-0.00970197
-0.0102474
-0.00467235
-0.00776215
-0.00959861
-0.0107314
-0.0116845
-0.0125854
-0.0133845
-0.0140384
-0.0145426
-0.0149198
-0.0038755
-0.00769083
-0.0100237
-0.0118837
-0.0136896
-0.015353
-0.0167262
-0.0177686
-0.0184991
-0.0189774
-0.0315301
-0.0317972
-0.0278421
-0.0255296
-0.0248116
-0.0246445
-0.024593
-0.024603
-0.0246847
-0.0247305
-9.70235e-05
-0.000123204
-0.000138162
-0.000140524
-0.000132502
-0.000118367
-0.000101755
-8.47574e-05
-6.86002e-05
-5.34372e-05
-3.99384e-05
-2.81657e-05
-1.87868e-05
-1.17578e-05
-7.02628e-06
-4.38863e-06
-2.61351e-06
-2.00563e-06
-1.07869e-06
-2.63441e-07
-0.000284139
-0.000365439
-0.000409783
-0.000416738
-0.000393158
-0.000351267
-0.000302016
-0.000251675
-0.000203576
-0.000158886
-0.000118769
-8.41842e-05
-5.61402e-05
-3.46792e-05
-2.0342e-05
-1.15919e-05
-6.62876e-06
-4.72816e-06
-2.38378e-06
-1.01549e-06
-0.000480403
-0.000617352
-0.000690938
-0.000700801
-0.000659383
-0.000587656
-0.000504217
-0.000419409
-0.000338716
-0.000264087
-0.000197034
-0.000139262
-9.21732e-05
-5.62395e-05
-3.23459e-05
-1.7782e-05
-1.00954e-05
-7.25582e-06
-3.80007e-06
-1.94409e-06
-0.000689423
-0.000885247
-0.000987644
-0.000997398
-0.000934236
-0.000829284
-0.000709166
-0.000588175
-0.000473896
-0.000368523
-0.000273877
-0.00019244
-0.000125975
-7.56511e-05
-4.25161e-05
-2.27269e-05
-1.29506e-05
-9.70554e-06
-5.26337e-06
-2.9153e-06
-0.000917697
-0.00117576
-0.00130542
-0.00131025
-0.00121976
-0.00107695
-0.000916893
-0.000757576
-0.000608518
-0.000471422
-0.000348475
-0.000242886
-0.000156607
-9.19914e-05
-5.00163e-05
-2.57573e-05
-1.48601e-05
-1.19042e-05
-6.74204e-06
-4.03238e-06
-0.00117197
-0.00149633
-0.00165044
-0.00164348
-0.00151818
-0.0013315
-0.00112737
-0.000927163
-0.000742051
-0.00057226
-0.000420129
-0.000289715
-0.000182989
-0.000104223
-5.38956e-05
-2.62317e-05
-1.55876e-05
-1.38457e-05
-8.43517e-06
-5.43166e-06
-0.00146097
-0.00185599
-0.0020297
-0.00200147
-0.00183167
-0.00159355
-0.00134032
-0.0010963
-0.000873788
-0.000670178
-0.000488069
-0.000331961
-0.000203922
-0.000111206
-5.31142e-05
-2.35235e-05
-1.49835e-05
-1.56393e-05
-1.06366e-05
-7.27743e-06
-0.00179591
-0.00226558
-0.00245104
-0.00238879
-0.00216222
-0.00186331
-0.00155503
-0.00126408
-0.00100291
-0.000764403
-0.000551481
-0.000368569
-0.000218085
-0.000111675
-4.64847e-05
-1.69857e-05
-1.29612e-05
-1.74821e-05
-1.37993e-05
-9.82988e-06
-0.00219162
-0.0027383
-0.00292316
-0.00281016
-0.00251147
-0.00214045
-0.00177029
-0.00142927
-0.00112858
-0.000854157
-0.000609577
-0.000398403
-0.000224004
-0.000104192
-3.26174e-05
-5.95794e-06
-9.51724e-06
-1.97143e-05
-1.86475e-05
-1.34702e-05
-0.00266802
-0.00329019
-0.00345586
-0.00327046
-0.00288062
-0.0024239
-0.00198423
-0.00159014
-0.0012497
-0.000938733
-0.000661689
-0.000420261
-0.000220044
-8.70973e-05
-9.86723e-06
1.02166e-05
-4.75038e-06
-2.28633e-05
-2.62762e-05
-1.87117e-05
-0.00325234
-0.00394062
-0.00406021
-0.00377481
-0.00327007
-0.00271155
-0.00219408
-0.00174469
-0.00136517
-0.0010175
-0.000707259
-0.000432883
-0.000204417
-5.84538e-05
2.37217e-05
3.21896e-05
1.1379e-06
-2.76634e-05
-3.82447e-05
-2.61893e-05
-0.00398199
-0.00471254
-0.0047488
-0.00432841
-0.00367939
-0.00299998
-0.0023958
-0.00189044
-0.00147377
-0.00108999
-0.000745946
-0.000434993
-0.00017522
-1.60271e-05
7.04279e-05
6.06239e-05
7.90343e-06
-3.50524e-05
-5.66128e-05
-3.65721e-05
-0.00490916
-0.00563291
-0.00553571
-0.00493523
-0.00410662
-0.00328423
-0.0025843
-0.00202353
-0.00157424
-0.00115611
-0.00077776
-0.000425409
-0.000130565
4.26424e-05
0.000132719
9.62854e-05
1.56151e-05
-4.59656e-05
-8.37571e-05
-5.03655e-05
-0.00610472
-0.00673354
-0.00643734
-0.00559674
-0.00454562
-0.00355701
-0.00275282
-0.00214053
-0.00166529
-0.00121626
-0.000803373
-0.000403637
-6.93239e-05
0.000119723
0.00021269
0.000140064
2.49302e-05
-6.03227e-05
-0.000121363
-6.74977e-05
-0.00766674
-0.00805624
-0.00748014
-0.00631483
-0.0049846
-0.0038012
-0.00288853
-0.00223518
-0.00174442
-0.0012708
-0.000824017
-0.000370649
7.38164e-06
0.000215121
0.000310347
0.000192794
3.7506e-05
-7.65991e-05
-0.00016885
-8.66346e-05
-0.00973958
-0.0096369
-0.00869024
-0.00710193
-0.005425
-0.00400972
-0.00298332
-0.0023007
-0.00180712
-0.00131874
-0.000841211
-0.000330156
9.38086e-05
0.000323922
0.000421005
0.00025444
5.72835e-05
-8.87187e-05
-0.000220794
-0.00010445
-0.0123099
-0.0114317
-0.00997832
-0.00785807
-0.00581599
-0.00415639
-0.00302058
-0.00232332
-0.00184244
-0.00135404
-0.00085503
-0.000290577
0.000175563
0.000430357
0.000530177
0.000321527
8.80106e-05
-0.000106153
-0.000265204
-0.000115258
-0.0159485
-0.0136386
-0.0115066
-0.00859497
-0.00615572
-0.00424389
-0.00300466
-0.00229476
-0.00183379
-0.00136239
-0.000858808
-0.000262923
0.00022988
0.000506553
0.000609841
0.000384178
0.000134584
-7.92802e-05
-0.000281241
-0.000111526
-0.0196755
-0.0152807
-0.0126597
-0.00908275
-0.00642022
-0.00428574
-0.00296235
-0.0022281
-0.00177079
-0.00132152
-0.000834868
-0.00024796
0.000236297
0.000517154
0.000622737
0.000419258
0.000184192
-2.67558e-05
-0.000248712
-8.55445e-05
-0.0218677
-0.0169207
-0.0135611
-0.00936388
-0.00664425
-0.00436152
-0.00298389
-0.00216784
-0.00166242
-0.00121352
-0.000757094
-0.000231957
0.000194431
0.000445765
0.000541682
0.000402646
0.00022044
4.90396e-05
-0.000156946
-3.12244e-05
-0.0235094
-0.0164383
-0.0135027
-0.0092954
-0.00673133
-0.00442544
-0.00304185
-0.00213472
-0.00156118
-0.00109097
-0.00066283
-0.000211147
0.000143639
0.00035293
0.000438993
0.000363359
0.000235577
0.000120011
-6.69799e-05
2.98149e-05
-0.0230103
-0.0164624
-0.013488
-0.0092768
-0.00676844
-0.00446919
-0.00307936
-0.00212878
-0.00151781
-0.00103415
-0.00061628
-0.000201142
0.000119596
0.00030793
0.000386953
0.00034236
0.000238861
0.000149831
-2.31464e-05
5.42085e-05
-0.0227747
-0.0164699
-0.0134659
-0.00926251
-0.00680351
-0.00452517
-0.00312594
-0.00212887
-0.00147475
-0.000974567
-0.000565445
-0.000190078
9.4223e-05
0.000259888
0.000330062
0.000318588
0.000239867
0.000178897
2.40187e-05
7.67594e-05
-0.0226226
-0.0164551
-0.0134256
-0.00924084
-0.00683655
-0.00458697
-0.00317814
-0.00213223
-0.00143106
-0.000912109
-0.000511431
-0.000178109
6.73731e-05
0.000209334
0.000270168
0.000293023
0.000239833
0.000208463
7.31415e-05
9.92377e-05
-0.0225276
-0.0164368
-0.0133718
-0.00921297
-0.00686819
-0.00465218
-0.00323391
-0.0021379
-0.00138726
-0.000848073
-0.00045574
-0.000165886
3.92679e-05
0.000157248
0.000208813
0.000266576
0.000239202
0.000238315
0.00012314
0.000121456
-0.0225063
-0.0164202
-0.0133158
-0.00918274
-0.00689885
-0.00471919
-0.00329125
-0.00214505
-0.00134408
-0.000784085
-0.000400068
-0.000154205
1.02254e-05
0.000104711
0.000147484
0.000240134
0.000238272
0.000267968
0.000173003
0.000142762
-0.0225663
-0.0164075
-0.0132609
-0.00915244
-0.00692842
-0.00478593
-0.00334782
-0.00215265
-0.00130216
-0.000721736
-0.000346152
-0.000143878
-1.94529e-05
5.27533e-05
8.76242e-05
0.000214571
0.000237348
0.000297023
0.000221679
0.00016261
-0.0226958
-0.016395
-0.0132057
-0.00912265
-0.00695625
-0.00484996
-0.00340123
-0.00215961
-0.00126206
-0.000662576
-0.000295531
-0.000135646
-4.944e-05
2.37051e-06
3.05369e-05
0.000190718
0.000236663
0.000325121
0.000268118
0.000180564
-0.0228721
-0.0163856
-0.0131456
-0.00909439
-0.00698117
-0.0049096
-0.00344925
-0.00216517
-0.00122438
-0.000608089
-0.000250035
-0.000130172
-7.95065e-05
-4.56242e-05
-2.25916e-05
0.000169087
0.000236569
0.000351812
0.000311459
0.000196257
-0.0232248
-0.0163878
-0.0130831
-0.00907417
-0.00700204
-0.00496578
-0.00349005
-0.00216942
-0.00118998
-0.000559737
-0.000211531
-0.000128306
-0.000110008
-9.12166e-05
-7.04926e-05
0.000149164
0.000238068
0.000376292
0.000351322
0.000208294
-0.0232662
-0.0164416
-0.0129698
-0.00906041
-0.00702799
-0.00505426
-0.00354468
-0.00217467
-0.00113943
-0.000491173
-0.000161316
-0.000132672
-0.000162721
-0.000163639
-0.00014078
0.000117776
0.000244019
0.000412341
0.000411416
0.000221835
-0.0218046
-0.0159838
-0.0126369
-0.00898038
-0.00699847
-0.00510276
-0.00356805
-0.00216449
-0.00109058
-0.000437072
-0.000129977
-0.000154074
-0.000226263
-0.000236824
-0.000207871
9.24132e-05
0.000251965
0.000447545
0.000465249
0.000232195
-0.0200111
-0.0151914
-0.0121095
-0.00881586
-0.00688328
-0.00507255
-0.00353934
-0.00214188
-0.00106756
-0.000426611
-0.000138757
-0.000189554
-0.000278729
-0.000283977
-0.000244166
7.98831e-05
0.000258372
0.000464005
0.000488844
0.000230109
-0.0174294
-0.0139881
-0.0113795
-0.0085208
-0.00666559
-0.0049575
-0.00346193
-0.00210973
-0.00106762
-0.000451486
-0.000176995
-0.000229781
-0.000316089
-0.000306586
-0.000254384
7.42577e-05
0.000260108
0.000460358
0.000484768
0.000217469
-0.0149139
-0.0125968
-0.0104772
-0.00808848
-0.0063506
-0.0047642
-0.00334327
-0.00206794
-0.00108139
-0.000496534
-0.00022922
-0.000265961
-0.000336143
-0.000308624
-0.000246016
7.08769e-05
0.000254549
0.000438725
0.000458777
0.000198331
-0.0126399
-0.0111875
-0.00952656
-0.00754751
-0.00596401
-0.00451217
-0.00319251
-0.00201408
-0.00109703
-0.000546448
-0.000282429
-0.000292955
-0.000340218
-0.000295958
-0.000226405
6.68075e-05
0.000241273
0.00040363
0.000418042
0.000176276
-0.0106748
-0.00986511
-0.00858237
-0.00695047
-0.0055366
-0.00422335
-0.00301821
-0.0019455
-0.00110432
-0.00058943
-0.00032795
-0.000309124
-0.000332003
-0.000274595
-0.000201547
6.09175e-05
0.000221772
0.000360443
0.00036944
0.000153866
-0.0090123
-0.00865912
-0.00768175
-0.00634078
-0.0050916
-0.00391459
-0.00282719
-0.00186099
-0.00109692
-0.000618509
-0.000361312
-0.000315321
-0.000315754
-0.000249449
-0.000175685
5.33819e-05
0.000198412
0.000314184
0.000318604
0.000132645
-0.00761018
-0.00756918
-0.00683564
-0.00573503
-0.0046428
-0.00359657
-0.00262433
-0.00176092
-0.00107231
-0.000630929
-0.000381131
-0.000313285
-0.000295
-0.00022379
-0.000151328
4.49614e-05
0.000173544
0.000268739
0.000269526
0.000113339
-0.00642277
-0.00658532
-0.00604483
-0.0051437
-0.00419745
-0.00327513
-0.00241281
-0.00164664
-0.00103058
-0.000626682
-0.000387868
-0.000304641
-0.000272056
-0.000199318
-0.000129596
3.6483e-05
0.000149009
0.000226577
0.000224606
9.61543e-05
-0.00541075
-0.00569555
-0.0053063
-0.00457133
-0.00375956
-0.00295314
-0.00219475
-0.00151997
-0.000973212
-0.000607215
-0.000382782
-0.000290596
-0.000248149
-0.000176591
-0.000110689
2.8589e-05
0.000125996
0.000188912
0.000184951
8.10155e-05
-0.00454106
-0.00488823
-0.00461561
-0.00401939
-0.00332992
-0.00263205
-0.00197166
-0.00138281
-0.000902237
-0.000574465
-0.000367357
-0.000271983
-0.000223778
-0.000155526
-9.43138e-05
2.16763e-05
0.000105125
0.000156045
0.000150767
6.77312e-05
-0.00378612
-0.00415246
-0.00396794
-0.00348786
-0.00290905
-0.0023127
-0.00174474
-0.00123692
-0.000819709
-0.000530413
-0.00034307
-0.000249409
-0.000199062
-0.000135763
-7.99857e-05
1.59308e-05
8.66056e-05
0.000127726
0.000121717
5.60738e-05
-0.00312305
-0.00347814
-0.00335839
-0.00297591
-0.00249711
-0.00199567
-0.00151501
-0.0010839
-0.000727556
-0.000476909
-0.000311301
-0.00022337
-0.000173968
-0.000116902
-6.72019e-05
1.13852e-05
7.03852e-05
0.00010343
9.71863e-05
4.58127e-05
-0.00253305
-0.00285591
-0.0027822
-0.00248219
-0.00209394
-0.00168132
-0.00128334
-0.000925187
-0.000627535
-0.00041563
-0.000273311
-0.00019432
-0.000148435
-9.85933e-05
-5.55271e-05
7.9612e-06
5.62521e-05
8.25253e-05
7.64613e-05
3.67322e-05
-0.00200056
-0.00227715
-0.0022347
-0.00200501
-0.00169913
-0.00136988
-0.00105049
-0.000762069
-0.000521231
-0.000348086
-0.000230251
-0.000162696
-0.00012241
-8.0564e-05
-4.46032e-05
5.51207e-06
4.38923e-05
6.43457e-05
5.88073e-05
2.86395e-05
-0.00151275
-0.00173397
-0.00171144
-0.00154244
-0.00131204
-0.00106139
-0.000817051
-0.00059564
-0.000410056
-0.000275643
-0.000183193
-0.000128963
-9.58705e-05
-6.25908e-05
-3.40974e-05
3.93062e-06
3.29909e-05
4.82592e-05
4.34574e-05
2.1317e-05
-0.00105896
-0.00121937
-0.00120841
-0.00109262
-0.000931997
-0.00075572
-0.000583447
-0.000426779
-0.000295172
-0.000199489
-0.000133112
-9.3653e-05
-6.89116e-05
-4.45562e-05
-2.37365e-05
3.25511e-06
2.34033e-05
3.3902e-05
2.97454e-05
1.44175e-05
-0.000629528
-0.000726908
-0.000722015
-0.000653845
-0.000558488
-0.000452923
-0.000350021
-0.000256274
-0.000177562
-0.000120575
-8.07847e-05
-5.72053e-05
-4.17829e-05
-2.66021e-05
-1.36281e-05
3.24201e-06
1.49081e-05
2.10693e-05
1.74752e-05
7.67148e-06
-0.000215275
-0.000246304
-0.000244337
-0.000220768
-0.000188346
-0.000152866
-0.000116831
-8.52389e-05
-5.88262e-05
-4.00891e-05
-2.69948e-05
-1.94944e-05
-1.43244e-05
-8.95028e-06
-4.40214e-06
2.02215e-06
5.8521e-06
8.04102e-06
6.24511e-06
1.85759e-06
-0.0355893
-0.0361757
-0.0337149
-0.0328247
-0.0326502
-0.0322997
-0.0316761
-0.0309048
-0.0301106
-0.0292723
-0.017102
-0.0220762
-0.0241332
-0.0253659
-0.0263052
-0.0268401
-0.0269463
-0.0267375
-0.0263286
-0.0257916
-0.0105735
-0.0153073
-0.0177969
-0.0192165
-0.0203299
-0.0212316
-0.0218391
-0.0221388
-0.0221665
-0.0219824
-0.00673693
-0.0102111
-0.0122554
-0.0135669
-0.0146807
-0.0156766
-0.0164745
-0.0170314
-0.0173592
-0.0174957
-0.004449
-0.00691609
-0.00856391
-0.00975167
-0.0107938
-0.0117444
-0.0125544
-0.0131925
-0.0136638
-0.0139882
-0.00320851
-0.00497133
-0.0062858
-0.0073073
-0.00821436
-0.00904739
-0.00978232
-0.0104001
-0.0109018
-0.0112982
-0.00251803
-0.00377388
-0.00479976
-0.00564863
-0.00641435
-0.00712366
-0.00776512
-0.00832706
-0.00880806
-0.00921382
-0.00209295
-0.00299721
-0.00379279
-0.00448836
-0.00512721
-0.00572389
-0.00627271
-0.00676655
-0.00720325
-0.00758515
-0.0018016
-0.00247001
-0.00308925
-0.00365377
-0.00418106
-0.00467764
-0.00514024
-0.00556437
-0.00594794
-0.00629131
-0.00157717
-0.00208678
-0.0025726
-0.00302801
-0.00345968
-0.00386985
-0.00425603
-0.00461511
-0.00494521
-0.00524577
-0.00138559
-0.00178481
-0.00216973
-0.00253662
-0.00288855
-0.00322582
-0.00354619
-0.00384725
-0.00412735
-0.00438567
-0.00121126
-0.00152987
-0.00183756
-0.00213343
-0.00241972
-0.00269605
-0.00296038
-0.00321074
-0.00344574
-0.00366454
-0.0010477
-0.00130419
-0.00155131
-0.00178991
-0.00202213
-0.00224746
-0.00246414
-0.00267056
-0.00286556
-0.00304843
-0.000892304
-0.00109857
-0.00129674
-0.00148839
-0.00167556
-0.00185785
-0.00203379
-0.00220209
-0.00236183
-0.0025124
-0.000743834
-0.000907953
-0.00106528
-0.00121752
-0.0013665
-0.00151193
-0.00165264
-0.00178764
-0.00191619
-0.00203783
-0.000601327
-0.00072906
-0.000851311
-0.000969612
-0.00108549
-0.00119876
-0.00130855
-0.00141409
-0.00151481
-0.00161039
-0.000463626
-0.000559175
-0.000650635
-0.000739099
-0.000825713
-0.000910393
-0.000992528
-0.00107158
-0.00114714
-0.00121897
-0.000329871
-0.000395726
-0.000459209
-0.000520822
-0.000581117
-0.000640003
-0.000697107
-0.000752102
-0.000804721
-0.000854832
-0.000202318
-0.000240144
-0.000276445
-0.000311848
-0.000346719
-0.000380938
-0.000414196
-0.000446257
-0.000476983
-0.000506398
-7.93475e-05
-9.67446e-05
-0.000110367
-0.000122012
-0.000133438
-0.00014489
-0.000156078
-0.000166775
-0.000176767
-0.000185932
0.00292013
0.00295313
0.00304207
0.00316562
0.00335316
0.00357156
0.00387933
0.00421144
0.00468088
0.00515781
0.0058675
0.00654172
0.00765113
0.00860707
0.0104692
0.0117779
0.0152077
0.0159692
0.0212736
0.00168463
0.00284867
0.00288109
0.00296755
0.0030891
0.00327121
0.00348534
0.0037825
0.00410713
0.00455579
0.00501885
0.00568452
0.00632949
0.00733368
0.00821584
0.00977847
0.0108626
0.0131709
0.0133835
0.013501
0.00537262
0.00276552
0.00279738
0.00288091
0.00299934
0.00317498
0.003383
0.00366762
0.00398147
0.00440584
0.00484935
0.00546426
0.00607039
0.0069556
0.00775099
0.00898914
0.00987098
0.0111732
0.0111569
0.00919263
0.00642036
0.00267106
0.00270244
0.00278231
0.00289702
0.00306473
0.00326565
0.00353515
0.00383659
0.00423217
0.00465368
0.00521016
0.00577433
0.00652938
0.00723771
0.0081573
0.00885904
0.00939852
0.0093377
0.00666877
0.00496048
0.00256578
0.0025966
0.00267228
0.00278261
0.0029413
0.00313401
0.00338659
0.00367379
0.0040379
0.00443462
0.00492961
0.00544796
0.00607463
0.00669279
0.00733512
0.00787369
0.00791633
0.00781449
0.00497974
0.00327384
0.00245019
0.00248026
0.00255139
0.0026567
0.0028056
0.00298894
0.00322349
0.00349462
0.00382614
0.00419533
0.00462946
0.00509834
0.00560713
0.00613366
0.0065549
0.00695281
0.00669132
0.00648425
0.00378864
0.00192591
0.00232484
0.00235394
0.00242026
0.00251995
0.00265851
0.00283142
0.00304738
0.00330079
0.00359979
0.00393914
0.00431561
0.00473271
0.00513862
0.00557635
0.00583025
0.00609999
0.0056664
0.00532176
0.0029219
0.000965941
0.00219031
0.0022182
0.00227953
0.00237306
0.00250099
0.00266251
0.00285975
0.00309407
0.00336151
0.00366945
0.00399296
0.00435778
0.00467717
0.00503067
0.00516279
0.00531502
0.00479942
0.00432877
0.00227621
0.000350699
0.00204721
0.00207362
0.0021299
0.0022168
0.00233395
0.0024833
0.00266203
0.00287627
0.00311367
0.00338942
0.00366541
0.00397902
0.00422743
0.00450309
0.00454972
0.00459963
0.00406197
0.00350249
0.00178359
-1.19884e-05
0.00189616
0.00192087
0.00197207
0.00205195
0.00215832
0.00229488
0.00245553
0.0026491
0.00285828
0.00310192
0.00333587
0.00360073
0.00379189
0.00399812
0.00398717
0.00395466
0.00343207
0.00282766
0.00139879
-0.00020968
0.00173782
0.0017606
0.00180675
0.00187933
0.00197498
0.00209836
0.00224146
0.00241417
0.00259705
0.00280939
0.00300644
0.0032262
0.00337173
0.00351852
0.00347093
0.00337797
0.00289099
0.00228131
0.00109358
-0.000305879
0.00157285
0.00159353
0.00163468
0.00169973
0.00178481
0.00189479
0.00202094
0.00217295
0.00233137
0.00251382
0.00267858
0.00285774
0.00296722
0.00306536
0.00299647
0.00286438
0.00242289
0.00183912
0.000850212
-0.000341949
0.00140193
0.00142037
0.00145656
0.00151398
0.00158863
0.00168514
0.00179494
0.0019267
0.00206239
0.00221677
0.00235327
0.00249675
0.00257797
0.00263818
0.00255906
0.00240675
0.00201484
0.00147888
0.000656127
-0.000342796
0.00122574
0.00124184
0.00127313
0.00132285
0.00138724
0.00147035
0.00156436
0.0016765
0.001791
0.00191937
0.00203107
0.00214386
0.00220309
0.00223533
0.00215398
0.00199711
0.00165621
0.00118178
0.000501384
-0.000322504
0.00104496
0.00105866
0.00108509
0.00112712
0.00118138
0.00125127
0.00132999
0.00142326
0.00151791
0.00162236
0.00171216
0.00179898
0.00184126
0.00185427
0.00177663
0.00162744
0.00133799
0.000932682
0.000377758
-0.000288889
0.000860308
0.000871561
0.000893181
0.000927533
0.000971804
0.00102866
0.00109253
0.00116767
0.00124363
0.00132614
0.00139644
0.00146152
0.00149084
0.00149194
0.00142251
0.00129016
0.00105237
0.000719695
0.000278379
-0.000246504
0.000672464
0.000681256
0.000698095
0.000724813
0.000759202
0.000803237
0.000852619
0.00091034
0.000968521
0.00103085
0.00108357
0.00113045
0.00114998
0.00114496
0.00108721
0.000978236
0.000792374
0.000533497
0.000197331
-0.000198336
0.000482129
0.000488454
0.000500539
0.000519673
0.00054427
0.000575679
0.000610856
0.00065175
0.00069288
0.000736436
0.000773066
0.000804547
0.000816682
0.000809913
0.000766458
0.000685337
0.000551673
0.000366601
0.000129561
-0.000146878
0.000289999
0.000293845
0.000301188
0.000312769
0.000327642
0.000346573
0.000367756
0.000392266
0.000416885
0.000442718
0.000464346
0.000482443
0.000488939
0.000483476
0.000456236
0.00040587
0.000324683
0.000212957
7.12744e-05
-9.36455e-05
9.6795e-05
9.81131e-05
0.000100639
0.000104581
0.000109655
0.000116064
0.000123262
0.000131519
0.000139848
0.000148478
0.000155728
0.000161624
0.000163647
0.000161446
0.000151948
0.000134446
0.000106582
6.84325e-05
2.07172e-05
-3.52112e-05
0.0030926
0.00312551
0.00321645
0.00334005
0.00353193
0.00375042
0.0040663
0.00439705
0.00488227
0.00535558
0.00609975
0.00676923
0.0079563
0.00891714
0.0109818
0.0123861
0.0165203
0.0182604
0.0291369
0.0246193
0.003087
0.00311987
0.00321181
0.00333522
0.00352912
0.00374754
0.00406739
0.00439807
0.0048914
0.00536458
0.00612575
0.0067941
0.00802207
0.0089857
0.0111617
0.0126291
0.0171425
0.0195579
0.0313256
0.0325067
0.00307914
0.00311217
0.00320455
0.0033282
0.00352311
0.00374219
0.00406412
0.0043961
0.00489374
0.00536925
0.00613962
0.00681268
0.00806381
0.00904148
0.0112872
0.0128292
0.0175886
0.0205565
0.0327047
0.0376195
0.00306911
0.00310223
0.00319492
0.00331872
0.00351431
0.00373381
0.00405721
0.00439
0.00489063
0.00536758
0.0061444
0.00682052
0.00808775
0.00907516
0.0113681
0.0129644
0.0178854
0.021222
0.0336197
0.0406632
0.00305689
0.00309003
0.00318291
0.00330673
0.00350273
0.00372234
0.00404663
0.00437968
0.00488211
0.0053595
0.00614011
0.00681726
0.00809366
0.00908512
0.0114039
0.0130274
0.0180299
0.021543
0.0340432
0.0419622
0.00304248
0.00307559
0.00316852
0.00329225
0.00348832
0.00370781
0.0040323
0.0043652
0.00486803
0.00534516
0.00612645
0.00680309
0.00808084
0.00907141
0.0113928
0.0130152
0.0180165
0.0215099
0.0339689
0.0416549
0.00302586
0.0030589
0.00315173
0.00327528
0.00347109
0.00369022
0.00401422
0.00434657
0.00484838
0.00532454
0.00610339
0.006778
0.00804929
0.00903398
0.0113346
0.0129283
0.0178464
0.0211268
0.0333969
0.0397183
0.00300706
0.00303995
0.00313258
0.0032558
0.00345106
0.00366953
0.00399245
0.00432373
0.00482329
0.00529753
0.00607119
0.00674183
0.00799957
0.00897287
0.0112312
0.0127698
0.0175258
0.0204123
0.0323236
0.0359503
0.00298609
0.00301877
0.00311104
0.00323386
0.00342821
0.00364582
0.00396695
0.00429679
0.00479269
0.00526438
0.00602974
0.00669509
0.00793159
0.00888959
0.0110832
0.0125477
0.0170613
0.0193967
0.0307313
0.0299042
0.00296287
0.0029955
0.00308692
0.00320969
0.00340222
0.00361953
0.00393709
0.00426662
0.00475539
0.00522678
0.00597679
0.00664118
0.00784128
0.00879122
0.0108845
0.0122805
0.0164498
0.0181488
0.0283277
0.0208844
)
;

boundaryField
{
    inlet
    {
        type            zeroGradient;
    }
    outlet
    {
        type            fixedValue;
        value           uniform 0;
    }
    upAndBottom
    {
        type            empty;
    }
    obstacle
    {
        type            zeroGradient;
    }
}


// ************************************************************************* //
