/*--------------------------------*- C++ -*----------------------------------*\
| =========                 |                                                 |
| \\      /  F ield         | OpenFOAM: The Open Source CFD Toolbox           |
|  \\    /   O peration     | Version:  v1806                                 |
|   \\  /    A nd           | Web:      www.OpenFOAM.com                      |
|    \\/     M anipulation  |                                                 |
\*---------------------------------------------------------------------------*/
FoamFile
{
    version     2.0;
    format      ascii;
    class       surfaceScalarField;
    location    "10";
    object      phi;
}
// * * * * * * * * * * * * * * * * * * * * * * * * * * * * * * * * * * * * * //

dimensions      [0 3 -1 0 0 0 0];
oriented        oriented;


internalField   nonuniform List<scalar> 
68400
(
0.0626797
0.00130824
0.011012
0.0509208
0.00159982
0.0101591
0.0415948
0.00137565
0.00795035
0.034641
0.00114719
0.0058067
0.0300075
0.000944501
0.00368893
0.0270481
0.000804771
0.0021547
0.02504
0.00071206
0.00129602
0.0235703
0.000632869
0.000836793
0.0224555
0.000547008
0.000567798
0.0215847
0.000454784
0.000415998
0.0208999
0.000353912
0.000330939
0.0203505
0.000259323
0.000290012
0.0199223
0.000163838
0.000264411
0.019584
8.54485e-05
0.000252807
0.0193354
6.4379e-06
0.000242206
0.0191402
-4.01625e-05
0.00023539
0.0190004
-8.60384e-05
0.000225821
0.0188761
-8.9615e-05
0.000213898
0.0187701
-9.32801e-05
0.000199305
-6.29034e-05
0.000165362
0.0186676
0.0643534
0.000845565
0.0111093
0.0542789
0.00128522
0.0103891
0.046342
0.00123496
0.00807761
0.0401481
0.00111285
0.00622823
0.035791
0.000967488
0.00433408
0.0329609
0.000830045
0.00280485
0.0311108
0.00071366
0.00184844
0.0298519
0.000605655
0.0012862
0.0289701
0.000493941
0.000934823
0.0283412
0.000373861
0.000709821
0.0278838
0.000243967
0.000567362
0.0275455
0.00011425
0.000483336
0.0273027
-1.42314e-05
0.000420873
0.0271328
-0.00013581
0.000391169
0.027035
-0.000246593
0.000350839
0.0269744
-0.000327587
0.000348012
0.0269697
-0.000388385
0.000307108
0.026944
-0.000402501
0.000338508
0.0269644
-0.000387294
0.000273677
-0.000331658
0.000336268
0.0268969
0.0641897
0.000540843
0.011115
0.0541257
0.000977955
0.0103713
0.0463545
0.00104673
0.0079595
0.0403465
0.000996559
0.00612426
0.0361405
0.000896522
0.00427697
0.0334278
0.000769782
0.0027729
0.0316768
0.000636291
0.00182841
0.030511
0.000497293
0.00127421
0.0297175
0.000356098
0.0009313
0.0291796
0.000206229
0.000705506
0.0288128
4.9425e-05
0.000561405
0.0285661
-0.000109055
0.000470018
0.028414
-0.00026452
0.000402306
0.0283322
-0.000412717
0.000358748
0.0283238
-0.000543504
0.000305323
0.0283488
-0.000647672
0.000295021
0.0284332
-0.000714443
0.000241738
0.0284831
-0.00073425
0.000281841
0.0285851
-0.00069873
0.000209415
-0.000609812
0.000276215
0.028587
0.0640374
0.00036405
0.0111394
0.0538399
0.000745413
0.01043
0.046027
0.000863635
0.00799605
0.0400379
0.000847906
0.00613776
0.0358736
0.000772296
0.00428847
0.0332082
0.000653618
0.00278154
0.0315016
0.000517755
0.0018252
0.0303747
0.000361942
0.00126221
0.0296142
0.000203555
0.000913086
0.0291046
3.20195e-05
0.000683831
0.0287659
-0.000146736
0.000534808
0.0285463
-0.000336271
0.000446853
0.0284232
-0.000519806
0.000378315
0.0283702
-0.000701098
0.00034144
0.0283973
-0.000857693
0.000287116
0.0284575
-0.000988347
0.000280395
0.0285865
-0.00106755
0.000224123
0.0286779
-0.0010917
0.000266103
0.0288282
-0.00103894
0.000189916
-0.000909537
0.000246327
0.0288816
0.0639479
0.00026308
0.0111531
0.0536642
0.000572811
0.0104563
0.0458148
0.000707668
0.00800539
0.0398295
0.000714917
0.00611827
0.0356793
0.000661237
0.00426126
0.0330321
0.000547324
0.00275352
0.0313389
0.000413174
0.00179774
0.0302231
0.000241575
0.00123616
0.0294678
6.6904e-05
0.000891964
0.0289641
-0.00013199
0.000667707
0.0286303
-0.000329682
0.000516774
0.028421
-0.000549068
0.000422097
0.0283115
-0.000759471
0.000349108
0.028277
-0.000976901
0.000310332
0.0283275
-0.00116396
0.00025579
0.0284177
-0.00132807
0.000249541
0.0285823
-0.00142733
0.000195128
0.0287158
-0.00146302
0.000237889
0.0289104
-0.00139663
0.000163082
-0.00123257
0.000230095
0.0290033
0.0638957
0.000203927
0.0111635
0.0535551
0.000437133
0.0104763
0.0456636
0.000570965
0.00802821
0.0396603
0.000584
0.00613417
0.0355002
0.000546476
0.00427491
0.0328531
0.000428863
0.00276556
0.0311598
0.000298903
0.0018075
0.0300481
0.000111257
0.00124209
0.0292914
-7.03847e-05
0.000893925
0.028787
-0.000299455
0.000671857
0.0284495
-0.000519148
0.000526967
0.0282398
-0.000777918
0.000438536
0.0281334
-0.00101918
0.000366106
0.028111
-0.00128196
0.00032751
0.0281812
-0.00150494
0.000270787
0.0283023
-0.00171239
0.000263185
0.0285081
-0.001839
0.000205932
0.0286927
-0.00189343
0.000245829
0.0289428
-0.00181714
0.000170342
-0.00161296
0.000224008
0.0290992
0.0638576
0.000171192
0.0111751
0.0534778
0.000327788
0.0104892
0.0455483
0.00045508
0.00804538
0.0395268
0.000460624
0.00614488
0.0353488
0.00044067
0.00428385
0.0326991
0.000310979
0.00276755
0.0309969
0.000192155
0.00180902
0.0298861
-2.027e-05
0.00124233
0.0291215
-0.00020213
0.000896279
0.0286183
-0.000464649
0.000668444
0.0282756
-0.000697575
0.00052111
0.0280707
-0.00100268
0.00042966
0.0279654
-0.0012728
0.000358876
0.0279578
-0.00159452
0.000320157
0.0280463
-0.00185899
0.000265589
0.0282045
-0.00212718
0.000256574
0.028456
-0.00229182
0.00020137
0.0287045
-0.00238059
0.000238641
0.0290248
-0.00230216
0.000164743
-0.00206138
0.000215677
0.0292575
0.0638237
0.000157827
0.0111896
0.0534228
0.000234538
0.0104942
0.0454596
0.000363691
0.00805451
0.0394231
0.000346901
0.00615028
0.0352173
0.000351636
0.00429486
0.0325643
0.000195072
0.00276884
0.0308444
0.000100178
0.00181192
0.0297345
-0.000149695
0.0012393
0.0289514
-0.000316713
0.000897682
0.0284464
-0.00063163
0.000671958
0.0280857
-0.00086296
0.000526086
0.0278823
-0.00123647
0.000437218
0.027769
-0.00152272
0.000363181
0.0277765
-0.00193063
0.000328689
0.0278798
-0.00223083
0.000268487
0.0280796
-0.00259349
0.000266564
0.0283835
-0.00279989
0.000204126
0.0287097
-0.00295485
0.000248102
0.0291203
-0.00288039
0.000167638
-0.00260813
0.00021625
0.0294508
0.0637878
0.00015775
0.0112122
0.0533829
0.000151347
0.0104882
0.045386
0.000298376
0.00806217
0.0393414
0.00024231
0.00614927
0.0350949
0.000284735
0.00431334
0.0324431
8.01579e-05
0.00276678
0.0306916
3.09227e-05
0.00182072
0.0295894
-0.000280509
0.00123302
0.0287724
-0.00040593
0.000906197
0.0282749
-0.000801378
0.00066723
0.0278808
-0.00100021
0.000531423
0.0276877
-0.00147713
0.000433722
0.027549
-0.00175086
0.000366848
0.0275806
-0.00228954
0.000327286
0.0276843
-0.00260464
0.000270071
0.0279409
-0.00311708
0.000267077
0.028294
-0.00335831
0.000205315
0.0287255
-0.00363579
0.000249427
0.0292462
-0.0035723
0.000171138
-0.00328913
0.000220844
0.0297064
0.0637479
0.000166888
0.011243
0.0533561
7.45879e-05
0.0104685
0.0453203
0.000262061
0.00807208
0.0392773
0.000143882
0.0061414
0.0349777
0.000247781
0.00433661
0.0323367
-3.62164e-05
0.00275735
0.0305392
-4.80701e-06
0.00183324
0.029455
-0.000417159
0.00122083
0.0285863
-0.000450013
0.000912832
0.0281075
-0.000980927
0.000658318
0.0276567
-0.00108379
0.000534357
0.0274846
-0.0017375
0.000432513
0.027295
-0.0019251
0.000363792
0.0273621
-0.00269203
0.000335371
0.0274441
-0.00294343
0.000256805
0.027772
-0.00373165
0.000286684
0.0281681
-0.00393451
0.000180169
0.0287341
-0.00448103
0.000279177
0.029395
-0.00437576
0.000142576
-0.00414731
0.000228611
0.0300246
0.0637044
0.000176447
0.0112861
0.0533432
9.59156e-06
0.0104261
0.0452585
0.000252011
0.00809481
0.0392282
5.40603e-05
0.00612008
0.0348636
0.000243044
0.0043693
0.0322558
-0.000151323
0.00272293
0.0303876
3.26115e-06
0.00186015
0.029338
-0.000553495
0.00118588
0.0283882
-0.000440621
0.000940483
0.0279474
-0.00116206
0.000621906
0.0274052
-0.00110381
0.000562195
0.0272765
-0.00200816
0.000399362
0.026993
-0.00203018
0.000388604
0.0271263
-0.00313022
0.000304849
0.0271321
-0.00322323
0.000274081
0.0275815
-0.00444616
0.000265113
0.0279595
-0.00449848
0.000185935
0.0287496
-0.0055487
0.000277585
0.0295177
-0.00528833
0.000144481
-0.00533455
0.000317391
0.0303875
0.0636602
0.000182621
0.0113336
0.0533434
-4.55566e-05
0.010372
0.0451982
0.000269104
0.00812803
0.0391884
-2.83095e-05
0.00609216
0.0347514
0.000274647
0.00440547
0.0321896
-0.000263219
0.00267369
0.0302327
6.27028e-05
0.00189748
0.0292267
-0.000691117
0.00114357
0.0281795
-0.000358628
0.000965219
0.0277877
-0.00135085
0.000580579
0.0271282
-0.0010258
0.000581481
0.0270545
-0.00230491
0.000370457
0.0266415
-0.00200752
0.000390385
0.0268534
-0.00363812
0.000295944
0.0267419
-0.00335089
0.000239211
0.027325
-0.00533335
0.000304089
0.0276674
-0.00491649
7.56226e-05
0.0286936
-0.00699058
0.000415605
0.0296206
-0.00617733
-3.8013e-05
-0.00704041
0.000463554
0.0308629
0.0636225
0.000178816
0.0113813
0.0533549
-8.45692e-05
0.0103066
0.0451434
0.000310202
0.00817039
0.0391554
-9.70976e-05
0.00605686
0.0346458
0.000338579
0.0044456
0.0321306
-0.000361213
0.00261324
0.0300813
0.000170825
0.00194116
0.0291213
-0.000812184
0.00108102
0.027964
-0.000209672
0.00100836
0.0276257
-0.00151994
0.000507452
0.0268264
-0.000857006
0.000630468
0.0268164
-0.00258332
0.000288388
0.0262306
-0.00186403
0.000442346
0.0265381
-0.00415271
0.000207018
0.0262351
-0.00332859
0.000280789
0.0270009
-0.00633427
0.000235095
0.0271786
-0.00515397
5.97882e-05
0.0285951
-0.00888202
0.000474966
0.0295325
-0.00690211
-0.000212677
-0.00964217
0.000729744
0.0314045
0.0635959
0.000161353
0.0114216
0.0533745
-0.000108406
0.0102452
0.045093
0.000376224
0.00821543
0.0391274
-0.000153053
0.00602157
0.0345453
0.000437297
0.00448344
0.0320744
-0.000448015
0.0025577
0.0299304
0.000332294
0.00198249
0.029017
-0.000922952
0.00102417
0.0277417
2.20987e-05
0.00104354
0.0274577
-0.00167985
0.000443943
0.0265045
-0.000559983
0.000656147
0.0265571
-0.00286214
0.000226192
0.0257676
-0.00153206
0.000457534
0.0261692
-0.00471343
0.000159175
0.0256247
-0.00303017
0.00024604
0.0265743
-0.00754327
0.00025941
0.0265291
-0.00498005
-0.000128746
0.0283602
-0.0115236
0.000810496
0.029238
-0.00707546
-0.000704515
-0.0141294
0.00186697
0.0318583
0.0635936
0.000125321
0.0114424
0.0533899
-0.000120561
0.0102158
0.0450559
0.000461348
0.00824887
0.0390962
-0.000203366
0.00601005
0.034463
0.000558803
0.00451163
0.0320152
-0.000530717
0.00253059
0.0298023
0.000533422
0.00201173
0.0289131
-0.00102776
0.000994036
0.0275471
0.00031909
0.00106903
0.0272935
-0.00183233
0.000406029
0.0262115
-0.000151697
0.00067372
0.0263025
-0.00312959
0.000176466
0.025333
-0.00101701
0.000454454
0.0258091
-0.00528119
9.16507e-05
0.0250146
-0.00244403
0.000208329
0.0261692
-0.00891319
0.000215392
0.0258086
-0.00430053
-0.000319
0.0282233
-0.0150718
0.00113361
0.0285882
-0.00615311
-0.0012873
-0.0221725
0.00385709
0.0327742
0.0636409
4.68319e-05
0.0114376
0.0533905
-9.6069e-05
0.0102259
0.0450536
0.00052578
0.00827252
0.0390583
-0.000216811
0.00600866
0.0344234
0.000642079
0.00455171
0.0319548
-0.000567706
0.00250553
0.0297252
0.000688588
0.0020745
0.0288196
-0.00106721
0.00094503
0.0274163
0.000566901
0.00115551
0.0271535
-0.00189038
0.000320776
0.0259978
0.000210279
0.000793781
0.0260955
-0.00327463
4.73321e-05
0.0249946
-0.000499408
0.000583298
0.0255321
-0.00570942
-0.000109291
0.0245327
-0.0017385
0.000293855
0.0259575
-0.0102486
-8.94271e-05
0.0252743
-0.00318144
-0.000435877
0.0286259
-0.0195078
0.00108438
0.0281528
-0.00341321
-0.00226681
-0.0358042
0.00662037
0.0351641
0.0637409
-0.000101468
0.0114074
0.0533724
-9.29358e-06
0.0102817
0.0450775
0.00049191
0.00832886
0.0389977
-0.000153186
0.00601618
0.0344125
0.000577971
0.00464922
0.0318668
-0.000500209
0.00247829
0.0296755
0.000646808
0.00223302
0.0286929
-0.000962734
0.000878169
0.0273218
0.0005614
0.00137658
0.0269807
-0.00174527
0.000196011
0.0258471
0.000258819
0.00108504
0.0258457
-0.00310385
-0.000169443
0.024746
-0.000416627
0.00101695
0.0251672
-0.0056483
-0.000482284
0.0241347
-0.00168707
0.000981017
0.0257255
-0.0110066
-0.000832725
0.0249966
-0.00283414
0.000381612
0.0299956
-0.0239814
-0.000525447
0.028822
0.00134185
-0.00358141
-0.05607
0.00870442
0.0403835
0.0639533
-0.000279646
0.0112249
0.0533246
0.000195565
0.0104238
0.045186
0.000313901
0.00831664
0.0388551
7.68431e-05
0.00610083
0.0345122
0.000275388
0.00464547
0.0316614
-0.000166639
0.0025173
0.0297228
0.000267698
0.0023177
0.0284016
-0.000504905
0.000863394
0.027304
7.28556e-05
0.00158607
0.0265708
-0.00108642
7.43259e-05
0.0257391
-0.000365798
0.00145635
0.0252456
-0.00211934
-0.000490967
0.0244869
-0.00129307
0.00163509
0.0242171
-0.00416432
-0.00121413
0.0236493
-0.00323936
0.00212007
0.0242014
-0.00884887
-0.00270988
0.024199
-0.00614828
0.00331652
0.0301854
-0.023651
-0.00631676
0.0273633
0.00201224
0.00215171
-0.0817366
0.0036355
0.0493944
0.0641853
-0.000525836
0.0110609
0.0533214
0.000664743
0.0103948
0.0453177
-0.000105228
0.00842283
0.038718
0.000630761
0.00604577
0.034659
-0.000365577
0.00469995
0.0314882
0.000687727
0.00231647
0.0298059
-0.000575847
0.00252586
0.028161
0.000628204
0.000511735
0.0272872
-0.00101908
0.00196571
0.0262113
0.000476833
-0.0004873
0.0255306
-0.00178044
0.00209533
0.0246214
9.91448e-05
-0.00130925
0.0239059
-0.00323269
0.00265513
0.0230457
-0.000817741
-0.00248641
0.0223334
-0.0063567
0.00382966
0.0216694
-0.00354268
-0.00464219
0.0215797
-0.0136599
0.00760134
0.0225109
-0.0151702
-0.00941205
0.019348
-0.0202686
0.0254437
-0.0994612
-0.0119595
0.0490321
0.0642528
0.0108291
-0.000607708
0.0533999
0.0105828
0.000934873
0.0454345
0.00824917
-0.000389036
0.0387042
0.00638869
0.00097241
0.0348154
0.00425122
-0.00072798
0.0314896
0.00284731
0.0011662
0.0299531
0.00197275
-0.00101206
0.0280596
0.00131414
0.00120751
0.0273592
0.00117288
-0.00149153
0.0259291
0.00074795
0.00115898
0.025373
0.00100037
-0.00222469
0.0239829
0.000602525
0.000886723
0.0231618
0.00107377
-0.00348535
0.0216375
0.000762153
-5.56078e-05
0.0202885
0.00123193
-0.00623967
0.0187339
0.00149666
-0.00348476
0.0193604
0.00138024
-0.0156666
0.0165525
0.00861767
-0.02098
0.0264438
0.0229739
-0.0531338
-0.0257065
0.0644073
-0.111718
0.0758415
0.00139077
0.00877979
0.0741645
0.00191237
0.00992364
0.0716326
0.00190491
0.00857735
0.0683455
0.00188089
0.00721289
0.0648497
0.00180027
0.00538453
0.0615717
0.00170367
0.00372903
0.0585981
0.00160647
0.00266309
0.0559122
0.00151075
0.00201201
0.0535363
0.00139773
0.00154597
0.05146
0.0012788
0.00121349
0.0496787
0.00113534
0.000976892
0.0481552
0.000996565
0.0008169
0.0468832
0.000838231
0.000698206
0.0458184
0.000700015
0.000617629
0.0449614
0.000546239
0.000552871
0.0442561
0.00042825
0.000512509
0.0437048
0.000301437
0.000475677
0.0432427
0.000224361
0.000451657
0.0428587
0.000153732
0.000429543
0.000111416
0.000364242
0.0425484
0.0777541
0.000900679
0.00884526
0.0783633
0.00153328
0.010159
0.0779742
0.00168721
0.00868441
0.0767579
0.00175996
0.00756546
0.0750884
0.00176694
0.00603694
0.073381
0.00172212
0.00449376
0.071787
0.00164866
0.00340033
0.0703399
0.00155694
0.00268708
0.0690484
0.00144064
0.00218337
0.0679384
0.00130345
0.00179523
0.0669979
0.00113801
0.00150515
0.0662219
0.000958494
0.00129742
0.0655969
0.000759969
0.00112415
0.065109
0.000563165
0.00101594
0.0647586
0.000362246
0.000885177
0.0645038
0.000179777
0.000851248
0.0643741
1.66789e-05
0.000721597
0.0642492
-0.000119985
0.000807806
0.0642137
-0.000207556
0.000670464
-0.000269235
0.000934041
0.0639965
0.0776024
0.000567345
0.0088459
0.0782652
0.00112146
0.0101203
0.0779739
0.00134907
0.00858895
0.0769655
0.00146086
0.0074317
0.0755642
0.00151065
0.00593464
0.0741501
0.00149673
0.00441237
0.072854
0.00143978
0.00333332
0.0717091
0.00133961
0.00263651
0.0707122
0.00121162
0.0021572
0.0698921
0.00104756
0.00178146
0.0692293
0.000860058
0.00150223
0.0687208
0.000641448
0.00129552
0.0683496
0.000410515
0.00112295
0.0681025
0.000161082
0.00100798
0.0679848
-7.83085e-05
0.000863518
0.0679469
-0.000311257
0.000823971
0.0680355
-0.000507431
0.000677249
0.0680979
-0.000676909
0.000776348
0.0682496
-0.00077366
0.000623876
-0.000824003
0.000877806
0.0682027
0.0774659
0.000380603
0.00886026
0.0780123
0.000837695
0.0101673
0.0776387
0.00108557
0.00863319
0.0765901
0.00120782
0.0074394
0.0751774
0.0012715
0.00594031
0.0737795
0.00126052
0.0044156
0.0725174
0.00120766
0.00331951
0.0714192
0.0010921
0.00260783
0.0704767
0.000949969
0.00211724
0.0697144
0.000756042
0.00173768
0.0691141
0.000544609
0.00145053
0.0686672
0.000288169
0.00124712
0.0683603
2.66451e-05
0.00106909
0.0681734
-0.000274052
0.000963427
0.0681231
-0.000556546
0.000815685
0.0681484
-0.000845172
0.000788946
0.0683121
-0.00108208
0.000635087
0.0684431
-0.00128986
0.000748073
0.0686773
-0.00140232
0.000584386
-0.00145146
0.000839946
0.0687111
0.0773857
0.00027701
0.00887101
0.0778566
0.000631634
0.0101913
0.0774253
0.000866413
0.00865587
0.0763444
0.000979753
0.00742727
0.0749085
0.00105182
0.00591679
0.0735012
0.0010339
0.00438747
0.0722332
0.000986001
0.00328743
0.0711351
0.000854158
0.00257219
0.0701908
0.000702351
0.0020839
0.0694304
0.000476311
0.00170781
0.0688317
0.000237926
0.00142222
0.0683942
-6.63899e-05
0.00121414
0.0681012
-0.0003653
0.00103399
0.0679349
-0.000716833
0.000919437
0.067911
-0.00104514
0.000768336
0.0679714
-0.00139386
0.000737816
0.0681765
-0.00167802
0.000585914
0.0683609
-0.00193455
0.000698161
0.0686554
-0.0020717
0.00053803
-0.00212374
0.000801296
0.0687565
0.0773392
0.000220833
0.00888047
0.0777632
0.000474147
0.0102098
0.077279
0.000691233
0.0086876
0.0761606
0.000781016
0.00745131
0.0746863
0.000860851
0.00594014
0.0732526
0.000822989
0.0044102
0.0719591
0.000779626
0.00330736
0.0708456
0.000621759
0.00258794
0.0698843
0.00046392
0.00209368
0.0691128
0.000202826
0.00171689
0.0684996
-5.39614e-05
0.00143206
0.0680509
-0.000410117
0.00123091
0.0677491
-0.000750793
0.00105341
0.0675832
-0.00116919
0.000945786
0.067568
-0.00155193
0.000792726
0.0676509
-0.00197542
0.000761851
0.0678932
-0.00231832
0.000603955
0.0681297
-0.00263944
0.000714265
0.0684892
-0.00280934
0.000548451
-0.00287881
0.000799028
0.0686692
0.0773048
0.000197988
0.00889314
0.0777017
0.000348725
0.0102177
0.0771677
0.000555758
0.00871485
0.0760199
0.000603536
0.00747015
0.0745057
0.000699765
0.00595909
0.0730505
0.000624307
0.00442147
0.0717252
0.000597091
0.0033168
0.0705962
0.000398651
0.00259446
0.0696074
0.000247077
0.00210191
0.0688244
-6.72893e-05
0.0017216
0.0681919
-0.000333927
0.00143361
0.0677386
-0.000752654
0.00122542
0.0674256
-0.0011252
0.00104631
0.0672652
-0.00162525
0.000936614
0.0672561
-0.00206541
0.000788222
0.0673678
-0.00258333
0.000752776
0.067648
-0.00299816
0.000601012
0.067949
-0.00340475
0.000702893
0.0683864
-0.00362535
0.000543327
-0.00372614
0.000785486
0.068664
0.0772725
0.000204005
0.00891113
0.0776678
0.000236323
0.0102113
0.0770794
0.00046062
0.00873803
0.0759131
0.000438523
0.00748156
0.074353
0.000575993
0.00597882
0.0728833
0.000432473
0.00443033
0.0715167
0.000449531
0.00332605
0.0703769
0.000178937
0.00259883
0.0693488
6.60881e-05
0.00210683
0.0685533
-0.000330243
0.00173037
0.0678828
-0.000577412
0.00144004
0.0674188
-0.00109385
0.00124243
0.0670775
-0.00147349
0.0010528
0.0669173
-0.0020912
0.000954793
0.0669036
-0.00257539
0.000792197
0.0670417
-0.00322714
0.00077223
0.0673608
-0.00371869
0.000605645
0.0677326
-0.00424998
0.000721455
0.0682663
-0.0045403
0.00054892
-0.00469581
0.000790937
0.0686613
0.0772365
0.000237897
0.00894184
0.0776559
0.000120885
0.0101841
0.0770011
0.00041123
0.00876642
0.0758311
0.000275714
0.00748206
0.0742119
0.000500847
0.00600765
0.0727414
0.000237506
0.00443224
0.0713158
0.000353823
0.00334207
0.0701781
-4.67747e-05
0.00259643
0.0690876
-5.82914e-05
0.00212102
0.0682951
-0.00060206
0.00173159
0.0675633
-0.000762012
0.00144784
0.0671032
-0.00144492
0.00124483
0.0667076
-0.00176928
0.00105828
0.0665607
-0.00257599
0.00095892
0.0665174
-0.00305855
0.000796593
0.0666979
-0.00391462
0.000774085
0.0670412
-0.00447149
0.000614776
0.0675086
-0.00518644
0.000718474
0.0681536
-0.00558117
0.000567015
-0.00582266
0.000795827
0.0687055
0.0771939
0.000300251
0.00898677
0.0776598
-9.9558e-06
0.0101334
0.0769242
0.00041691
0.00880207
0.0757716
0.000100252
0.00746945
0.0740753
0.00049029
0.00604347
0.0726255
2.25356e-05
0.00442213
0.0711183
0.000333092
0.00336116
0.0700035
-0.000298869
0.00258773
0.0688238
-9.59219e-05
0.00213013
0.0680551
-0.000907264
0.00173225
0.0672281
-0.000843875
0.00144325
0.0667913
-0.00183768
0.00126199
0.0663037
-0.00195588
0.00103804
0.0661862
-0.00311813
0.000994996
0.0660782
-0.00345225
0.000758484
0.0663125
-0.00468979
0.000827605
0.0666613
-0.00520282
0.000562679
0.0672467
-0.00626414
0.000771496
0.0680075
-0.00671456
0.000515117
-0.0071218
0.000849279
0.068686
0.077147
0.000386474
0.00905288
0.0776764
-0.000166391
0.0100532
0.0768457
0.00048255
0.0088598
0.0757364
-0.00010054
0.00743024
0.0739399
0.000558369
0.00609765
0.0725452
-0.000229268
0.00436951
0.0709229
0.000410587
0.00340497
0.0698616
-0.000595557
0.00254381
0.0685501
-9.56956e-06
0.00216569
0.0678396
-0.00126423
0.00168935
0.0668647
-0.000781791
0.00147497
0.0664905
-0.00229495
0.00123086
0.0658448
-0.00198213
0.00106056
0.0658051
-0.00374843
0.000974825
0.0655474
-0.00369162
0.000771136
0.0659033
-0.00559738
0.00081688
0.0661513
-0.00585144
0.00058656
0.0669697
-0.00754013
0.000735156
0.0678437
-0.00800395
0.000559839
-0.00872294
0.00068076
0.0690815
0.0770947
0.000494936
0.00913053
0.0776979
-0.000350027
0.00995234
0.0767621
0.000615205
0.00893117
0.0757147
-0.00033865
0.00737769
0.0738005
0.000718263
0.00615976
0.0724845
-0.000529932
0.00429035
0.0707189
0.000610833
0.00346284
0.0697368
-0.000956296
0.0024864
0.06826
0.000230168
0.00220234
0.0676387
-0.00170839
0.00164596
0.0664684
-0.000513463
0.00148351
0.0661887
-0.00287687
0.0012321
0.0653252
-0.00174578
0.00101746
0.065388
-0.00456272
0.00104744
0.0649232
-0.00362499
0.00063744
0.0653991
-0.00677485
0.00100559
0.0655356
-0.00623244
0.000320138
0.0665301
-0.00917607
0.0010571
0.0674315
-0.00922275
0.000279297
-0.0107039
0.0012328
0.0686432
0.0770496
0.000617038
0.00920958
0.0777197
-0.000556092
0.00984257
0.0766854
0.000809038
0.00901084
0.0756994
-0.000606876
0.00731109
0.0736688
0.000965969
0.00622849
0.0724324
-0.000873636
0.00419341
0.0705198
0.000930665
0.00353392
0.069623
-0.00137642
0.00239793
0.0679626
0.00063529
0.00226361
0.0674425
-0.00223434
0.00155346
0.0660397
-2.009e-05
0.00153998
0.0658773
-0.00357593
0.00114978
0.0647246
-0.00121494
0.00106419
0.0649278
-0.00555934
0.00100048
0.0641363
-0.00319537
0.000642656
0.064802
-0.00825036
0.00104494
0.0646418
-0.00625059
0.000238084
0.0659758
-0.0112667
0.00123165
0.06677
-0.0103646
0.000134938
-0.0131437
0.000938444
0.0690011
0.077009
0.000750169
0.00927953
0.0777447
-0.000788202
0.00974159
0.07661
0.00106846
0.00909066
0.0756941
-0.000912115
0.00724274
0.073537
0.00131032
0.00629621
0.0723912
-0.00127177
0.00410159
0.0703135
0.00138862
0.00360229
0.0695213
-0.0018753
0.00231518
0.0676469
0.00123545
0.00231783
0.0672537
-0.00287394
0.0014767
0.0655724
0.000743639
0.00157372
0.0655605
-0.00444859
0.00111076
0.0640438
-0.000283648
0.00104291
0.0644223
-0.00683855
0.00105989
0.0632085
-0.00221476
0.000479263
0.0640685
-0.0102094
0.00135843
0.0635584
-0.00562811
-0.000241043
0.0651348
-0.0141376
0.00210491
0.0659188
-0.011119
-0.000734101
-0.0166298
0.00282314
0.0684488
0.0769994
0.000876087
0.00931707
0.0777673
-0.00103569
0.00969552
0.0765686
0.0013764
0.00913959
0.075692
-0.00124188
0.00721639
0.0734488
0.00172653
0.00633863
0.072359
-0.00170941
0.00405803
0.0701656
0.00195468
0.00363907
0.0694436
-0.00243203
0.00227284
0.0674097
0.00199953
0.00233885
0.0671127
-0.00360096
0.00143004
0.0652027
0.00175674
0.00157058
0.0653245
-0.00545654
0.00106263
0.063474
0.00102884
0.000992452
0.0640562
-0.00836049
0.00103136
0.0623598
-0.000646611
0.00033666
0.063533
-0.012665
0.0014977
0.0624636
-0.00424151
-0.000636132
0.0644961
-0.01793
0.00289343
0.0649402
-0.0113266
-0.00152379
-0.0210505
0.00499649
0.0682215
0.0770634
0.000920696
0.00932957
0.0777838
-0.00122446
0.00969426
0.0766107
0.00163638
0.00918566
0.0757002
-0.00150248
0.0071798
0.0734645
0.00209734
0.00641653
0.0723593
-0.00207492
0.00397631
0.0701536
0.00249039
0.00374444
0.0694403
-0.00291235
0.00213864
0.0673563
0.00277254
0.0024665
0.0671134
-0.00425607
0.00121879
0.0650783
0.00286804
0.00171762
0.0653397
-0.00643183
0.000761207
0.0632248
0.00260793
0.00111911
0.0641116
-0.00998258
0.000626003
0.061909
0.00151286
0.000336941
0.0636991
-0.0156056
0.0010611
0.0618109
-0.001746
-0.00104319
0.0648182
-0.0230245
0.00317166
0.0647382
-0.010611
-0.00290243
-0.0266901
0.00779453
0.0692037
0.0772201
0.000759734
0.00934827
0.0777701
-0.00120431
0.00971153
0.0767344
0.00169059
0.00931038
0.075683
-0.00153479
0.00709985
0.0735666
0.00220874
0.00665422
0.0723284
-0.00217024
0.00381179
0.0702432
0.00271535
0.00409328
0.0694075
-0.00305834
0.00185986
0.0674419
0.00317295
0.00294171
0.0671106
-0.00449043
0.000761734
0.0651777
0.0035583
0.0023277
0.0654351
-0.00686954
1.08395e-05
0.0633258
0.00381293
0.00192128
0.0644441
-0.010989
-0.000594204
0.0619366
0.00365229
0.00134908
0.0645912
-0.0182448
-0.000848138
0.0618598
0.00172572
-0.000358741
0.0668635
-0.0293759
0.000822242
0.0659454
-0.00846078
-0.00481359
-0.0353855
0.0107801
0.0725651
0.0775265
0.000302306
0.00915588
0.0776008
-0.000765368
0.0099105
0.0770124
0.00127443
0.00932123
0.0754964
-0.00102059
0.00710267
0.0738447
0.00166882
0.00683701
0.0720387
-0.00155727
0.00371038
0.0704787
0.00211566
0.00447741
0.0689986
-0.00228753
0.00157263
0.0676282
0.00250042
0.00362902
0.0665547
-0.00349804
0.000155417
0.0652964
0.00284782
0.0034251
0.0647092
-0.00562842
-0.00114485
0.0633291
0.0032013
0.00362686
0.0636125
-0.00968742
-0.00279915
0.0617401
0.0036741
0.00397065
0.0641641
-0.0181717
-0.00520692
0.0612434
0.00463646
0.00332647
0.0693748
-0.0366067
-0.00721731
0.0644495
0.00294002
-0.00432379
-0.0526777
0.00717557
0.0782016
0.077889
-0.00057515
0.00904932
0.0773565
0.000449217
0.00971268
0.0773023
0.000139715
0.00961175
0.0751997
0.000382077
0.00674574
0.074097
0.000199627
0.00727177
0.0715537
0.000240108
0.00306248
0.0705103
0.000303958
0.00538094
0.0682069
-2.68586e-05
0.000554469
0.0673521
0.00022633
0.00509458
0.0652834
-0.000516593
-0.00140002
0.0644795
-1.60694e-05
0.00576312
0.0625365
-0.00154844
-0.00344631
0.0615584
-0.00051402
0.00734859
0.0595945
-0.00394131
-0.00626858
0.0581182
-0.0012688
0.0102488
0.0562029
-0.0102845
-0.010614
0.0532163
-0.00134622
0.0165706
0.0543509
-0.0302529
-0.0169005
0.0439204
0.0101618
0.0286525
-0.0807193
-0.0133222
0.0733247
0.077762
0.00854248
-0.0010505
0.0775333
0.0100113
0.0012494
0.0774199
0.00909062
-0.000588391
0.0754046
0.00751467
0.00127144
0.0742075
0.00630506
-0.000657201
0.0718189
0.00416208
0.00131394
0.0706461
0.00411451
-0.000664974
0.0684059
0.00228021
0.00124729
0.06731
0.0033225
-0.00082735
0.0652216
0.00132954
0.0009902
0.0640346
0.00329856
-0.00112724
0.0618768
0.000886186
0.000325673
0.0603046
0.00381576
-0.0016838
0.0575208
0.000865345
-0.0012607
0.0554325
0.0049842
-0.00293279
0.0505515
0.00168412
-0.005591
0.0497062
0.00801077
-0.00713144
0.0442669
0.00563199
-0.0218279
0.0598213
0.0372854
-0.019704
-0.0347529
0.101614
-0.113466
0.076793
0.00137941
0.00560736
0.0779119
0.00191504
0.00688968
0.0784988
0.00191431
0.00607621
0.0782698
0.00196641
0.00547543
0.077275
0.00195967
0.00441969
0.0757937
0.00191762
0.0032927
0.0740666
0.00186088
0.00252931
0.0722205
0.00180798
0.00205013
0.0703513
0.00172904
0.00168619
0.0685218
0.00164487
0.00139805
0.0667944
0.00153182
0.00117253
0.0651867
0.00142155
0.00100301
0.063737
0.00128346
0.000864484
0.0624354
0.00115982
0.00075937
0.0613098
0.00101067
0.000667819
0.0603257
0.00089206
0.000604515
0.0595012
0.000752207
0.000548023
0.0587825
0.000667272
0.000503059
0.0581782
0.000564036
0.000469768
0.000516313
0.00034826
0.0576779
0.078687
0.000895701
0.00564201
0.0822079
0.00154017
0.00701293
0.0848591
0.00171658
0.00623095
0.0868402
0.00184122
0.00570953
0.0880455
0.00191886
0.00487243
0.0886503
0.00193976
0.00386687
0.0888783
0.00192114
0.00311203
0.0888834
0.0018828
0.00260718
0.0887413
0.00181808
0.00223645
0.0885227
0.0017293
0.00192942
0.0882668
0.00161068
0.00168215
0.0880185
0.0014733
0.00149398
0.0877927
0.00131218
0.00132119
0.0876156
0.00114239
0.00121048
0.0874915
0.00095984
0.00106016
0.0874305
0.000783153
0.00102113
0.0874295
0.000609719
0.000865137
0.0874917
0.000464047
0.000948787
0.0876019
0.000338409
0.000785875
0.000259009
0.00104069
0.0877526
0.0785348
0.000568264
0.00563852
0.082088
0.00112668
0.00698065
0.084842
0.00137616
0.00617537
0.0869909
0.00151885
0.00560519
0.0884419
0.00162074
0.00478174
0.0893485
0.00166181
0.00378368
0.0899049
0.00166449
0.0030336
0.0902635
0.00162151
0.00253921
0.0904911
0.0015553
0.00219233
0.0906564
0.00144656
0.00189893
0.0907866
0.00131617
0.00166658
0.0909244
0.00114548
0.00148554
0.0910774
0.000961817
0.00132029
0.0912698
0.000745949
0.00121197
0.0915029
0.000533115
0.00105719
0.0917877
0.00030272
0.0010196
0.0921187
9.91495e-05
0.000856834
0.0925039
-9.648e-05
0.000951644
0.0929281
-0.000235211
0.000773255
-0.000344138
0.00100045
0.0934086
0.0784013
0.000383229
0.00564397
0.0818494
0.000839979
0.00700597
0.0845496
0.0011053
0.0062038
0.0866587
0.00124742
0.00560177
0.0880884
0.00135466
0.00477666
0.088998
0.00138987
0.00377794
0.0895718
0.00139562
0.00301458
0.089959
0.00133549
0.00250666
0.0902256
0.00125745
0.00214854
0.0904391
0.0011198
0.00185089
0.090627
0.000968818
0.00160998
0.0908275
0.000760621
0.00143146
0.0910513
0.000547284
0.00125984
0.0913151
0.00028535
0.0011602
0.091628
3.67708e-05
0.000999156
0.0919905
-0.000248221
0.0009774
0.0924104
-0.000490373
0.000804643
0.0928776
-0.000734376
0.000918767
0.0933931
-0.00089817
0.0007319
-0.00103409
0.000979654
0.0939433
0.0783224
0.000282258
0.00564961
0.0817026
0.00063006
0.00702105
0.0843601
0.000880726