/*--------------------------------*- C++ -*----------------------------------*\
| =========                 |                                                 |
| \\      /  F ield         | OpenFOAM: The Open Source CFD Toolbox           |
|  \\    /   O peration     | Version:  v1806                                 |
|   \\  /    A nd           | Web:      www.OpenFOAM.com                      |
|    \\/     M anipulation  |                                                 |
\*---------------------------------------------------------------------------*/
FoamFile
{
    version     2.0;
    format      ascii;
    class       volVectorField;
    location    "10";
    object      U;
}
// * * * * * * * * * * * * * * * * * * * * * * * * * * * * * * * * * * * * * //

dimensions      [0 1 -1 0 0 0 0];


internalField   nonuniform List<vector> 
24000
(
(2.63152 0.0289448 0.0900445)
(2.2659 0.0371281 0.0839467)
(1.8471 0.0319319 0.0614289)
(1.50083 0.0260198 0.040173)
(1.27288 0.0209413 0.0205437)
(1.13111 0.0177162 0.00842282)
(1.03739 0.0157995 0.00321158)
(0.969518 0.0142488 0.00129959)
(0.91887 0.0125257 0.000551017)
(0.879272 0.0106867 0.000413879)
(0.848724 0.00866854 0.000524241)
(0.823871 0.00685431 0.000749908)
(0.804798 0.00501653 0.000916649)
(0.789215 0.00358981 0.00106905)
(0.777897 0.0021082 0.00114998)
(0.768812 0.00128539 0.00118606)
(0.762455 0.000310342 0.00118091)
(0.757155 0.000350705 0.00107705)
(0.752698 0.000110858 0.00100805)
(0.748603 0.000668896 0.000537673)
(2.67905 0.036931 0.0911347)
(2.3617 0.0491471 0.086202)
(2.0128 0.0438535 0.0632437)
(1.71265 0.037572 0.0444995)
(1.50159 0.031565 0.0260453)
(1.36467 0.0269303 0.0128924)
(1.27686 0.023602 0.00621237)
(1.21602 0.0207479 0.00318016)
(1.17517 0.0177379 0.0017906)
(1.14435 0.0144897 0.00121003)
(1.1243 0.0109164 0.00103048)
(1.10701 0.00746457 0.00108456)
(1.09732 0.00397853 0.00112917)
(1.08708 0.00104158 0.00127452)
(1.08407 -0.00180821 0.00128317)
(1.07843 -0.00374533 0.00140984)
(1.07992 -0.00544993 0.0013753)
(1.07665 -0.00572776 0.00149407)
(1.07919 -0.00567622 0.00119979)
(1.07647 -0.00447844 0.000120914)
(2.67851 0.0161172 0.0911919)
(2.35226 0.0278619 0.0861675)
(2.00793 0.0290907 0.0623103)
(1.71706 0.0276882 0.0437628)
(1.51319 0.0250027 0.0258007)
(1.38117 0.0216559 0.0128428)
(1.29763 0.0182372 0.00619178)
(1.24051 0.0147981 0.00314847)
(1.20339 0.0112876 0.00174265)
(1.176 0.00754619 0.00110111)
(1.15975 0.00355175 0.00086393)
(1.14593 -0.000576124 0.000838548)
(1.14009 -0.00466421 0.000829649)
(1.13317 -0.00844029 0.000845381)
(1.13405 -0.0118182 0.000755319)
(1.1315 -0.0144515 0.000836402)
(1.13692 -0.0161981 0.000729389)
(1.13654 -0.0167118 0.000912181)
(1.14253 -0.0159224 0.000629632)
(1.14256 -0.0139389 -0.000904583)
(2.67797 0.013065 0.0914024)
(2.34267 0.025689 0.0866693)
(1.99419 0.0288068 0.0625304)
(1.70357 0.0277968 0.0437656)
(1.50155 0.0250713 0.0258674)
(1.37137 0.021385 0.0129143)
(1.28981 0.0173484 0.0061853)
(1.23425 0.0129792 0.00309005)
(1.19872 0.00854694 0.00164436)
(1.17238 0.00385299 0.000975212)
(1.15745 -0.000908111 0.000706154)
(1.14452 -0.0058994 0.000713136)
(1.13999 -0.0107853 0.000714571)
(1.13402 -0.0155184 0.000788117)
(1.13634 -0.0196381 0.00069347)
(1.13505 -0.0229847 0.000778764)
(1.14217 -0.0250574 0.000644958)
(1.14346 -0.0256665 0.000823039)
(1.15121 -0.024405 0.00047375)
(1.15332 -0.0212773 -0.00112438)
(2.67763 0.00866463 0.0915108)
(2.33702 0.0180583 0.0868898)
(1.98555 0.021604 0.0625554)
(1.69466 0.021572 0.0435514)
(1.4934 0.0198249 0.0255933)
(1.36399 0.0166184 0.0126664)
(1.28308 0.0128097 0.00597265)
(1.228 0.00818765 0.00291468)
(1.19281 0.00345202 0.00152946)
(1.16662 -0.00187713 0.000907009)
(1.15192 -0.00721542 0.000598461)
(1.13928 -0.0129796 0.000525194)
(1.13527 -0.018557 0.000472445)
(1.12989 -0.0241861 0.00055201)
(1.13309 -0.0290409 0.000479776)
(1.13279 -0.0331846 0.000583226)
(1.1413 -0.0356763 0.000479055)
(1.14399 -0.036469 0.000637105)
(1.15372 -0.0347281 0.000342586)
(1.15717 -0.0304973 -0.00123514)
(2.67742 0.00657853 0.0915874)
(2.33371 0.014247 0.087055)
(1.97998 0.0182291 0.062697)
(1.68795 0.0186953 0.0436126)
(1.4863 0.0174446 0.025646)
(1.35679 0.0141981 0.0127167)
(1.27591 0.0104079 0.00601548)
(1.22088 0.00529741 0.00292954)
(1.18582 0.000198164 0.0015223)
(1.15958 -0.00588691 0.00093497)
(1.14479 -0.0119113 0.000706887)
(1.13202 -0.0187409 0.00068977)
(1.12808 -0.0252158 0.00062458)
(1.12298 -0.0320542 0.000674792)
(1.1268 -0.0379105 0.000569757)
(1.12752 -0.0431797 0.000662349)
(1.1374 -0.0463657 0.000533786)
(1.14202 -0.0475991 0.000689361)
(1.15374 -0.0455025 0.00036632)
(1.15975 -0.0402392 -0.00125365)
(2.67722 0.00529284 0.0916629)
(2.33136 0.0108434 0.0871787)
(1.97592 0.0145348 0.0628033)
(1.68282 0.0148397 0.043649)
(1.48046 0.013976 0.025663)
(1.35069 0.0104949 0.012685)
(1.26955 0.00686569 0.00599416)
(1.2144 0.00120313 0.00291418)
(1.17914 -0.00410218 0.00153324)
(1.15282 -0.0110388 0.000882241)
(1.13793 -0.0175558 0.000627225)
(1.12518 -0.0255293 0.000601338)
(1.12132 -0.0328786 0.000571928)
(1.11656 -0.0411391 0.00062712)
(1.12099 -0.0481208 0.000531901)
(1.12284 -0.0548028 0.000615817)
(1.13429 -0.0589197 0.000495737)
(1.14111 -0.0608351 0.000633566)
(1.15552 -0.0585403 0.000330484)
(1.16438 -0.05212 -0.00133442)
(2.67696 0.00465965 0.0917465)
(2.3294 0.00799385 0.0872703)
(1.97291 0.0115705 0.0628506)
(1.67895 0.0114554 0.043651)
(1.47562 0.0111907 0.0257073)
(1.34535 0.00719941 0.0126579)
(1.26379 0.00407058 0.00599037)
(1.20827 -0.00240248 0.00286257)
(1.1728 -0.00750725 0.00154288)
(1.14587 -0.0156373 0.000909211)
(1.13083 -0.0223908 0.000680043)
(1.11746 -0.0319641 0.000639623)
(1.11379 -0.0400281 0.000605145)
(1.10881 -0.0503093 0.000669875)
(1.11417 -0.0584537 0.000557002)
(1.11679 -0.0672724 0.000673418)
(1.13036 -0.072568 0.000513801)
(1.13953 -0.0758231 0.000688657)
(1.1574 -0.0735533 0.000341992)
(1.17002 -0.0661094 -0.00134449)
(2.67653 0.00447341 0.0918644)
(2.32762 0.00552375 0.0873165)
(1.97044 0.0093192 0.0628794)
(1.67605 0.00838674 0.0436165)
(1.47123 0.00892711 0.0258117)
(1.34062 0.00395177 0.0126175)
(1.25812 0.0016831 0.00603181)
(1.20238 -0.00610005 0.0027979)
(1.16623 -0.0105405 0.00160639)
(1.13884 -0.0204209 0.000852287)
(1.12332 -0.0268536 0.000725897)
(1.10935 -0.0387203 0.000591083)
(1.1056 -0.0470171 0.00064166)
(1.10029 -0.060209 0.000636017)
(1.10648 -0.0692957 0.000571539)
(1.10984 -0.0813734 0.000673354)
(1.12585 -0.0879636 0.000495949)
(1.13775 -0.093689 0.000735336)
(1.16011 -0.0916265 0.00028925)
(1.17731 -0.0835803 -0.00133369)
(2.67589 0.00463961 0.0920135)
(2.32588 0.00321461 0.0872955)
(1.96836 0.00786478 0.0629182)
(1.67377 0.00548335 0.0435508)
(1.4672 0.0074303 0.0259492)
(1.33626 0.000618727 0.0125327)
(1.25279 0.000130429 0.00610678)
(1.19647 -0.00993109 0.00268461)
(1.15994 -0.012497 0.00165904)
(1.13132 -0.0254081 0.000751281)
(1.11598 -0.0300918 0.000784725)
(1.10003 -0.0458366 0.000522939)
(1.0973 -0.052889 0.000688568)
(1.08968 -0.0710059 0.000601014)
(1.09838 -0.0796627 0.000564972)
(1.10027 -0.0975018 0.000705354)
(1.12098 -0.104431 0.000390084)
(1.13419 -0.115187 0.00090424)
(1.16348 -0.113155 9.80561e-05)
(1.18654 -0.105034 -0.0011995)
(2.67481 0.00492963 0.0922139)
(2.32452 0.00116639 0.0871269)
(1.96617 0.0071796 0.0630115)
(1.67244 0.00282404 0.043429)
(1.46276 0.00678736 0.0261198)
(1.33313 -0.00263491 0.0123099)
(1.24697 -0.000393949 0.00626991)
(1.19171 -0.0137594 0.00242536)
(1.15275 -0.0131451 0.0018645)
(1.12456 -0.030444 0.000476366)
(1.10736 -0.0317822 0.00101513)
(1.09081 -0.0532582 0.000232794)
(1.08718 -0.057165 0.000927172)
(1.07828 -0.0828185 0.00026975)
(1.08797 -0.088878 0.000787327)
(1.08887 -0.116185 0.000401246)
(1.11398 -0.121247 0.000467242)
(1.1284 -0.141989 0.000944812)
(1.16755 -0.138011 -0.000149978)
(1.19488 -0.133727 0.00113569)
(2.67371 0.00517263 0.0924199)
(2.32319 -0.000575171 0.0868938)
(1.96444 0.0073054 0.0631756)
(1.67102 0.000312548 0.0432893)
(1.45894 0.00719606 0.0262933)
(1.3297 -0.00592307 0.0120075)
(1.24226 0.000602232 0.00651742)
(1.18577 -0.017748 0.00212557)
(1.14716 -0.011821 0.00202226)
(1.11561 -0.0358252 0.00015231)
(1.10078 -0.0309563 0.0012078)
(1.07783 -0.0614603 -9.49849e-05)
(1.07941 -0.0584079 0.00109724)
(1.06094 -0.0963582 -0.000110806)
(1.08011 -0.0949338 0.000902036)
(1.06913 -0.138843 7.6736e-05)
(1.10945 -0.135855 0.000216003)
(1.11437 -0.177105 0.00131824)
(1.17256 -0.164632 -0.0012284)
(1.20551 -0.173989 0.00100112)
(2.67251 0.005227 0.0926197)
(2.32242 -0.00192253 0.0865704)
(1.96277 0.00813865 0.0633872)
(1.6701 -0.00187132 0.0431233)
(1.45501 0.00856008 0.0264859)
(1.3271 -0.00894205 0.0116475)
(1.23722 0.00301221 0.00677986)
(1.18085 -0.0214395 0.00170554)
(1.14064 -0.00859725 0.00230084)
(1.10761 -0.0408959 -0.000366492)
(1.09243 -0.0275871 0.00157109)
(1.06538 -0.0695903 -0.000758837)
(1.06882 -0.0563136 0.00155004)
(1.04277 -0.110716 -0.00106593)
(1.06819 -0.0969292 0.00150042)
(1.04579 -0.165274 -0.00120642)
(1.10056 -0.146251 0.000692323)
(1.092 -0.223202 0.000806756)
(1.17804 -0.18997 -0.00242534)
(1.20531 -0.231948 0.00496057)
(2.67187 0.00494138 0.0927789)
(2.32167 -0.00276167 0.0862548)
(1.96219 0.00967424 0.0636163)
(1.66821 -0.00358461 0.0429619)
(1.45282 0.0108832 0.0266647)
(1.32286 -0.0114982 0.0113221)
(1.23462 0.00685727 0.00703128)
(1.17324 -0.0246578 0.0013271)
(1.13741 -0.00322703 0.00251792)
(1.09536 -0.0455016 -0.00083073)
(1.08843 -0.0210012 0.00172521)
(1.04645 -0.0774274 -0.00132622)
(1.06366 -0.0496517 0.00177664)
(1.01438 -0.125984 -0.00186898)
(1.06295 -0.0925912 0.00172211)
(1.00682 -0.196562 -0.0022759)
(1.09975 -0.147883 0.000431605)
(1.04864 -0.286084 0.00151525)
(1.19232 -0.205268 -0.00562052)
(1.18387 -0.325772 0.0158757)
(2.67146 0.00412635 0.0928501)
(2.32205 -0.00327535 0.086097)
(1.96169 0.0118756 0.0638016)
(1.66679 -0.00507816 0.0429262)
(1.45042 0.0141476 0.0268114)
(1.31975 -0.0139641 0.0111574)
(1.23139 0.0122121 0.00723306)
(1.16762 -0.0278493 0.00112194)
(1.13283 0.00453687 0.00272889)
(1.08619 -0.0501677 -0.00111376)
(1.08211 -0.0108091 0.0019254)
(1.03174 -0.0856131 -0.00174429)
(1.05503 -0.0373979 0.00190739)
(0.991423 -0.142667 -0.00263562)
(1.05313 -0.0798878 0.0019358)
(0.972428 -0.233802 -0.00370887)
(1.09566 -0.136093 0.000367937)
(1.0037 -0.371714 0.00154681)
(1.21304 -0.199395 -0.00935256)
(1.13429 -0.481608 0.0355384)
(2.67032 0.00316056 0.0927671)
(2.32617 -0.0036875 0.0861842)
(1.95915 0.0145403 0.063879)
(1.66949 -0.00668942 0.0430075)
(1.44404 0.0179211 0.0269735)
(1.32338 -0.0164801 0.0111157)
(1.22207 0.0184523 0.00757938)
(1.1716 -0.030811 0.000979286)
(1.12009 0.0139199 0.0032741)
(1.0898 -0.0540967 -0.00141891)
(1.06547 0.00240738 0.00279104)
(1.03328 -0.0924025 -0.00223533)
(1.03423 -0.0200135 0.00289197)
(0.988182 -0.157636 -0.0033638)
(1.03025 -0.0587295 0.00294645)
(0.961406 -0.273138 -0.00576246)
(1.0834 -0.109213 0.00168635)
(0.982073 -0.482139 -0.00169084)
(1.25231 -0.156252 -0.0143042)
(1.08617 -0.77067 0.0584714)
(2.66706 -0.000731914 0.0924513)
(2.33586 -0.00145984 0.0866333)
(1.95143 0.0150009 0.0640874)
(1.67924 -0.00536764 0.0433062)
(1.42863 0.0180928 0.0273172)
(1.33831 -0.0153984 0.011243)
(1.19937 0.0200955 0.00829042)
(1.19105 -0.0294059 0.00100669)
(1.08943 0.0175747 0.00432169)
(1.11408 -0.052925 -0.00147607)
(1.02564 0.0089065 0.00406884)
(1.06299 -0.0933345 -0.00201332)
(0.981936 -0.00975204 0.00480387)
(1.02337 -0.167235 -0.00279264)
(0.962436 -0.0431089 0.00644786)
(1.00116 -0.314271 -0.00592528)
(1.02152 -0.0769921 0.00984448)
(1.02537 -0.641032 -0.0139359)
(1.31152 -0.0374445 -0.016055)
(1.10441 -1.29281 0.0572267)
(2.66466 -0.00469933 0.0914017)
(2.35097 0.000783398 0.0873105)
(1.94283 0.0134338 0.063922)
(1.69235 -0.00378322 0.0441991)
(1.40913 0.0153711 0.026856)
(1.36026 -0.0140419 0.0118356)
(1.16757 0.017427 0.00810366)
(1.22137 -0.0268445 0.00164411)
(1.04205 0.0152139 0.00458439)
(1.15416 -0.0485448 -0.00110181)
(0.958725 0.00651568 0.00439163)
(1.11541 -0.0863069 -0.00151166)
(0.886916 -0.0131283 0.00490714)
(1.09284 -0.157702 -0.00183428)
(0.820969 -0.0515588 0.0066948)
(1.10106 -0.313109 -0.00769223)
(0.804447 -0.0809066 0.0259454)
(1.17758 -0.740725 -0.0550677)
(1.16883 0.11139 0.0733232)
(1.17217 -1.89806 -0.0162556)
(2.66206 -0.0111408 0.0902711)
(2.36793 0.0110812 0.0873939)
(1.93374 0.00386349 0.0644878)
(1.70777 0.00859287 0.044539)
(1.38803 -0.00015714 0.026485)
(1.38736 0.00535704 0.0113474)
(1.13386 -0.00284611 0.00827241)
(1.25693 -0.000457432 0.000417637)
(0.993525 -0.0115004 0.00522469)
(1.19583 -0.0108377 -0.00267199)
(0.893853 -0.0285237 0.00595263)
(1.15763 -0.0302513 -0.00425602)
(0.800494 -0.0631881 0.00728561)
(1.12623 -0.0724741 -0.00658726)
(0.700527 -0.138392 0.00923813)
(1.11078 -0.177772 -0.0128078)
(0.594981 -0.282011 0.0261967)
(1.1804 -0.568607 -0.0414442)
(0.554329 0.0203062 0.193016)
(1.11518 -2.51964 -0.161377)
(2.6899 -0.0183713 0.0894617)
(2.33961 0.0257435 0.0886769)
(1.98163 -0.00961821 0.0645661)
(1.64482 0.0267754 0.0458538)
(1.46983 -0.0203246 0.0243774)
(1.29496 0.0326052 0.0141721)
(1.24779 -0.0293121 0.00600294)
(1.12653 0.0348795 0.00461147)
(1.14334 -0.0455789 0.0019018)
(1.01912 0.0363451 0.00312273)
(1.08368 -0.0715468 0.0018569)
(0.914523 0.0348345 0.00365095)
(1.03846 -0.118368 0.00265241)
(0.775524 0.0216981 0.00574965)
(0.999175 -0.219151 0.00342987)
(0.575733 -0.0372887 0.0100022)
(0.981404 -0.510931 0.000334176)
(0.541973 -0.347043 0.0977438)
(0.860386 -1.29908 0.0147962)
(1.33571 -3.69958 -0.294747)
(2.94304 0.030943 0.135819)
(3.01234 0.0448517 0.139781)
(2.94699 0.0450607 0.116671)
(2.80886 0.0439217 0.0933844)
(2.66332 0.041403 0.0658177)
(2.5277 0.0385727 0.0424021)
(2.40397 0.0359212 0.0275623)
(2.28926 0.0335374 0.0186634)
(2.18781 0.0308717 0.013036)
(2.0975 0.0282057 0.0095287)
(2.02103 0.0250084 0.00735224)
(1.95412 0.0220756 0.00610513)
(1.89921 0.0186897 0.00529415)
(1.85177 0.0159746 0.00483216)
(1.81425 0.012767 0.00448714)
(1.78251 0.0106597 0.00429539)
(1.75803 0.00802772 0.00409167)
(1.73781 0.00688923 0.00395378)
(1.72118 0.0053937 0.00369923)
(1.70753 0.0048084 0.00344034)
(2.99667 0.0394011 0.136968)
(3.12453 0.0590558 0.143403)
(3.15244 0.0608703 0.118595)
(3.10613 0.061155 0.0988476)
(3.04018 0.0596077 0.0752036)
(2.96966 0.0570852 0.0529771)
(2.90655 0.0541871 0.0373876)
(2.84225 0.0512141 0.0272972)
(2.78945 0.0476126 0.020406)
(2.73719 0.0437029 0.0156528)
(2.69981 0.038908 0.0124456)
(2.66091 0.0340619 0.0103675)
(2.63786 0.0285298 0.00882733)
(2.61016 0.0234343 0.00793235)
(2.59931 0.0179422 0.00697416)
(2.581 0.0133427 0.00673185)
(2.5797 0.00880316 0.00586039)
(2.56883 0.00554918 0.00651667)
(2.57164 0.00313214 0.00548966)
(2.5659 0.00131905 0.00763917)
(2.99709 0.0169465 0.13702)
(3.11602 0.0323926 0.143117)
(3.14675 0.0382293 0.117256)
(3.10923 0.0414999 0.0972503)
(3.05401 0.0430366 0.0741188)
(2.99427 0.0428649 0.0522722)
(2.94331 0.0414958 0.03693)
(2.8908 0.0391222 0.0270513)
(2.85042 0.0359573 0.020385)
(2.80946 0.0319277 0.0156801)
(2.7839 0.0271634 0.0125006)
(2.7554 0.0216624 0.0103373)
(2.74332 0.015741 0.00873717)
(2.72491 0.00947449 0.00766491)
(2.72417 0.00334326 0.00650296)
(2.71419 -0.00264827 0.00613791)
(2.72211 -0.00771923 0.00504547)
(2.71896 -0.0120676 0.00582052)
(2.72975 -0.0145735 0.00458862)
(2.73163 -0.0161932 0.00700377)
(2.99715 0.0136519 0.137288)
(3.10766 0.029084 0.14385)
(3.13352 0.0365735 0.117844)
(3.09401 0.0401358 0.0974208)
(3.03856 0.0417236 0.0742604)
(2.97876 0.0413092 0.052374)
(2.92912 0.0396113 0.0368438)
(2.87795 0.036394 0.026817)
(2.84004 0.032361 0.0200516)
(2.80097 0.0271041 0.0152943)
(2.77828 0.0212759 0.0120319)
(2.75183 0.0143947 0.00991023)
(2.7427 0.00725281 0.00827639)
(2.72639 -0.000560628 0.00729884)
(2.72853 -0.00801549 0.00612875)
(2.72084 -0.0155061 0.00584775)
(2.73172 -0.0217162 0.00471588)
(2.73133 -0.0270871 0.00554573)
(2.74513 -0.0301129 0.00428438)
(2.75043 -0.0314611 0.00651956)
(2.99712 0.00907091 0.137455)
(3.1028 0.0200633 0.144199)
(3.12531 0.0267161 0.118094)
(3.08425 0.0300533 0.0972567)
(3.02809 0.0319797 0.0739298)
(2.96775 0.031656 0.0519851)
(2.91785 0.0302675 0.0364234)
(2.86652 0.0268234 0.0263847)
(2.82866 0.0226628 0.019669)
(2.78953 0.0167375 0.0149844)
(2.76696 0.0103512 0.0117284)
(2.74068 0.0024295 0.00954038)
(2.7321 -0.00562288 0.00785469)
(2.71636 -0.0148166 0.00681393)
(2.71959 -0.0234586 0.00560849)
(2.71292 -0.0324494 0.00532127)
(2.72555 -0.0398012 0.00420063)
(2.72669 -0.0463063 0.00507266)
(2.74311 -0.0497874 0.00376918)
(2.75035 -0.0511047 0.0062635)
(2.99708 0.00698723 0.13759)
(3.09997 0.0155444 0.144457)
(3.1202 0.0220659 0.118463)
(3.07739 0.0251914 0.097527)
(3.01988 0.027429 0.0741783)
(2.95827 0.0267676 0.0522084)
(2.90738 0.0254714 0.0366077)
(2.85514 0.0214168 0.026511)
(2.81675 0.016966 0.0197231)
(2.77703 0.0100582 0.0150453)
(2.75403 0.00295367 0.0118407)
(2.72717 -0.00638277 0.00974588)
(2.71823 -0.0155756 0.00809763)
(2.70226 -0.026566 0.00709716)
(2.70565 -0.0367384 0.00587227)
(2.69961 -0.0477435 0.00555932)
(2.71332 -0.0566554 0.00439738)
(2.71632 -0.064829 0.00520248)
(2.7349 -0.0691126 0.00391792)
(2.74517 -0.0708286 0.00614086)
(2.99697 0.00586681 0.137754)
(3.09796 0.0116771 0.144602)
(3.11644 0.0175946 0.118767)
(3.07229 0.0196566 0.0977292)
(3.01334 0.0220377 0.0743676)
(2.95063 0.0205356 0.0522905)
(2.89861 0.0193824 0.0366664)
(2.84548 0.0144125 0.0265327)
(2.80615 0.00982789 0.0197705)
(2.76573 0.00172405 0.0150327)
(2.74206 -0.00593747 0.0117942)
(2.71482 -0.0168546 0.00962832)
(2.70549 -0.0271484 0.00797842)
(2.68953 -0.0401501 0.00697579)
(2.69298 -0.0519648 0.00579174)
(2.68774 -0.0652886 0.00545591)
(2.70259 -0.0760628 0.00433054)
(2.70766 -0.0862868 0.00509081)
(2.72897 -0.09171 0.00382029)
(2.74265 -0.0940422 0.00604606)
(2.99681 0.0056357 0.137972)
(3.09621 0.00837176 0.144606)
(3.11359 0.0142966 0.118994)
(3.06839 0.014795 0.0978356)
(3.00819 0.0179344 0.0745718)
(2.94413 0.0150281 0.0523493)
(2.89122 0.0146776 0.0367409)
(2.83668 0.00822398 0.0265189)
(2.79686 0.00420857 0.0197911)
(2.75483 -0.00564938 0.0150844)
(2.73083 -0.013253 0.0118586)
(2.70189 -0.0263785 0.00977216)
(2.69253 -0.0373525 0.00804536)
(2.67526 -0.0531192 0.00713363)
(2.6793 -0.0664813 0.00583234)
(2.67387 -0.0829764 0.00563398)
(2.6904 -0.0959238 0.00437536)
(2.69728 -0.109069 0.00526068)
(2.7219 -0.116178 0.00387624)
(2.73978 -0.119731 0.00607956)
(2.99635 0.0061497 0.138329)
(3.09467 0.0052598 0.144409)
(3.11093 0.0121645 0.119247)
(3.06554 0.0102775 0.0978202)
(3.00353 0.0149941 0.0748808)
(2.93861 0.00968941 0.0523421)
(2.88424 0.0110583 0.0369032)
(2.82861 0.00205347 0.0264408)
(2.78772 -0.000398061 0.0199258)
(2.74421 -0.0131593 0.0150372)
(2.7195 -0.0196521 0.0119359)
(2.68889 -0.0361577 0.00974549)
(2.67915 -0.0468731 0.00809303)
(2.66043 -0.0666243 0.00714177)
(2.66474 -0.0810092 0.00585179)
(2.65903 -0.102001 0.00565138)
(2.67717 -0.117231 0.0044228)
(2.68612 -0.134654 0.00524311)
(2.71478 -0.144014 0.00403091)
(2.73746 -0.149826 0.00615478)
(2.99571 0.00755864 0.138831)
(3.09302 0.00173015 0.143976)
(3.10863 0.0115118 0.119557)
(3.06304 0.0054927 0.0976712)
(2.99964 0.0137328 0.0752683)
(2.93318 0.00386652 0.0522069)
(2.87843 0.00929621 0.0371199)
(2.8201 -0.00472118 0.0262748)
(2.78004 -0.00285107 0.0200318)
(2.73245 -0.0213036 0.0149338)
(2.70983 -0.0236658 0.0119456)
(2.67371 -0.046607 0.0097913)
(2.66722 -0.0540497 0.00796997)
(2.64229 -0.0810585 0.0073786)
(2.65092 -0.0939099 0.00553773)
(2.64018 -0.122644 0.00609822)
(2.66364 -0.138886 0.0039185)
(2.67175 -0.163144 0.00578875)
(2.70684 -0.175517 0.00352541)
(2.73546 -0.183907 0.00648179)
(2.99403 0.00963608 0.139551)
(3.09238 -0.0022496 0.143205)
(3.10538 0.012398 0.120071)
(3.06225 0.000314386 0.0972683)
(2.99455 0.0143657 0.075838)
(2.92982 -0.00253279 0.0516281)
(2.87158 0.00981056 0.0375913)
(2.81375 -0.0122174 0.0257255)
(2.77114 -0.00259832 0.020461)
(2.72245 -0.0303041 0.0143677)
(2.69864 -0.0245081 0.0123608)
(2.65946 -0.0581597 0.00931998)
(2.65321 -0.0577903 0.0083014)
(2.6238 -0.0971299 0.00702)
(2.63426 -0.103777 0.0056982)
(2.61944 -0.145974 0.00594149)
(2.64661 -0.159428 0.0039373)
(2.65427 -0.196324 0.00572856)
(2.697 -0.210052 0.00371536)
(2.73076 -0.225975 0.00576106)
(2.99323 0.0124635 0.140367)
(3.09054 -0.00709647 0.142231)
(3.10391 0.0152935 0.120724)
(3.05964 -0.00599243 0.096752)
(2.99213 0.017689 0.0764817)
(2.92371 -0.0104611 0.0507802)
(2.86892 0.0138388 0.0382214)
(2.80285 -0.0216571 0.0250438)
(2.76805 0.00209414 0.020891)
(2.70569 -0.0417822 0.0137237)
(2.69508 -0.019831 0.0126306)
(2.6354 -0.0729384 0.00897537)
(2.64839 -0.0549821 0.00818509)
(2.59196 -0.117461 0.0072087)
(2.62721 -0.106745 0.00476423)
(2.58266 -0.175081 0.00723053)
(2.6366 -0.174976 0.00154755)
(2.62295 -0.23715 0.00870444)
(2.68628 -0.246436 0.000529014)
(2.72319 -0.277243 0.0100949)
(2.99218 0.015779 0.141195)
(3.08945 -0.0126264 0.141113)
(3.10227 0.019935 0.121475)
(3.05793 -0.0131786 0.0960934)
(2.98916 0.0234525 0.0771989)
(2.91903 -0.0195671 0.0497371)
(2.8653 0.0211505 0.0389859)
(2.79387 -0.0326143 0.0240102)
(2.76332 0.0111217 0.0216157)
(2.69086 -0.0552743 0.0125397)
(2.68897 -0.00946919 0.0134087)
(2.6125 -0.0906435 0.00773364)
(2.64013 -0.0447953 0.00895531)
(2.55877 -0.14225 0.00611373)
(2.61577 -0.100873 0.00513123)
(2.53988 -0.211221 0.00697647)
(2.62119 -0.182579 0.000580006)
(2.57999 -0.28811 0.0107822)
(2.6697 -0.282708 -0.00263946)
(2.70532 -0.338699 0.0129575)
(2.99382 0.0194245 0.14191)
(3.0856 -0.0187892 0.140075)
(3.1049 0.0264061 0.122235)
(3.05168 -0.0212819 0.0954345)
(2.99211 0.0318939 0.077885)
(2.90795 -0.0300486 0.0487671)
(2.86971 0.0322443 0.0397053)
(2.77586 -0.0456052 0.0230652)
(2.76933 0.0254501 0.0222277)
(2.66321 -0.0717895 0.0115239)
(2.69713 0.00840302 0.0138901)
(2.57142 -0.11292 0.00684032)
(2.65055 -0.0241075 0.00912967)
(2.49956 -0.174563 0.00580561)
(2.62777 -0.0809837 0.00416948)
(2.46152 -0.259776 0.00868686)
(2.63122 -0.17435 -0.0035077)
(2.49653 -0.357706 0.0181287)
(2.6693 -0.31004 -0.0112475)
(2.66155 -0.421341 0.0290514)
(2.99441 0.023185 0.142294)
(3.08447 -0.0258592 0.139582)
(3.10649 0.0346463 0.122754)
(3.04838 -0.0306485 0.0951934)
(2.99326 0.043021 0.078376)
(2.90134 -0.0423726 0.0482944)
(2.8714 0.0472286 0.0401774)
(2.76452 -0.0611823 0.0225671)
(2.77154 0.0453876 0.0225979)
(2.64491 -0.0919243 0.010922)
(2.70045 0.0343446 0.0140823)
(2.54236 -0.140512 0.00609235)
(2.65603 0.00820665 0.00891958)
(2.45361 -0.215184 0.00498023)
(2.63807 -0.044874 0.00308807)
(2.39091 -0.32255 0.00915259)
(2.64906 -0.146614 -0.0077604)
(2.40547 -0.449053 0.0259487)
(2.68854 -0.325959 -0.0216093)
(2.59891 -0.525558 0.0557914)
(2.98733 0.0271014 0.142285)
(3.09554 -0.0333475 0.139712)
(3.09825 0.0441475 0.123151)
(3.06039 -0.0406207 0.0950674)
(2.9811 0.0558583 0.079114)
(2.91526 -0.0554679 0.0477339)
(2.8564 0.0647763 0.041262)
(2.77974 -0.0776638 0.0215435)
(2.75422 0.0693146 0.0240215)
(2.65997 -0.113203 0.00919616)
(2.68264 0.0667521 0.0159229)
(2.55335 -0.169926 0.00347015)
(2.64201 0.0512725 0.0108145)
(2.45244 -0.260053 0.00110766)
(2.63751 0.00859515 0.00401853)
(2.36282 -0.396855 0.00407089)
(2.68041 -0.0959636 -0.0114152)
(2.33651 -0.565716 0.0282501)
(2.76129 -0.32734 -0.0398706)
(2.54911 -0.658624 0.0918827)
(2.96507 0.0245629 0.141975)
(3.12807 -0.0355023 0.140436)
(3.06874 0.0485132 0.124082)
(3.09968 -0.0444405 0.0950129)
(2.93961 0.0627416 0.0810023)
(2.96518 -0.0620866 0.0469565)
(2.8033 0.0760097 0.0442122)
(2.84082 -0.0874932 0.0199273)
(2.68923 0.0871532 0.0280848)
(2.73325 -0.12851 0.00627148)
(2.60697 0.0946407 0.0213309)
(2.6393 -0.19575 -0.00173347)
(2.56059 0.0948567 0.0186813)
(2.54515 -0.308508 -0.00861199)
(2.56751 0.0750813 0.0156052)
(2.43916 -0.495599 -0.0138367)
(2.67203 -0.00761207 -0.00130587)
(2.3532 -0.759343 0.00215458)
(2.90073 -0.270335 -0.0652466)
(2.5388 -0.887094 0.131751)
(2.93468 0.0197385 0.139142)
(3.17693 -0.0348459 0.142941)
(3.02645 0.0487707 0.123517)
(3.15762 -0.0444952 0.0962657)
(2.87547 0.0643489 0.081522)
(3.04201 -0.0636599 0.0473532)
(2.71433 0.0802823 0.0464262)
(2.93928 -0.0895062 0.0189678)
(2.56941 0.0958284 0.0328353)
(2.85707 -0.130838 0.0030278)
(2.45026 0.110997 0.0299174)
(2.79334 -0.200383 -0.00994466)
(2.36099 0.126021 0.0336818)
(2.73215 -0.323791 -0.0273055)
(2.32769 0.137155 0.0436546)
(2.65011 -0.552569 -0.0581651)
(2.44461 0.110432 0.0528172)
(2.52696 -0.933479 -0.0966426)
(2.91595 -0.221175 -0.0304515)
(2.4736 -1.12666 0.0912818)
(2.90435 -0.0021222 0.136768)
(3.23034 -0.00755619 0.142157)
(2.97807 0.0227339 0.124894)
(3.22284 -0.012384 0.0948398)
(2.79609 0.0299393 0.0831578)
(3.13008 -0.0228539 0.0432799)
(2.59988 0.0388948 0.0511323)
(3.04691 -0.0380052 0.0119837)
(2.41191 0.0448356 0.0410262)
(2.98026 -0.0644503 -0.00808503)
(2.23862 0.0490853 0.0433772)
(2.925 -0.114176 -0.0264622)
(2.07025 0.0535493 0.0554759)
(2.86436 -0.218404 -0.0525292)
(1.89271 0.0680486 0.082067)
(2.78138 -0.465883 -0.0985691)
(1.6863 0.144394 0.154197)
(2.6471 -1.10668 -0.185098)
(1.59029 0.410769 0.355988)
(2.10492 -1.65601 -0.144062)
(3.03714 -0.030138 0.132476)
(3.07966 0.0321721 0.144704)
(3.16697 -0.0144463 0.121475)
(3.00988 0.0336787 0.10104)
(3.04977 -0.0182201 0.0749804)
(2.85539 0.0356998 0.0523669)
(2.92601 -0.0209842 0.040637)
(2.69166 0.036137 0.026262)
(2.82015 -0.0313238 0.0260143)
(2.52329 0.0331215 0.0142477)
(2.73967 -0.0498213 0.0220654)
(2.33291 0.0217252 0.00968618)
(2.67218 -0.0816125 0.0230985)
(2.08983 -0.0149541 0.0106669)
(2.5822 -0.137916 0.02649)
(1.77517 -0.140336 0.0219824)
(2.36369 -0.225932 0.033434)
(1.615 -0.688191 0.0879452)
(2.05249 0.0739746 0.448815)
(2.83224 -3.48759 -0.381516)
(2.95089 0.0306783 0.0774587)
(3.08984 0.0450556 0.0941468)
(3.15333 0.0455196 0.0843861)
(3.15065 0.0461927 0.0752957)
(3.11771 0.045579 0.0601087)
(3.06576 0.044081 0.0445762)
(3.00248 0.0421571 0.0338925)
(2.9287 0.0405077 0.0269518)
(2.8535 0.0383811 0.0217811)
(2.77721 0.0362962 0.0177473)
(2.70633 0.0335473 0.0146134)
(2.63811 0.0310508 0.0122927)
(2.57777 0.0278457 0.0104517)
(2.52152 0.02525 0.00910726)
(2.47386 0.0218714 0.00798005)
(2.43077 0.0195698 0.0072462)
(2.39534 0.0164041 0.00658742)
(2.36417 0.0150042 0.00615423)
(2.33807 0.0126477 0.00581877)
(2.31526 0.0126909 0.00460533)
(3.0044 0.0391024 0.0778555)
(3.20238 0.0592647 0.0961097)
(3.35732 0.0615656 0.0855288)
(3.44844 0.0639784 0.0782475)
(3.50766 0.0648773 0.0661794)
(3.53799 0.0644058 0.0522288)
(3.55814 0.0629934 0.0417282)
(3.55804 0.0615396 0.0346014)
(3.55776 0.059266 0.0292624)
(3.54455 0.0566877 0.0249287)
(3.53917 0.0530995 0.0214628)
(3.52321 0.0494016 0.0188321)
(3.51919 0.0447871 0.0164611)
(3.50475 0.0403978 0.0149482)
(3.50498 0.0352828 0.0129488)
(3.49448 0.030846 0.0124657)
(3.49978 0.0259735 0.0103336)
(3.49414 0.0224763 0.0115722)
(3.50211 0.0188466 0.00918761)
(3.49895 0.0171749 0.0136714)
(3.00472 0.0169306 0.0778421)
(3.19445 0.0324981 0.0955975)
(3.35164 0.0390003 0.084629)
(3.44972 0.0432596 0.07678)
(3.51861 0.0463307 0.0649235)
(3.55941 0.0477747 0.0511048)
(3.59239 0.0480701 0.0407135)
(3.60575 0.0473032 0.0337638)
(3.62042 0.0458138 0.0287498)
(3.62205 0.043293 0.024608)
(3.63239 0.0400704 0.0213361)
(3.63167 0.0358867 0.0188034)
(3.6432 0.0312446 0.0165034)
(3.6436 0.0258718 0.015013)
(3.65848 0.0204808 0.012899)
(3.66202 0.0147387 0.0124356)
(3.68072 0.00960808 0.0101026)
(3.68824 0.00470012 0.0115499)
(3.70821 0.00109208 0.00894972)
(3.71718 -0.00184911 0.0134703)
(3.00476 0.0137005 0.0779367)
(3.18663 0.029223 0.0959838)
(3.33985 0.0372975 0.0850715)
(3.43619 0.0416327 0.0768162)
(3.50478 0.0446386 0.0649239)
(3.54508 0.0457386 0.0510926)
(3.57869 0.0457982 0.0405154)
(3.59265 0.0442499 0.0333869)
(3.60909 0.0420603 0.0282314)
(3.61214 0.0384331 0.0240274)
(3.625 0.0342958 0.0206469)
(3.62633 0.0287986 0.0181503)
(3.64091 0.0230331 0.0157683)
(3.64381 0.0161458 0.0143898)
(3.66206 0.00947872 0.012201)
(3.66842 0.00216884 0.0119364)
(3.69068 -0.00416036 0.00947957)
(3.70142 -0.0104229 0.0111738)
(3.72503 -0.0147992 0.00837873)
(3.73764 -0.0183035 0.0131858)
(3.00472 0.00917737 0.0780285)
(3.18205 0.0200669 0.0962001)
(3.33248 0.0271542 0.0853454)
(3.42739 0.0308739 0.0767215)
(3.49517 0.033876 0.0647083)
(3.53461 0.0346673 0.0508251)
(3.56756 0.0348668 0.0401919)
(3.5809 0.0329282 0.0329979)
(3.597 0.0306042 0.0278453)
(3.59963 0.0262931 0.0236583)
(3.61232 0.0217135 0.0203017)
(3.61343 0.0152203 0.0177553)
(3.62818 0.0086891 0.0153791)
(3.63123 0.000472273 0.013891)
(3.65021 -0.00727037 0.0116727)
(3.65725 -0.0161272 0.0113165)
(3.68089 -0.023608 0.00889058)
(3.69287 -0.0312652 0.0105276)
(3.71859 -0.0363736 0.00785632)
(3.73298 -0.0404816 0.01252)
(3.00469 0.00718107 0.0781194)
(3.17937 0.0154355 0.0963711)
(3.32799 0.0224168 0.0856944)
(3.42148 0.0256747 0.0770045)
(3.48818 0.0288864 0.0649921)
(3.5264 0.0290873 0.0511178)
(3.55834 0.0293273 0.0404563)
(3.57056 0.0266584 0.0332229)
(3.58585 0.024092 0.0279963)
(3.58755 0.0187609 0.0238005)
(3.59959 0.0135869 0.0204217)
(3.59987 0.00571937 0.0179308)
(3.61411 -0.00179175 0.0155657)
(3.61655 -0.0117339 0.0141901)
(3.63539 -0.0208234 0.0119519)
(3.64243 -0.0317059 0.0116279)
(3.66671 -0.0406925 0.00910924)
(3.67965 -0.050282 0.0107676)
(3.70699 -0.0564583 0.0079518)
(3.7234 -0.061685 0.0126346)
(3.00461 0.0062182 0.0782574)
(3.17746 0.0114129 0.096421)
(3.3247 0.0179845 0.0859961)
(3.41706 0.0198859 0.0772359)
(3.48263 0.0232321 0.0652362)
(3.51979 0.022315 0.0512923)
(3.55063 0.0226568 0.0406066)
(3.56184 0.018914 0.0333389)
(3.57609 0.0162387 0.0281163)
(3.57686 0.00967025 0.0238969)
(3.58791 0.00400568 0.0204961)
(3.5875 -0.00539249 0.0179384)
(3.60097 -0.0138994 0.0155278)
(3.60313 -0.0257615 0.0140987)
(3.62156 -0.0363599 0.0119241)
(3.62896 -0.0494849 0.0115249)
(3.65368 -0.0602737 0.0091071)
(3.66804 -0.0720585 0.0106262)
(3.69717 -0.0796678 0.00792805)
(3.71617 -0.0861436 0.0124086)
(3.00457 0.00630683 0.0784689)
(3.17567 0.00781903 0.0962948)
(3.32228 0.0148997 0.0862589)
(3.41348 0.0147463 0.0773886)