/*--------------------------------*- C++ -*----------------------------------*\
| =========                 |                                                 |
| \\      /  F ield         | OpenFOAM: The Open Source CFD Toolbox           |
|  \\    /   O peration     | Version:  v1806                                 |
|   \\  /    A nd           | Web:      www.OpenFOAM.com                      |
|    \\/     M anipulation  |                                                 |
\*---------------------------------------------------------------------------*/
FoamFile
{
    version     2.0;
    format      ascii;
    class       volScalarField;
    location    "380";
    object      p;
}
// * * * * * * * * * * * * * * * * * * * * * * * * * * * * * * * * * * * * * //

dimensions      [0 2 -2 0 0 0 0];


internalField   nonuniform List<scalar> 
2400
(
0.000160901
0.000160672
0.000160168
0.000159341
0.000158099
0.000156308
0.000153803
0.000150396
0.000145886
0.000140068
0.000132741
0.000123726
0.000112881
0.000100124
8.54423e-05
6.89254e-05
5.07872e-05
3.14192e-05
1.11243e-05
-1.14481e-05
0.000482932
0.000482292
0.000480888
0.000478572
0.000475071
0.000469989
0.000462837
0.000453062
0.000440063
0.000423222
0.000401932
0.000375643
0.000343905
0.000306439
0.000263176
0.000214338
0.000160419
0.000102193
4.06138e-05
-2.2488e-05
0.000805619
0.000804668
0.000802576
0.000799092
0.000793756
0.000785903
0.000774706
0.000759227
0.00073844
0.000711278
0.000676682
0.000633675
0.00058144
0.000519433
0.000447456
0.000365784
0.000275176
0.000177005
7.32291e-05
-3.33342e-05
0.00112928
0.00112819
0.00112574
0.0011216
0.00111511
0.00110531
0.00109102
0.00107088
0.00104339
0.00100699
0.000960071
0.000901154
0.000828944
0.000742524
0.000641463
0.000526019
0.000397209
0.00025699
0.000108159
-4.57794e-05
0.00145404
0.00145303
0.00145072
0.00144665
0.00143995
0.00142937
0.00141334
0.00139004
0.00135744
0.00131339
0.00125565
0.00118209
0.00109079
0.000980297
0.000849792
0.000699385
0.000530231
0.000344805
0.000146744
-5.91463e-05
0.00177978
0.00177915
0.00177758
0.00177452
0.00176887
0.00175906
0.00174309
0.00171866
0.00168312
0.00163364
0.0015672
0.00148084
0.00137183
0.00123794
0.00107772
0.000890915
0.000678644
0.00044385
0.000191135
-7.30822e-05
0.00210604
0.00210615
0.00210609
0.00210521
0.00210217
0.00209508
0.00208148
0.00205853
0.00202289
0.00197094
0.0018987
0.0018022
0.00167757
0.0015215
0.00133156
0.0011068
0.000848043
0.000558581
0.000244053
-8.72403e-05
0.00243197
0.00243326
0.00243561
0.00243829
0.00243976
0.00243777
0.00242939
0.00241119
0.00237909
0.00232854
0.00225443
0.00215149
0.00201434
0.00183819
0.00161909
0.00135492
0.00104576
0.000694985
0.000309267
-0.000100844
0.00275624
0.0027592
0.002765
0.00277286
0.00278103
0.00278695
0.00278722
0.00277782
0.00275382
0.00270966
0.00263885
0.00253458
0.00238945
0.00219667
0.00194999
0.00164543
0.00128154
0.000861315
0.000392259
-0.000112385
0.00307698
0.00308217
0.00309256
0.00310741
0.00312477
0.00314184
0.00315476
0.00315901
0.0031487
0.00311727
0.00305652
0.0029579
0.00281132
0.00260739
0.00233639
0.00199156
0.00156853
0.00106915
0.000501132
-0.000119209
0.00339172
0.00339972
0.00341595
0.00343973
0.00346899
0.00350082
0.00353095
0.0035545
0.00356461
0.00355382
0.00351181
0.00342827
0.00328941
0.00308291
0.0027935
0.00241073
0.00192465
0.00133493
0.000647888
-0.00011685
0.00369735
0.00370876
0.00373207
0.00376681
0.00381083
0.00386128
0.0039136
0.00396286
0.00400123
0.00402069
0.00400842
0.00395252
0.00383412
0.00363805
0.00334026
0.00292609
0.00237452
0.00168242
0.000850248
-9.82268e-05
0.0039901
0.00400548
0.0040371
0.00408476
0.00414638
0.00421941
0.00429916
0.00438107
0.00445649
0.0045175
0.00454845
0.00453667
0.00445611
0.00428985
0.00399983
0.00356855
0.00295257
0.00214761
0.00113505
-5.24625e-05
0.0042656
0.00428543
0.00432645
0.00438879
0.00447065
0.00456998
0.00468236
0.004804
0.00492595
0.00504111
0.0051313
0.00518424
0.00516514
0.0050567
0.0047996
0.00437836
0.00370661
0.00278786
0.00154673
4.06043e-05
0.00451895
0.00454354
0.00459481
0.0046732
0.00477749
0.00490623
0.00505598
0.00522394
0.00540205
0.00558447
0.00575212
0.00589394
0.00596726
0.00595563
0.00577109
0.00540552
0.00470023
0.0036902
0.0021588
0.000235223
0.00474487
0.00477432
0.00483633
0.0049315
0.00505966
0.00521987
0.00541067
0.00563016
0.00587329
0.00613515
0.00639988
0.00665655
0.00686128
0.0069957
0.00694795
0.00670963
0.00602233
0.00497233
0.00305379
0.000648255
0.00493785
0.004972
0.00504475
0.00515663
0.00530904
0.00550118
0.00573502
0.00600875
0.00632367
0.00667404
0.00705489
0.00745092
0.00783349
0.00816964
0.00835473
0.0083469
0.00781537
0.00683758
0.00437841
0.00135301
0.00509247
0.00513085
0.00521377
0.00534133
0.00551699
0.00573956
0.00601588
0.00634301
0.00673242
0.00717472
0.00768593
0.00823946
0.00884814
0.00944178
0.00998918
0.0103345
0.0102294
0.00956452
0.0068782
0.00294656
0.00520366
0.00524554
0.00533738
0.00547854
0.00567483
0.00592416
0.00623914
0.0066146
0.0070749
0.00760451
0.00824926
0.00896493
0.00983499
0.0107329
0.0117903
0.0126368
0.013355
0.0130706
0.0112378
0.00851418
0.00526683
0.00531145
0.00541026
0.00556206
0.0057745
0.00604494
0.00639087
0.00680538
0.00732429
0.00792742
0.00868989
0.00955377
0.0106843
0.0119023
0.0135966
0.0150943
0.0174004
0.0170784
0.0162419
-0.00692631
-3.05257e-05
-3.91117e-05
-4.54862e-05
-5.07153e-05
-5.58378e-05
-6.10482e-05
-6.6194e-05
-7.11231e-05
-7.57506e-05
-7.99393e-05
-6.17093e-05
-7.85808e-05
-9.55868e-05
-0.000112639
-0.000129549
-0.000146227
-0.000162629
-0.000178724
-0.000194529
-0.000209975
-0.000102255
-0.000132909
-0.000163228
-0.000193069
-0.000222414
-0.00025124
-0.000279493
-0.000307099
-0.000334013
-0.000360081
-0.000146518
-0.000190945
-0.000234359
-0.000276939
-0.000318907
-0.000360251
-0.000400846
-0.000440552
-0.000479306
-0.000516921
-0.000194245
-0.000253805
-0.000312018
-0.000369144
-0.000425481
-0.00048099
-0.000535476
-0.000588737
-0.00064066
-0.000691
-0.000247186
-0.000324018
-0.000399115
-0.000472776
-0.000545383
-0.000616888
-0.000687028
-0.000755533
-0.000822241
-0.000886845
-0.000306833
-0.000403814
-0.000498546
-0.000591403
-0.000682894
-0.000772957
-0.000861237
-0.000947368
-0.00103111
-0.0011121
-0.0003747
-0.000495747
-0.000613883
-0.000729578
-0.000843514
-0.000955608
-0.00106537
-0.00117232
-0.0012761
-0.00137626
-0.000452505
-0.000602992
-0.000749694
-0.000893198
-0.00103442
-0.00117325
-0.00130902
-0.00144106
-0.00156887
-0.00169192
-0.000542236
-0.000729632
-0.000912042
-0.0010902
-0.00126536
-0.00143735
-0.00160526
-0.00176815
-0.0019253
-0.00207611
-0.000646147
-0.00088102
-0.00110924
-0.00133166
-0.00154999
-0.00176401
-0.0019724
-0.0021739
-0.00236745
-0.00255239
-0.000766895
-0.00106452
-0.00135339
-0.00163411
-0.00190882
-0.00217717
-0.00243738
-0.00268774
-0.00292683
-0.00315389
-0.000908638
-0.00129147
-0.0016633
-0.00202357
-0.00237442
-0.00271514
-0.00304324
-0.0033564
-0.00365275
-0.00393149
-0.00108174
-0.00158571
-0.00207388
-0.00254324
-0.00299657
-0.00343344
-0.00385077
-0.00424531
-0.00461432
-0.00495667
-0.00130187
-0.00200349
-0.00267577
-0.00330487
-0.00389692
-0.00445622
-0.00498169
-0.00547041
-0.00592002
-0.00633051
-0.00155721
-0.0025907
-0.00357472
-0.00447128
-0.00529334
-0.00605222
-0.00674673
-0.0073715
-0.0079225
-0.00840086
-0.00212302
-0.00363085
-0.00490278
-0.00598598
-0.00698023
-0.00791666
-0.00877773
-0.00954194
-0.0101998
-0.0107555
-0.00490575
-0.00804328
-0.0100966
-0.0114517
-0.0125617
-0.0135632
-0.0144277
-0.0151218
-0.0156397
-0.0160101
-0.00293308
-0.00704775
-0.00985754
-0.0122021
-0.0144179
-0.0164004
-0.0180082
-0.0192098
-0.0200253
-0.0205342
-0.036035
-0.0358878
-0.0310939
-0.0284097
-0.0275996
-0.0273925
-0.0273062
-0.027292
-0.0273643
-0.0274078
-9.82767e-05
-0.000126971
-0.000139619
-0.000137983
-0.000124824
-0.000103732
-7.91962e-05
-5.36195e-05
-3.59323e-05
-2.49854e-05
-1.82509e-05
-1.56061e-05
-6.6351e-06
2.06609e-06
1.52468e-05
2.42472e-05
2.67348e-05
2.40645e-05
1.19361e-05
3.18492e-06
-0.000286272
-0.000374633
-0.000412678
-0.000407454
-0.000369786
-0.000308828
-0.000236151
-0.000160818
-0.000102391
-6.46522e-05
-4.40779e-05
-3.44694e-05
-1.93765e-05
4.19802e-06
3.46208e-05
6.15801e-05
7.97029e-05
7.608e-05
5.50996e-05
2.48837e-05
-0.000484456
-0.000632861
-0.000695459
-0.000684875
-0.000621082
-0.000517811
-0.000394214
-0.000266133
-0.000165973
-0.000104023
-7.1567e-05
-5.82562e-05
-3.45304e-05
4.49664e-06
5.49326e-05
0.000103496
0.000136661
0.000132329
9.92264e-05
4.39804e-05
-0.000696881
-0.000908059
-0.000993392
-0.000974408
-0.000881619
-0.000732447
-0.000553658
-0.0003687
-0.000225343
-0.000139602
-9.6911e-05
-8.31403e-05
-5.1794e-05
3.50911e-06
7.63888e-05
0.00014887
0.000197518
0.000192636
0.000146541
6.42237e-05
-0.000930766
-0.00120675
-0.00131119
-0.0012793
-0.00115393
-0.000954334
-0.000714456
-0.000466606
-0.000277216
-0.000168567
-0.000119314
-0.000110673
-7.26077e-05
-1.98407e-07
9.79684e-05
0.000198572
0.000264595
0.000260025
0.000200441
8.67295e-05
-0.00119356
-0.0015361
-0.00165392
-0.00160326
-0.00144115
-0.00118546
-0.000876576
-0.00055733
-0.000318456
-0.000188692
-0.000138008
-0.00014224
-9.88337e-05
-8.37753e-06
0.000119418
0.000254402
0.000339905
0.000337177
0.000263027
0.000111553
-0.0014949
-0.0019045
-0.002027
-0.00195026
-0.00174677
-0.00142817
-0.00103993
-0.000638287
-0.000345268
-0.000196804
-0.000151842
-0.000179906
-0.000132808
-2.31482e-05
0.00014029
0.00031788
0.000425318
0.000426942
0.000336354
0.00013861
-0.00184712
-0.00232158
-0.00243595
-0.00232435
-0.00207474
-0.00168526
-0.00120408
-0.000705345
-0.000352951
-0.00018901
-0.000159582
-0.000226649
-0.000177695
-4.75339e-05
0.000159606
0.000390455
0.000522721
0.000532705
0.00042232
0.000167123
-0.00226641
-0.0027983
-0.00288633
-0.00272978
-0.00242968
-0.00196007
-0.00136896
-0.000755081
-0.00033585
-0.000160611
-0.000159866
-0.000260975
-0.000237738
-8.57988e-05
0.000175761
0.000473428
0.000633939
0.00065834
0.000521997
0.000195203
-0.00277439
-0.00334707
-0.0033836
-0.00317088
-0.00281728
-0.00225639
-0.0015347
-0.000782298
-0.000286747
-0.000105949
-0.000155353
-0.000339672
-0.000322414
-0.000143872
0.000186182
0.000567698
0.000760688
0.000808084
0.000634796
0.000219445
-0.00340013
-0.0039816
-0.00393302
-0.00365185
-0.003245
-0.00258265
-0.00170199
-0.000780804
-0.000196608
-1.78142e-05
-0.000145683
-0.000442253
-0.000439711
-0.000229428
0.00018691
0.000673413
0.000904497
0.000986229
0.000757504
0.000234707
-0.00418317
-0.00471644
-0.00453896
-0.00417648
-0.00372303
-0.0029474
-0.00187251
-0.000743598
-5.45118e-05
0.000112337
-0.000132066
-0.000579601
-0.000600743
-0.000352462
0.000172104
0.000789317
0.00106627
0.00119628
0.000884255
0.000234928
-0.00517808
-0.00556711
-0.00520287
-0.00474757
-0.00426338
-0.00336302
-0.00204954
-0.00066315
0.000152354
0.000294302
-0.000117228
-0.000764174
-0.000818826
-0.000525075
0.000133864
0.000911819
0.00124442
0.00143783
0.00100886
0.000216528
-0.00645762
-0.0065507
-0.00592205
-0.00536388
-0.00487921
-0.00384658
-0.00223982
-0.000533073
0.000438916
0.000539252
-0.000101465
-0.00100343
-0.00110513
-0.000759687
6.24248e-05
0.00103306
0.00143158
0.00170013
0.00112598
0.000182733
-0.00812115
-0.00768959
-0.00668866
-0.00602066
-0.00558932
-0.00441979
-0.0024545
-0.000354325
0.000812754
0.000857489
-7.79467e-05
-0.00128881
-0.00145478
-0.00106123
-5.24946e-05
0.00113715
0.00160441
0.00195311
0.00122699
0.000146922
-0.0103241
-0.00901076
-0.00748774
-0.0067086
-0.00642482
-0.00510538
-0.00271384
-0.000144404
0.00126628
0.00123955
-2.38991e-05
-0.00157457
-0.00183684
-0.0014136
-0.000217541
0.00119745
0.0017249
0.00213635
0.00128808
0.000127118
-0.0130099
-0.0104106
-0.00815656
-0.00727066
-0.00730451
-0.0058745
-0.00303764
4.21406e-05
0.00169535
0.00163307
8.77637e-05
-0.00176579
-0.00216914
-0.00177023
-0.000428315
0.00117819
0.00173361
0.00215927
0.00126275
0.00013084
-0.0169137
-0.012193
-0.00889543
-0.0076794
-0.00811389
-0.00662289
-0.00343691
8.44953e-05
0.00193446
0.00189833
0.000217022
-0.00176435
-0.00233752
-0.00205213
-0.000658499
0.00104814
0.00156858
0.0019188
0.00109052
0.000146835
-0.0209424
-0.0134954
-0.00918314
-0.00763322
-0.00845471
-0.00708998
-0.00384222
-0.000160854
0.00172233
0.00173568
0.000229099
-0.00156248
-0.0022576
-0.00216455
-0.000861091
0.000805681
0.00120931
0.00137622
0.000749642
0.000154339
-0.0236941
-0.0152215
-0.0101577
-0.007667
-0.00820505
-0.006938
-0.00404947
-0.000677692
0.000930741
0.000959914
4.04472e-06
-0.00121326
-0.00189615
-0.00200971
-0.00095589
0.000485242
0.000695505
0.0006158
0.000280354
0.000148944
-0.0248309
-0.0154312
-0.0108787
-0.00772156
-0.00763545
-0.00635562
-0.00396192
-0.00112936
0.000117338
0.000180202
-0.00025311
-0.000898137
-0.00147417
-0.00171246
-0.000922154
0.000266857
0.000311952
7.93645e-05
-5.94163e-05
0.000161183
-0.0243459
-0.0156236
-0.011293
-0.00780976
-0.00736708
-0.00603688
-0.00387329
-0.00132415
-0.00025065
-0.000175493
-0.000375938
-0.00075863
-0.00127513
-0.00155112
-0.000887776
0.00016935
0.000150274
-0.000155876
-0.000202139
0.000163396
-0.0240108
-0.0158572
-0.0117681
-0.00794121
-0.00707573
-0.00565549
-0.00373276
-0.00150943
-0.000620732
-0.000533526
-0.000499852
-0.000614608
-0.00106037
-0.00136009
-0.000833096
7.23277e-05
-3.41254e-06
-0.000383515
-0.000335875
0.000162157
-0.0237479
-0.016083
-0.0122747
-0.00809052
-0.00675808
-0.00521695
-0.00355071
-0.00168765
-0.000992624
-0.000887563
-0.000618198
-0.000462875
-0.000828368
-0.00114337
-0.000761634
-2.25566e-05
-0.000153332
-0.000600891
-0.000461276
0.000159127
-0.0235289
-0.016301
-0.0127957
-0.00824532
-0.0064179
-0.00473129
-0.00333515
-0.00185839
-0.00135953
-0.00122774
-0.000725404
-0.000303894
-0.000582026
-0.000904568
-0.00067559
-0.000114715
-0.000299083
-0.000805471
-0.000576918
0.000154671
-0.023371
-0.0165125
-0.0133177
-0.00839383
-0.0060598
-0.00421155
-0.00309441
-0.00202063
-0.00171358
-0.00154482
-0.000816831
-0.00013884
-0.00032514
-0.000647615
-0.000576978
-0.000203969
-0.000439098
-0.000995062
-0.000681404
0.000148786
-0.0232825
-0.0167184
-0.0138168
-0.00852301
-0.00568885
-0.0036733
-0.00283911
-0.0021744
-0.00204836
-0.00183165
-0.000889037
3.08256e-05
-6.18633e-05
-0.000377405
-0.000468544
-0.00029026
-0.000572248
-0.00116812
-0.000773902
0.000141618
-0.0232642
-0.0169101
-0.0142722
-0.00862072
-0.00531109
-0.00313087
-0.00258141
-0.00232048
-0.00235871
-0.00208316
-0.000939911
0.000203239
0.000203079
-9.97373e-05
-0.000353727
-0.000373594
-0.000697647
-0.00132372
-0.000854064
0.000133447
-0.0233092
-0.0170903
-0.0146658
-0.00867784
-0.00493201
-0.00261024
-0.00233384
-0.00246019
-0.00264051
-0.00229568
-0.000968099
0.000376301
0.000465633
0.000179272
-0.000236183
-0.000454214
-0.000814804
-0.00146081
-0.000921867
0.000123553
-0.0234302
-0.0172644
-0.0149812
-0.00869044
-0.00455382
-0.00212537
-0.00210933
-0.00259714
-0.00289199
-0.00246624
-0.000972357
0.000547366
0.000724851
0.000454007
-0.00011912
-0.000533333
-0.000925323
-0.00157689
-0.000977452
0.000108223
-0.0235294
-0.0176022
-0.0153572
-0.00863823
-0.0039363
-0.00139878
-0.00179248
-0.00282803
-0.00326375
-0.0026843
-0.000943881
0.000823783
0.00114755
0.000896095
6.95157e-05
-0.00066527
-0.00110251
-0.00173567
-0.00105188
7.3011e-05
-0.0220721
-0.0173485
-0.0152477
-0.00833973
-0.00326252
-0.000731515
-0.00155385
-0.00309309
-0.00358366
-0.00279712
-0.000832416
0.00114737
0.00161457
0.00140171
0.000274234
-0.000827504
-0.00128709
-0.00187121
-0.00110055
3.97137e-05
-0.0205716
-0.0167005
-0.014503
-0.00787996
-0.00282851
-0.000458593
-0.00152405
-0.00328385
-0.00370702
-0.00274622
-0.000678654
0.00138125
0.00192888
0.00173971
0.000400915
-0.000965666
-0.00141274
-0.00192071
-0.00109837
1.24113e-05
-0.0181456
-0.0153761
-0.0132958
-0.00735454
-0.00264158
-0.000506129
-0.00161958
-0.0033548
-0.00364309
-0.00257548
-0.000520284
0.00150848
0.0020794
0.0018999
0.000449732
-0.00106527
-0.00147573
-0.0018923
-0.00105728
-1.19529e-05
-0.015711
-0.0138059
-0.0119106
-0.00682562
-0.00262817
-0.000787397
-0.00173142
-0.00327717
-0.00342402
-0.00232913
-0.000381177
0.00153205
0.00208237
0.00190571
0.000442871
-0.0011098
-0.00147201
-0.00179869
-0.000988093
-3.36844e-05
-0.0134383
-0.0121873
-0.0105422
-0.00631405
-0.00268073
-0.0010579
-0.00179729
-0.00307454
-0.00310267
-0.00204781
-0.000271997
0.00147249
0.00197584
0.00180458
0.000409732
-0.0010918
-0.00140692
-0.0016551
-0.000900088
-5.25067e-05
-0.0114275
-0.0106758
-0.00928672
-0.0058182
-0.002724
-0.00128462
-0.00179967
-0.0027952
-0.00273708
-0.0017647
-0.000192972
0.00135762
0.00180255
0.00164309
0.000372808
-0.00101622
-0.00129332
-0.001479
-0.000801679
-6.78788e-05
-0.00969556
-0.00931256
-0.00816163
-0.00533252
-0.00272119
-0.00144217
-0.00174899
-0.0024911
-0.00237313
-0.00150181
-0.000139016
0.00121369
0.00159876
0.00145716
0.000343214
-0.00089915
-0.00114891
-0.00128823
-0.000700243
-7.91962e-05
-0.00821614
-0.00809749
-0.0071598
-0.00485464
-0.00266243
-0.00152632
-0.00166348
-0.00219404
-0.00203695
-0.00126973
-0.000103698
0.00106075
0.00139012
0.00126951
0.000321722
-0.000761123
-0.000991646
-0.00109832
-0.000601661
-8.60673e-05
-0.00695087
-0.00701376
-0.00625928
-0.00438507
-0.00255091
-0.00154639
-0.00155624
-0.00191827
-0.00173859
-0.00107044
-8.12189e-05
0.0009116
0.00119198
0.00109213
0.000303906
-0.000616459
-0.000836005
-0.000920533
-0.000509992
-8.84968e-05
-0.00586388
-0.00604343
-0.00544528
-0.00392473
-0.00239559
-0.00151385
-0.00143472
-0.00166776
-0.00147832
-0.000900959
-6.701e-05
0.0007731
0.0010113
0.000929997
0.000284913
-0.00048657
-0.000691738
-0.000761271
-0.000427463
-8.68961e-05
-0.004924
-0.00517067
-0.00470291
-0.00347377
-0.00220551
-0.00143914
-0.00131049
-0.00144122
-0.00125153
-0.000756436
-5.76774e-05
0.000648171
0.000849982
0.000784215
0.000262442
-0.000374742
-0.000563892
-0.00062283
-0.000354729
-8.19613e-05
-0.0041046
-0.00438096
-0.00402018
-0.00303229
-0.00198801
-0.00133065
-0.00117112
-0.00123439
-0.00105234
-0.000631862
-5.0787e-05
0.000537362
0.000707266
0.000654026
0.000236055
-0.000282945
-0.0004539
-0.000504609
-0.00029131
-7.45033e-05
-0.00338321
-0.00366141
-0.00338739
-0.00260085
-0.00174954
-0.00119625
-0.00102561
-0.00104344
-0.000875236
-0.000522799
-4.46636e-05
0.000439878
0.000581164
0.000537892
0.00020628
-0.00021027
-0.000360732
-0.000404373
-0.000236039
-6.52817e-05
-0.00274088
-0.00300067
-0.00279628
-0.00217917
-0.00149642
-0.00103108
-0.000874982
-0.000865048
-0.000715508
-0.000425599
-3.82772e-05
0.000354252
0.000469262
0.000434018
0.000174175
-0.000153988
-0.000282258
-0.000319284
-0.000187523
-5.49187e-05
-0.00216168
-0.00238863
-0.00223977
-0.00176684
-0.00123375
-0.000861662
-0.000720783
-0.000696414
-0.000569189
-0.00033733
-3.11914e-05
0.000278586
0.000369035
0.000340394
0.000140783
-0.000110951
-0.000215893
-0.000246362
-0.000144489
-4.39872e-05
-0.00163217
-0.00181625
-0.00171163
-0.00136321
-0.000964623
-0.000680778
-0.000563951
-0.000535203
-0.000432781
-0.000255337
-2.31331e-05
0.00021065
0.000277809
0.000255161
0.000106925
-7.81077e-05
-0.00015891
-0.000182346
-0.000105372
-3.29919e-05
-0.00114097
-0.00127566
-0.00120643
-0.00096754
-0.000691734
-0.000492058
-0.000405598
-0.000379837
-0.000303449
-0.000177044
-1.30247e-05
0.000149009
0.000192743
0.000175771
7.35745e-05
-5.3084e-05
-0.000109328
-0.000124303
-6.71491e-05
-2.12832e-05
-0.000677675
-0.000759888
-0.000719582
-0.000578836
-0.000417616
-0.000299396
-0.000246844
-0.000229313
-0.000179876
-0.000101515
-2.85298e-07
9.3747e-05
0.000112618
9.91025e-05
3.85707e-05
-3.46749e-05
-6.62626e-05
-7.2203e-05
-2.78622e-05
-6.33008e-06
-0.000231917
-0.000257777
-0.000242935
-0.000193954
-0.00014204
-0.000105888
-8.67267e-05
-7.95427e-05
-6.05296e-05
-3.17603e-05
6.99061e-06
3.8465e-05
3.80436e-05
2.71802e-05
-8.48838e-06
-2.00588e-05
-2.53785e-05
-2.61487e-05
1.39175e-06
7.07642e-06
-0.0404982
-0.0401503
-0.0367397
-0.0355198
-0.0351912
-0.0346462
-0.0337943
-0.0327893
-0.0317695
-0.0307297
-0.0163061
-0.0220008
-0.0247501
-0.026494
-0.0277142
-0.0283389
-0.0284169
-0.0281205
-0.0275992
-0.0269448
-0.00993135
-0.015118
-0.0180858
-0.0198562
-0.0211808
-0.022195
-0.0228529
-0.0231614
-0.0231696
-0.0229415
-0.0064419
-0.00995938
-0.0122511
-0.0138099
-0.0150969
-0.0162054
-0.0170789
-0.0176842
-0.018038
-0.0181784
-0.00438963
-0.00672272
-0.00849872
-0.009876
-0.0110623
-0.0121089
-0.0129888
-0.0136816
-0.0141946
-0.014548
-0.00333979
-0.00493676
-0.00630043
-0.00744533
-0.00845371
-0.00935542
-0.0101428
-0.0108066
-0.011349
-0.0117806
-0.00274742
-0.00387349
-0.00490367
-0.00581899
-0.00664747
-0.00740275
-0.00808197
-0.00867988
-0.00919585
-0.00963493
-0.00234422
-0.00317263
-0.0039582
-0.00468444
-0.00535905
-0.0059857
-0.00656143
-0.00708233
-0.00754689
-0.00795645
-0.00203086
-0.00266664
-0.00327785
-0.00385612
-0.00440379
-0.00492045
-0.00540272
-0.0058473
-0.00625262
-0.00661783
-0.00176725
-0.00226975
-0.00275416
-0.00321805
-0.00366321
-0.00408821
-0.00448978
-0.00486498
-0.00521242
-0.00553024
-0.00153546
-0.00193927
-0.00232849
-0.00270361
-0.00306663
-0.00341617
-0.00374937
-0.00406374
-0.00435807
-0.00463027
-0.00132674
-0.00165373
-0.00196893
-0.00227381
-0.00257037
-0.0028575
-0.00313292
-0.00339457
-0.00364145
-0.0038716
-0.00113598
-0.001401
-0.00165664
-0.0019045
-0.00214629
-0.00238123
-0.00260754
-0.00282357
-0.00302852
-0.00322072
-0.000959632
-0.00117327
-0.00137955
-0.00157989
-0.00177567
-0.00196631
-0.00215045
-0.00232684
-0.00249481
-0.00265302
-0.000794934
-0.000964957
-0.00112929
-0.00128908
-0.00144541
-0.00159785
-0.00174536
-0.00188698
-0.0020222
-0.00214996
-0.000639617
-0.000771856
-0.000899732
-0.00102416
-0.00114598
-0.00126487
-0.00138006
-0.00149083
-0.00159678
-0.00169712
-0.000491468
-0.000590321
-0.000686029
-0.000779155
-0.000870274
-0.000959187
-0.00104538
-0.00112834
-0.00120779
-0.00128316
-0.000348672
-0.000416723
-0.000483245
-0.000548199
-0.000611681
-0.000673533
-0.000733462
-0.000791178
-0.000846484
-0.000899047
-0.000213776
-0.000252545
-0.000290483
-0.000327794
-0.000364507
-0.000400439
-0.000435324
-0.000468946
-0.000501202
-0.000532
-8.64673e-05
-0.000104672
-0.000118691
-0.00013078
-0.000142712
-0.000154665
-0.000166335
-0.000177505
-0.000187983
-0.000197639
0.00503798
0.00508274
0.00518416
0.00533854
0.00555645
0.00583102
0.00618659
0.00660686
0.00714242
0.00775281
0.00854624
0.00942126
0.0106196
0.0118708
0.0137535
0.0154121
0.0184256
0.0189331
0.0216036
-0.00228668
0.00491831
0.00496182
0.00505941
0.00520844
0.0054176
0.00568126
0.00601943
0.00641889
0.00692034
0.00749009
0.00821264
0.00900158
0.0100373
0.011084
0.0125366
0.0136657
0.0152972
0.0148313
0.0127634
0.00370552
0.00477578
0.00481754
0.00491044
0.00505245
0.00525068
0.00550023
0.00581713
0.00619018
0.00665079
0.00717045
0.00781068
0.00849946
0.00935498
0.0101901
0.0112094
0.0119096
0.012462
0.0117036
0.00857225
0.0045867
0.00461138
0.00465105
0.00473841
0.00487217
0.00505753
0.00529068
0.00558299
0.00592604
0.00634052
0.00680534
0.00735606
0.00794161
0.0086142
0.00925295
0.00988748
0.0102593
0.0101186
0.00930644
0.0059761
0.00264521
0.00442637
0.00446363
0.00454482
0.00466935
0.00484047
0.00505549
0.00532112
0.00563174
0.00599769
0.00640526
0.00686627
0.00735
0.00785363
0.00831603
0.00864609
0.0087742
0.00825182
0.00735822
0.00424806
0.00114707
0.00422213
0.00425672
0.00433134
0.00444592
0.00460198
0.0047977
0.00503573
0.00531265
0.00563011
0.00598028
0.00635648
0.00674369
0.0071017
0.00741197
0.00752172
0.0074662
0.00675485
0.00576822
0.00307555
0.000219977
0.00400013
0.00403188
0.00409969
0.00420389
0.00434456
0.00452043
0.0047309
0.00497399
0.00524488
0.00553955
0.00583913
0.00613824
0.00637733
0.00656046
0.00651943
0.00632463
0.00554324
0.00450075
0.00225404
-0.00028292
0.00376192
0.00379072
0.00385168
0.00394535
0.00407069
0.0042267
0.00441045
0.0046206
0.00484819
0.00509091
0.00532369
0.00554517
0.00569072
0.00577105
0.0056319
0.00533794
0.00455764
0.0035149
0.00165821
-0.000523728
0.00350908
0.00353489
0.0035891
0.00367231
0.00378275
0.00391939
0.00407785
0.00425677
0.00444512
0.00464071
0.00481684
0.00497222
0.00504633
0.00504719
0.00484836
0.00449325
0.00375249
0.00275776
0.00121759
-0.000619684
0.00324316
0.003266
0.00331368
0.00338674
0.00348295
0.00360112
0.00373611
0.00388618
0.00403971
0.00419376
0.00432292
0.00442403
0.00444523
0.00438834
0.00415742
0.00377409
0.00309106
0.00217595
0.00088958
-0.000641617
0.00296569
0.00298564
0.00302711
0.00309048
0.00317332
0.0032742
0.0033878
0.00351179
0.00363502
0.00375344
0.00384455
0.00390283
0.00388636
0.00379099
0.0035476
0.00316181
0.00254395
0.00172453
0.000645086
-0.000625129
0.00267812
0.00269532
0.00273095
0.0027852
0.00285567
0.00294064
0.00303501
0.00313591
0.00323321
0.00332192
0.00338296
0.00340895
0.00336726
0.0032496
0.0030078
0.00263811
0.00208792
0.00136934
0.000463172
-0.000586828
0.00238186
0.00239646
0.00242665
0.00247245
0.00253155
0.00260211
0.00267941
0.00276024
0.00283573
0.00290032
0.00293831
0.00294134
0.00288453
0.00275765
0.00252762
0.00218663
0.00170447
0.00108568
0.00032853
-0.000535083
0.00207819
0.00209038
0.00211555
0.00215356
0.00220234
0.00225998
0.00232227
0.00238592
0.00244336
0.00248893
0.00250995
0.00249797
0.00243423
0.0023083
0.00209755
0.00179342
0.00137875
0.000855719
0.000229516
-0.000474672
0.00176835
0.0017783
0.00179884
0.00182973
0.00186917
0.00191529
0.00196451
0.00201362
0.00205636
0.00208737
0.0020966
0.00207619
0.00201211
0.00189487
0.00170896
0.00144676
0.0010986
0.000666316
0.000157152
-0.000408614
0.00145344
0.00146133
0.00147761
0.001502
0.00153299
0.00156888
0.00160672
0.00164362
0.00167455
0.00169479
0.00169653
0.00167298
0.0016138
0.00151103
0.00135404
0.00113682
0.000853978
0.000507482
0.000104502
-0.000338899
0.0011345
0.0011405
0.00115284
0.00117127
0.00119457
0.00122133
0.00124923
0.00127588
0.0012974
0.00130993
0.00130765
0.00128511
0.00123489
0.00115081
0.00102571
0.000855253
0.000636476
0.000371385
6.6084e-05
-0.000266979
0.000812514
0.000816734
0.00082541
0.000838314
0.000854558
0.000873077
0.000892203
0.000910135
0.000924137
0.000931336
0.000927693
0.000909254
0.000871008
0.000808614
0.000717463
0.000594726
0.000438869
0.000251627
3.74116e-05
-0.000194511
0.000488364
0.000490897
0.000496102
0.000503805
0.000513458
0.000524393
0.000535597
0.000545949
0.000553804
0.000557391
0.00055431
0.000542152
0.000518003
0.000479287
0.000423422
0.000348852
0.000254908
0.000142857
1.52853e-05
-0.000122976
0.000162936
0.000163806
0.000165588
0.000168207
0.000171473
0.00017515
0.000178896
0.000182318
0.000184861
0.000185912
0.000184663
0.000180275
0.000171766
0.000158261
0.000138914
0.000113232
8.10589e-05
4.29762e-05
1.52979e-07
-4.72399e-05
0.00527502
0.00531965
0.00542249
0.0055774
0.00579838
0.00607472
0.00643777
0.00686252
0.0074155
0.00803664
0.00887088
0.00977267
0.0110703
0.012399
0.0145512
0.0165254
0.0204889
0.0230283
0.0321888
0.0274097
0.00527412
0.00531889
0.00542308
0.00557927
0.00580311
0.00608196
0.00645074
0.00687993
0.00744425
0.00807354
0.00893161
0.00985114
0.011205
0.0125857
0.0148946
0.0170848
0.0215603
0.0252272
0.0351466
0.0366632
0.00526875
0.00531372
0.00541883
0.00557617
0.005802
0.00608314
0.00645582
0.0068892
0.00746101
0.00809839
0.00897223
0.00990937
0.0113011
0.0127318
0.0151484
0.0175291
0.0223371
0.0268375
0.0371264
0.0424804
0.00525896
0.00530409
0.00540984
0.005568
0.00579524
0.00607802
0.00645342
0.00688976
0.00746681
0.00810978
0.00899443
0.00994407
0.0113617
0.012828
0.0153178
0.0178321
0.0228559
0.0278949
0.0384535
0.0458627
0.00524473
0.00528995
0.00539608
0.00555473
0.00578281
0.00606651
0.00644351
0.00688145
0.00746147
0.00810735
0.00899804
0.00995404
0.0113859
0.0128707
0.0153999
0.0179812
0.0231118
0.0283985
0.039075
0.0472874
0.00522604
0.00527128
0.00537754
0.00553634
0.00576467
0.0060486
0.00642599
0.00686423
0.00744484
0.00809102
0.00898265
0.00993904
0.0113727
0.0128584
0.0153906
0.0179707
0.0230972
0.0283394
0.0389848
0.0469476
0.00520289
0.00524809
0.0053542
0.00551281
0.0057408
0.00602427
0.00640088
0.0068381
0.0074169
0.0080608
0.00894821
0.00989905
0.0113219
0.012791
0.0152905
0.0178016
0.0228139
0.027723
0.0381858
0.044803
0.00517528
0.00522037
0.00532609
0.00548416
0.00571125
0.00599354
0.00636821
0.00680306
0.0073778
0.00801673
0.00889507
0.00983428
0.0112346
0.01267
0.015103
0.017482
0.0222725
0.0265687
0.0366782
0.0405533
0.00514324
0.00518816
0.0052932
0.00545042
0.00567602
0.00595648
0.00632804
0.00675927
0.00732759
0.00795913
0.0088234
0.00974565
0.0111115
0.0124988
0.0148322
0.0170279
0.0214869
0.0249036
0.034474
0.0334913
0.00510671
0.00515151
0.00525547
0.00541169
0.00563497
0.00591331
0.00628005
0.00670725
0.00726568
0.00788922
0.008732
0.00963613
0.0109505
0.0122858
0.0144771
0.0164686
0.0204643
0.0227856
0.0312654
0.0224511
)
;

boundaryField
{
    inlet
    {
        type            zeroGradient;
    }
    outlet
    {
        type            fixedValue;
        value           uniform 0;
    }
    upAndBottom
    {
        type            empty;
    }
    obstacle
    {
        type            zeroGradient;
    }
}


// ************************************************************************* //
