/*--------------------------------*- C++ -*----------------------------------*\
| =========                 |                                                 |
| \\      /  F ield         | OpenFOAM: The Open Source CFD Toolbox           |
|  \\    /   O peration     | Version:  v1806                                 |
|   \\  /    A nd           | Web:      www.OpenFOAM.com                      |
|    \\/     M anipulation  |                                                 |
\*---------------------------------------------------------------------------*/
FoamFile
{
    version     2.0;
    format      ascii;
    class       surfaceScalarField;
    location    "8";
    object      phi;
}
// * * * * * * * * * * * * * * * * * * * * * * * * * * * * * * * * * * * * * //

dimensions      [0 3 -1 0 0 0 0];
oriented        oriented;


internalField   nonuniform List<scalar> 
15538
(
8.05945e-06
-0.786915
0.679347
0.23228
-0.12472
6.04361e-07
-0.787232
0.679587
0.232494
-0.124842
-6.03973e-07
-0.787271
0.679632
0.232534
-0.124894
-8.05945e-06
-0.787232
0.679587
0.232494
-0.124842
-0.786915
0.679347
0.23228
-0.12472
1.44292e-06
-0.568783
-0.539255
0.321121
1.66334e-07
-0.569341
-0.539281
0.32139
-1.65891e-07
-0.569369
-0.539297
0.321395
-1.44288e-06
-0.569341
-0.539281
0.32139
-0.568783
-0.539255
0.321121
-9.62524e-07
-0.423133
-0.448009
0.30236
1.28932e-07
-0.423394
-0.448131
0.302183
-1.2881e-07
-0.423422
-0.448147
0.3022
9.62518e-07
-0.423394
-0.448131
0.302183
-0.423133
-0.448009
0.30236
-5.42103e-06
0.49835
-0.020245
-0.469658
-0.00844099
-1.14861e-07
0.497975
-0.0201694
-0.469463
-0.00834771
1.14822e-07
0.497974
-0.0201614
-0.469468
-0.00834485
5.42102e-06
0.497975
-0.0201694
-0.469463
-0.0083477
0.49835
-0.0202451
-0.469658
-0.00844097
-5.75201e-06
-0.0528866
0.299409
0.251833
-8.94949e-08
-0.0528695
0.299059
0.25178
8.95397e-08
-0.0528683
0.299052
0.251789
5.75206e-06
-0.0528695
0.299059
0.25178
-0.0528866
0.299409
0.251833
-4.81388e-06
-0.423225
0.356169
0.014174
-2.7652e-08
-0.423011
0.355912
0.0142251
2.77262e-08
-0.423018
0.355917
0.0142322
4.81393e-06
-0.423011
0.355912
0.0142251
-0.423225
0.356169
0.014174
-4.55289e-06
0.0378935
-0.481359
-8.33138e-08
0.0379888
-0.481174
8.33658e-08
0.0380001
-0.48118
4.5529e-06
0.0379888
-0.481174
0.0378935
-0.481359
-3.34035e-06
-0.0061696
0.0374766
0.47777
-0.509074
-1.21723e-07
-0.00621088
0.0375351
0.477624
-0.508951
1.2179e-07
-0.00620981
0.0375371
0.477628
-0.508955
3.34043e-06
-0.00621088
0.0375351
0.477624
-0.508951
-0.0061696
0.0374766
0.47777
-0.509074
-4.54755e-06
0.0146241
-0.490447
-1.6207e-07
0.0145684
-0.490247
1.62083e-07
0.0145666
-0.490244
4.5476e-06
0.0145684
-0.490247
0.0146241
-0.490447
-9.71459e-09
-0.0894849
0.393043
-0.426717
0.123159
2.55335e-07
-0.0887566
0.393575
-0.427123
0.122304
-2.55186e-07
-0.0887426
0.3936
-0.427131
0.122273
9.61367e-09
-0.0887565
0.393575
-0.427123
0.122304
-0.0894849
0.393043
-0.426717
0.123159
-7.37905e-07
0.373461
-0.510465
0.0475197
6.30984e-08
0.373836
-0.510637
0.0480433
-6.29988e-08
0.373848
-0.510654
0.048064
7.37843e-07
0.373836
-0.510637
0.0480433
0.373461
-0.510465
0.0475197
3.93999e-06
0.18295
0.397301
-0.206794
5.10182e-08
0.183081
0.397405
-0.206646
-5.09195e-08
0.183055
0.397423
-0.20663
-3.9399e-06
0.183081
0.397405
-0.206646
0.18295
0.397301
-0.206794
5.56513e-06
0.485326
0.0906622
-5.31909e-07
0.48551
0.0911524
5.32464e-07
0.485527
0.0911268
-5.56463e-06
0.485509
0.0911524
0.485326
0.0906622
4.84164e-05
-0.0594637
0.107464
-0.0480483
8.06445e-06
-0.0637336
0.105733
-0.0419589
-6.91719e-06
-0.0646416
0.105517
-0.0408605
-4.81496e-05
-0.063733
0.105733
-0.0419591
-0.059463
0.107464
-0.0480491
2.77843e-05
0.0266207
-0.0861122
4.25406e-06
0.0239532
-0.0876633
-5.03797e-06
0.023471
-0.0881033
-2.79657e-05
0.0239532
-0.0876633
0.026621
-0.086112
1.42401e-05
0.0256574
0.0365357
-0.0355867
2.48858e-06
0.0244713
0.0342091
-0.0347154
-2.39332e-06
0.0242167
0.0338192
-0.0345601
-1.42255e-05
0.0244714
0.0342092
-0.0347155
0.0256577
0.0365359
-0.0355868
-8.00302e-07
0.0227354
-0.00980056
0.0368752
-0.0498092
9.52717e-08
0.0226934
-0.00986379
0.0368357
-0.0496663
-9.5445e-08
0.02266
-0.00986305
0.0368122
-0.049609
7.99798e-07
0.0226934
-0.00986381
0.0368357
-0.0496663
0.0227354
-0.00980061
0.0368753
-0.0498093
-8.88905e-07
-0.0280499
0.043459
0.00732716
1.04982e-07
-0.0279755
0.0432783
0.0073896
-1.05139e-07
-0.0279376
0.0432279
0.00736988
8.88378e-07
-0.0279755
0.0432784
0.0073896
-0.0280499
0.0434591
0.00732717
-1.27112e-06
-0.0458104
0.00796119
6.24091e-08
-0.0456158
0.00777521
-6.22851e-08
-0.0455537
0.00775319
1.27065e-06
-0.0456159
0.00777521
-0.0458105
0.00796118
-1.18753e-05
-0.24035
-0.234661
0.233793
0.241231
1.85031e-07
-0.239712
-0.233201
0.233939
0.238962
-1.84994e-07
-0.239694
-0.23318
0.233938
0.238936
1.18754e-05
-0.239712
-0.233201
0.233939
0.238962
-0.24035
-0.234661
0.233793
0.241231
-9.12874e-06
-0.191783
-0.284633
0.236075
2.17619e-07
-0.191559
-0.284175
0.236012
-2.17632e-07
-0.191567
-0.284179
0.236053
9.12881e-06
-0.191558
-0.284175
0.236012
-0.191783
-0.284633
0.236075
-4.05853e-06
0.174331
-0.196367
-0.169743
4.45191e-08
0.173962
-0.196109
-0.169416
-4.45177e-08
0.17395
-0.196113
-0.169404
4.05856e-06
0.173962
-0.196109
-0.169416
0.174331
-0.196367
-0.169743
-7.939e-06
-0.287034
0.226712
-6.35811e-09
-0.286427
0.22718
6.43868e-09
-0.286432
0.227203
7.93914e-06
-0.286427
0.22718
-0.287034
0.226712
-6.56685e-07
-0.0203486
0.0257501
0.0456093
-0.0510101
4.29513e-08
-0.0204424
0.0258401
0.0456737
-0.0510721
-4.30413e-08
-0.0204464
0.0258464
0.0456792
-0.0510791
6.56394e-07
-0.0204424
0.0258401
0.0456737
-0.0510721
-0.0203486
0.0257501
0.0456093
-0.0510102
-1.02755e-06
0.0350635
-0.0637589
0.00834784
7.71196e-08
0.0351333
-0.0638074
0.0082306
-7.73393e-08
0.0351371
-0.0638138
0.00823046
1.02727e-06
0.0351333
-0.0638074
0.0082306
0.0350635
-0.0637589
0.00834785
-7.26266e-07
0.0502593
0.010555
6.75212e-08
0.05022
0.0107525
-6.77186e-08
0.0502213
0.0107623
7.25987e-07
0.05022
0.0107525
0.0502593
0.010555
6.79182e-06
0.456003
0.0623254
-0.524901
0.00656556
1.64268e-07
0.456279
0.0622665
-0.525256
0.00671688
-1.64028e-07
0.4563
0.0622581
-0.525281
0.00672287
-6.79175e-06
0.456279
0.0622665
-0.525256
0.0067169
0.456003
0.0623254
-0.524901
0.00656559
8.72406e-06
-0.376591
0.46863
0.363956
1.55172e-07
-0.37688
0.468686
0.364482
-1.55158e-07
-0.376892
0.468689
0.364503
-8.72401e-06
-0.37688
0.468686
0.364482
-0.376591
0.46863
0.363955
6.867e-06
-0.623977
0.309704
2.1331e-07
-0.624268
0.309661
-2.13162e-07
-0.624284
0.30965
-6.86697e-06
-0.624268
0.309661
-0.623977
0.309704
-4.49517e-06
0.110234
0.427899
-0.587246
0.049118
-1.96358e-06
0.110068
0.427501
-0.587127
0.0495564
1.96695e-06
0.1101
0.42742
-0.58706
0.049537
4.49843e-06
0.110068
0.427501
-0.587127
0.0495563
0.110234
0.427899
-0.587246
0.0491179
-6.74407e-07
0.329932
-0.593932
0.374235
-1.04415e-06
0.329497
-0.593909
0.37448
1.04605e-06
0.329359
-0.593861
0.3746
6.76502e-07
0.329497
-0.593909
0.37448
0.329932
-0.593932
0.374234
-9.24288e-06
0.741436
0.0164038
-1.70215e-06
0.740924
0.0160663
1.71449e-06
0.740847
0.015929
9.25169e-06
0.740924
0.0160663
0.741436
0.0164039
-3.70052e-06
-0.405723
0.562826
0.119595
-0.276694
-7.86958e-08
-0.405597
0.562687
0.119396
-0.27649
7.86516e-08
-0.405596
0.562694
0.119392
-0.276489
3.70049e-06
-0.405597
0.562687
0.119396
-0.27649
-0.405723
0.562826
0.119595
-0.276694
-2.87196e-06
-0.597079
0.0460793
0.145279
-9.65113e-08
-0.596964
0.0460004
0.145363
9.65023e-08
-0.596967
0.0459976
0.145373
2.87199e-06
-0.596964
0.0460004
0.145363
-0.597079
0.0460793
0.145279
-3.23787e-06
-0.0201796
-0.539419
-1.4105e-07
-0.0200956
-0.539336
1.41047e-07
-0.0200911
-0.539339
3.23789e-06
-0.0200956
-0.539336
-0.0201796
-0.539419
-5.72527e-07
-0.0515675
0.0149707
0.0574681
-0.0208707
1.29222e-07
-0.0514685
0.0148907
0.0573809
-0.0208039
-1.29537e-07
-0.0514372
0.0148613
0.057352
-0.0207759
5.72054e-07
-0.0514685
0.0148907
0.0573809
-0.0208039
-0.0515676
0.0149707
0.0574682
-0.0208707
-7.75551e-07
-0.0510993
0.0233733
-0.0238407
1.4374e-07
-0.0509442
0.0232652
-0.0237904
-1.44177e-07
-0.0509018
0.0232263
-0.0237614
7.74934e-07
-0.0509442
0.0232653
-0.0237904
-0.0510994
0.0233733
-0.0238407
-6.78652e-07
0.0259484
-0.0694042
0.0689612
-0.0255047
2.83535e-08
0.0260235
-0.0693857
0.0689473
-0.0255859
-2.85373e-08
0.0260431
-0.0693784
0.0689401
-0.0256048
6.78335e-07
0.0260235
-0.0693857
0.0689473
-0.0255859
0.0259484
-0.0694042
0.0689612
-0.0255047
-7.49176e-07
0.0345107
-0.0647215
0.05616
4.29139e-08
0.034584
-0.0646914
0.0561301
-4.32335e-08
0.0346047
-0.0646812
0.0561197
7.48829e-07
0.034584
-0.0646914
0.0561301
0.0345107
-0.0647215
0.05616
-9.02474e-07
0.0404648
-0.0146123
-0.0244319
-0.00141966
9.39563e-08
0.0404479
-0.0144705
-0.0244842
-0.00149418
-9.42848e-08
0.040442
-0.014425
-0.0244997
-0.00151706
9.02012e-07
0.0404479
-0.0144705
-0.0244842
-0.00149418
0.0404648
-0.0146123
-0.0244319
-0.00141964
-7.8704e-07
0.0480531
-0.00148956
-0.00609792
8.22704e-08
0.0480175
-0.00157217
-0.00599834
-8.26361e-08
0.048005
-0.00159737
-0.00596552
7.86616e-07
0.0480175
-0.00157216
-0.00599835
0.0480531
-0.00148955
-0.00609793
-1.02429e-06
0.0184342
-0.0260734
1.51955e-07
0.0183696
-0.0260366
-1.52386e-07
0.0183323
-0.0260058
1.02357e-06
0.0183696
-0.0260366
0.0184342
-0.0260735
-1.62532e-06
0.0267204
-0.022897
1.62786e-07
0.0266699
-0.0227726
-1.63459e-07
0.0266546
-0.022747
1.62449e-06
0.0266699
-0.0227726
0.0267205
-0.022897
-6.17578e-07
0.000569054
0.0548594
-0.00737473
7.54233e-08
0.000507834
0.0548048
-0.00729584
-7.57502e-08
0.000487743
0.0547858
-0.00726834
6.17192e-07
0.00050784
0.0548048
-0.00729585
0.000569059
0.0548594
-0.00737474
-1.1831e-06
0.020388
-0.0272599
-0.0175589
9.3369e-08
0.0203492
-0.0273833
-0.0174513
-9.36036e-08
0.0203376
-0.0274076
-0.0174295
1.18265e-06
0.0203492
-0.0273833
-0.0174513
0.0203881
-0.0272599
-0.0175589
-7.12482e-07
0.0472132
-0.028244
5.46415e-08
0.0472024
-0.0283482
-5.47888e-08
0.0471968
-0.0283761
7.12082e-07
0.0472024
-0.0283482
0.0472132
-0.028244
-8.63931e-07
0.06639
-0.0206656
6.93778e-08
0.0663887
-0.0207594
-6.96997e-08
0.0663853
-0.0207858
8.63503e-07
0.0663887
-0.0207594
0.0663901
-0.0206656
-4.73134e-07
0.0314481
0.0355115
4.78374e-08
0.0313871
0.035509
-4.80958e-08
0.0313668
0.0355063
4.72865e-07
0.0313871
0.035509
0.0314481
0.0355115
-5.34847e-07
0.0127223
0.053237
4.70437e-08
0.0127767
0.0531938
-4.73267e-08
0.0127927
0.0531789
5.3454e-07
0.0127767
0.0531938
0.0127223
0.053237
-4.35206e-07
-0.0085101
0.0567444
4.89245e-08
-0.00841935
0.0567045
-4.91652e-08
-0.00839105
0.0566902
4.34921e-07
-0.00841936
0.0567045
-0.00851011
0.0567444
-5.70717e-07
-0.00714095
0.0534908
8.05465e-08
-0.00706634
0.0534511
-8.07645e-08
-0.00704196
0.0534368
5.70309e-07
-0.00706634
0.0534511
-0.00714095
0.0534908
-9.48118e-07
0.0516746
-0.0286743
7.44149e-08
0.0516329
-0.0287972
-7.44396e-08
0.0516292
-0.0288153
9.47672e-07
0.0516329
-0.0287972
0.0516746
-0.0286743
-4.78056e-07
-0.0515932
-0.0115153
0.055968
9.80355e-08
-0.05153
-0.0114414
0.0559045
-9.81821e-08
-0.0515088
-0.0114157
0.0558827
4.77706e-07
-0.05153
-0.0114414
0.0559045
-0.0515932
-0.0115153
0.0559681
-6.28072e-07
-0.0439966
1.05348e-07
-0.0439358
-1.05673e-07
-0.0439156
6.2756e-07
-0.0439359
-0.0439967
-8.29571e-07
1.08426e-07
-1.08865e-07
8.29028e-07
-8.76819e-07
0.0556104
-0.032179
6.47097e-08
0.055581
-0.0322972
-6.48027e-08
0.055574
-0.0323207
8.76376e-07
0.055581
-0.0322972
0.0556104
-0.032179
-8.19313e-07
-0.0297759
5.2296e-08
-0.0298707
-5.25017e-08
-0.0298929
8.18897e-07
-0.0298707
-0.0297759
-4.22015e-07
0.0610161
-0.0150628
1.23989e-07
0.0609401
-0.0150011
-1.2413e-07
0.0609139
-0.0149773
4.21581e-07
0.0609401
-0.0150011
0.0610161
-0.0150628
-2.99488e-07
0.00858228
-0.0100312
0.0624652
1.17956e-07
0.00852283
-0.00997821
0.0623951
-1.18041e-07
0.00850175
-0.00995845
0.0623708
2.99168e-07
0.00852283
-0.00997821
0.0623951
0.00858227
-0.0100311
0.0624653
-4.02198e-07
0.00447752
0.0600732
9.21968e-08
0.00441502
0.0600118
-9.23477e-08
0.00439344
0.0599912
4.01843e-07
0.00441503
0.0600118
0.00447752
0.0600732
-4.23628e-07
-0.00250325
0.060472
6.98315e-08
-0.00255975
0.0604254
-6.9989e-08
-0.00257855
0.060409
4.23321e-07
-0.00255974
0.0604254
-0.00250325
0.060472
-4.43187e-07
-0.00633298
0.0605745
5.23416e-08
-0.0063915
0.0605358
-5.25639e-08
-0.0064095
0.0605213
4.4293e-07
-0.0063915
0.0605358
-0.00633298
0.0605746
-4.85142e-07
-0.0126133
0.0595177
4.14549e-08
-0.0126835
0.0594853
-4.17013e-08
-0.0127033
0.0594728
4.8484e-07
-0.0126835
0.0594853
-0.0126133
0.0595177
-5.85842e-07
-0.0199358
0.0634831
3.04118e-08
-0.0200109
0.0634569
-3.0767e-08
-0.0200307
0.0634471
5.8552e-07
-0.0200109
0.0634569
-0.0199358
0.0634831
-8.01576e-07
0.05898
-0.0420441
5.45384e-08
0.0589936
-0.042118
-5.46759e-08
0.0589941
-0.04213
8.01225e-07
0.0589936
-0.042118
0.05898
-0.0420441
-8.11206e-07
0.0639214
-0.0371196
4.54185e-08
0.0639013
-0.0372057
-4.5483e-08
0.0638952
-0.0372218
8.10911e-07
0.0639013
-0.0372057
0.0639215
-0.0371196
-7.95035e-07
-0.0352579
3.99812e-08
-0.035356
-4.0064e-08
-0.035376
7.94693e-07
-0.0353559
-0.0352579
-6.28873e-07
0.0683628
-0.0193368
2.39235e-08
0.0683438
-0.0194081
-2.41734e-08
0.0683359
-0.0194265
6.28577e-07
0.0683438
-0.0194081
0.0683629
-0.0193368
-5.2275e-07
0.0581977
-0.0509095
-0.0311284
1.64354e-07
0.0580852
-0.0508087
-0.0310676
-1.64703e-07
0.0580491
-0.0507743
-0.0310359
5.22217e-07
0.0580853
-0.0508087
-0.0310676
0.0581978
-0.0509096
-0.0311284
-4.22216e-07
0.0629364
-0.025609
1.6281e-07
0.0628326
-0.0255518
-1.63099e-07
0.0627982
-0.0255246
4.21806e-07
0.0628326
-0.0255518
0.0629364
-0.025609
-3.09909e-07
0.065126
-0.0172521
1.49269e-07
0.0650323
-0.0172013
-1.49334e-07
0.0650008
-0.0171797
3.09445e-07
0.0650323
-0.0172013
0.065126
-0.017252
-2.19339e-07
0.0662214
-0.0111263
1.41836e-07
0.0661373
-0.0110835
-1.41943e-07
0.0661087
-0.0110661
2.19118e-07
0.0661373
-0.0110835
0.0662214
-0.0111263
-7.43999e-08
0.00532428
-0.00558899
0.0664862
1.53639e-07
0.00528075
-0.00555347
0.0664098
-1.5383e-07
0.00526493
-0.00553967
0.0663838
7.42696e-08
0.00528075
-0.00555346
0.0664098
0.00532426
-0.00558897
0.0664862
-1.06564e-07
0.00305401
0.0647356
1.15616e-07
0.00300725
0.0646683
-1.15784e-07
0.0029911
0.0646449
1.06342e-07
0.00300725
0.0646683
0.003054
0.0647356
-4.13357e-07
0.00124848
0.0618791
8.79717e-08
0.0011971
0.0618215
-8.80745e-08
0.0011803
0.0618021
4.13181e-07
0.0011971
0.0618215
0.00124847
0.0618792
-3.95364e-07
-0.00109401
0.0628149
5.56444e-08
-0.00114611
0.0627682
-5.57769e-08
-0.00116247
0.0627518
3.95137e-07
-0.0011461
0.0627682
-0.00109401
0.0628149
-4.07531e-07
-0.00341421
0.0628952
4.64772e-08
-0.00346627
0.0628555
-4.66677e-08
-0.00348246
0.0628414
4.07326e-07
-0.00346627
0.0628555
-0.00341421
0.0628952
-4.46154e-07
-0.00792522
0.0640292
3.51375e-08
-0.00797613
0.0639947
-3.53847e-08
-0.00799185
0.0639823
4.45888e-07
-0.00797612
0.0639947
-0.00792522
0.0640292
-4.85466e-07
-0.0104214
0.0659798
2.14765e-08
-0.0104747
0.0659549
-2.17412e-08
-0.0104901
0.0659453
4.85167e-07
-0.0104747
0.0659549
-0.0104214
0.0659798
-5.00706e-07
-0.0109306
0.0688725
1.68922e-08
-0.0109859
0.0688546
-1.70886e-08
-0.0110011
0.068847
5.00418e-07
-0.0109859
0.0688546
-0.0109306
0.0688725
-6.85223e-07
-0.0401071
1.58283e-07
-0.0400105
-1.58532e-07
-0.0399675
6.84588e-07
-0.0400105
-0.0401071
-5.06489e-07
-0.0750964
0.0719978
-0.00783146
5.75454e-09
-0.0751047
0.0719953
-0.00787698
-5.87232e-09
-0.0751019
0.071991
-0.00789027
5.06215e-07
-0.0751047
0.0719953
-0.00787697
-0.0750965
0.0719978
-0.00783145
-5.98615e-07
-0.0794782
-0.0149544
1.43592e-08
-0.0795071
-0.0150064
-1.45375e-08
-0.0795067
-0.0150216
5.9833e-07
-0.0795071
-0.0150064
-0.0794782
-0.0149544
-6.67105e-07
-0.0796483
-0.025334
2.30453e-08
-0.0796995
-0.0253942
-2.31952e-08
-0.0797008
-0.0254105
6.66752e-07
-0.0796995
-0.0253942
-0.0796483
-0.025334
-6.82013e-07
-0.0789552
-0.0359503
3.74537e-08
-0.079049
-0.0360072
-3.7466e-08
-0.0790556
-0.0360212
6.81585e-07
-0.079049
-0.0360072
-0.0789553
-0.0359503
-6.33558e-07
-0.0669662
-0.0491081
5.14584e-08
-0.0670872
-0.0491682
-5.15318e-08
-0.0670965
-0.0491809
6.33329e-07
-0.0670872
-0.0491682
-0.0669662
-0.0491081
-5.22263e-07
-0.0470991
-0.0619106
6.85548e-08
-0.0472348
-0.061971
-6.88347e-08
-0.0472447
-0.0619817
5.22084e-07
-0.0472348
-0.061971
-0.0470991
-0.0619106
-2.75868e-07
0.0554147
-0.0399342
-0.0555873
2.08676e-07
0.0553867
-0.0399576
-0.05544
-2.0894e-07
0.0553541
-0.0399342
-0.055387
2.74953e-07
0.0553867
-0.0399576
-0.05544
0.0554148
-0.0399343
-0.0555873
-3.01148e-07
0.0676351
-0.0433484
2.05254e-07
0.0675674
-0.0432489
-2.05586e-07
0.0675299
-0.0432112
3.00572e-07
0.0675674
-0.0432489
0.0676351
-0.0433484
-2.76114e-07
0.0719205
-0.0298941
1.91372e-07
0.0718384
-0.0298233
-1.91641e-07
0.0718019
-0.0297963
2.75615e-07
0.0718384
-0.0298233
0.0719205
-0.0298941
-2.38871e-07
0.0734231
-0.0187545
1.66659e-07
0.0733377
-0.018701
-1.66633e-07
0.0733035
-0.018681
2.38337e-07
0.0733377
-0.018701
0.0734232
-0.0187544
-1.81102e-07
0.0719377
-0.00964071
1.47353e-07
0.0718551
-0.00960133
-1.47376e-07
0.0718243
-0.00958661
1.80857e-07
0.0718551
-0.00960132
0.0719377
-0.00964067
-1.634e-07
0.0709911
-0.00464223
1.19842e-07
0.070913
-0.00461165
-1.2004e-07
0.0708851
-0.00460023
1.63304e-07
0.070913
-0.00461164
0.0709911
-0.00464219
-3.25378e-07
-2.57609e-05
0.00163057
0.0693866
3.74024e-08
-5.4439e-05
0.00165238
0.0693147
-3.75259e-08
-6.50983e-05
0.00166066
0.0692896
3.24926e-07
-5.44436e-05
0.00165238
0.0693147
-2.57857e-05
0.0016306
0.0693866
3.32454e-07
0.000462833
0.0659972
2.35196e-07
0.000430457
0.065925
-2.35142e-07
0.000418599
0.0659006
-3.32209e-07
0.000430455
0.065925
0.000462816
0.0659973
7.30969e-07
3.74869e-05
0.0651602
-2.66571e-08
1.17901e-06
0.0650984
2.64802e-08
-1.40822e-05
0.0650775
-7.30773e-07
1.17778e-06
0.0650984
3.74753e-05
0.0651603
-1.06895e-06
-0.000870923
0.0627886
2.36421e-07
-0.000911521
0.0627328
-2.36484e-07
-0.000925275
0.0627138
1.06874e-06
-0.000911521
0.0627329
-0.00087093
0.0627886
-4.40756e-07
-0.00178327
0.0637276
4.89178e-08
-0.00182448
0.0636806
-4.9052e-08
-0.0018378
0.0636645
4.40505e-07
-0.00182448
0.0636806
-0.00178327
0.0637277
-3.3622e-07
-0.00349674
0.064609
3.6616e-08
-0.00353803
0.0645687
-3.67054e-08
-0.00355102
0.0645547
3.36025e-07
-0.00353802
0.0645687
-0.00349674
0.064609
-3.60753e-07
-0.00379948
0.0643323
2.43949e-08
-0.00384218
0.0642985
-2.45449e-08
-0.00385517
0.0642865
3.60532e-07
-0.00384218
0.0642985
-0.00379948
0.0643323
-4.05818e-07
-0.00371212
0.0658928
7.57388e-09
-0.00375572
0.0658681
-7.76009e-09
-0.00376853
0.0658587
4.05594e-07
-0.00375572
0.0658681
-0.00371212
0.0658928
-3.85613e-07
-0.00275685
0.0679176
1.86028e-08
-0.00279987
0.0678983
-1.88048e-08
-0.00281221
0.0678907
3.8537e-07
-0.00279986
0.0678983
-0.00275685
0.0679176
-2.06514e-07
-0.0197119
-0.0700313
1.7068e-07
-0.0198222
-0.069802
-1.71133e-07
-0.0198221
-0.0697209
2.05747e-07
-0.0198222
-0.069802
-0.019712
-0.0700314
-4.04755e-07
0.0707236
-0.00148226
4.26024e-09
0.0707158
-0.00152074
-4.4298e-09
0.0707109
-0.00153208
4.04567e-07
0.0707158
-0.00152073
0.0707237
-0.00148226
-2.88605e-06
0.00906853
0.0977962
-0.303229
1.88336e-08
0.00903164
0.0978906
-0.303034
-1.88178e-08
0.00903477
0.0978995
-0.303047
2.88605e-06
0.00903165
0.0978906
-0.303034
0.00906854
0.0977962
-0.303229
-3.36576e-06
0.113499
-0.27417
2.04706e-08
0.113248
-0.273636
-2.04664e-08
0.113251
-0.27362
3.36577e-06
0.113248
-0.273636
0.113499
-0.27417
-6.21065e-06
-0.308433
0.119201
-2.92604e-08
-0.30816
0.119618
2.93462e-08
-0.308167
0.119635
6.21077e-06
-0.30816
0.119618
-0.308433
0.119201
-5.38374e-06
-0.278857
0.107728
1.21433e-07
-0.278497
0.107565
-1.2142e-07
-0.2785
0.107572
5.38377e-06
-0.278497
0.107565
-0.278857
0.107728
-5.09045e-06
0.0182563
0.0590608
2.73224e-08
0.0181357
0.0592742
-2.73097e-08
0.0181225
0.0592946
5.09047e-06
0.0181357
0.0592742
0.0182563
0.0590608
-4.10046e-06
0.0434995
4.91838e-09
0.0435542
-4.92342e-09
0.0435547
4.10043e-06
0.0435542
0.0434995
-2.73002e-06
-0.0324382
-0.227288
-3.51072e-09
-0.032317
-0.227165
3.52921e-09
-0.0323162
-0.227176
2.72999e-06
-0.032317
-0.227165
-0.0324383
-0.227288
-3.37179e-06
-0.260844
-0.0800235
-1.27539e-08
-0.26076
-0.0797203
1.27966e-08
-0.260771
-0.0797123
3.37184e-06
-0.26076
-0.0797203
-0.260844
-0.0800235
-3.84153e-06
-0.236296
-3.19541e-08
-0.236149
3.20251e-08
-0.236158
3.84157e-06
-0.236149
-0.236296
-8.67178e-06
-0.290616
0.224912
0.173441
2.31362e-07
-0.290085
0.223891
0.17375
-2.3137e-07
-0.290089
0.223894
0.173767
8.67179e-06
-0.290085
0.223891
0.17375
-0.290616
0.224912
0.173441
-6.17136e-06
-0.371326
0.139777
9.01796e-08
-0.370961
0.140144
-9.01531e-08
-0.370965
0.140171
6.17144e-06
-0.370961
0.140144
-0.371326
0.139777
-5.64477e-06
-0.433033
0.0758869
-8.54512e-09
-0.43276
0.0760186
8.56888e-09
-0.432764
0.0760316
5.6448e-06
-0.43276
0.0760186
-0.433033
0.0758869
-6.8365e-06
0.142278
0.318716
7.37186e-07
0.143629
0.316266
-7.37218e-07
0.14366
0.316289
6.83653e-06
0.143629
0.316266
0.142278
0.318716
-2.04018e-06
0.326422
-0.358768
0.151549
1.33315e-07
0.326477
-0.358653
0.151792
-1.33288e-07
0.326498
-0.358655
0.151791
2.04025e-06
0.326477
-0.358653
0.151792
0.326422
-0.358768
0.151549
3.28468e-06
0.330194
0.222937
4.4013e-07
0.33028
0.22338
-4.40186e-07
0.330316
0.223386
-3.28473e-06
0.33028
0.22338
0.330194
0.222937
1.04077e-05
0.137259
5.32068e-07
0.137106
-5.32045e-07
0.137124
-1.04076e-05
0.137106
0.137259
-2.88287e-06
-0.0400728
-0.398716
5.25127e-08
-0.0398612
-0.398515
-5.24962e-08
-0.039853
-0.398514
2.88289e-06
-0.0398612
-0.398515
-0.0400728
-0.398716
-4.02038e-06
0.437064
0.0856934
-4.559e-08
0.436986
0.0858361
4.56059e-08
0.436991
0.0858492
4.02046e-06
0.436986
0.0858361
0.437064
0.0856934
-2.13384e-06
0.425407
0.163208
9.19546e-08
0.425234
0.163541
-9.19474e-08
0.425231
0.163552
2.1338e-06
0.425234
0.163541
0.425407
0.163208
-5.34019e-06
0.137884
-8.04832e-08
0.137972
8.05066e-08
0.137962
5.34021e-06
0.137972
0.137884
-3.88066e-06
-0.515413
-3.77091e-08
-0.515271
3.77654e-08
-0.51528
3.88071e-06
-0.515271
-0.515413
-4.98793e-06
-1.2814e-07
1.28261e-07
4.98802e-06
-4.66564e-06
0.0698074
-0.464942
-6.57561e-08
0.0699601
-0.464736
6.57856e-08
0.0699724
-0.464737
4.66564e-06
0.0699601
-0.464736
0.0698074
-0.464942
-1.84488e-07
-0.0180973
-0.0800118
9.32024e-08
-0.0182275
-0.0800796
-9.34679e-08
-0.0182364
-0.0800872
1.84185e-07
-0.0182275
-0.0800796
-0.0180972
-0.0800118
-3.37784e-06
-0.390031
0.426462
0.137013
2.09534e-07
-0.389888
0.426262
0.137373
-2.09529e-07
-0.389902
0.426281
0.137389
3.37791e-06
-0.389888
0.426262
0.137373
-0.390031
0.426462
0.137013
-2.32526e-06
-0.405391
0.15514
1.66645e-07
-0.405247
0.155501
-1.66636e-07
-0.40526
0.155529
2.32526e-06
-0.405247
0.155501
-0.405391
0.15514
-3.96596e-06
-0.434388
0.104887
3.11406e-08
-0.434269
0.105036
-3.11133e-08
-0.434279
0.10505
3.96597e-06
-0.434269
0.105036
-0.434388
0.104887
-3.066e-06
-0.476422
0.111844
1.31626e-08
-0.476298
0.111986
-1.31591e-08
-0.476305
0.111999
3.06603e-06
-0.476298
0.111986
-0.476422
0.111844
1.68498e-06
0.4131
0.155638
3.24031e-07
0.413661
0.156231
-3.23988e-07
0.413693
0.156248
-1.68493e-06
0.413661
0.156231
0.4131
0.155638
-7.99334e-07
-0.0792009
0.0136795
-1.20625e-08
-0.0789065
0.0134677
1.21789e-08
-0.0788004
0.0134246
7.98726e-07
-0.0789066
0.0134677
-0.0792011
0.0136795
-4.33607e-06
0.0248971
-0.491628
-1.28371e-07
0.0249125
-0.491522
1.28421e-07
0.0249193
-0.491533
4.33609e-06
0.0249125
-0.491522
0.0248971
-0.491628
-4.28603e-06
0.0603455
-0.500386
-1.16799e-07
0.06041
-0.500238
1.16822e-07
0.0604242
-0.500242
4.28606e-06
0.06041
-0.500238
0.0603455
-0.500386
-3.93199e-06
0.0826727
-0.498745
-9.00517e-08
0.0827499
-0.498641
9.0069e-08
0.0827611
-0.498642
3.93202e-06
0.0827499
-0.498641
0.0826727
-0.498745
-3.284e-07
-0.0925547
0.0106989
1.51827e-07
-0.0926549
0.0106195
-1.52069e-07
-0.0926617
0.0106117
3.27978e-07
-0.0926549
0.0106195
-0.0925548
0.0106989
-4.36031e-07
0.0607556
-0.0456605
-0.085126
2.2982e-07
0.0606062
-0.0456344
-0.0847745
-2.31005e-07
0.0605398
-0.0455945
-0.0846657
4.34886e-07
0.0606063
-0.0456345
-0.0847745
0.0607558
-0.0456606
-0.0851261
6.17239e-08
0.0761044
-0.0709362
3.96737e-07
0.0759234
-0.0707575
-3.97552e-07
0.0758524
-0.0706988
-6.29625e-08
0.0759234
-0.0707575
0.0761046
-0.0709362
7.01847e-08
0.0840709
-0.051315
3.67474e-07
0.0839013
-0.0512271
-3.6815e-07
0.0838384
-0.0511965
-7.09381e-08
0.0839014
-0.0512271
0.0840711
-0.051315
3.97923e-08
0.0876063
-0.0334295
3.13609e-07
0.0874538
-0.0333761
-3.14134e-07
0.0873992
-0.0333564
-4.03048e-08
0.0874538
-0.033376
0.0876064
-0.0334294
2.778e-08
0.0868549
-0.0180031
2.68296e-07
0.0867211
-0.0179685
-2.6844e-07
0.0866742
-0.0179554
-2.82959e-08
0.0867212
-0.0179685
0.0868549
-0.018003
2.76611e-08
0.0842534
-0.00703931
2.34521e-07
0.0841366
-0.00701702
-2.34633e-07
0.0840961
-0.00700805
-2.78644e-08
0.0841366
-0.00701701
0.0842535
-0.00703925
-1.15663e-08
0.0785533
0.00105788
1.83171e-07
0.0784526
0.00107221
-1.83468e-07
0.078418
0.00107823
1.15877e-08
0.0784526
0.00107222
0.0785533
0.00105792
-5.57074e-08
0.0724875
0.00769643
1.32148e-07
0.0724019
0.00770287
-1.32151e-07
0.0723728
0.00770616
5.56801e-08
0.0724019
0.00770288
0.0724875
0.00769647
-1.19319e-08
-0.00745692
0.0125347
0.0674098
1.22956e-07
-0.00746801
0.0125343
0.0673355
-1.22797e-07
-0.00747261
0.0125353
0.0673103
1.19576e-08
-0.00746801
0.0125343
0.0673355
-0.00745694
0.0125347
0.0674098
-9.09973e-08
-0.00469654
0.0666263
8.5464e-08
-0.00471281
0.0665594
-8.54988e-08
-0.00471921
0.0665364
9.11094e-08
-0.00471281
0.0665594
-0.00469655
0.0666263
1.94324e-08
-0.00356043
0.0648611
1.29765e-07
-0.00358331
0.0647953
-1.29781e-07
-0.00359169
0.0647733
-1.92677e-08
-0.00358331
0.0647954
-0.00356044
0.0648611
1.23702e-08
-0.0023571
0.0639569
9.52512e-08
-0.00238412
0.0638991
-9.54667e-08
-0.0023936
0.0638796
-1.2402e-08
-0.00238412
0.0638991
-0.00235711
0.0639569
-2.91055e-07
-0.00264242
0.0630742
7.02758e-08
-0.00267308
0.0630215
-7.0353e-08
-0.0026834
0.0630038
2.90824e-07
-0.00267308
0.0630215
-0.00264243
0.0630742
-2.62405e-07
-0.00230691
0.0633924
3.99857e-08
-0.00233984
0.0633471
-3.99989e-08
-0.00235052
0.0633316
2.62196e-07
-0.00233984
0.0633471
-0.00230691
0.0633924
-2.61794e-07
-0.00141449
0.0637168
3.35491e-08
-0.00145025
0.0636788
-3.35522e-08
-0.00146145
0.0636657
2.6169e-07
-0.00145025
0.0636788
-0.00141449
0.0637168
-3.18457e-07
-0.000754188
0.0636723
1.07129e-08
-0.00079117
0.0636391
-1.07175e-08
-0.000802482
0.0636276
3.18324e-07
-0.000791168
0.0636391
-0.000754189
0.0636723
-4.14333e-07
7.87945e-05
0.0650603
-3.72864e-08
4.1453e-05
0.0650351
3.72089e-08
3.01697e-05
0.065026
4.14143e-07
4.1456e-05
0.0650351
7.87951e-05
0.0650603
-2.35065e-07
0.00148167
0.066515
5.54109e-08
0.00144607
0.0664934
-5.55817e-08
0.00143559
0.0664854
2.34893e-07
0.00144607
0.0664934
0.00148167
0.066515
-3.16844e-07
0.00424221
0.0679634
8.0298e-09
0.00421124
0.0679503
-8.18529e-09
0.00420196
0.0679446
3.16678e-07
0.00421124
0.0679503
0.00424221
0.0679634
-3.27683e-07
-0.0717771
0.00518619
0.0708334
-6.92465e-09
-0.071767
0.00515675
0.0708211
6.85525e-09
-0.0717618
0.00514796
0.0708158
3.2748e-07
-0.071767
0.00515675
0.0708211
-0.0717771
0.0051862
0.0708335
-4.01612e-07
-0.076289
0.00303004
-7.6549e-09
-0.0762822
0.00299409
7.53811e-09
-0.0762773
0.00298336
4.01435e-07
-0.0762822
0.00299409
-0.076289
0.00303004
-4.84011e-07
-0.0820544
-0.00206557
-3.73644e-09
-0.0820533
-0.00210637
3.6777e-09
-0.082049
-0.00211859
4.83795e-07
-0.0820533
-0.00210636
-0.0820544
-0.00206556
-5.5828e-07
-0.0942367
-0.0027716
7.54542e-09
-0.0942431
-0.00281717
-7.55557e-09
-0.0942387
-0.00283192
5.57908e-07
-0.0942431
-0.00281716
-0.0942367
-0.00277159
-6.59929e-07
-0.0978025
-0.0217675
1.62598e-08
-0.0978141
-0.0218238
-1.63242e-08
-0.097809
-0.0218402
6.59681e-07
-0.0978141
-0.0218238
-0.0978025
-0.0217675
-5.87363e-07
-0.0959947
-0.0377574
3.12211e-08
-0.0960146
-0.0378072
-3.13537e-08
-0.0960087
-0.0378214
5.87117e-07
-0.0960146
-0.0378072
-0.0959948
-0.0377574
-6.14519e-07
-0.0869962
-0.058106
5.06365e-08
-0.0870276
-0.0581559
-5.08154e-08
-0.087021
-0.0581685
6.13981e-07
-0.0870276
-0.0581559
-0.0869963
-0.058106
-6.70912e-07
-0.0693782
-0.079528
7.09036e-08
-0.0694333
-0.079566
-7.12192e-08
-0.0694284
-0.0795741
6.70664e-07
-0.0694333
-0.079566
-0.0693782
-0.079528
-9.38972e-07
-0.0480277
-0.101361
7.9375e-08
-0.0481535
-0.10136
-8.00073e-08
-0.0481564
-0.101359
9.3914e-07
-0.0481535
-0.10136
-0.0480277
-0.101361
1.68081e-05
-0.24061
0.230561
4.95128e-07
-0.241052
0.231337
-4.95247e-07
-0.241082
0.231354
-1.68081e-05
-0.241052
0.231337
-0.24061
0.230561
5.00887e-06
-0.403766
0.318788
3.90953e-07
-0.40364
0.318823
-3.91072e-07
-0.40366
0.318827
-5.00884e-06
-0.40364
0.318823
-0.403766
0.318788
1.01546e-06
-0.442787
0.176033
3.63936e-07
-0.442769
0.176502
-3.63975e-07
-0.442793
0.176522
-1.01542e-06
-0.442769
0.176502
-0.442787
0.176033
-2.29431e-06
-0.45888
0.171234
1.83115e-07
-0.458652
0.171381
-1.83101e-07
-0.458661
0.171398
2.29427e-06
-0.458652
0.171381
-0.45888
0.171234
-2.62076e-06
-0.470431
0.116441
1.02588e-07
-0.470355
0.116737
-1.02555e-07
-0.470368
0.116758
2.62076e-06
-0.470355
0.116737
-0.470431
0.116441
-3.45325e-06
-0.489975
0.131392
-2.58329e-08
-0.489831
0.131458
2.58368e-08
-0.489836
0.131467
3.45328e-06
-0.489831
0.131458
-0.489975
0.131392
-2.7023e-06
-0.491168
0.0838683
-1.702e-08
-0.491128
0.0840435
1.70271e-08
-0.491134
0.0840592
2.7023e-06
-0.491128
0.0840435
-0.491168
0.0838683
-2.788e-06
-0.412862
0.28145
-8.44811e-08
-0.412738
0.281609
8.45692e-08
-0.412741
0.281624
2.78812e-06
-0.412738
0.281609
-0.412862
0.28145
-2.49258e-06
0.100945
-0.533984
-1.15876e-07
0.10102
-0.533856
1.159e-07
0.101026
-0.533858
2.49259e-06
0.10102
-0.533856
0.100945
-0.533984
5.51357e-09
-0.519686
0.151359
0.415847
3.35465e-08
-0.519644
0.151693
0.415995
-3.34137e-08
-0.519651
0.151714
0.416001
-5.54601e-09
-0.519644
0.151693
0.415995
-0.519686