/*--------------------------------*- C++ -*----------------------------------*\
| =========                 |                                                 |
| \\      /  F ield         | OpenFOAM: The Open Source CFD Toolbox           |
|  \\    /   O peration     | Version:  v1806                                 |
|   \\  /    A nd           | Web:      www.OpenFOAM.com                      |
|    \\/     M anipulation  |                                                 |
\*---------------------------------------------------------------------------*/
FoamFile
{
    version     2.0;
    format      ascii;
    class       surfaceScalarField;
    location    "15";
    object      phi;
}
// * * * * * * * * * * * * * * * * * * * * * * * * * * * * * * * * * * * * * //

dimensions      [0 3 -1 0 0 0 0];
oriented        oriented;


internalField   nonuniform List<scalar> 
68400
(
0.0725494
0.000747365
0.00920321
0.0618831
0.00109328
0.00957302
0.0529285
0.00106706
0.00788753
0.0453245
0.000976122
0.0066279
0.0393945
0.00084943
0.00508058
0.0351104
0.000723009
0.00356106
0.0321111
0.000628883
0.00237042
0.0299523
0.000565341
0.00159345
0.0283238
0.000523582
0.00110498
0.0270507
0.000485531
0.000787499
0.0260247
0.000452846
0.000573179
0.0251717
0.00041248
0.00044056
0.0244425
0.000378892
0.000350309
0.0238025
0.000336732
0.000303237
0.0232365
0.000310432
0.000255567
0.0227226
0.000273021
0.000240847
0.0222629
0.000259462
0.000200236
0.0218306
0.000230549
0.000201765
0.0214327
0.000227221
0.000170756
0.000224881
0.000104041
0.0211037
0.0735679
0.000431433
0.00924801
0.0641071
0.000797105
0.00975699
0.056368
0.000879627
0.00792651
0.0497244
0.000866057
0.00675374
0.0443898
0.000803758
0.00538027
0.0403946
0.000719268
0.00399888
0.0375506
0.000639397
0.00283352
0.0355191
0.000571896
0.00202497
0.0340477
0.000519738
0.00147519
0.0329489
0.00047269
0.0011116
0.0321259
0.00043212
0.000843804
0.0314761
0.000388657
0.000673551
0.03096
0.000350479
0.000544514
0.0305189
0.000309481
0.000468379
0.0301401
0.000278879
0.000410378
0.0298104
0.00024728
0.00035544
0.0294921
0.000229852
0.000347911
0.0292567
0.000213723
0.000252228
0.0289281
0.000209827
0.000346023
0.000219678
9.43173e-05
0.0288389
0.0734314
0.000252614
0.0092474
0.0639119
0.000553662
0.00976297
0.056212
0.00068752
0.00789203
0.0496741
0.000724195
0.00667976
0.0444631
0.000704671
0.00531009
0.0405803
0.000655578
0.00394648
0.0378312
0.000593079
0.00279535
0.0358814
0.000527834
0.00199388
0.0344821
0.000465609
0.00145347
0.0334501
0.000408014
0.0010967
0.0326919
0.000354993
0.000835264
0.03211
0.00030556
0.000665037
0.031663
0.000260122
0.000537376
0.0312956
0.000219383
0.000457485
0.0309873
0.000185215
0.000401898
0.030735
0.000159295
0.000340347
0.0304849
0.000142019
0.000337864
0.0303334
0.00013673
0.000228501
0.0300698
0.000140386
0.000333094
0.000161155
7.19063e-05
0.0300564
0.0733384
0.000158514
0.00925571
0.0636958
0.000394959
0.00980126
0.0559126
0.000529339
0.00794138
0.0493418
0.000582795
0.00671225
0.0441336
0.000581647
0.00533118
0.0402764
0.000549154
0.0039637
0.0375646
0.000497804
0.00280701
0.0356532
0.000438148
0.00200107
0.0342911
0.000375184
0.00145254
0.0332907
0.000314326
0.0010941
0.0325611
0.000255822
0.000828777
0.0320046
0.000202401
0.000659693
0.0315829
0.000152789
0.000529002
0.0312416
0.000110793
0.000449852
0.030959
7.55716e-05
0.000392257
0.0307356
5.17633e-05
0.00033093
0.030511
3.78073e-05
0.000328854
0.0303913
3.83935e-05
0.000218006
0.0301535
5.13348e-05
0.00032691
8.00141e-05
6.38423e-05
0.0301708
0.0732907
0.000108479
0.0092593
0.0635805
0.0002888
0.00981637
0.0557452
0.000405257
0.00795942
0.0491496
0.000462575
0.00671584
0.0439368
0.000472163
0.00532222
0.0400888
0.000451246
0.00394599
0.037393
0.000407859
0.00278566
0.0354989
0.000353486
0.00197879
0.0341534
0.000290339
0.00143038
0.0331672
0.000227226
0.00107332
0.0324498
0.000162987
0.00081021
0.0319039
0.000104285
0.000643999
0.0314933
4.80305e-05
0.000515371
0.0311647
3.92022e-07
0.000439023
0.0308956
-3.66535e-05
0.000381294
0.0306875
-6.08681e-05
0.000320698
0.0304795
-7.27401e-05
0.000318575
0.0303774
-6.83274e-05
0.000208825
0.0301565
-4.59121e-05
0.000318115
-8.87224e-06
5.90701e-05
0.0301863
0.0732706
7.63265e-05
0.00926158
0.0635226
0.000211051
0.00982576
0.0556472
0.000304214
0.0079764
0.0490194
0.000356178
0.00673416
0.0437866
0.000365983
0.00533906
0.039929
0.000349765
0.00395905
0.0372322
0.000307649
0.002797
0.0353412
0.000256356
0.00198814
0.0340025
0.000190199
0.00143879
0.033024
0.000126173
0.0010796
0.0323165
5.49243e-05
0.000815601
0.0317798
-6.56326e-06
0.000647497
0.0313817
-7.25024e-05
0.000518601
0.0310634
-0.000122469
0.000441216
0.0308105
-0.000167953
0.000384214
0.0306168
-0.000194434
0.000327292
0.0304267
-0.000205136
0.000322442
0.0303432
-0.000201795
0.000216927
0.0301388
-0.000162507
0.000321054
-0.000130908
6.0094e-05
0.0302007
0.0732599
5.40879e-05
0.00926233
0.0634848
0.000153343
0.00983285
0.0555788
0.000222204
0.00798799
0.0489229
0.000264151
0.00674794
0.0436721
0.00026864
0.00534817
0.0398029
0.000253805
0.00396514
0.0371036
0.000209067
0.00279782
0.0352108
0.000160021
0.00198918
0.0338768
8.742e-05
0.00143672
0.0329002
2.22851e-05
0.00108057
0.0322016
-6.02372e-05
0.000813668
0.0316706
-0.000125014
0.000649545
0.0312869
-0.000204159
0.00051527
0.0309789
-0.000255969
0.000441582
0.0307476
-0.000315151
0.00037846
0.0305687
-0.000339625
0.000324103
0.0304059
-0.000356734
0.000314413
0.0303391
-0.000349692
0.00021467
0.0301606
-0.000297925
0.000313929
-0.000276213
5.79021e-05
0.030248
0.073252
3.78906e-05
0.00926417
0.0634607
0.000109144
0.00983554
0.0555306
0.000155345
0.00799695
0.0488532
0.00018596
0.00675555
0.0435831
0.000182208
0.00535654
0.0397028
0.000165601
0.00396856
0.0369945
0.000116035
0.0028013
0.0350985
6.55848e-05
0.0019904
0.0337634
-1.40165e-05
0.00143656
0.0327867
-8.33176e-05
0.00108226
0.0320947
-0.000177832
0.000809655
0.0315637
-0.000251615
0.000657618
0.0311984
-0.000346173
0.000507267
0.0308871
-0.000409029
0.000464405
0.0306954
-0.0004832
0.000359675
0.0304985
-0.000514658
0.000372019
0.0304066
-0.000539551
0.000274694
0.030287
-0.000523761
0.000293685
0.0302106
-0.000472156
0.000250572
-0.000417599
-8.88356e-05
0.0304408
0.0732462
2.7429e-05
0.00926431
0.063443
7.28675e-05
0.00983941
0.0554953
0.000102142
0.00800097
0.0487973
0.000118303
0.00676562
0.0435105
0.000108651
0.00536031
0.0396137
8.43846e-05
0.00397808
0.0368968
3.24321e-05
0.00280046
0.034989
-2.64426e-05
0.00199985
0.0336545
-0.000110302
0.00143073
0.032668
-0.000191779
0.00109506
0.0319869
-0.000295659
0.000798853
0.0314476
-0.000386796
0.000674533
0.031108
-0.000496823
0.000490231
0.0307911
-0.000578837
0.000486654
0.0306439
-0.000673314
0.000337346
0.0304421
-0.000716982
0.000404125
0.0304099
-0.000764014
0.00025666
0.0302781
-0.00074058
0.000348664
0.0302432
-0.000706414
0.000269167
-0.000604366
-5.40053e-05
0.0304839
0.0732401
2.14592e-05
0.00926585
0.0634283
4.26824e-05
0.00984198
0.055466
5.96706e-05
0.00800481
0.048751
6.11729e-05
0.00677207
0.0434463
4.73457e-05
0.00536603
0.0395332
1.32179e-05
0.00398428
0.0368031
-4.09176e-05
0.00280344
0.0348841
-0.000111332
0.00200392
0.0335426
-0.000199795
0.00143102
0.0325491
-0.000296458
0.00109815
0.0318678
-0.000412443
0.000798078
0.0313281
-0.000524348
0.000677277
0.030999
-0.000656791
0.000489073
0.0306926
-0.000763079
0.000490644
0.0305716
-0.000891624
0.000339303
0.0303919
-0.000952108
0.000414847
0.0303957
-0.00104146
0.00027358
0.0302857
-0.00099292
0.000362408
0.0302932
-0.000994764
0.000280763
-0.000807859
-0.000143676
0.0306404
0.0732311
1.89623e-05
0.00927145
0.0634159
1.86552e-05
0.00983921
0.0554381
2.64629e-05
0.00801094
0.0487132
1.45756e-05
0.00677156
0.0433839
-2.58513e-07
0.00537689
0.0394598
-4.73177e-05
0.00398463
0.0367068
-0.000100842
0.00281292
0.0347823
-0.000187133
0.00200035
0.0334201
-0.000276474
0.00143886
0.0324266
-0.000396453
0.00109344
0.0317286
-0.000519314
0.000804936
0.0311978
-0.000666695
0.000673144
0.0308616
-0.000813849
0.000493211
0.0305777
-0.000971758
0.000492584
0.0304716
-0.00112044
0.00033494
0.030328
-0.00125034
0.000441788
0.0303904
-0.00135252
0.000248675
0.0302815
-0.00138569
0.000501646
0.030457
-0.00136069
0.000190497
-0.0012108
0.000581316
0.0302786
0.0732191
2.20794e-05
0.00927782
0.0634026
-3.07569e-06
0.00983818
0.0554115
3.91606e-06
0.00801363
0.0486772
-2.33464e-05
0.00677227
0.0433239
-3.32029e-05
0.00538624
0.039386
-9.70041e-05
0.00398762
0.0366097
-0.000143593
0.00281902
0.0346745
-0.000252121
0.00200016
0.0332899
-0.000335932
0.00144409
0.0322879
-0.000486311
0.00109186
0.0315715
-0.000612328
0.000809384
0.0310385
-0.000803806
0.000670166
0.0306943
-0.00096758
0.000497899
0.0304233
-0.00118957
0.000488801
0.0303304
-0.00137105
0.000343504
0.0302295
-0.00158852
0.000439116
0.0303366
-0.00173075
0.000271059
0.0303014
-0.00184973
0.00049928
0.0305616
-0.0018356
0.000214761
-0.00172225
0.000452781
0.0306202
0.0732001
3.31743e-05
0.00928876
0.06339
-2.67656e-05
0.00983387
0.0553837
-4.58741e-06
0.00801478
0.0486439
-5.54404e-05
0.00677192
0.0432606
-4.59604e-05
0.00539606
0.0393117
-0.000139756
0.0039916
0.0365066
-0.000161671
0.00282323
0.0345617
-0.000309562
0.0020023
0.0331459
-0.000365933
0.00144576
0.0321342
-0.000569265
0.00109469
0.0313882
-0.000673752
0.000807398
0.0308484
-0.000938527
0.000674526
0.0304828
-0.00109501
0.000493014
0.0302166
-0.00142063
0.000497316
0.0301291
-0.00161898
0.000335449
0.0300679
-0.00197921
0.000451833
0.0302463
-0.0021607
0.000251552
0.0303309
-0.00244452
0.000510175
0.030729
-0.00243521
0.000201572
-0.00235046
0.000585734
0.0307714
0.0731735
4.76247e-05
0.00931202
0.0633825
-5.07512e-05
0.00981501
0.0553535
3.68091e-06
0.00802071
0.0486194
-8.06703e-05
0.00675939
0.0431897
-3.50492e-05
0.00541879
0.0392463
-0.000176199
0.00397986
0.036394
-0.000147008
0.00283756
0.0344565
-0.00035747
0.00198544
0.0329818
-0.00035396
0.00146269
0.0319802
-0.000642156
0.00107451
0.0311673
-0.0006834
0.00082257
0.0306415
-0.00106459
0.000651832
0.0302029
-0.0011645
0.000508156
0.0299658
-0.00165914
0.000475603
0.0298225
-0.00182195
0.00034625
0.029837
-0.00243413
0.000440421
0.0300138
-0.00259233
0.000254786
0.0302828
-0.00322665
0.000513177
0.0309231
-0.00321561
0.000140092
-0.00346832
0.000396379
0.0316446
0.0731312
5.9191e-05
0.00935726
0.0633848
-7.5654e-05
0.00977123
0.0553096
4.02926e-05
0.00803859
0.0486061
-0.000109394
0.00673227
0.043096
1.41034e-05
0.00546095
0.0391997
-0.000225847
0.00394595
0.0362645
-7.70509e-05
0.00286528
0.0343682
-0.000420062
0.00195882
0.0327919
-0.00026486
0.00148721
0.0318344
-0.000734319
0.00104968
0.0309056
-0.000585541
0.000830951
0.0304208
-0.00121487
0.000635029
0.0298495
-0.00109445
0.000501325
0.0296597
-0.00194432
0.000474987
0.0293967
-0.00186899
0.000310039
0.0295212
-0.00302484
0.000466123
0.0296602
-0.0029122
0.00018091
0.0301297
-0.00436971
0.000673543
0.0305991
-0.00391792
0.000232976
-0.00503363
0.000945932
0.0312184
0.0731185
5.37286e-05
0.00938692
0.0634013
-8.68774e-05
0.00972848
0.0552878
9.46965e-05
0.00805905
0.0485922
-0.000122149
0.00670839
0.0430233
8.26612e-05
0.0055003
0.0391545
-0.000257872
0.00390085
0.036153
2.74139e-05
0.00289699
0.034284
-0.000462746
0.00191172
0.0326181
-0.000110155
0.00151121
0.0316952
-0.000797842
0.000986416
0.0306427
-0.000377849
0.000844844
0.0301994
-0.00133458
0.000563019
0.0294465
-0.000849902
0.000508262
0.0293192
-0.00222043
0.000403438
0.0288054
-0.00164569
0.000290537
0.029093
-0.00372873
0.000416256
0.0290235
-0.00285957
1.69119e-05
0.030198
-0.00623965
0.000695452
0.0310829
-0.00430377
-0.000499087
-0.00875161
0.00135793
0.033443
0.073086
2.84998e-06
0.00946492
0.0634403
-6.53783e-05
0.00962414
0.0552328
0.000151932
0.00815032
0.0486064
-0.00012234
0.00662656
0.0429055
0.000158595
0.00562491
0.039167
-0.000288127
0.00376878
0.0359998
0.000162368
0.0030323
0.0342688
-0.00050842
0.00177666
0.0323749
0.000103774
0.00167993
0.0316209
-0.000872825
0.00082903
0.0302673
-6.23934e-05
0.00103811
0.0300197
-0.00148141
0.000394411
0.0288647
-0.000421699
0.00072678
0.0289694
-0.00257094
0.00024589
0.0279264
-0.00109488
0.000492177
0.0284969
-0.00466347
0.00036422
0.0276677
-0.00206139
3.09578e-05
0.0290428
-0.00875544
0.00114072
0.028745
-0.00343595
-0.000570043
-0.0146919
0.00301854
0.0316668
0.0732186
-7.7966e-05
0.00936222
0.0634151
7.792e-06
0.00973035
0.0553061
0.000157128
0.00810374
0.0485295
-5.68371e-05
0.00671113
0.0429851
0.000141837
0.0055612
0.0390392
-0.000220885
0.00387858
0.0360273
0.000180807
0.0029935
0.0340777
-0.000425644
0.00186679
0.0323623
0.00016186
0.0016573
0.0313598
-0.000773563
0.000903248
0.0302023
6.22723e-05
0.00103287
0.0296677
-0.00136152
0.000414741
0.0287108
-0.000171927
0.000707114
0.0285066
-0.00247586
0.000109088
0.0276844
-0.000680077
0.000407402
0.0282381
-0.00498849
-0.000228666
0.0279749
-0.0016043
-0.000193913
0.0313905
-0.0118147
-0.000356358
0.0312451
-0.000351817
-0.00293866
-0.028866
0.00501288
0.0404062
0.0733955
-0.00036652
0.00939304
0.0634133
0.000386974
0.00960304
0.05539
-0.000132003
0.00831244
0.0484963
0.000351042
0.00648579
0.0430827
-0.000280938
0.00583638
0.0390287
0.000349936
0.00348314
0.0361155
-0.000352047
0.00344606
0.0340562
0.000322494
0.00131117
0.0323923
-0.000509015
0.0023348
0.0313065
0.000215313
9.69232e-05
0.0301214
-0.000768738
0.00201609
0.0295016
-1.02309e-05
-0.000731436
0.0283416
-0.00122525
0.00221326
0.0278941
-0.000581906
-0.00144637
0.0264365
-0.00210504
0.0028825
0.0258392
-0.00215138
-0.00223979
0.0234837
-0.00350265
0.00425382
0.0241155
-0.00894389
-0.00350252
0.0190763
-0.0017212
0.00640856
-0.0457341
-0.00399493
0.0399394
0.073572
0.00911556
-0.000554046
0.0634209
0.00979784
0.000740178
0.0555369
0.00819973
-0.000447677
0.0482894
0.00692746
0.000671
0.043337
0.00538275
-0.000711197
0.0388321
0.00395259
0.000902207
0.0364367
0.00294581
-0.000902484
0.0337518
0.00197033
0.0010371
0.0327329
0.00170793
-0.00119802
0.0308366
0.000954385
0.00115721
0.0304143
0.00126519
-0.0016116
0.0287076
0.00044953
0.00124692
0.0284413
0.00129229
-0.00225123
0.0265121
0.00017909
0.00116819
0.0261946
0.00160629
-0.00339386
0.0240342
-3.5304e-05
4.4344e-05
0.0247665
0.00241587
-0.00665083
0.0242895
0.000376215
-0.00884308
0.0298785
0.0150092
-0.0223195
-0.0207023
0.064517
-0.0596703
0.0840242
0.000775065
0.00690399
0.0834282
0.00123477
0.00893418
0.0820364
0.00131821
0.00796113
0.0799281
0.00135735
0.00737885
0.0772638
0.00135535
0.00638954
0.0744473
0.00131377
0.00506379
0.071722
0.00126739
0.0038283
0.0691636
0.00121574
0.00293616
0.0667648
0.0011754
0.00232836
0.0645407
0.00112411
0.00188748
0.0625001
0.0010832
0.00153055
0.0606436
0.00102541
0.00127167
0.0589534
0.000980459
0.00106001
0.057417
0.000916162
0.000923507
0.0560207
0.000871359
0.000780555
0.0547387
0.000808422
0.000714382
0.0535824
0.000767199
0.000589306
0.0524938
0.000719188
0.000571237
0.0515493
0.000684583
0.000430679
0.000657576
0.000542673
0.0504531
0.0851649
0.000447632
0.00691054
0.086234
0.000895047
0.0090276
0.0862851
0.00107722
0.00811638
0.0857545
0.00117403
0.00746775
0.0846521
0.00122838
0.0066096
0.0832434
0.00123998
0.00548137
0.0817934
0.00123038
0.00432049
0.0803832
0.00120202
0.00344898
0.079063
0.00117348
0.00279727
0.0778137
0.00113353
0.00235145
0.0766888
0.00109536
0.00195654
0.0756516
0.00104556
0.00169062
0.0747391
0.000998325
0.00143915
0.0739024
0.000942389
0.00127885
0.0731548
0.000890741
0.00113866
0.072484
0.000838816
0.000995812
0.0718553
0.00078873
0.000955114
0.0714118
0.000753499
0.000661377
0.0709232
0.000709848
0.000809378
0.000712358
-4.35697e-05
0.0710063
0.0850338
0.000258702
0.0069025
0.0860643
0.000599231
0.00902827
0.0861323
0.000799508
0.00810179
0.085679
0.000920063
0.00738699
0.0847037
0.000993066
0.00652076
0.0834547
0.00103169
0.00540371
0.0821843
0.0010433
0.00425291
0.0809641
0.00103381
0.0033822
0.0798403
0.0010092
0.00274159
0.0787904
0.000973941
0.00230622
0.0778655
0.0009299
0.00192555
0.0770308
0.000880752
0.00166461
0.0763179
0.000825655
0.00142291
0.0756863
0.000771202
0.00126034
0.0751332
0.000713548
0.00113213
0.0746685
0.000664778
0.000979139
0.07423
0.000614829
0.000950263
0.0740051
0.000583088
0.000623792
0.073711
0.00055184
0.000785223
0.000550689
-9.79736e-05
0.0740425
0.0849489
0.00016113
0.00690433
0.0858637
0.00042178
0.00906392
0.0858552
0.000603428
0.00814601
0.0853432
0.00072383
0.00742045
0.0843269
0.000799057
0.00654155
0.0830542
0.000842912
0.00542516
0.0817806
0.000858958
0.00426495
0.0805704
0.000853694
0.00339133
0.0794689
0.000828789
0.00273445
0.0784474
0.00079156
0.00229796
0.0775584
0.000742245
0.00190549
0.0767623
0.000687753
0.00164875
0.0760926
0.000626168
0.00139823
0.075508
0.000566117
0.00123953
0.0750031
0.000504007
0.00110671
0.0745926
0.000451263
0.000954896
0.0742051
0.000401538
0.000929649
0.0740408
0.000369153
0.000596219
0.0738015
0.000344921
0.000773194
0.000342459
-0.000120517
0.0741941
0.0849054
0.000109492
0.00690556
0.0857569
0.000305322
0.00908128
0.0857013
0.000452508
0.00816601
0.0851526
0.000558627
0.00742971
0.084108
0.000626464
0.00653936
0.082816
0.000668162
0.00541279
0.0815319
0.000682432
0.00424628
0.0803179
0.000677462
0.00336899
0.0792174
0.000650496
0.00270917
0.0781999
0.000610477
0.00227194
0.077317
0.000555666
0.00187967
0.076529
0.000494666
0.00162507
0.0758696
0.000425642
0.0013753
0.075298
0.000357302
0.00121944
0.0748088
0.000288425
0.00108615
0.074417
0.000227838
0.000935895
0.0740511
0.000175535
0.000910474
0.0739112
0.000139078
0.00057877
0.0736988
0.000119254
0.000756248
0.000123133
-0.00013464
0.0741118
0.0848876
7.6065e-05
0.00690739
0.0857045
0.000221979
0.00909223
0.0856147
0.00033494
0.00818378
0.0850318
0.000424476
0.0074512
0.0839556
0.000478571
0.00656309
0.082635
0.000514691
0.00543319
0.081328
0.000520056
0.00426635
0.0800955
0.000511741
0.00338634
0.0789826
0.000476065
0.00272615
0.0779561
0.000430907
0.00228565
0.07707
0.000365606
0.0018918
0.0762812
0.000295917
0.00163497
0.0756274
0.000215914
0.00138223
0.0750619
0.000136184
0.00122776
0.0745863
5.96816e-05
0.00108864
0.0742073
-1.4025e-05
0.000948086
0.07386
-6.6267e-05
0.000911589
0.0737406
-0.00012057
0.000595952
0.0735474
-0.000120913
0.000754422
-0.000154218
-0.000114235
0.0739991
0.0848784
5.23606e-05
0.00690761
0.0856693
0.000162414
0.00910155
0.0855553
0.000242096
0.00819485
0.0849441
0.000314987
0.00746863
0.0838433
0.000350092
0.00657742
0.0824968
0.000379676
0.00544665
0.0811723
0.000369673
0.0042727
0.0799205
0.000358399
0.00339436
0.0787981
0.000307276
0.00272788
0.0777579
0.000258933
0.0022928
0.0768702
0.000175257
0.00189166
0.0760739
9.88252e-05
0.00164297
0.0754289
-3.67071e-06
0.00137988
0.074864
-9.20421e-05
0.00123471
0.0744085
-0.000187608
0.00108124
0.0740399
-0.000273256
0.00095194
0.0737216
-0.000336894
0.000903294
0.0736238
-0.000406265
0.000598212
0.0734788
-0.000410292
0.000748228
-0.000427594
-0.000131856
0.073942
0.0848691
3.53682e-05
0.00691204
0.0856486
0.000117235
0.00910127
0.0855111
0.000168029
0.00820848
0.0848837
0.000224087
0.00747383
0.0837558
0.000239633
0.00659491
0.0823935
0.000260413
0.00545019
0.0810439
0.000234485
0.00428603
0.0797804
0.000216715
0.00339564
0.0786385
0.000149103
0.00273661
0.0775899
9.31061e-05
0.0022967
0.0766933
-9.34884e-06
0.00189081
0.0758885
-9.6806e-05
0.00165812
0.0752535
-0.000221324
0.0013599
0.0746702
-0.000325717
0.00128135
0.0742648
-0.000448791
0.00102629
0.0738426
-0.000549089
0.00107002
0.0736331
-0.000634675
0.000781992
0.0733209
-0.000703865
0.000903437
0.0732829
-0.000712303
0.000590647
-0.000762838
0.000913816
0.0726155
0.084862
2.55594e-05
0.00691213
0.0856326
7.98552e-05
0.00910615
0.0854799
0.000110533
0.0082112
0.0848352
0.000146565
0.00748787
0.0836878
0.000148665
0.0065986
0.0823029
0.000154936
0.00546853
0.0809366
0.000117794
0.0042834
0.0796489
8.69691e-05
0.00341734
0.0784973
6.15981e-06
0.00272528
0.0774221
-6.32503e-05
0.00232654
0.0765291
-0.000185613
0.00186817
0.0756952
-0.000288701
0.00170037
0.0750855
-0.000442619
0.00132122
0.0744716
-0.000565447
0.00134024
0.0741203
-0.000727805
0.000967662
0.0736642
-0.000844812
0.00115594
0.0735312
-0.000975499
0.000730516
0.0731978
-0.00105752
0.00103571
0.0732969
-0.00110737
0.000565115
-0.00111427
0.00106693
0.0725274
0.0848557
2.21308e-05
0.00691357
0.0856206
4.76324e-05
0.00910933
0.0854542
6.6854e-05
0.00821485
0.0847948
8.05576e-05
0.00749752
0.0836284
7.58595e-05
0.00660525
0.0822234
6.34926e-05
0.00548071
0.0808368
2.01581e-05
0.00428768
0.0795277
-2.8824e-05
0.00342882
0.078358
-0.000119514
0.00272633
0.0772625
-0.000207933
0.0023384
0.0763572
-0.000348516
0.00186621
0.0755075
-0.000474472
0.00171276
0.0748977
-0.000660032
0.00131627
0.0742779
-0.000810571
0.0013556
0.0739463
-0.00102032
0.000963364
0.0734998
-0.0011663
0.00118284
0.0733977
-0.00135077
0.00075099
0.0730614
-0.00144592
0.00108713
0.0731869
-0.00154856
0.000596439
-0.00161126
0.000981167
0.072559
0.0848448
2.5236e-05
0.00692358
0.0856148
1.9012e-05
0.00909774
0.0854258
3.69442e-05
0.00822986
0.0847636
2.30081e-05
0.0074913
0.0835663
2.39782e-05
0.00662612
0.0821558
-1.70011e-05
0.0054756
0.0807317
-5.23778e-05
0.00430962
0.079418
-0.000134766
0.00341993
0.0782057
-0.000216617
0.00274829
0.0771108
-0.000346351
0.00232678
0.0761602
-0.000482005
0.00188895
0.0753211
-0.000662349
0.00170018
0.0746708
-0.000851314
0.00133476
0.0740763
-0.00107423
0.00135076
0.0737233
-0.00130032
0.000967956
0.0733285
-0.0015379
0.00120818
0.0732526
-0.00175665
0.0007304
0.072873
-0.00195184
0.00138716
0.0728378
-0.0020753
0.000752452
-0.00212804
0.00165894
0.072277
0.0848324
3.90758e-05
0.00693161
0.085609
-1.13547e-05
0.00909191
0.0853997
2.26941e-05
0.00823723
0.0847315
-2.95118e-05
0.00749299
0.0835079
-4.50916e-06
0.00663833
0.0820863
-8.86126e-05
0.00548075
0.0806303
-9.72373e-05
0.00431996
0.079301
-0.00022811
0.00342278
0.0780531
-0.000283266
0.0027586
0.0769401
-0.000469466
0.00232803
0.0759545
-0.000585746
0.00189872
0.0750993
-0.00083662
0.00169955
0.074421
-0.00102008
0.001345
0.0738225
-0.00133474
0.0013478
0.0734601
-0.00157741
0.000982954
0.0730907
-0.00193381
0.00120451
0.0730339
-0.00219677
0.000767922
0.0727011
-0.00251434
0.00139462
0.0727046
-0.00269031
0.000826193
-0.00287192
0.00152932
0.072372
0.084811
7.10349e-05
0.00694585
0.0856083
-5.33537e-05
0.00907854
0.0853681
3.22824e-05
0.00824537
0.0847012
-8.48188e-05
0.0074941
0.0834428
-1.01453e-06
0.00665098
0.0820183
-0.000159732
0.00548727
0.0805213
-0.000102928
0.00432589
0.0791815
-0.000317625
0.00343162
0.0778859
-0.000303182
0.00276123
0.0767581
-0.00058687
0.00233996
0.0757218
-0.00063716
0.0018951
0.0748495
-0.00100525
0.00171548
0.0741242
-0.00113706
0.00133528
0.0735128
-0.0015966
0.00137059
0.0731241
-0.0018194
0.000966086
0.0727653
-0.00235634
0.0012332
0.0727454
-0.00265586
0.00073052
0.0725128
-0.00318745
0.00141585
0.07268
-0.00343173
0.000775811
-0.00366141
0.00166909
0.0723862
0.0847811
0.000123261
0.00697865
0.0856196
-0.000116795
0.00903998
0.0853284
7.71216e-05
0.00826708
0.084681
-0.000154524
0.00747652
0.083363
4.92081e-05
0.00668659
0.0819637
-0.000247162
0.00546653
0.0803976
-4.64785e-05
0.00434725
0.0790782
-0.000422416
0.00340958
0.0776942
-0.000244083
0.00278759
0.0765896
-0.000720918
0.00231317
0.0754466
-0.000591925
0.00192029
0.0746004
-0.00119133
0.0016842
0.0737507
-0.00114297
0.00136373
0.0731766
-0.0018842
0.00133731
0.0726633
-0.00195721
0.000997345
0.0723832
-0.00283515
0.00119933
0.0722611
-0.00305338
0.000774447
0.0721618
-0.00394985
0.00137486
0.0724205
-0.00433526
0.000784882
-0.00493958
0.00141178
0.0726833
0.0847275
0.000208314
0.00704467
0.0856498
-0.00022916
0.00896131
0.0852587
0.000198846
0.00830803
0.0846858
-0.000284777
0.00743535
0.0832435
0.000199837
0.00675269
0.0819356
-0.000413612
0.00542027
0.0802381
0.000139695
0.00437658
0.0790093
-0.000619848
0.00338512
0.0774611
-1.53862e-05
0.00280671
0.0764457
-0.000961281
0.00230545
0.0751172
-0.000337634
0.00190514
0.0743519
-0.00149698
0.00170594
0.0732961
-0.000893862
0.00130804
0.072792
-0.00231358
0.00140842
0.0720772
-0.00181341
0.000881075
0.0718929
-0.00350979
0.0013251
0.0716708
-0.00324297
0.000592534
0.0717631
-0.00498627
0.00161767
0.0718576
-0.00504609
0.000849383
-0.00615567
0.00206666
0.0719529
0.0847075
0.00029444
0.0070933
0.0856817
-0.000365515
0.00889061
0.0852226
0.000367516
0.00834946
0.0846957
-0.000437756
0.00738826
0.0831644
0.000417117
0.00681439
0.0819173
-0.000613108
0.00534743
0.0801113
0.000425716
0.00441699
0.0789528
-0.000868803
0.00331922
0.077258
0.000350051
0.00284048
0.076329
-0.00127623
0.00223038
0.0747999
0.000128055
0.00190831
0.0741449
-0.00191825
0.00163931
0.0728043
-0.000322929
0.00127791
0.0724389
-0.00293065
0.00138586
0.0713294
-0.00119348
0.000780094
0.0713439
-0.00450632
0.00139836
0.0706738
-0.00284516
0.000289121
0.0714338
-0.00677917
0.00172836
0.0717431
-0.00582022
-3.42707e-05
-0.00889563
0.00207257
0.0737684
0.0846712
0.000354633
0.0072335
0.0857421
-0.000519546
0.00870733
0.0851374
0.00060504
0.00851751
0.0847622
-0.000662936
0.00722686
0.0830115
0.000751405
0.00704132
0.0819783
-0.000935013
0.0051239
0.0799066
0.000889789
0.00463999
0.079015
-0.00129619
0.0030956
0.0769439
0.000996055
0.00310499
0.0763463
-0.00184331
0.0019938
0.0743154
0.00101609
0.00218096
0.074069
-0.00269286
0.00141535
0.072065
0.000865726
0.00154217
0.0721842
-0.00403949
0.00123556
0.0702373
0.00030999
0.000935572
0.0707599
-0.00614404
0.00147939
0.0691348
-0.00130485
0.000115737
0.0701139
-0.00902664
0.00240902
0.0692516
-0.00526464
-0.000263286
-0.011391
0.00378083
0.0709847
0.0848367
0.000277559
0.00710256
0.0856903
-0.000517912
0.00887516
0.0853061
0.000667841
0.00842513
0.0846953
-0.000669729
0.00732871
0.0832199
0.000849672
0.00693836
0.0818946
-0.000995187
0.005264
0.0800959
0.00110501
0.00457698
0.0788928
-0.00141073
0.00318449
0.0771436
0.00136905
0.00303353
0.0762242
-0.00204884
0.00202816
0.0745342
0.00164555
0.00209338
0.0739798
-0.00304928
0.00132559
0.0722899
0.00189745
0.00136523
0.0721979
-0.00472011
0.000881734
0.070446
0.00194841
0.000520844
0.0711754
-0.00771836
0.000616294
0.069609
0.000936131
-0.000868451
0.0724293
-0.0132806
0.00107725
0.0719916
-0.00398839
-0.00377717
-0.0176282
0.00504226
0.0781994
0.0851927
-0.000395158
0.00737306
0.0855983
0.000258213
0.00842132
0.0855701
1.90137e-05
0.00898949
0.0846236
0.000147548
0.00661495
0.083474
8.50716e-05
0.00775065
0.0817805
-6.9398e-05
0.00425083
0.0802974
0.000293562
0.00574062
0.0787383
-0.000377415
0.00183691
0.0772231
0.000527641
0.00469146
0.0759765
-0.000907865
0.000202574
0.0743729
0.000860033
0.00440515
0.0735731
-0.00184659
-0.00113431
0.0716269
0.00140542
0.00465144
0.0714391
-0.0036569
-0.00232178
0.0685624
0.00236537
0.00534222
0.0693538
-0.00737827
-0.00337128
0.0639443
0.00423528
0.00636422
0.0671672
-0.0161961
-0.00380982
0.0570626
0.00621078
0.00631393
-0.0318626
-0.00348043
0.0707825
0.0853129
0.00680132
-0.00089383
0.0853766
0.0089564
0.00103602
0.0858721
0.00837624
-0.000653015
0.0844723
0.00752845
0.000946292
0.0838771
0.00683504
-0.000771999
0.0815579
0.00524354
0.000958914
0.0808109
0.00470532
-0.000719012
0.0783321
0.00319607
0.000875633
0.0777529
0.00347962
-0.000664839
0.0751779
0.00196298
0.000658549
0.0747777
0.00305545
-0.000529984
0.0719827
0.00124433
0.000153563
0.0716345
0.00327313
-0.000227205
0.0682782
0.000692876
-0.000814421
0.0676207
0.00424062
0.000388561
0.06357
-0.000227986
-0.00313487
0.0621698
0.00687721
0.00117416
0.0622228
-0.00432793
-0.011545
0.0682149
0.0184292
-0.00320131
-0.0264527
0.100445
-0.0583425
0.0843816
0.000770456
0.00425196
0.0860466
0.00122224
0.00604696
0.0871193
0.00132236
0.00556606
0.087809
0.00137235
0.0053168
0.0879148
0.00141009
0.00487362
0.0874679
0.00141031
0.00410043
0.0866227
0.00139853
0.00327495
0.0855319
0.001375
0.00265197
0.0842726
0.00136061
0.00222703
0.0829166
0.00133436
0.00190912
0.0815007
0.00131221
0.00163419
0.0800751
0.00127435
0.00142291
0.0786583
0.00124352
0.00123336
0.0772739
0.00119831
0.00110952
0.0759315
0.00116331
0.000959694
0.0746344
0.00111395
0.000897469
0.0733974
0.00107452
0.000751812
0.0721392
0.00101615
0.000813318
0.0709448
0.000983865
0.00064117
0.000961371
0.000890845
0.0696353
0.0854952
0.0004457
0.00424012
0.0887443
0.000892269
0.0061084
0.0913782
0.00108667
0.00571817
0.093649
0.00119269
0.00537666
0.0953975
0.00127584
0.00499533
0.096577
0.00132428
0.00438792
0.0973208
0.00135222
0.00362298
0.097746
0.00135632
0.00304245
0.097971
0.00135824
0.00257467
0.09802
0.00134739
0.00228937
0.0979828
0.0013362
0.00196979
0.0978373
0.00131097
0.00179953
0.0976841
0.00128597
0.00154986
0.0974404
0.00125003
0.00147088
0.0972629
0.00121786
0.00126158
0.0969437
0.00117645
0.00125252
0.0967832
0.00114543
0.00104471
0.09629
0.0011002
0.00107046
0.0961414
0.00108087
0.00086107
0.00101583
0.00111324
0.0949301
0.0853605
0.0002582
0.00422952
0.0885706
0.000602517
0.00610792
0.0912381
0.000807177
0.00571376
0.0935663
0.00093423
0.00531728
0.0954108
0.00102369
0.00492834
0.0967306
0.00108631
0.00432195
0.0976452
0.00112596
0.00356458
0.098263
0.00114621
0.00297447
0.0986947
0.00115183
0.00251626
0.0989683
0.00114707
0.00223303
0.0991661
0.00113233
0.00193154
0.0992708
0.00111043
0.00176048
0.099374
0.00108015
0.00152557
0.0993952
0.00104703
0.00144211
0.0994883
0.00100874
0.00124815
0.0994368
0.000972683
0.0012344
0.0995593
0.000935761
0.00103741
0.0993262
0.000904655
0.00105242
0.0994696
0.000878742
0.000844019
0.000859105
0.00109225
0.0984361
0.0852752
0.00016088
0.00422642
0.0883854
0.000424342
0.00613191
0.090992
0.00060764
0.00573901
0.0932738
0.000732684
0.0053401
0.0950839
0.000819625
0.0049356
0.0963779
0.000881011
0.00433645
0.0972821
0.000920022
0.00356664
0.0978982
0.000940399
0.00298104
0.0983379
0.000943727
0.00250282
0.0986236
0.000934489
0.00222487
0.0988427
0.000913778
0.00190494
0.0989726
0.000885079
0.00174424
0.0991104
0.000848385
0.00149223
0.099168
0.000808125
0.00142081
0.0993069
0.000764218
0.00121229
0.0993019
0.000722482
0.00121008
0.0994804
0.000682037
0.00100491
0.0993004
0.000649885