/*--------------------------------*- C++ -*----------------------------------*\
| =========                 |                                                 |
| \\      /  F ield         | OpenFOAM: The Open Source CFD Toolbox           |
|  \\    /   O peration     | Version:  v1806                                 |
|   \\  /    A nd           | Web:      www.OpenFOAM.com                      |
|    \\/     M anipulation  |                                                 |
\*---------------------------------------------------------------------------*/
FoamFile
{
    version     2.0;
    format      ascii;
    class       surfaceScalarField;
    location    "8";
    object      phi;
}
// * * * * * * * * * * * * * * * * * * * * * * * * * * * * * * * * * * * * * //

dimensions      [0 3 -1 0 0 0 0];
oriented        oriented;


internalField   nonuniform List<scalar> 
16904
(
-4.7679e-07
0.222379
-0.233654
-0.220468
0.231744
9.55228e-09
0.222368
-0.233642
-0.220457
0.23173
-9.7069e-09
0.222369
-0.233642
-0.220457
0.23173
4.76703e-07
0.222369
-0.233642
-0.220457
0.23173
0.222379
-0.233654
-0.220468
0.231744
-7.26113e-09
-0.348008
0.0142069
0.161284
0.172516
2.98247e-08
-0.348003
0.0142073
0.161281
0.172515
-2.98418e-08
-0.348004
0.0142071
0.161282
0.172515
7.02287e-09
-0.348003
0.0142073
0.161281
0.172515
-0.348008
0.0142069
0.161284
0.172516
2.08968e-07
-0.322634
0.197005
2.52891e-08
-0.32265
0.197015
-2.54471e-08
-0.32265
0.197016
-2.09188e-07
-0.32265
0.197015
-0.322634
0.197005
1.61321e-07
-0.343505
-0.00779883
0.117649
1.10352e-08
-0.343495
-0.00779759
0.117651
-1.11239e-08
-0.343495
-0.00779747
0.117651
-1.61401e-07
-0.343495
-0.00779759
0.117651
-0.343505
-0.00779884
0.117649
-7.43408e-08
0.0161829
-0.0198007
-0.0155105
0.0191284
-2.64767e-08
0.0161769
-0.019796
-0.0155174
0.0191365
2.52928e-08
0.0161768
-0.019795
-0.0155175
0.0191357
7.47038e-08
0.0161769
-0.019796
-0.0155174
0.0191365
0.0161829
-0.0198007
-0.0155105
0.0191284
-4.53043e-08
-0.00488032
-0.0337413
0.0548045
-3.1354e-08
-0.00488662
-0.0337422
0.0548058
3.11848e-08
-0.00488662
-0.0337413
0.0548047
4.5459e-08
-0.00488661
-0.0337422
0.0548058
-0.00488029
-0.0337413
0.0548045
-1.21949e-07
0.103816
-0.0275505
-0.0811461
-1.64813e-08
0.103822
-0.0275657
-0.0811434
1.63783e-08
0.103822
-0.0275662
-0.0811429
1.22792e-07
0.103822
-0.0275657
-0.0811434
0.103816
-0.0275505
-0.0811461
-1.45195e-07
-0.0217893
-0.0470146
0.0490033
-2.21846e-08
-0.0217866
-0.0470099
0.0490003
2.05194e-08
-0.0217858
-0.0470093
0.049
1.44708e-07
-0.0217865
-0.0470099
0.0490003
-0.0217893
-0.0470146
0.0490033
-3.59399e-08
-0.0176679
-0.0411046
0.0369832
-9.71785e-09
-0.0176704
-0.041105
0.0369888
9.64222e-09
-0.0176708
-0.0411039
0.0369889
3.55989e-08
-0.0176704
-0.041105
0.0369888
-0.0176679
-0.0411046
0.0369832
-8.54931e-08
-0.0366936
-0.0279888
-1.40387e-08
-0.0366916
-0.0279888
1.47498e-08
-0.0366903
-0.0279898
8.53461e-08
-0.0366916
-0.0279888
-0.0366936
-0.0279888
-5.82359e-08
0.00904557
-0.0210432
0.0404627
-0.028465
-5.75855e-09
0.00904947
-0.0210495
0.0404657
-0.0284657
5.8275e-09
0.00905043
-0.0210504
0.0404665
-0.0284665
5.88069e-08
0.00904948
-0.0210495
0.0404657
-0.0284657
0.00904559
-0.0210432
0.0404627
-0.028465
-8.45145e-08
0.0427164
0.00185603
-0.0355268
-7.42338e-10
0.0427181
0.0018606
-0.0355293
1.07135e-09
0.0427186
0.00186147
-0.0355297
8.45066e-08
0.0427181
0.00186061
-0.0355293
0.0427164
0.00185604
-0.0355268
-1.10731e-07
0.00742064
0.00188734
-0.0121165
0.00280865
-4.5477e-09
0.007424
0.00188084
-0.0121201
0.00281512
4.20157e-09
0.00742484
0.00187974
-0.0121204
0.00281584
1.10756e-07
0.007424
0.00188086
-0.0121201
0.0028151
0.00742065
0.00188739
-0.0121165
0.0028086
-1.24887e-07
-0.0025641
-0.0110584
-4.35833e-09
-0.00257108
-0.0110546
4.01521e-09
-0.00257223
-0.0110534
1.26246e-07
-0.00257107
-0.0110546
-0.00256406
-0.0110584
-8.01191e-08
0.0538203
-0.00615418
-0.0383842
-0.00928181
-1.33204e-08
0.0538212
-0.00615093
-0.0383801
-0.00929022
1.33308e-08
0.0538213
-0.00615014
-0.0383795
-0.00929175
8.09516e-08
0.0538212
-0.00615093
-0.0383802
-0.00929021
0.0538204
-0.00615422
-0.0383843
-0.00928175
-9.7258e-08
-0.0171
0.0441879
0.0267325
-1.3446e-08
-0.0170918
0.0441796
0.0267334
1.37073e-08
-0.0170911
0.0441787
0.0267337
9.84498e-08
-0.0170918
0.0441796
0.0267334
-0.0171001
0.044188
0.0267325
3.63096e-07
-0.435524
-0.479576
0.618447
0.296652
3.38242e-08
-0.435517
-0.479553
0.618464
0.296607
-3.39495e-08
-0.435518
-0.479554
0.618466
0.296607
-3.62862e-07
-0.435517
-0.479553
0.618464
0.296607
-0.435524
-0.479576
0.618447
0.296652
-1.55269e-08
-0.336477
-0.409795
0.310748
2.76333e-08
-0.336464
-0.409793
0.31074
-2.75404e-08
-0.336464
-0.409793
0.310739
1.56068e-08
-0.336464
-0.409793
0.31074
-0.336477
-0.409795
0.310748
-3.34645e-07
0.0170672
0.44435
-1.73894e-05
-0.461399
-1.29467e-08
0.0170668
0.44434
-4.92855e-06
-0.461402
1.32548e-08
0.0170671
0.444341
-4.59066e-06
-0.461403
3.34685e-07
0.0170668
0.44434
-4.93712e-06
-0.461402
0.0170672
0.44435
-1.74089e-05
-0.461399
-2.12903e-07
0.447375
-0.469785
0.0394777
2.61513e-09
0.447365
-0.469792
0.0394943
-2.50537e-09
0.447365
-0.469793
0.039495
2.1302e-07
0.447365
-0.469792
0.0394943
0.447375
-0.469785
0.0394777
1.27797e-07
0.029395
0.406451
0.00850363
7.48157e-09
0.0294063
0.406458
0.00847629
-7.31259e-09
0.0294065
0.406458
0.00847621
-1.27828e-07
0.0294063
0.406458
0.00847629
0.029395
0.406451
0.00850365
1.48736e-07
0.441443
0.0353269
7.82332e-09
0.441452
0.0353195
-7.79774e-09
0.441452
0.0353198
-1.48641e-07
0.441452
0.0353195
0.441443
0.0353269
-3.75004e-08
-0.0123206
0.409879
0.00889269
1.29929e-08
-0.0123301
0.409873
0.00891473
-1.29969e-08
-0.0123303
0.409874
0.00891459
3.75632e-08
-0.0123301
0.409873
0.00891473
-0.0123206
0.409879
0.00889269
-9.44269e-08
0.403602
0.0255203
1.31631e-08
0.403592
0.0255292
-1.3192e-08
0.403593
0.025529
9.43568e-08
0.403592
0.0255292
0.403602
0.0255203
1.80263e-07
-0.0131016
0.379972
0.0430088
1.03355e-08
-0.0130986
0.379977
0.0429944
-1.04263e-08
-0.0130984
0.379978
0.0429943
-1.80448e-07
-0.0130986
0.379977
0.0429944
-0.0131016
0.379972
0.0430088
2.2321e-07
0.374021
0.0164787
1.11717e-08
0.374025
0.0164689
-1.13771e-08
0.374025
0.0164691
-2.23285e-07
0.374025
0.0164689
0.374021
0.0164787
-1.82278e-07
-0.0108104
0.0472772
1.20009e-08
-0.0108149
0.0472974
-1.22281e-08
-0.0108145
0.0472973
1.82205e-07
-0.0108149
0.0472974
-0.0108104
0.0472772
-1.761e-07
0.356725
0.00648661
1.28991e-08
0.356715
0.00649464
-1.31593e-08
0.356716
0.00649498
1.7603e-07
0.356715
0.00649463
0.356725
0.0064866
2.42059e-07
0.128458
1.30706e-08
0.128461
-1.3212e-08
0.128461
-2.42062e-07
0.128461
0.128458
-1.03023e-08
-0.352082
0.195179
0.17111
3.25788e-08
-0.35207
0.195175
0.171102
-3.24304e-08
-0.35207
0.195175
0.171102
1.00889e-08
-0.35207
0.195175
0.171102
-0.352082
0.195179
0.17111
2.45323e-07
-0.289167
0.168829
2.49861e-08
-0.289176
0.168836
-2.49136e-08
-0.289176
0.168836
-2.45017e-07
-0.289176
0.168836
-0.289167
0.168829
-1.32532e-08
-0.33368
0.162162
1.5893e-08
-0.33366
0.162135
-1.61507e-08
-0.33366
0.162134
1.33214e-08
-0.33366
0.162135
-0.33368
0.162162
1.28248e-07
-0.365852
0.079449
1.34569e-08
-0.365829
0.0794657
-1.37164e-08
-0.365828
0.0794662
-1.281e-07
-0.365829
0.0794657
-0.365852
0.079449
4.56507e-08
-0.401247
0.0784045
8.3304e-09
-0.401217
0.0783833
-8.58174e-09
-0.401217
0.0783833
-4.57497e-08
-0.401217
0.0783833
-0.401247
0.0784045
1.20697e-07
-0.432457
0.0401022
1.51714e-08
-0.432432
0.0401293
-1.51209e-08
-0.432432
0.0401296
-1.20779e-07
-0.432432
0.0401293
-0.432457
0.0401022
1.38957e-07
-0.46181
0.0378568
2.19876e-08
-0.4618
0.0378443
-2.23117e-08
-0.4618
0.0378436
-1.39217e-07
-0.4618
0.0378443
-0.46181
0.0378568
4.99229e-08
-0.48467
0.0228423
4.42536e-08
-0.484668
0.0228634
-4.45371e-08
-0.484669
0.0228649
-4.99408e-08
-0.484668
0.0228634
-0.48467
0.0228423
-1.8257e-07
-0.0315697
0.0275672
-0.480667
1.36555e-08
-0.0315331
0.0275427
-0.480678
-1.3613e-08
-0.0315317
0.0275409
-0.480678
1.82513e-07
-0.0315331
0.0275427
-0.480678
-0.0315697
0.0275672
-0.480667
-7.09494e-08
-0.00297348
-0.489996
-7.75499e-10
-0.00296121
-0.489974
8.78151e-10
-0.00296103
-0.489974
7.08839e-08
-0.00296121
-0.489974
-0.00297349
-0.489996
-1.43439e-08
0.0427568
-0.515515
1.02032e-09
0.0427412
-0.515495
-9.62254e-10
0.0427404
-0.515495
1.44046e-08
0.0427412
-0.515495
0.0427568
-0.515515
-7.73464e-08
0.488766
0.0686329
-0.514642
1.37828e-09
0.488775
0.0686036
-0.514637
-1.36981e-09
0.488775
0.0686021
-0.514637
7.73153e-08
0.488775
0.0686036
-0.514637
0.488766
0.0686329
-0.514642
-1.73284e-07
0.484102
0.0441421
7.55551e-09
0.484095
0.0441741
-7.53326e-09
0.484094
0.0441759
1.73319e-07
0.484095
0.0441741
0.484102
0.0441421
7.29556e-08
0.457192
0.0622368
9.47453e-09
0.457196
0.062218
-9.48686e-09
0.457197
0.0622172
-7.29051e-08
0.457196
0.062218
0.457192
0.0622368
-1.13957e-07
0.445846
0.036866
1.3051e-08
0.445831
0.0368938
-1.31088e-08
0.445831
0.0368947
1.13843e-07
0.445831
0.0368938
0.445846
0.036866
3.83377e-08
0.406411
0.0559141
1.59036e-08
0.406409
0.0558915
-1.61753e-08
0.406409
0.0558912
-3.84747e-08
0.406409
0.0558915
0.406411
0.055914
2.29715e-08
0.331959
0.0809385
2.33182e-08
0.33194
0.080964
-2.35187e-08
0.33194
0.0809646
-2.29874e-08
0.33194
0.080964
0.331959
0.0809385
1.03083e-07
0.137782
1.49036e-08
0.137751
-1.45041e-08
0.137751
-1.03085e-07
0.137751
0.137782
-1.08842e-07
0.481166
-0.505239
0.0682145
7.10387e-09
0.481191
-0.505248
0.0682315
-7.12639e-09
0.481191
-0.505248
0.0682328
1.08853e-07
0.481191
-0.505248
0.0682315
0.481166
-0.505239
0.0682145
1.15732e-07
0.465612
0.0777912
1.10871e-08
0.465627
0.077782
-1.10355e-08
0.465627
0.0777812
-1.15811e-07
0.465627
0.077782
0.465612
0.0777912
-6.60469e-08
0.445714
0.0567642
7.76573e-09
0.445751
0.0567699
-7.94655e-09
0.445751
0.0567709
6.58777e-08
0.445751
0.0567698
0.445714
0.0567642
-7.10911e-09
0.414
0.087628
1.47025e-08
0.414006
0.0876366
-1.50199e-08
0.414006
0.0876364
6.99167e-09
0.414006
0.0876366
0.414
0.087628
5.08906e-08
0.385007
0.109931
2.27066e-08
0.385037
0.109932
-2.26414e-08
0.385038
0.109932
-5.09398e-08
0.385037
0.109932
0.385007
0.109931
9.70626e-08
0.368479
0.15431
1.81094e-08
0.368464
0.154324
-1.76402e-08
0.368464
0.154325
-9.70269e-08
0.368464
0.154324
0.368479
0.15431
8.77214e-08
0.33008
0.235404
1.35092e-08
0.330094
0.235385
-1.4851e-08
0.330095
0.235385
-8.79557e-08
0.330094
0.235385
0.33008
0.235404
-6.68691e-08
0.313813
0.177552
2.70007e-08
0.3138
0.177576
-2.73189e-08
0.3138
0.177577
6.69416e-08
0.3138
0.177576
0.313813
0.177552
1.61827e-08
-0.329126
0.187828
3.34849e-08
-0.329143
0.187854
-3.38099e-08
-0.329143
0.187854
-1.63676e-08
-0.329143
0.187854
-0.329126
0.187828
8.40166e-08
-0.385354
0.225057
1.44581e-08
-0.385337
0.22503
-1.39368e-08
-0.385337
0.22503
-8.36688e-08
-0.385337
0.22503
-0.385354
0.225057
2.70218e-08
-0.50776
0.0711544
4.1883e-09
-0.507778
0.0711329
-4.21869e-09
-0.507778
0.0711321
-2.70404e-08
-0.507778
0.0711329
-0.50776
0.0711544
-1.2223e-08
-0.386786
0.163594
1.87965e-08
-0.386806
0.163604
-1.90501e-08
-0.386807
0.163604
1.24048e-08
-0.386806
0.163604
-0.386786
0.163594
3.18749e-08
-0.420763
0.113425
1.36873e-08
-0.420755
0.113414
-1.38033e-08
-0.420755
0.113414
-3.18249e-08
-0.420755
0.113414
-0.420762
0.113425
7.76847e-09
-0.405472
0.0631144
1.67815e-08
-0.405497
0.0631255
-1.68301e-08
-0.405497
0.063126
-7.97098e-09
-0.405497
0.0631255
-0.405472
0.0631144
1.44721e-07
-0.442144
0.0767734
1.22688e-08
-0.442129
0.0767618
-1.22253e-08
-0.44213
0.0767619
-1.44758e-07
-0.442129
0.0767618
-0.442144
0.0767734
2.41041e-07
-0.474844
0.0705572
2.51688e-08
-0.474854
0.0705692
-2.50171e-08
-0.474855
0.0705689
-2.41044e-07
-0.474854
0.0705692
-0.474844
0.0705572
-1.20852e-07
-0.48356
0.0315584
2.56502e-08
-0.483559
0.0315687
-2.57203e-08
-0.483559
0.0315696
1.2083e-07
-0.483559
0.0315688
-0.48356
0.0315584
-1.35509e-07
0.0268422
-0.0151222
-0.0126906
0.000970665
-1.29075e-08
0.0268348
-0.0151181
-0.0126943
0.000977492
1.38068e-08
0.0268337
-0.0151171
-0.0126948
0.000978218
1.35957e-07
0.0268348
-0.0151181
-0.0126943
0.000977492
0.0268423
-0.0151222
-0.0126906
0.000970662
-1.11108e-07
-0.01615
0.0368381
-1.36433e-08
-0.0161497
0.0368335
1.40119e-08
-0.0161492
0.0368327
1.11586e-07
-0.0161497
0.0368335
-0.01615
0.0368381
-1.56667e-07
0.0304386
-0.0220224
-0.024566
-1.69601e-08
0.0304366
-0.022024
-0.0245624
1.81137e-08
0.030436
-0.022024
-0.0245613
1.56855e-07
0.0304366
-0.022024
-0.0245624
0.0304387
-0.0220225
-0.024566
-1.3912e-07
0.000978602
-0.0271378
0.0235953
-1.68295e-08
0.000975805
-0.0271319
0.0235849
1.70121e-08
0.000975464
-0.0271309
0.0235831
1.40313e-07
0.000975803
-0.0271319
0.0235849
0.000978596
-0.0271378
0.0235953
-9.25652e-08
-0.0122561
-1.0958e-08
-0.0122616
1.04026e-08
-0.0122619
9.22925e-08
-0.0122616
-0.0122561
-1.07925e-07
0.00104675
-0.0195207
0.0589368
-3.81815e-09
0.0010529
-0.0195246
0.0589373
4.30933e-09
0.00105353
-0.0195251
0.0589381
1.08257e-07
0.00105291
-0.0195246
0.0589373
0.00104678
-0.0195208
0.0589368
-5.51447e-08
-0.0213089
0.0650721
-2.42408e-09
-0.0213074
0.0650783
2.91735e-09
-0.0213069
0.0650791
5.51726e-08
-0.0213074
0.0650783
-0.0213088
0.0650721
-1.68672e-07
-0.511917
0.0559236
1.37147e-08
-0.511947
0.0559298
-1.36174e-08
-0.511948
0.0559295
1.68635e-07
-0.511947
0.0559298
-0.511917
0.0559236
-2.0138e-07
-0.0560479
-0.522989
0.0671206
8.4023e-09
-0.056066
-0.522998
0.0671167
-8.33747e-09
-0.0560675
-0.522997
0.067117
2.01284e-07
-0.056066
-0.522998
0.0671167
-0.0560479
-0.522989
0.0671206
-2.24446e-07
-0.0157409
-0.520974
7.87783e-09
-0.0157646
-0.520979
-7.88588e-09
-0.015766
-0.52098
2.24411e-07
-0.0157646
-0.520979
-0.0157409
-0.520974
-2.31108e-07
0.0195903
-0.525326
7.04153e-09
0.0195863
-0.525325
-7.0548e-09
0.0195864
-0.525326
2.31119e-07
0.0195863
-0.525325
0.0195903
-0.525326
-2.15482e-07
0.0266829
-0.522608
6.27618e-09
0.0267016
-0.52261
-6.26523e-09
0.0267029
-0.522611
2.15498e-07
0.0267015
-0.52261
0.0266828
-0.522608
-1.57841e-07
0.0447199
-0.532679
6.00375e-09
0.0447444
-0.53268
-6.04604e-09
0.0447463
-0.53268
1.57871e-07
0.0447444
-0.53268
0.0447199
-0.532679
-1.46314e-07
0.0619946
-0.525035
5.67049e-09
0.0620032
-0.525036
-5.67871e-09
0.0620041
-0.525036
1.46259e-07
0.0620032
-0.525036
0.0619946
-0.525035
-1.27428e-07
0.510173
-0.5115
0.0633218
2.63181e-09
0.510213
-0.511504
0.0632945
-2.68536e-09
0.510214
-0.511504
0.0632942
1.27344e-07
0.510213
-0.511504
0.0632945
0.510173
-0.5115
0.0633218
9.61387e-08
0.504859
0.0764685
8.84492e-09
0.504852
0.0764939
-8.92211e-09
0.504851
0.0764945
-9.62131e-08
0.504852
0.076494
0.504859
0.0764685
-2.32569e-08
0.504158
0.0689157
6.83058e-09
0.504197
0.0688861
-6.83077e-09
0.504198
0.0688858
2.32309e-08
0.504197
0.0688861
0.504158
0.0689157
9.48368e-08
0.501443
0.0805055
1.06592e-08
0.501444
0.0805353
-1.06522e-08
0.501444
0.0805359
-9.49519e-08
0.501444
0.0805353
0.501443
0.0805055
-5.74151e-08
0.484649
0.073559
8.93966e-09
0.484687
0.0735267
-9.15959e-09
0.484688
0.0735266
5.73468e-08
0.484687
0.0735267
0.484649
0.0735589
9.31311e-08
0.44229
0.129986
1.49829e-08
0.442308
0.130015
-1.33219e-08
0.442309
0.130015
-9.26441e-08
0.442308
0.130015
0.44229
0.129986
-6.55407e-09
0.440255
0.111967
1.62269e-08
0.440287
0.111953
-1.61703e-08
0.440288
0.111954
6.75836e-09
0.440287
0.111953
0.440255
0.111967
2.05588e-07
0.403814
0.190751
2.29484e-08
0.403834
0.190777
-2.28002e-08
0.403834
0.190778
-2.05267e-07
0.403834
0.190777
0.403814
0.190751
3.14363e-09
0.407173
0.232045
1.78235e-08
0.407185
0.232034
-1.74132e-08
0.407185
0.232034
-3.08016e-09
0.407185
0.232034
0.407173
0.232045
-1.87794e-07
0.426728
0.294258
2.41496e-08
0.426741
0.294243
-2.37281e-08
0.426744
0.294241
1.87918e-07
0.426742
0.294243
0.426728
0.294258
-1.32471e-07
-0.0375583
0.0557421
-0.541173
5.40373e-09
-0.0375343
0.0557398
-0.541203
-5.62731e-09
-0.0375331
0.0557399
-0.541204
1.3259e-07
-0.0375343
0.0557398
-0.541203
-0.0375583
0.0557421
-0.541173
-1.27133e-07
-0.0193603
-0.539172
3.04031e-09
-0.0193333
-0.539181
-3.25909e-09
-0.0193317
-0.539181
1.27113e-07
-0.0193333
-0.539181
-0.0193603
-0.539172
-5.98863e-08
-0.000987256
-0.543699
1.54583e-09
-0.000977781
-0.543681
-1.67856e-09
-0.000977437
-0.543681
5.98706e-08
-0.00097778
-0.543681
-0.000987249
-0.543699
-1.33082e-08
0.0173026
-0.540898
1.93027e-09
0.0172885
-0.540877
-2.03293e-09
0.0172875
-0.540876
1.32172e-08
0.0172885
-0.540877
0.0173026
-0.540898
-1.46039e-08
0.0358187
-0.551195
2.46614e-09
0.0357929
-0.551185
-2.60332e-09
0.0357916
-0.551185
1.45583e-08
0.035793
-0.551185
0.0358187
-0.551195
-2.90418e-08
0.0379912
-0.527207
4.14698e-09
0.0379768
-0.52722
-4.24165e-09
0.0379765
-0.527221
2.89686e-08
0.0379768
-0.52722
0.0379912
-0.527207
-4.17058e-09
-0.532389
0.0588798
6.77499e-09
-0.532431
0.0589038
-6.89185e-09
-0.532432
0.0589047
4.10616e-09
-0.532431
0.0589038
-0.532389
0.0588798
-1.01914e-07
-0.414389
0.229651
1.68349e-08
-0.414408
0.229645
-1.70335e-08
-0.414408
0.229645
1.01781e-07
-0.414408
0.229645
-0.414389
0.229651
2.02512e-07
-0.447457
0.196662
1.73217e-08
-0.447491
0.196687
-1.73311e-08
-0.447491
0.196688
-2.02511e-07
-0.447491
0.196687
-0.447457
0.196662
2.78951e-08
-0.443685
0.109653
1.38467e-08
-0.443706
0.109629
-1.38912e-08
-0.443706
0.109629
-2.80244e-08
-0.443706
0.109629
-0.443685
0.109653
1.11953e-07
-0.486493
0.105922
1.38951e-08
-0.486532
0.105952
-1.38739e-08
-0.486532
0.105952
-1.12121e-07
-0.486532
0.105952
-0.486493
0.105922
2.56858e-08
-0.475014
0.0652951
1.30942e-08
-0.475028
0.0652583
-1.30898e-08
-0.475028
0.0652579
-2.56808e-08
-0.475028
0.0652583
-0.475014
0.0652951
2.73286e-07
-0.484694
0.0802369
1.86692e-08
-0.484736
0.0802772
-1.86356e-08
-0.484737
0.080278
-2.73166e-07
-0.484736
0.0802772
-0.484694
0.0802369
-1.31209e-07
-0.50181
0.0486743
1.5029e-08
-0.501814
0.0486464
-1.50532e-08
-0.501814
0.048646
1.31195e-07
-0.501814
0.0486464
-0.50181
0.0486743
-1.31461e-08
-0.511257
0.0653705
1.39489e-08
-0.511288
0.0654035
-1.38641e-08
-0.511288
0.0654041
1.31576e-08
-0.511288
0.0654035
-0.511257
0.0653705
-1.56382e-07
-0.521758
0.0776215
7.07626e-09
-0.521758
0.0775867
-7.04351e-09
-0.521757
0.0775862
1.56318e-07
-0.521758
0.0775867
-0.521758
0.0776215
-8.40294e-08
0.0709731
-0.536989
5.80374e-09
0.0710009
-0.537019
-6.05637e-09
0.071002
-0.53702
8.40058e-08
0.0710009
-0.537019
0.0709731
-0.536989
-1.05487e-07
-0.00483562
0.0245738
-1.55335e-08
-0.00483179
0.0245733
1.54082e-08
-0.00483167
0.0245732
1.05346e-07
-0.0048318
0.0245733
-0.00483564
0.0245738
-8.30772e-08
-0.0159014
0.0415045
-1.57724e-08
-0.0159009
0.0415057
1.60023e-08
-0.0159012
0.0415055
8.25728e-08
-0.0159009
0.0415057
-0.0159014
0.0415045
-4.6486e-08
-0.0652446
0.0694363
-0.0255005
-2.40401e-09
-0.0652504
0.069442
-0.025499
2.70016e-09
-0.0652513
0.0694427
-0.0254984
4.64369e-08
-0.0652504
0.069442
-0.025499
-0.0652446
0.0694363
-0.0255005
-6.4648e-08
-0.0305571
-0.0328314
-7.97352e-10
-0.0305638
-0.0328261
1.09093e-09
-0.0305647
-0.0328251
6.47017e-08
-0.0305638
-0.0328261
-0.0305571
-0.0328314
-5.76612e-08
-0.0232221
-0.0428617
-5.65452e-09
-0.0232332
-0.04286
5.79076e-09
-0.023235
-0.0428594
5.83961e-08
-0.0232332
-0.0428599
-0.0232221
-0.0428617
-1.06142e-07
-0.000849398
-0.033431
-2.65888e-10
-0.000858309
-0.0334296
-4.25391e-10
-0.00085968
-0.0334286
1.07715e-07
-0.000858304
-0.0334296
-0.000849373
-0.033431
-1.61102e-07
0.0199996
-0.0479867
-2.3659e-08
0.0199955
-0.0479858
2.36848e-08
0.0199944
-0.0479849
1.62171e-07
0.0199955
-0.0479858
0.0199996
-0.0479867
-1.76643e-07
-0.0338707
0.031848
-1.58073e-08
-0.0338714
0.0318427
1.54097e-08
-0.0338714
0.0318417
1.75773e-07
-0.0338714
0.0318427
-0.0338707
0.031848
-1.27922e-07
-0.0270746
-0.0240001
-1.29914e-08
-0.027069
-0.0240056
1.31164e-08
-0.0270679
-0.0240063
1.28402e-07
-0.027069
-0.0240056
-0.0270747
-0.024
-7.89296e-08
-0.00741823
-0.0319125
-1.16572e-08
-0.00741068
-0.03192
1.16375e-08
-0.00740936
-0.0319205
7.81028e-08
-0.0074107
-0.03192
-0.00741829
-0.0319125
-7.38523e-08
0.0133991
-0.0329338
-5.5984e-09
0.0134055
-0.0329363
5.83711e-09
0.0134064
-0.0329362
7.34795e-08
0.0134055
-0.0329363
0.0133991
-0.0329338
-6.60625e-08
0.0498653
-0.0336575
-6.24061e-09
0.0498792
-0.0336586
6.36987e-09
0.049881
-0.0336588
6.6139e-08
0.0498791
-0.0336586
0.0498653
-0.0336575
-1.30643e-07
0.0513834
-0.0299829
-3.41074e-09
0.0513931
-0.0299798
3.64059e-09
0.0513942
-0.0299797
1.31498e-07
0.0513931
-0.0299798
0.0513833
-0.0299829
-8.44549e-08
0.0639961
-0.0321334
-2.64962e-09
0.0640035
-0.032135
3.54158e-09
0.0640043
-0.0321353
8.43407e-08
0.0640035
-0.032135
0.0639961
-0.0321334
-8.72571e-08
0.0108971
0.0755838
-0.0224847
-2.31754e-09
0.0108998
0.0755864
-0.0224828
2.77904e-09
0.0109
0.075587
-0.0224828
8.73286e-08
0.0108998
0.0755863
-0.0224828
0.0108971
0.0755838
-0.0224847
-7.93096e-08
-0.0032964
0.0731304
-2.49608e-09
-0.00329541
0.0731324
2.72573e-09
-0.00329505
0.0731332
7.99431e-08
-0.0032954
0.0731324
-0.00329637
0.0731303
-9.23393e-08
-0.0135621
0.0753379
-1.80557e-09
-0.0135585
0.0753414
1.89929e-09
-0.0135581
0.0753421
9.23089e-08
-0.0135585
0.0753414
-0.013562
0.0753378
-6.68541e-08
-0.0233259
0.0792002
-1.11573e-09
-0.0233202
0.0792036
1.09344e-09
-0.0233196
0.0792042
6.66812e-08
-0.0233202
0.0792036
-0.0233259
0.0792002
-8.95605e-08
-0.0795884
0.0842711
-0.0280085
-1.9004e-09
-0.0795986
0.0842778
-0.0279995
1.61689e-09
-0.0795995
0.0842785
-0.0279985
8.95714e-08
-0.0795986
0.0842778
-0.0279995
-0.0795884
0.0842711
-0.0280085
-8.02351e-08
-0.0658619
-0.0392269
-2.56552e-09
-0.0658725
-0.0392253
2.50611e-09
-0.0658735
-0.0392244
7.9993e-08
-0.0658724
-0.0392253
-0.0658619
-0.0392269
-1.40352e-07
-0.04709
-0.0516032
-2.0948e-09
-0.0471015
-0.0515971
2.17921e-09
-0.0471028
-0.0515959
1.40473e-07
-0.0471015
-0.0515971
-0.0470899
-0.0516032
-1.49027e-07
-0.02737
-0.0625815
-7.5115e-09
-0.027378
-0.0625837
7.45081e-09
-0.0273797
-0.0625825
1.49865e-07
-0.027378
-0.0625836
-0.02737
-0.0625815
-1.48482e-07
0.00451782
-0.0653187
-9.70237e-09
0.00450907
-0.0653168
9.45632e-09
0.00450722
-0.0653155
1.49192e-07
0.00450907
-0.0653168
0.00451784
-0.0653186
-1.71311e-07
0.023765
-0.0672337
-2.15837e-08
0.0237639
-0.0672408
2.19732e-08
0.0237625
-0.0672403
1.71972e-07
0.0237639
-0.0672408
0.023765
-0.0672336
-1.44594e-07
-0.0512102
-1.85111e-08
-0.0512127
1.82662e-08
-0.0512129
1.43874e-07
-0.0512127
-0.0512102
-1.5817e-07
0.05293
-2.00371e-08
0.0529304
2.04508e-08
0.0529295
1.58097e-07
0.0529304
0.05293
-1.53459e-07
0.0765745
0.025359
-2.18199e-08
0.0765734
0.0253572
2.30531e-08
0.0765725
0.0253569
1.54483e-07
0.0765734
0.0253572
0.0765745
0.025359
-5.77818e-08
0.00627813
-0.0146524
0.0839581
-2.55295e-09
0.0062799
-0.0146549
0.0839613
2.36193e-09
0.00628011
-0.0146551
0.083962
5.81004e-08
0.00627992
-0.0146549
0.0839613
0.00627816
-0.0146524
0.0839581
-6.00363e-08
-0.00308053
0.0824891
-2.93475e-09
-0.00307955
0.0824918
2.87244e-09
-0.00307927
0.0824925
5.98425e-08
-0.00307954
0.0824918
-0.00308051
0.0824891
-5.11107e-08
-0.00978812
0.0820455
-1.6501e-09
-0.00978729
0.0820491
1.60848e-09
-0.00978698
0.0820498
5.09614e-08
-0.00978728
0.0820491
-0.0097881
0.0820455
-4.46448e-08
-0.0150554
0.0844676
-1.15637e-09
-0.015054
0.0844702
8.21587e-10
-0.0150535
0.0844708
4.46101e-08
-0.015054
0.0844702
-0.0150554
0.0844676
-5.26117e-08
-0.0210489
0.0902646
-8.31694e-10
-0.021044
0.0902678
2.36265e-10
-0.0210434
0.0902684
5.23738e-08
-0.021044
0.0902678
-0.0210489
0.0902646
-1.52144e-07
-0.0315099
0.0468409
-0.0393309
-1.663e-08
-0.0315065
0.0468388
-0.039338
1.7169e-08
-0.0315049
0.0468376
-0.0393391
1.5305e-07
-0.0315065
0.0468388
-0.039338
-0.03151
0.046841
-0.0393309
-1.5459e-07
-0.00608472
-0.0573375
-1.34517e-08
-0.00607865
-0.057348
1.39449e-08
-0.00607719
-0.0573483
1.54909e-07
-0.00607867
-0.057348
-0.0060848
-0.0573375
-2.05535e-07
0.02313
-0.0621483
-1.04809e-08
0.0231398
-0.062155
1.08342e-08
0.0231414
-0.0621548
2.05872e-07
0.0231398
-0.062155
0.0231299
-0.0621483
-1.889e-07
0.0494988
-0.0600262
-7.48923e-09
0.0495123
-0.0600312
8.02072e-09
0.0495136
-0.060031
1.89421e-07
0.0495122
-0.0600313
0.0494988
-0.0600263
-1.66246e-07
0.0685824
-0.0490662
-4.01989e-09
0.0685976
-0.0490653
4.60563e-09
0.0685988
-0.0490649
1.66637e-07
0.0685976
-0.0490653
0.0685823
-0.0490663
-1.34415e-07
0.075015
-0.0385659
-3.89058e-09
0.0750274
-0.038565
4.25145e-09
0.0750284
-0.0385649
1.34312e-07
0.0750274
-0.038565
0.075015
-0.038566
-9.66834e-08
0.0796214
-0.027091
-2.87411e-09
0.0796322
-0.0270876
3.1957e-09
0.079633
-0.0270874
9.69146e-08
0.0796322
-0.0270876
0.0796214
-0.027091
-6.55889e-08
0.0893078
-0.0243386
-3.14844e-09
0.089316
-0.0243388
2.92053e-09
0.0893168
-0.0243389
6.54067e-08
0.089316
-0.0243388
0.0893078
-0.0243387
-1.02474e-07
0.0505091
-0.0129498
-1.46582e-08
0.0505047
-0.0129562
1.5429e-08
0.0505029
-0.0129571
1.04004e-07
0.0505047
-0.0129561
0.0505092
-0.0129498
-1.96458e-08
-0.0952937
0.0955017
-0.0212569
1.64311e-09
-0.0952949
0.0955028
-0.0212519
-2.07323e-09
-0.0952952
0.0955031
-0.0212513
1.94019e-08
-0.0952949
0.0955028
-0.0212519
-0.0952937
0.0955017
-0.0212568
-6.66522e-09
-0.0887963
-0.0345059
1.96787e-09
-0.0887955
-0.0344989
-2.28271e-09
-0.0887959
-0.0344979
6.0315e-09
-0.0887955
-0.0344989
-0.0887963
-0.0345059
-6.69552e-09
-0.0786138
-0.0494094
1.88783e-09
-0.0786172
-0.0494037
-2.0221e-09
-0.0786179
-0.0494024
6.50158e-09
-0.0786172
-0.0494037
-0.0786138
-0.0494094
-4.69524e-08
-0.0607242
-0.0694928
-7.11778e-10
-0.0607322
-0.0694821
5.95753e-10
-0.0607334
-0.0694803
4.73649e-08
-0.0607322
-0.0694821
-0.0607242
-0.0694928
9.76717e-09
-0.0355796
-0.0877262
-5.48709e-09
-0.0355931
-0.0877228
5.3497e-09
-0.0355947
-0.0877212
-9.63104e-09
-0.035593
-0.0877228
-0.0355796
-0.0877261
-1.03192e-07
-0.00359801
-0.0973002
-1.10211e-08
-0.00361099
-0.0972989
1.11194e-08
-0.00361274
-0.0972975
1.03231e-07
-0.00361099
-0.0972989
-0.00359798
-0.0973001
-1.26004e-07
0.0190152
-0.0898467
-2.03398e-08
0.0190057
-0.0898577
1.8114e-08
0.0190042
-0.0898573
1.25731e-07
0.0190057
-0.0898577
0.0190152
-0.0898467
-1.47329e-07
-0.0688884
-2.1234e-08
-0.0688986
2.25288e-08
-0.068899
1.47049e-07
-0.0688986
-0.0688884
-8.85746e-08
-0.0159949
0.0588282
-1.91514e-08
-0.0159955
0.0588267
1.89398e-08
-0.0159955
0.0588267
8.93318e-08
-0.0159955
0.0588267
-0.0159949
0.0588282
-5.74319e-08
0.00882209
-0.00932336
0.0898091
-3.70472e-09
0.00882372
-0.00932209
0.0898143
3.39094e-09
0.00882382
-0.00932209
0.089815
5.72464e-08
0.00882373
-0.00932211
0.0898144
0.00882212
-0.00932339
0.0898091
-4.77468e-08
0.0035964
0.0891838
-3.13007e-09
0.00359782
0.0891872
2.78692e-09
0.00359798
0.0891878
4.74184e-08
0.00359783
0.0891872
0.00359643
0.0891838
-5.07662e-08
-0.000765359
0.0868509
-3.60983e-09
-0.000764118
0.0868537
3.433e-09
-0.000763877
0.0868544
5.05959e-08
-0.000764108
0.0868537
-0.00076534
0.0868509
-4.58532e-08
-0.00481288
0.0860931
-3.02396e-09
-0.00481157
0.0860965
2.85133e-09
-0.00481126
0.0860972
4.58255e-08
-0.00481156
0.0860965
-0.00481287
0.0860931
-3.8342e-08
-0.00911874
0.0887735
-2.20881e-09
-0.00911737
0.088776
1.8185e-09
-0.00911698
0.0887765
3.81062e-08
-0.00911736
0.088776
-0.00911873
0.0887735
-3.68448e-08
-0.0105311
0.091677
-1.51914e-09
-0.010529
0.0916794
1.11853e-09
-0.0105285
0.0916799
3.64303e-08
-0.010529
0.0916794
-0.0105311
0.091677
-2.31961e-08
-0.0110997
0.0960703
4.82499e-10
-0.0110976
0.0960714
-6.08868e-10
-0.0110971
0.0960717
2.2896e-08
-0.0110976
0.0960714
-0.0110997
0.0960703
-6.32781e-08
-0.0496422
0.0574172
0.0427341
-1.52776e-08
-0.049633
0.0574019
0.0427357
1.53387e-08
-0.0496316
0.0574005
0.042734
6.53952e-08
-0.049633
0.0574019
0.0427358
-0.0496422
0.0574173
0.0427342
-5.68975e-08
-0.0490452
-0.0135468
-1.05134e-08
-0.0490322
-0.013557
1.07268e-08
-0.0490298
-0.0135588
5.80121e-08
-0.0490322
-0.013557
-0.0490453
-0.0135467
-6.23121e-08
-0.0337835
-0.0545926
-1.33461e-08
-0.0337661
-0.0546042
1.36388e-08
-0.0337637
-0.0546052
6.36431e-08
-0.0337661
-0.0546042
-0.0337836
-0.0545926
-7.91176e-08
-0.00471958
-0.0864013
-1.43868e-08
-0.00470233
-0.0864118
1.44065e-08
-0.00470001
-0.0864121
7.95671e-08
-0.00470236
-0.0864118
-0.00471968
-0.0864014
-5.20268e-08
0.028417
-0.0952848
-8.3519e-09
0.02843
-0.0952873
8.49381e-09
0.0284318
-0.0952866
5.17524e-08
0.0284299
-0.0952873
0.028417
-0.0952849
-3.3747e-08
0.0564456
-0.0880547
-5.63932e-09
0.0564551
-0.0880564
6.65919e-09
0.0564563
-0.0880555
3.37264e-08
0.056455
-0.0880564
0.0564456
-0.0880548
-6.21796e-08
0.0770452
-0.0696657
-1.95033e-09
0.0770511
-0.0696614
2.39603e-09
0.077052
-0.0696606
6.21566e-08
0.0770511
-0.0696615
0.0770452
-0.0696658
-2.5421e-08
0.0871703
-0.048691
-1.21936e-09
0.0871766
-0.0486905
1.31072e-09
0.0871772
-0.0486901
2.56402e-08
0.0871766
-0.0486905
0.0871703
-0.0486911
-4.34407e-08
0.0947489
-0.0346696
-1.44636e-09
0.0947551
-0.0346662
1.50838e-09
0.0947557
-0.0346659
4.37819e-08
0.0947551
-0.0346662
0.0947489
-0.0346696
-4.38508e-08
0.0922356
-0.0218252
-1.11803e-09
0.0922374
-0.0218212
1.55071e-09
0.092238
-0.0218211
4.37331e-08
0.0922374
-0.0218212
0.0922356
-0.0218253
-2.70699e-08
-0.0124681
0.0953803
-3.09713e-09
-0.012467
0.0953823
2.47802e-09
-0.012467
0.0953829
2.74443e-08
-0.012467
0.0953823
-0.0124681
0.0953803
-1.54052e-07
0.0678123
0.0337931
-1.31796e-08
0.0677906
0.0337907
1.29515e-08
0.0677884
0.0337908
1.56628e-07
0.0677907
0.0337907
0.0678124
0.0337931
-7.22279e-08
0.00154307
-0.0450423
-3.32355e-08
0.00153206
-0.0450383
3.22404e-08
0.00153192
-0.0450393
7.17356e-08
0.00153205
-0.0450383
0.00154304
-0.0450423
-2.16751e-07
0.0140503
-0.0813954
-2.8338e-08
0.0140458
-0.0814125
2.80739e-08
0.0140462
-0.0814133
2.16368e-07
0.0140458
-0.0814125
0.0140502
-0.0813954
-2.28029e-07
0.0385982
-0.114394
-2.96228e-08
0.038603
-0.114415
2.97152e-08
0.0386039
-0.114415
2.28295e-07
0.038603
-0.114415
0.0385981
-0.114394
-3.15255e-07
0.0629925
-0.121694
-1.41581e-08
0.0630032
-0.121699
1.43341e-08
0.0630045
-0.121698
3.15742e-07
0.0630032
-0.121699
0.0629925
-0.121694
-2.24857e-07
0.0867632
-0.111497
-6.18482e-09
0.0867736
-0.111493
6.70334e-09
0.0867746