/*--------------------------------*- C++ -*----------------------------------*\
| =========                 |                                                 |
| \\      /  F ield         | OpenFOAM: The Open Source CFD Toolbox           |
|  \\    /   O peration     | Version:  v1806                                 |
|   \\  /    A nd           | Web:      www.OpenFOAM.com                      |
|    \\/     M anipulation  |                                                 |
\*---------------------------------------------------------------------------*/
FoamFile
{
    version     2.0;
    format      ascii;
    class       volVectorField;
    location    "10";
    object      U;
}
// * * * * * * * * * * * * * * * * * * * * * * * * * * * * * * * * * * * * * //

dimensions      [0 1 -1 0 0 0 0];


internalField   nonuniform List<vector> 
2400
(
(0.297056 -0.0119954 0)
(0.301073 0.00235584 0)
(0.306959 -0.0310892 0)
(0.294494 -0.127557 0)
(0.263732 -0.22432 0)
(0.222976 -0.278914 0)
(0.181319 -0.29195 0)
(0.143951 -0.28099 0)
(0.112418 -0.260065 0)
(0.0869633 -0.236018 0)
(0.0670318 -0.211747 0)
(0.0517157 -0.18859 0)
(0.0400751 -0.167175 0)
(0.0312744 -0.147738 0)
(0.0246307 -0.130288 0)
(0.0196107 -0.114708 0)
(0.0158056 -0.100815 0)
(0.0129056 -0.0884047 0)
(0.0106679 -0.0772657 0)
(0.0089123 -0.0672375 0)
(0.297015 -0.0115622 0)
(0.300757 -0.000385321 0)
(0.305541 -0.0298928 0)
(0.293132 -0.113647 0)
(0.265624 -0.199131 0)
(0.229793 -0.249318 0)
(0.192739 -0.263643 0)
(0.15863 -0.256643 0)
(0.128584 -0.240266 0)
(0.103081 -0.220495 0)
(0.0820902 -0.199865 0)
(0.0651881 -0.179624 0)
(0.051792 -0.16046 0)
(0.0412854 -0.142724 0)
(0.0330997 -0.126545 0)
(0.0267475 -0.111909 0)
(0.0218244 -0.0987128 0)
(0.0180049 -0.0868134 0)
(0.0150127 -0.0760414 0)
(0.0126376 -0.0662742 0)
(0.297258 -0.0113265 0)
(0.300446 -0.00132427 0)
(0.30412 -0.0274134 0)
(0.292115 -0.106709 0)
(0.265754 -0.190711 0)
(0.230971 -0.240746 0)
(0.194915 -0.254841 0)
(0.16208 -0.247709 0)
(0.133472 -0.231581 0)
(0.109237 -0.21247 0)
(0.0891234 -0.192784 0)
(0.0726381 -0.17359 0)
(0.0592526 -0.155447 0)
(0.0484607 -0.138634 0)
(0.0398086 -0.123251 0)
(0.0329057 -0.109278 0)
(0.0274159 -0.0966228 0)
(0.0230587 -0.0851532 0)
(0.019571 -0.0747072 0)
(0.0167495 -0.0651851 0)
(0.297434 -0.0109297 0)
(0.299926 -0.00250503 0)
(0.302983 -0.0259211 0)
(0.291628 -0.0977882 0)
(0.267658 -0.174202 0)
(0.236095 -0.220891 0)
(0.202731 -0.235738 0)
(0.17147 -0.231188 0)
(0.143363 -0.217908 0)
(0.118919 -0.201354 0)
(0.0982639 -0.183821 0)
(0.0811203 -0.166388 0)
(0.0670534 -0.149668 0)
(0.0555941 -0.134002 0)
(0.0463055 -0.119543 0)
(0.0388099 -0.106318 0)
(0.0327804 -0.0942601 0)
(0.027947 -0.0832654 0)
(0.0240349 -0.073176 0)
(0.0208404 -0.0639233 0)
(0.29754 -0.0105861 0)
(0.299628 -0.00312253 0)
(0.302203 -0.0237822 0)
(0.291305 -0.0905255 0)
(0.26855 -0.163703 0)
(0.238203 -0.209195 0)
(0.206074 -0.223716 0)
(0.176257 -0.219431 0)
(0.149511 -0.206959 0)
(0.125978 -0.191588 0)
(0.105705 -0.175401 0)
(0.0885196 -0.159299 0)
(0.0741379 -0.143788 0)
(0.062219 -0.129173 0)
(0.052415 -0.115606 0)
(0.044406 -0.103126 0)
(0.0378974 -0.0916821 0)
(0.0326438 -0.0811865 0)
(0.0283579 -0.071472 0)
(0.0248448 -0.062507 0)
(0.29769 -0.0101467 0)
(0.299288 -0.00367214 0)
(0.301415 -0.0220288 0)
(0.291454 -0.0831194 0)
(0.270651 -0.150886 0)
(0.242407 -0.193924 0)
(0.211778 -0.20877 0)
(0.182777 -0.206017 0)
(0.156449 -0.195266 0)
(0.133092 -0.181511 0)
(0.112808 -0.166802 0)
(0.0954425 -0.152034 0)
(0.0807405 -0.137708 0)
(0.0684099 -0.124124 0)
(0.0581515 -0.111444 0)
(0.0496889 -0.09972 0)
(0.0427556 -0.0889106 0)
(0.0371372 -0.0789408 0)
(0.0325265 -0.0696183 0)
(0.0287527 -0.0609613 0)
(0.297816 -0.00972142 0)
(0.299009 -0.0039725 0)
(0.30098 -0.0201206 0)
(0.291481 -0.0766158 0)
(0.271534 -0.140623 0)
(0.244523 -0.181832 0)
(0.21529 -0.196282 0)
(0.187567 -0.194011 0)
(0.162178 -0.184241 0)
(0.139343 -0.171694 0)
(0.119234 -0.158247 0)
(0.101793 -0.144694 0)
(0.086847 -0.131482 0)
(0.0741692 -0.118894 0)
(0.0635147 -0.107089 0)
(0.0546527 -0.0961272 0)
(0.0473446 -0.0859699 0)
(0.0414173 -0.0765537 0)
(0.0365313 -0.0676383 0)
(0.0325658 -0.0593135 0)
(0.297928 -0.00924808 0)
(0.29878 -0.00415806 0)
(0.300537 -0.0184819 0)
(0.291713 -0.0703222 0)
(0.273266 -0.129862 0)
(0.247773 -0.168934 0)
(0.219565 -0.183327 0)
(0.192519 -0.181939 0)
(0.167635 -0.173313 0)
(0.145122 -0.16196 0)
(0.125135 -0.1497 0)
(0.107634 -0.137286 0)
(0.0924844 -0.125133 0)
(0.0795083 -0.113507 0)
(0.0685061 -0.102564 0)
(0.0592921 -0.0923699 0)
(0.0516537 -0.0828828 0)
(0.0454744 -0.0740512 0)
(0.0403622 -0.0655574 0)
(0.036291 -0.0575976 0)
(0.298028 -0.00876409 0)
(0.298588 -0.00424457 0)
(0.300232 -0.0168342 0)
(0.291963 -0.0644967 0)
(0.274484 -0.120221 0)
(0.250136 -0.157281 0)
(0.223002 -0.171252 0)
(0.196804 -0.170361 0)
(0.172523 -0.162645 0)
(0.150368 -0.152347 0)
(0.130523 -0.141176 0)
(0.112989 -0.129826 0)
(0.0976719 -0.118678 0)
(0.0844375 -0.107981 0)
(0.0731274 -0.0978882 0)
(0.0636016 -0.0884679 0)
(0.0556709 -0.0796707 0)
(0.0492978 -0.0714606 0)
(0.0440067 -0.0634037 0)
(0.039941 -0.0558566 0)
(0.298117 -0.00826555 0)
(0.298433 -0.00422754 0)
(0.299981 -0.0153238 0)
(0.292241 -0.0590383 0)
(0.275794 -0.110833 0)
(0.252573 -0.145777 0)
(0.226333 -0.159373 0)
(0.200793 -0.15901 0)
(0.176998 -0.15216 0)
(0.155151 -0.142841 0)
(0.135439 -0.132679 0)
(0.117887 -0.122327 0)
(0.102429 -0.112133 0)
(0.0889671 -0.102335 0)
(0.0773803 -0.0930787 0)
(0.0675753 -0.0844381 0)
(0.0593822 -0.0763532 0)
(0.0528748 -0.0688096 0)
(0.0474474 -0.0612101 0)
(0.0435358 -0.0541467 0)
(0.298196 -0.00775566 0)
(0.298308 -0.00414625 0)
(0.299789 -0.0139004 0)
(0.29253 -0.0539046 0)
(0.276972 -0.101979 0)
(0.254742 -0.134831 0)
(0.229331 -0.147918 0)
(0.204408 -0.147941 0)
(0.181061 -0.141854 0)
(0.159499 -0.133433 0)
(0.139915 -0.12421 0)
(0.122353 -0.114795 0)
(0.106773 -0.105511 0)
(0.0931072 -0.0965803 0)
(0.0812662 -0.0881475 0)
(0.0712063 -0.0802935 0)
(0.0627705 -0.0729475 0)
(0.0561885 -0.0661263 0)
(0.0506588 -0.0590163 0)
(0.0471062 -0.0525422 0)
(0.298264 -0.00723988 0)
(0.29821 -0.00400747 0)
(0.299639 -0.0125686 0)
(0.292817 -0.0490825 0)
(0.278072 -0.0935083 0)
(0.256741 -0.124226 0)
(0.232071 -0.136745 0)
(0.207696 -0.137095 0)
(0.184749 -0.131706 0)
(0.163443 -0.124116 0)
(0.143977 -0.115769 0)
(0.126411 -0.107236 0)
(0.110721 -0.0988174 0)
(0.0968674 -0.0907252 0)
(0.0847865 -0.083103 0)
(0.0744865 -0.0760426 0)
(0.0658153 -0.0694673 0)
(0.0592157 -0.0634369 0)
(0.0536031 -0.0568731 0)
(0.0506981 -0.0511421 0)
(0.298323 -0.00672001 0)
(0.298135 -0.00382335 0)
(0.299524 -0.0113216 0)
(0.293095 -0.0445333 0)
(0.27908 -0.0854089 0)
(0.258556 -0.113981 0)
(0.234558 -0.125861 0)
(0.210675 -0.126459 0)
(0.188085 -0.1217 0)
(0.16701 -0.114881 0)
(0.147652 -0.107354 0)
(0.130081 -0.0996531 0)
(0.11429 -0.0920588 0)
(0.100258 -0.0847752 0)
(0.0879429 -0.0779492 0)
(0.0774065 -0.0716885 0)
(0.0684917 -0.0659218 0)
(0.0619222 -0.0607635 0)
(0.0562243 -0.0548492 0)
(0.0543741 -0.0500791 0)
(0.298373 -0.006199 0)
(0.29808 -0.00360279 0)
(0.299435 -0.0101518 0)
(0.293358 -0.040232 0)
(0.279998 -0.0776377 0)
(0.2602 -0.104044 0)
(0.236803 -0.115225 0)
(0.213364 -0.116008 0)
(0.191092 -0.111821 0)
(0.170223 -0.105719 0)
(0.150961 -0.0989627 0)
(0.133385 -0.0920472 0)
(0.117495 -0.0852376 0)
(0.103288 -0.078732 0)
(0.0907378 -0.0726852 0)
(0.079956 -0.0672275 0)
(0.070771 -0.0623129 0)
(0.0642566 -0.0581179 0)
(0.0584417 -0.0530386 0)
(0.0582022 -0.0495283 0)
(0.298414 -0.00567913 0)
(0.298041 -0.00335264 0)
(0.299365 -0.00905256 0)
(0.293603 -0.0361519 0)
(0.280831 -0.0701607 0)
(0.261677 -0.0943884 0)
(0.238822 -0.104815 0)
(0.215779 -0.105722 0)
(0.19379 -0.102056 0)
(0.173103 -0.0966236 0)
(0.153926 -0.0905908 0)
(0.13634 -0.0844182 0)
(0.120354 -0.0783545 0)
(0.105971 -0.0725946 0)
(0.0931753 -0.0673057 0)
(0.0821244 -0.0626477 0)
(0.0726222 -0.0586312 0)
(0.0661412 -0.0554948 0)
(0.0601447 -0.0515652 0)
(0.0622008 -0.0497085 0)
(0.298449 -0.00516188 0)
(0.298017 -0.00307768 0)
(0.29931 -0.0080169 0)
(0.293827 -0.0322685 0)
(0.28158 -0.0629455 0)
(0.262997 -0.0849823 0)
(0.240624 -0.0946043 0)
(0.217936 -0.0955843 0)
(0.196197 -0.092391 0)
(0.17567 -0.0875854 0)
(0.156565 -0.0822349 0)
(0.138966 -0.0767648 0)
(0.122881 -0.0714089 0)
(0.108318 -0.0663595 0)
(0.095263 -0.0618003 0)
(0.0839033 -0.0579276 0)
(0.0740145 -0.0548498 0)
(0.0674623 -0.0528628 0)
(0.0611944 -0.0505695 0)
(0.0661772 -0.0508537 0)
(0.298476 -0.0046486 0)
(0.298005 -0.00278138 0)
(0.299263 -0.0070397 0)
(0.29403 -0.02856 0)
(0.28225 -0.0559608 0)
(0.264167 -0.0757983 0)
(0.242221 -0.0845725 0)
(0.219848 -0.0855762 0)
(0.198328 -0.0828145 0)
(0.177941 -0.0785971 0)
(0.158897 -0.0738914 0)
(0.141279 -0.0690858 0)
(0.125094 -0.0643994 0)
(0.110347 -0.0600216 0)
(0.0970133 -0.0561541 0)
(0.0852896 -0.0530353 0)
(0.0749223 -0.0509145 0)
(0.0680664 -0.0501576 0)
(0.0614279 -0.0501546 0)
(0.0694019 -0.0531224 0)
(0.298496 -0.00414017 0)
(0.298001 -0.00246457 0)
(0.299217 -0.00611706 0)
(0.294213 -0.025008 0)
(0.282846 -0.0491773 0)
(0.265193 -0.0668096 0)
(0.243622 -0.0746985 0)
(0.221527 -0.0756825 0)
(0.200198 -0.0733149 0)
(0.179931 -0.069652 0)
(0.160937 -0.0655566 0)
(0.143296 -0.06138 0)
(0.12701 -0.0573248 0)
(0.112075 -0.0535757 0)
(0.0984457 -0.0503496 0)
(0.0862928 -0.0479282 0)
(0.0753303 -0.0467305 0)
(0.0677743 -0.0472598 0)
(0.0606183 -0.0502492 0)
(0.070172 -0.0564021 0)
(0.298511 -0.00363901 0)
(0.298002 -0.00212287 0)
(0.299167 -0.00524162 0)
(0.294378 -0.0215945 0)
(0.283373 -0.0425687 0)
(0.266078 -0.05799 0)
(0.244837 -0.0649615 0)
(0.222985 -0.0658877 0)
(0.201817 -0.0638815 0)
(0.181652 -0.0607432 0)
(0.162699 -0.0572278 0)
(0.145034 -0.0536472 0)
(0.128649 -0.0501857 0)
(0.113525 -0.0470192 0)
(0.0995892 -0.0443712 0)
(0.0869451 -0.0425595 0)
(0.075248 -0.0421585 0)
(0.0664348 -0.0439218 0)
(0.0582964 -0.0502902 0)
(0.0655631 -0.0599972 0)
(0.298523 -0.00314515 0)
(0.298008 -0.00176012 0)
(0.299108 -0.00440022 0)
(0.294527 -0.0182897 0)
(0.283831 -0.036114 0)
(0.266828 -0.0493154 0)
(0.24587 -0.0553371 0)
(0.224229 -0.0561757 0)
(0.203195 -0.054504 0)
(0.183115 -0.0518646 0)
(0.164197 -0.0489024 0)
(0.146506 -0.0458882 0)
(0.130028 -0.0429849 0)
(0.114724 -0.0403541 0)
(0.100483 -0.038213 0)
(0.0873122 -0.0368928 0)
(0.0747519 -0.03705 0)
(0.0640699 -0.0397023 0)
(0.0534959 -0.0486591 0)
(0.0514725 -0.061251 0)
(0.00754982 -0.0585751 0)
(0.00644592 -0.0510883 0)
(0.00549451 -0.0443375 0)
(0.00466985 -0.0383017 0)
(0.00395605 -0.0329535 0)
(0.00334102 -0.0282555 0)
(0.00281383 -0.0241612 0)
(0.00236398 -0.0206183 0)
(0.00198145 -0.0175725 0)
(0.00165722 -0.0149697 0)
(0.0107702 -0.0577781 0)
(0.0092348 -0.0504102 0)
(0.00789676 -0.0437543 0)
(0.00672628 -0.0377989 0)
(0.00570611 -0.0325214 0)
(0.00482285 -0.027886 0)
(0.00406327 -0.0238467 0)
(0.00341371 -0.0203517 0)
(0.00286052 -0.0173472 0)
(0.00239119 -0.0147798 0)
(0.0144784 -0.0568421 0)
(0.0125591 -0.049587 0)
(0.0108468 -0.0430251 0)
(0.00931748 -0.0371542 0)
(0.0079611 -0.0319555 0)
(0.00676977 -0.0273934 0)
(0.005733 -0.0234212 0)
(0.00483747 -0.0199865 0)
(0.0040682 -0.017035 0)
(0.00341061 -0.0145142 0)
(0.0182236 -0.0557341 0)
(0.0159563 -0.048593 0)
(0.0138929 -0.0421283 0)
(0.0120174 -0.0363491 0)
(0.01033 -0.0312398 0)
(0.00883053 -0.0267639 0)
(0.00751285 -0.0228727 0)
(0.00636501 -0.0195118 0)
(0.00537149 -0.0166266 0)
(0.00451627 -0.0141647 0)
(0.0219231 -0.0544609 0)
(0.0193264 -0.0474274 0)
(0.0169226 -0.0410581 0)
(0.0147065 -0.0353746 0)
(0.0126918 -0.030364 0)
(0.0108874 -0.0259868 0)
(0.00929173 -0.0221904 0)
(0.00789406 -0.0189177 0)
(0.00667802 -0.0161123 0)
(0.00562596 -0.0137219 0)
(0.0255672 -0.0530353 0)
(0.0226517 -0.046097 0)
(0.0199106 -0.0398176 0)
(0.0173531 -0.0342325 0)
(0.0150105 -0.0293296 0)
(0.0129024 -0.0250638 0)
(0.0110316 -0.0213764 0)
(0.00938803 -0.0182059 0)
(0.00795353 -0.0154934 0)
(0.00670816 -0.0131868 0)
(0.0291642 -0.0514679 0)
(0.0259341 -0.0446048 0)
(0.022853 -0.0384062 0)
(0.019948 -0.0329218 0)
(0.0172732 -0.0281369 0)
(0.0148609 -0.0239964 0)
(0.0127173 -0.020433 0)
(0.0108321 -0.017379 0)
(0.00918401 -0.0147726 0)
(0.0077498 -0.0125616 0)
(0.0327309 -0.0497674 0)
(0.0291816 -0.042951 0)
(0.0257511 -0.03682 0)
(0.0224867 -0.0314389 0)
(0.0194722 -0.026784 0)
(0.0167535 -0.0227847 0)
(0.0143395 -0.0193618 0)
(0.0122175 -0.0164396 0)
(0.0103614 -0.0139524 0)
(0.00874355 -0.0118485 0)
(0.0362936 -0.0479407 0)
(0.0324058 -0.0411317 0)
(0.0286076 -0.0350514 0)
(0.0249648 -0.0297775 0)
(0.0215995 -0.025268 0)
(0.0185714 -0.0214288 0)
(0.0158896 -0.0181648 0)
(0.0135366 -0.0153906 0)
(0.0114793 -0.0130358 0)
(0.00968388 -0.0110496 0)
(0.0398905 -0.0459906 0)
(0.035622 -0.0391378 0)
(0.0314257 -0.0330876 0)
(0.0273767 -0.0279287 0)
(0.0236456 -0.0235849 0)
(0.0203045 -0.0199286 0)
(0.0173584 -0.0168444 0)
(0.0147819 -0.0142355 0)
(0.0125318 -0.0120262 0)
(0.0105662 -0.0101675 0)
(0.0435759 -0.0439138 0)
(0.0388483 -0.0369519 0)
(0.0342076 -0.0309093 0)
(0.0297135 -0.0258803 0)
(0.0255981 -0.0217298 0)
(0.0219408 -0.0182842 0)
(0.0187357 -0.0154038 0)
(0.0159455 -0.0129788 0)
(0.0135132 -0.0109279 0)
(0.0113869 -0.00920477 0)
(0.0474235 -0.0416969 0)
(0.0421035 -0.0345446 0)
(0.0369519 -0.0284885 0)
(0.0319614 -0.0236165 0)
(0.0274408 -0.0196974 0)
(0.0234659 -0.0164968 0)
(0.0200101 -0.0138475 0)
(0.0170193 -0.0116266 0)
(0.0144185 -0.00974636 0)
(0.0121438 -0.00816476 0)
(0.0515248 -0.0393104 0)
(0.0453991 -0.0318689 0)
(0.0396467 -0.0257864 0)
(0.034096 -0.0211187 0)
(0.0291502 -0.0174828 0)
(0.0248607 -0.0145689 0)
(0.0211672 -0.0121819 0)
(0.0179936 -0.0101865 0)
(0.0152423 -0.0084889 0)
(0.0128368 -0.00705126 0)
(0.0559673 -0.0366997 0)
(0.0487122 -0.0288529 0)
(0.0422499 -0.0227525 0)
(0.0360697 -0.018367 0)
(0.0306874 -0.0150832 0)
(0.0260961 -0.012506 0)
(0.0221861 -0.0104161 0)
(0.0188542 -0.0086691 0)
(0.0159769 -0.00716527 0)
(0.0134667 -0.00586887 0)
(0.0607511 -0.0337722 0)
(0.0519074 -0.0253979 0)
(0.0446352 -0.0193303 0)
(0.0377746 -0.015347 0)
(0.0319722 -0.0125031 0)
(0.027113 -0.0103197 0)
(0.0230223 -0.00856371 0)
(0.0195684 -0.00708892 0)
(0.0166012 -0.00578984 0)
(0.0140281 -0.00462384 0)
(0.0655635 -0.0303921 0)
(0.0545405 -0.021396 0)
(0.0464547 -0.015484 0)
(0.0389448 -0.0120699 0)
(0.0328088 -0.0097667 0)
(0.0277619 -0.0080353 0)
(0.0235584 -0.00664869 0)
(0.0200428 -0.00546932 0)
(0.0170446 -0.00438652 0)
(0.0144814 -0.00332896 0)
(0.0692966 -0.0263752 0)
(0.0554594 -0.0167787 0)
(0.0468531 -0.0112544 0)
(0.038938 -0.00860671 0)
(0.0327077 -0.00693873 0)
(0.0276536 -0.00570561 0)
(0.0234756 -0.00471441 0)
(0.0200122 -0.00384983 0)
(0.0170915 -0.00299779 0)
(0.014672 -0.00201752 0)
(0.0692667 -0.0212932 0)
(0.0522336 -0.0115032 0)
(0.0440299 -0.00680331 0)
(0.0363713 -0.00511757 0)
(0.0305674 -0.00414121 0)
(0.0258797 -0.00342151 0)
(0.0220109 -0.00283121 0)
(0.0188254 -0.00229179 0)
(0.0161869 -0.00169274 0)
(0.0141508 -0.000768372 0)
(0.0602595 -0.0140779 0)
(0.0408422 -0.00561623 0)
(0.0349281 -0.00253175 0)
(0.0288093 -0.0019295 0)
(0.0243592 -0.00160946 0)
(0.0207167 -0.00135608 0)
(0.017687 -0.00113202 0)
(0.0151993 -0.000906541 0)
(0.0131982 -0.000585176 0)
(0.0119013 0.000267898 0)
(0.0330177 -0.00733947 0)
(0.0169766 -0.00138986 0)
(0.0158126 -0.000257381 0)
(0.0131216 -0.000236283 0)
(0.0112978 -0.000226387 0)
(0.00970755 -0.000204372 0)
(0.00834773 -0.000175802 0)
(0.0072259 -0.000137449 0)
(0.00638487 -4.24387e-05 0)
(0.0060873 0.000456887 0)
(0.00139003 -0.0128124 0)
(0.00116993 -0.011019 0)
(0.000985155 -0.00949302 0)
(0.000831366 -0.00819541 0)
(0.000704344 -0.00709025 0)
(0.000600037 -0.00614555 0)
(0.000514693 -0.00533365 0)
(0.000444961 -0.00463117 0)
(0.000387964 -0.00401864 0)
(0.000341307 -0.00348009 0)
(0.000303046 -0.00300239 0)
(0.00027164 -0.00257482 0)
(0.000245882 -0.0021885 0)
(0.000224846 -0.00183604 0)
(0.000207827 -0.00151113 0)
(0.000194293 -0.00120837 0)
(0.000183855 -0.000923033 0)
(0.000176239 -0.000651722 0)
(0.000171257 -0.000397516 0)
(0.000168436 -0.000196279 0)
(0.00200397 -0.0126522 0)
(0.00168485 -0.0108845 0)
(0.00141709 -0.00938097 0)
(0.00119448 -0.00810286 0)
(0.00101089 -0.00701431 0)
(0.000860379 -0.00608355 0)
(0.000737432 -0.00528315 0)
(0.000637131 -0.00459005 0)
(0.00055526 -0.00398513 0)
(0.000488316 -0.00345271 0)
(0.00043347 -0.00297999 0)
(0.000388483 -0.00255648 0)
(0.000351609 -0.00217352 0)
(0.000321508 -0.00182387 0)
(0.000297164 -0.00150138 0)
(0.000277814 -0.00120073 0)
(0.000262896 -0.000917289 0)
(0.000252026 -0.000647716 0)
(0.000244938 -0.000395112 0)
(0.000240789 -0.000195195 0)
(0.00286442 -0.0124267 0)
(0.00241201 -0.0106939 0)
(0.00203113 -0.00922145 0)
(0.00171379 -0.00797055 0)
(0.00145172 -0.00690539 0)
(0.00123672 -0.00599434 0)
(0.001061 -0.00521029 0)
(0.000917575 -0.00453057 0)
(0.000800444 -0.00393652 0)
(0.000704608 -0.00341291 0)
(0.000626035 -0.00294736 0)
(0.000561534 -0.00252971 0)
(0.000508625 -0.00215161 0)
(0.000465407 -0.00180605 0)
(0.000430435 -0.00148708 0)
(0.000402631 -0.00118951 0)
(0.000381201 -0.000908847 0)
(0.000365599 -0.000641831 0)
(0.00035544 -0.00039158 0)
(0.000349425 -0.000193518 0)
(0.00380138 -0.0121283 0)
(0.00320636 -0.0104407 0)
(0.00270385 -0.00900905 0)
(0.00228434 -0.00779414 0)
(0.00193752 -0.00676007 0)
(0.00165277 -0.00587528 0)
(0.00141991 -0.00511301 0)
(0.00122971 -0.00445111 0)
(0.00107424 -0.00387154 0)
(0.000946896 -0.00335966 0)
(0.00084236 -0.00290364 0)
(0.000756434 -0.00249382 0)
(0.000685862 -0.0021222 0)
(0.00062815 -0.00178212 0)
(0.000581407 -0.00146786 0)
(0.000544221 -0.00117443 0)
(0.000515553 -0.000897501 0)
(0.000494685 -0.000633926 0)
(0.000481102 -0.000386835 0)
(0.000473039 -0.00019122 0)
(0.00474211 -0.0117482 0)
(0.0040038 -0.0101174 0)
(0.00337921 -0.00873722 0)
(0.00285744 -0.00756818 0)
(0.0024261 -0.00657386 0)
(0.00207204 -0.00572268 0)
(0.00178253 -0.00498829 0)
(0.00154599 -0.00434919 0)
(0.00135252 -0.00378811 0)
(0.00119388 -0.00329123 0)
(0.00106349 -0.00284739 0)
(0.000956152 -0.00244756 0)
(0.000867868 -0.00208426 0)
(0.000795573 -0.00175121 0)
(0.000736952 -0.00144301 0)
(0.000690274 -0.00115493 0)
(0.000654267 -0.000882822 0)
(0.000628049 -0.000623697 0)
(0.000610975 -0.00038069 0)
(0.000600828 -0.000188229 0)
(0.00565771 -0.0112871 0)
(0.00477794 -0.00972423 0)
(0.00403354 -0.0084065 0)
(0.00341212 -0.00729336 0)
(0.00289912 -0.00634754 0)
(0.0024786 -0.00553733 0)
(0.00213502 -0.00483683 0)
(0.00185441 -0.00422538 0)
(0.00162478 -0.0036867 0)
(0.00143633 -0.00320794 0)
(0.00128122 -0.00277884 0)
(0.00115334 -0.00239111 0)
(0.00104798 -0.00203788 0)
(0.000961577 -0.00171337 0)
(0.000891415 -0.00141255 0)
(0.000835485 -0.001131 0)
(0.000792302 -0.000864803 0)
(0.000760835 -0.000611135 0)
(0.000740325 -0.000373134 0)
(0.000728119 -0.000184545 0)
(0.00653567 -0.0107465 0)
(0.00551682 -0.00926305 0)
(0.00465578 -0.00801884 0)
(0.00393852 -0.00697179 0)
(0.00334799 -0.00608323 0)
(0.00286506 -0.00532121 0)
(0.00247114 -0.00466038 0)
(0.00214962 -0.00408116 0)
(0.00188647 -0.0035685 0)
(0.0016703 -0.00311075 0)
(0.00149211 -0.00269872 0)
(0.00134495 -0.00232502 0)
(0.00122348 -0.0019835 0)
(0.00112367 -0.00166893 0)
(0.0010425 -0.00137673 0)
(0.000977707 -0.00110283 0)
(0.000927622 -0.000843567 0)
(0.000891089 -0.000596315 0)
(0.000867247 -0.000364207 0)
(0.000853038 -0.000180184 0)
(0.00736864 -0.0101277 0)
(0.00621286 -0.00873547 0)
(0.00523884 -0.0075763 0)
(0.00443031 -0.00660584 0)
(0.00376735 -0.00578339 0)
(0.00322702 -0.00507663 0)
(0.00278728 -0.00446099 0)
(0.00242871 -0.00391826 0)
(0.00213519 -0.00343491 0)
(0.0018938 -0.00300077 0)
(0.00169448 -0.0026079 0)
(0.00152951 -0.00224995 0)
(0.00139306 -0.0019216 0)
(0.0012807 -0.00161825 0)
(0.00118915 -0.00133582 0)
(0.00111595 -0.00107061 0)
(0.00105929 -0.000819251 0)
(0.00101792 -0.000579327 0)
(0.000990874 -0.000353957 0)
(0.000974732 -0.000175168 0)
(0.00815067 -0.00943176 0)
(0.00685947 -0.00814311 0)
(0.00577648 -0.00708115 0)
(0.00488203 -0.00619829 0)
(0.00415275 -0.00545093 0)
(0.00356098 -0.00480632 0)
(0.00308074 -0.00424105 0)
(0.00268959 -0.00373865 0)
(0.0023693 -0.00328752 0)
(0.00210551 -0.00287923 0)
(0.00188722 -0.00250733 0)
(0.00170611 -0.00216663 0)
(0.00155591 -0.00185274 0)
(0.00143193 -0.00156175 0)
(0.0013307 -0.00129012 0)
(0.0012496 -0.00103456 0)
(0.00118673 -0.00079201 0)
(0.00114076 -0.000560268 0)
(0.00111067 -0.000342439 0)
(0.00109267 -0.000169522 0)
(0.0088763 -0.00865905 0)
(0.00744988 -0.00748752 0)
(0.00626235 -0.00653595 0)
(0.00528828 -0.00575244 0)
(0.00449995 -0.00508929 0)
(0.00386379 -0.00451351 0)
(0.00334921 -0.00400331 0)
(0.00293056 -0.00354459 0)
(0.00258751 -0.00312811 0)
(0.00230442 -0.00274752 0)
(0.00206952 -0.00239805 0)
(0.00187403 -0.00207585 0)
(0.00171141 -0.0017775 0)
(0.00157681 -0.00149987 0)
(0.00146662 -0.00123997 0)
(0.00137816 -0.000994921 0)
(0.00130947 -0.000762008 0)
(0.00125916 -0.000539248 0)
(0.00122618 -0.000329714 0)
(0.00120643 -0.000163274 0)
(0.00954038 -0.00780893 0)
(0.00797668 -0.00677008 0)
(0.00668959 -0.00594364 0)
(0.0056434 -0.00527223 0)
(0.00480481 -0.00470259 0)
(0.00413255 -0.00420193 0)
(0.0035907 -0.00375094 0)
(0.00315023 -0.00333861 0)
(0.00278882 -0.00295864 0)
(0.00248975 -0.00260711 0)
(0.00224073 -0.00228119 0)
(0.00203271 -0.00197844 0)
(0.00185905 -0.00169652 0)
(0.00171485 -0.00143307 0)
(0.00159646 -0.00118569 0)
(0.00150121 -0.000951939 0)
(0.0014271 -0.00072942 0)
(0.00137272 -0.000516382 0)
(0.00133703 -0.000315849 0)
(0.00131561 -0.000156454 0)
(0.0101381 -0.00687892 0)
(0.00843125 -0.00599186 0)
(0.00705055 -0.00530762 0)
(0.00594141 -0.00476244 0)
(0.00506325 -0.00429575 0)
(0.00436467 -0.00387595 0)
(0.0038036 -0.00348749 0)
(0.00334758 -0.00312347 0)
(0.00297251 -0.00278119 0)
(0.00266097 -0.00245958 0)
(0.0024004 -0.00215789 0)
(0.00218175 -0.00187525 0)
(0.00199844 -0.00161041 0)
(0.00184566 -0.00136182 0)
(0.00171985 -0.00112764 0)
(0.00161836 -0.000905866 0)
(0.00153922 -0.000694426 0)
(0.00148107 -0.000491787 0)
(0.00144283 -0.000300911 0)
(0.00141985 -0.000149095 0)
(0.0106648 -0.0058636 0)
(0.0088029 -0.00515341 0)
(0.00733642 -0.00463202 0)
(0.00617588 -0.00422899 0)
(0.00527137 -0.00387466 0)
(0.00455796 -0.00354061 0)
(0.00398676 -0.00321694 0)
(0.00352198 -0.00290217 0)
(0.00313824 -0.00259799 0)
(0.00281781 -0.00230653 0)
(0.00254828 -0.00202935 0)
(0.00232086 -0.00176716 0)
(0.00212928 -0.00151983 0)
(0.00196894 -0.00128659 0)
(0.00183644 -0.00106617 0)
(0.00172926 -0.000856957 0)
(0.00164551 -0.000657205 0)
(0.00158386 -0.000465585 0)
(0.00154325 -0.000284971 0)
(0.0015188 -0.000141228 0)
(0.0111155 -0.00475324 0)
(0.00907737 -0.00425466 0)
(0.00753661 -0.0039221 0)
(0.00633989 -0.00367939 0)
(0.00542555 -0.00344646 0)
(0.00471086 -0.00320169 0)
(0.00413964 -0.00294365 0)
(0.00367336 -0.0026779 0)
(0.00328602 -0.0024113 0)
(0.00296027 -0.00214958 0)
(0.00268429 -0.00189671 0)
(0.00244992 -0.001655 0)
(0.00225138 -0.00142538 0)
(0.00208444 -0.00120784 0)
(0.00194597 -0.0010016 0)
(0.00183364 -0.000805459 0)
(0.00174566 -0.000617933 0)
(0.00168077 -0.000437892 0)
(0.00163797 -0.000268097 0)
(0.00161216 -0.000132887 0)
(0.0114801 -0.00353227 0)
(0.00923364 -0.00329515 0)
(0.00763785 -0.00318509 0)
(0.00642596 -0.00312344 0)
(0.00552278 -0.00301983 0)
(0.00482263 -0.00286585 0)
(0.00426247 -0.00267237 0)
(0.00380219 -0.00245392 0)
(0.00341632 -0.00222338 0)
(0.00308865 -0.00199031 0)
(0.00280859 -0.00176109 0)
(0.00256894 -0.00153955 0)
(0.00236463 -0.00132765 0)
(0.00219198 -0.00112598 0)
(0.00204822 -0.000934264 0)
(0.00193124 -0.000751606 0)
(0.0018394 -0.000576781 0)
(0.00177153 -0.000408825 0)
(0.00172671 -0.00025036 0)
(0.00169963 -0.000124103 0)
(0.0117296 -0.00218052 0)
(0.00923723 -0.00227576 0)
(0.00762263 -0.00243189 0)
(0.00642619 -0.00257424 0)
(0.00556109 -0.00260536 0)
(0.00489377 -0.00254055 0)
(0.00435648 -0.00240808 0)
(0.00390969 -0.00223352 0)
(0.00353005 -0.00203639 0)
(0.00320358 -0.00183015 0)
(0.00292153 -0.00162347 0)
(0.00267805 -0.00142154 0)
(0.00246905 -0.00122714 0)
(0.00229148 -0.00104142 0)
(0.00214302 -0.000864449 0)
(0.00202183 -0.000695617 0)
(0.00192647 -0.000533908 0)
(0.00185588 -0.000378492 0)
(0.00180919 -0.000231824 0)
(0.00178093 -0.000114905 0)
(0.0117774 -0.000685164 0)
(0.00902691 -0.00120574 0)
(0.00746694 -0.00168211 0)
(0.00633274 -0.00205012 0)
(0.00554042 -0.00221602 0)
(0.00492652 -0.00223406 0)
(0.00442411 -0.00215588 0)
(0.00399784 -0.00201982 0)
(0.00362863 -0.00185228 0)
(0.00330598 -0.00167038 0)
(0.00302365 -0.00148472 0)
(0.00277753 -0.00130157 0)
(0.0025647 -0.00112431 0)
(0.00238287 -0.000954479 0)
(0.00223022 -0.000792413 0)
(0.00210524 -0.000637692 0)
(0.00200667 -0.000489461 0)
(0.00193357 -0.000346996 0)
(0.00188517 -0.000212554 0)
(0.00185581 -0.000105319 0)
(0.0114045 0.000924622 0)
(0.00849689 -0.000122632 0)
(0.0071392 -0.000974288 0)
(0.00614014 -0.0015774 0)
(0.00546401 -0.00186737 0)
(0.00492553 -0.00195515 0)
(0.00446931 -0.00192059 0)
(0.00406951 -0.00181552 0)
(0.00371397 -0.00167265 0)
(0.00339704 -0.00151198 0)
(0.00311564 -0.0013455 0)
(0.00286774 -0.0011801 0)
(0.00265172 -0.00101951 0)
(0.00246616 -0.000865446 0)
(0.00230974 -0.000718379 0)
(0.0021813 -0.000578004 0)
(0.00207979 -0.000443574 0)
(0.0020044 -0.000314432 0)
(0.00195443 -0.00019261 0)
(0.00192405 -9.53651e-05 0)
(0.0101737 0.00249739 0)
(0.00749804 0.000870664 0)
(0.00660895 -0.000379581 0)
(0.00585143 -0.00119324 0)
(0.00534102 -0.00157717 0)
(0.00489872 -0.00171231 0)
(0.00449773 -0.00170631 0)
(0.0041284 -0.00162266 0)
(0.00378841 -0.00149855 0)
(0.00347817 -0.00135558 0)
(0.00319832 -0.00120621 0)
(0.0029491 -0.00105745 0)
(0.00273029 -0.000912998 0)
(0.00254135 -0.000774535 0)
(0.0023815 -0.00064253 0)
(0.00224989 -0.000516705 0)
(0.00214568 -0.000396364 0)
(0.00206816 -0.000280884 0)
(0.00201676 -0.000172057 0)
(0.00198542 -8.50492e-05 0)
(0.00745596 0.00373443 0)
(0.00593297 0.00155427 0)
(0.00587967 -6.64444e-06 0)
(0.00548988 -0.000943729 0)
(0.00518997 -0.00136304 0)
(0.00485801 -0.00151213 0)
(0.00451677 -0.00151544 0)
(0.00417898 -0.00144211 0)
(0.00385459 -0.00133033 0)
(0.00355091 -0.00120134 0)
(0.00327254 -0.00106701 0)
(0.00302205 -0.000933772 0)
(0.00280061 -0.000804927 0)
(0.00260849 -0.000681901 0)
(0.00244543 -0.000565013 0)
(0.00231087 -0.000453925 0)
(0.00220416 -0.000347941 0)
(0.00212468 -0.000246434 0)
(0.00207199 -0.000150948 0)
(0.00203974 -7.4403e-05 0)
(0.0033533 0.00260163 0)
(0.00416442 0.00135773 0)
(0.00513654 -4.24925e-05 0)
(0.00514955 -0.00087935 0)
(0.00505614 -0.00124871 0)
(0.00482328 -0.00137224 0)
(0.00453329 -0.00136459 0)
(0.00422139 -0.00129016 0)
(0.00390919 -0.00118375 0)
(0.00361022 -0.00106418 0)
(0.00333249 -0.00094164 0)
(0.00308052 -0.000821486 0)
(0.00285661 -0.000706294 0)
(0.00266169 -0.000597056 0)
(0.00249586 -0.00049384 0)
(0.00235881 -0.000396187 0)
(0.00225 -0.000303352 0)
(0.00216886 -0.000214682 0)
(0.00211516 -0.000131443 0)
(0.0020821 -6.46797e-05 0)
(0.00172785 0.00107118 0)
(0.00325623 0.000719516 0)
(0.00462445 -0.000307556 0)
(0.00490903 -0.000928942 0)
(0.00496216 -0.00120037 0)
(0.00480411 -0.0012748 0)
(0.00455266 -0.00124408 0)
(0.00425957 -0.00116168 0)
(0.00395565 -0.00105627 0)
(0.00365934 -0.000943032 0)
(0.00338132 -0.000829916 0)
(0.00312759 -0.000720864 0)
(0.0029013 -0.000617596 0)
(0.00270384 -0.000520581 0)
(0.0025356 -0.000429592 0)
(0.00239641 -0.00034401 0)
(0.00228583 -0.00026303 0)
(0.00220331 -0.000185953 0)
(0.00214875 -0.000113751 0)
(0.00211504 -5.59733e-05 0)
(0.00098075 0.000293803 0)
(0.00271163 -7.12024e-06 0)
(0.00428136 -0.000672015 0)
(0.00474848 -0.00105188 0)
(0.00490673 -0.00119303 0)
(0.0048041 -0.00119859 0)
(0.00458064 -0.0011341 0)
(0.00430032 -0.00103801 0)
(0.00400116 -0.000930562 0)
(0.00370546 -0.000822076 0)
(0.00342599 -0.000717586 0)
(0.00316989 -0.00061928 0)
(0.00294092 -0.000527823 0)
(0.00274083 -0.000443056 0)
(0.0025702 -0.000364392 0)
(0.00242895 -0.000291025 0)
(0.00231668 -0.000222063 0)
(0.00223287 -0.000156755 0)
(0.00217748 -9.57672e-05 0)
(0.00214319 -4.71159e-05 0)
(0.000666678 -0.000374556 0)
(0.00244114 -0.000769372 0)
(0.0041029 -0.00109448 0)
(0.00467631 -0.00122147 0)
(0.00489833 -0.00121274 0)
(0.0048285 -0.00113634 0)
(0.00462013 -0.00103062 0)
(0.0043452 -0.000916835 0)
(0.00404652 -0.000805297 0)
(0.00374898 -0.000700551 0)
(0.00346668 -0.000604234 0)
(0.00320748 -0.000516524 0)
(0.00297548 -0.000436886 0)
(0.00277264 -0.000364461 0)
(0.0025996 -0.000298261 0)
(0.00245634 -0.000237267 0)
(0.00234247 -0.000180489 0)
(0.00225746 -0.00012712 0)
(0.00220129 -7.7522e-05 0)
(0.00216648 -3.80965e-05 0)
(0.000565838 -0.000974988 0)
(0.00236556 -0.00154668 0)
(0.00407833 -0.00154703 0)
(0.0046959 -0.00141553 0)
(0.00494197 -0.0012459 0)
(0.00488061 -0.00108015 0)
(0.004673 -0.000929093 0)
(0.00439516 -0.000795535 0)
(0.0040922 -0.000678966 0)
(0.0037901 -0.000577599 0)
(0.00350346 -0.00048939 0)
(0.00324034 -0.000412351 0)
(0.00300494 -0.000344676 0)
(0.00279919 -0.000284764 0)
(0.00262375 -0.000231206 0)
(0.00247854 -0.000182762 0)
(0.00236314 -0.000138342 0)
(0.00227701 -9.70767e-05 0)
(0.00222011 -5.90306e-05 0)
(0.00218484 -2.89415e-05 0)
(0.000600971 -0.00157262 0)
(0.00245342 -0.00234103 0)
(0.00420385 -0.00201135 0)
(0.00480938 -0.00161429 0)
(0.00504015 -0.00127899 0)
(0.00496191 -0.00102171 0)
(0.00473995 -0.000824614 0)
(0.0044505 -0.000671283 0)
(0.00413828 -0.000549953 0)
(0.0038288 -0.000452312 0)
(0.00353626 -0.000372557 0)
(0.00326841 -0.000306509 0)
(0.0030292 -0.000251081 0)
(0.00282041 -0.000203933 0)
(0.00264255 -0.000163239 0)
(0.00249545 -0.000127542 0)
(0.00237862 -9.56555e-05 0)
(0.00229145 -6.66559e-05 0)
(0.00223387 -4.03097e-05 0)
(0.0021982 -1.96746e-05 0)
(0.000800524 -0.00222193 0)
(0.00272381 -0.00315993 0)
(0.00448837 -0.00247139 0)
(0.00501976 -0.00179787 0)
(0.00519335 -0.00129807 0)
(0.00507214 -0.000952379 0)
(0.00482057 -0.000712141 0)
(0.00451081 -0.000541184 0)
(0.00418441 -0.000416622 0)
(0.0038648 -0.000323776 0)
(0.00356486 -0.000253244 0)
(0.0032915 -0.00019875 0)