x,y,z,p
0,0,0,0.0004524
0,0.1,0,0.000995812
0,0.2,0,0.00153922
0,0.3,0,0.00217412
0,0.4,0,0.0029005
0,0.5,0,0.00362688
0,0.6,0,0.00435708
0,0.7,0,0.00508728
0,0.8,0,0.00582018
0,0.9,0,0.00655577
0,1,0,0.00729137
0,1.1,0,0.00803366
0,1.2,0,0.00877595
0,1.3,0,0.00952205
0,1.4,0,0.010272
0,1.5,0,0.0110219
0,1.6,0,0.01178
0,1.7,0,0.012538
0,1.8,0,0.0133002
0,1.9,0,0.0140664
0,2,0,0.0148326
0,2.1,0,0.0156065
0,2.2,0,0.0163803
0,2.3,0,0.0171572
0,2.4,0,0.0179373
0,2.5,0,0.0187175
0,2.6,0,0.0195017
0,2.7,0,0.020286
0,2.8,0,0.0210708
0,2.9,0,0.0218562
0,3,0,0.0226416
0,3.1,0,0.0234241
0,3.2,0,0.0242066
0,3.3,0,0.0249852
0,3.4,0,0.0257597
0,3.5,0,0.0265343
0,3.6,0,0.0272946
0,3.7,0,0.028055
0,3.8,0,0.0288047
0,3.9,0,0.0295436
0,4,0,0.0302826
0,4.1,0,0.0309919
0,4.2,0,0.0317012
0,4.3,0,0.0323912
0,4.4,0,0.0330619
0,4.5,0,0.0337326
0,4.6,0,0.034355
0,4.7,0,0.0349774
0,4.8,0,0.0355832
0,4.9,0,0.0361722
0,5,0,0.0367612
0,5.1,0,0.0372291
0,5.2,0,0.0376969
0,5.3,0,0.0381647
0,5.4,0,0.0385586
0,5.5,0,0.0389524
0,5.6,0,0.0393462
0,5.7,0,0.0396339
0,5.8,0,0.0399216
0,5.9,0,0.0402093
0,6,0,0.0403819
0,6.1,0,0.0405545
0,6.2,0,0.0407271
0,6.3,0,0.0407789
0,6.4,0,0.0408308
0,6.5,0,0.0408826
0,6.6,0,0.0408116
0,6.7,0,0.0407406
0,6.8,0,0.0406697
0,6.9,0,0.0404776
0,7,0,0.0402856
0,7.1,0,0.0400935
0,7.2,0,0.0397857
0,7.3,0,0.039478
0,7.4,0,0.0391702
0,7.5,0,0.0387554
0,7.6,0,0.0383405
0,7.7,0,0.0379257
0,7.8,0,0.0374431
0,7.9,0,0.0369606
0,8,0,0.036478
0,8.1,0,0.0358561
0,8.2,0,0.0352343
0,8.3,0,0.034599
0,8.4,0,0.0339565
0,8.5,0,0.0332997
0,8.6,0,0.0326093
0,8.7,0,0.031919
0,8.8,0,0.0311913
0,8.9,0,0.0304615
0,9,0,0.029713
0,9.1,0,0.0289518
0,9.2,0,0.0281847
0,9.3,0,0.0273996
0,9.4,0,0.0266145
0,9.5,0,0.0258138
0,9.6,0,0.0250113
0,9.7,0,0.0242025
0,9.8,0,0.0233884
0,9.9,0,0.0225731
0,10,0,0.0217524
0,10.1,0,0.0209317
0,10.2,0,0.0201087
0,10.3,0,0.0192853
0,10.4,0,0.0184621
0,10.5,0,0.0176391
0,10.6,0,0.0168166
0,10.7,0,0.0159964
0,10.8,0,0.0151762
0,10.9,0,0.0143595
0,11,0,0.0135437
0,11.1,0,0.0127302
0,11.2,0,0.0119197
0,11.3,0,0.0111098
0,11.4,0,0.0103049
0,11.5,0,0.00950003
0,11.6,0,0.0086993
0,11.7,0,0.00789995
0,11.8,0,0.0071026
0,11.9,0,0.00630825
0,12,0,0.00551411
0,12.1,0,0.00472387
0,12.2,0,0.00393364
0,12.3,0,0.00314547
0,12.4,0,0.00235818
0,12.5,0,0.00164028
0,12.6,0,0.00105122
0,12.7,0,0.00046216
0.1,0,0,0.00027144
0.1,0.1,0,0.00081432
0.1,0.2,0,0.00144805
0.1,0.3,0,0.00217295
0.1,0.4,0,0.00289903
0.1,0.5,0,0.00362525
0.1,0.6,0,0.00435475
0.1,0.7,0,0.00508495
0.1,0.8,0,0.00581749
0.1,0.9,0,0.00655271
0.1,1,0,0.00728849
0.1,1.1,0,0.00803002
0.1,1.2,0,0.00877247
0.1,1.3,0,0.0095184
0.1,1.4,0,0.010268
0.1,1.5,0,0.0110183
0.1,1.6,0,0.0117758
0.1,1.7,0,0.0125342
0.1,1.8,0,0.0132964
0.1,1.9,0,0.0140624
0.1,2,0,0.0148293
0.1,2.1,0,0.0156029
0.1,2.2,0,0.0163771
0.1,2.3,0,0.0171545
0.1,2.4,0,0.0179346
0.1,2.5,0,0.0187155
0.1,2.6,0,0.0195003
0.1,2.7,0,0.0202849
0.1,2.8,0,0.0210706
0.1,2.9,0,0.0218565
0.1,3,0,0.0226427
0.1,3.1,0,0.0234267
0.1,3.2,0,0.0242095
0.1,3.3,0,0.0249895
0.1,3.4,0,0.0257651
0.1,3.5,0,0.0265401
0.1,3.6,0,0.0273034
0.1,3.7,0,0.0280639
0.1,3.8,0,0.0288154
0.1,3.9,0,0.0295563
0.1,4,0,0.030295
0.1,4.1,0,0.0310089
0.1,4.2,0,0.0317179
0.1,4.3,0,0.0324102
0.1,4.4,0,0.0330836
0.1,4.5,0,0.0337529
0.1,4.6,0,0.0343815
0.1,4.7,0,0.035003
0.1,4.8,0,0.0355989
0.1,4.9,0,0.036179
0.1,5,0,0.0367903
0.1,5.1,0,0.0372575
0.1,5.2,0,0.0377261
0.1,5.3,0,0.0381984
0.1,5.4,0,0.0386147
0.1,5.5,0,0.0390092
0.1,5.6,0,0.039384
0.1,5.7,0,0.0396959
0.1,5.8,0,0.0399841
0.1,5.9,0,0.0402503
0.1,6,0,0.0404481
0.1,6.1,0,0.0406211
0.1,6.2,0,0.0407701
0.1,6.3,0,0.0408475
0.1,6.4,0,0.0408994
0.1,6.5,0,0.0409263
0.1,6.6,0,0.0408804
0.1,6.7,0,0.0408093
0.1,6.8,0,0.0407128
0.1,6.9,0,0.0405444
0.1,7,0,0.040352
0.1,7.1,0,0.0401347
0.1,7.2,0,0.0398487
0.1,7.3,0,0.0395404
0.1,7.4,0,0.0392083
0.1,7.5,0,0.0388127
0.1,7.6,0,0.0383972
0.1,7.7,0,0.0379597
0.1,7.8,0,0.0374656
0.1,7.9,0,0.0369823
0.1,8,0,0.0365076
0.1,8.1,0,0.0358511
0.1,8.2,0,0.0352483
0.1,8.3,0,0.0346238
0.1,8.4,0,0.0339802
0.1,8.5,0,0.0333208
0.1,8.6,0,0.0326298
0.1,8.7,0,0.0319368
0.1,8.8,0,0.0312078
0.1,8.9,0,0.0304766
0.1,9,0,0.0297263
0.1,9.1,0,0.0289643
0.1,9.2,0,0.0281951
0.1,9.3,0,0.0274092
0.1,9.4,0,0.0266224
0.1,9.5,0,0.0258205
0.1,9.6,0,0.0250171
0.1,9.7,0,0.024207
0.1,9.8,0,0.0233924
0.1,9.9,0,0.0225757
0.1,10,0,0.0217545
0.1,10.1,0,0.0209329
0.1,10.2,0,0.0201092
0.1,10.3,0,0.0192853
0.1,10.4,0,0.0184614
0.1,10.5,0,0.0176382
0.1,10.6,0,0.0168151
0.1,10.7,0,0.0159946
0.1,10.8,0,0.0151742
0.1,10.9,0,0.0143572
0.1,11,0,0.0135413
0.1,11.1,0,0.0127277
0.1,11.2,0,0.0119171
0.1,11.3,0,0.0111071
0.1,11.4,0,0.0103022
0.1,11.5,0,0.00949745
0.1,11.6,0,0.00869677
0.1,11.7,0,0.00789751
0.1,11.8,0,0.00710036
0.1,11.9,0,0.00630608
0.1,12,0,0.00551224
0.1,12.1,0,0.00472218
0.1,12.2,0,0.00393218
0.1,12.3,0,0.00314432
0.1,12.4,0,0.00235722
0.1,12.5,0,0.00157085
0.1,12.6,0,0.000865964
0.1,12.7,0,0.000277296
0.2,0,0,9.048e-05
0.2,0.1,0,0.000723673
0.2,0.2,0,0.00144718
0.2,0.3,0,0.00217208
0.2,0.4,0,0.00289769
0.2,0.5,0,0.00362361
0.2,0.6,0,0.00435312
0.2,0.7,0,0.00508264
0.2,0.8,0,0.00581517
0.2,0.9,0,0.00655021
0.2,1,0,0.00728561
0.2,1.1,0,0.00802731
0.2,1.2,0,0.00876917
0.2,1.3,0,0.0095151
0.2,1.4,0,0.0102648
0.2,1.5,0,0.0110148
0.2,1.6,0,0.0117726
0.2,1.7,0,0.0125306
0.2,1.8,0,0.0132928
0.2,1.9,0,0.0140593
0.2,2,0,0.014826
0.2,2.1,0,0.0156
0.2,2.2,0,0.0163743
0.2,2.3,0,0.0171517
0.2,2.4,0,0.0179327
0.2,2.5,0,0.0187136
0.2,2.6,0,0.0194988
0.2,2.7,0,0.0202843
0.2,2.8,0,0.02107
0.2,2.9,0,0.0218571
0.2,3,0,0.0226437
0.2,3.1,0,0.0234281
0.2,3.2,0,0.0242127
0.2,3.3,0,0.0249927
0.2,3.4,0,0.0257698
0.2,3.5,0,0.0265459
0.2,3.6,0,0.0273093
0.2,3.7,0,0.0280728
0.2,3.8,0,0.0288243
0.2,3.9,0,0.0295668
0.2,4,0,0.0303074
0.2,4.1,0,0.031021
0.2,4.2,0,0.0317341
0.2,4.3,0,0.0324265
0.2,4.4,0,0.0331012
0.2,4.5,0,0.0337733
0.2,4.6,0,0.0344009
0.2,4.7,0,0.0350276
0.2,4.8,0,0.0356235
0.2,4.9,0,0.036217
0.2,5,0,0.0368195
0.2,5.1,0,0.0372884
0.2,5.2,0,0.03776
0.2,5.3,0,0.038232
0.2,5.4,0,0.0386407
0.2,5.5,0,0.0390379
0.2,5.6,0,0.0394218
0.2,5.7,0,0.039725
0.2,5.8,0,0.0400154
0.2,5.9,0,0.0402912
0.2,6,0,0.0404796
0.2,6.1,0,0.0406539
0.2,6.2,0,0.0408131
0.2,6.3,0,0.0408805
0.2,6.4,0,0.0409329
0.2,6.5,0,0.04097
0.2,6.6,0,0.0409139
0.2,6.7,0,0.0408424
0.2,6.8,0,0.0407559
0.2,6.9,0,0.0405774
0.2,7,0,0.0403837
0.2,7.1,0,0.0401759
0.2,7.2,0,0.0398801
0.2,7.3,0,0.0395698
0.2,7.4,0,0.0392464
0.2,7.5,0,0.0388417
0.2,7.6,0,0.0384235
0.2,7.7,0,0.0379938
0.2,7.8,0,0.0375028
0.2,7.9,0,0.0370166
0.2,8,0,0.0365373
0.2,8.1,0,0.0358957
0.2,8.2,0,0.0352737
0.2,8.3,0,0.0346485
0.2,8.4,0,0.0340019
0.2,8.5,0,0.0333422
0.2,8.6,0,0.0326484
0.2,8.7,0,0.0319544
0.2,8.8,0,0.0312241
0.2,8.9,0,0.0304906
0.2,9,0,0.02974
0.2,9.1,0,0.0289753
0.2,9.2,0,0.0282057
0.2,9.3,0,0.0274179
0.2,9.4,0,0.02663
0.2,9.5,0,0.0258274
0.2,9.6,0,0.0250222
0.2,9.7,0,0.0242119
0.2,9.8,0,0.0233955
0.2,9.9,0,0.0225786
0.2,10,0,0.0217563
0.2,10.1,0,0.0209339
0.2,10.2,0,0.0201099
0.2,10.3,0,0.019285
0.2,10.4,0,0.0184611
0.2,10.5,0,0.017637
0.2,10.6,0,0.0168138
0.2,10.7,0,0.0159929
0.2,10.8,0,0.0151721
0.2,10.9,0,0.0143551
0.2,11,0,0.0135388
0.2,11.1,0,0.0127252
0.2,11.2,0,0.0119145
0.2,11.3,0,0.0111045
0.2,11.4,0,0.0102997
0.2,11.5,0,0.00949489
0.2,11.6,0,0.00869429
0.2,11.7,0,0.00789521
0.2,11.8,0,0.00709807
0.2,11.9,0,0.00630413
0.2,12,0,0.00551036
0.2,12.1,0,0.00472054
0.2,12.2,0,0.00393083
0.2,12.3,0,0.00314306
0.2,12.4,0,0.00235645
0.2,12.5,0,0.00157013
0.2,12.6,0,0.000785122
0.2,12.7,0,9.24321e-05
0.3,0,0,0
0.3,0.1,0,0.000722758
0.3,0.2,0,0.00144626
0.3,0.3,0,0.00216954
0.3,0.4,0,0.00289514
0.3,0.5,0,0.00362019
0.3,0.6,0,0.00434911
0.3,0.7,0,0.00507863
0.3,0.8,0,0.00580991
0.3,0.9,0,0.00654495
0.3,1,0,0.0072796
0.3,1.1,0,0.00802105
0.3,1.2,0,0.00876292
0.3,1.3,0,0.00950814
0.3,1.4,0,0.0102578
0.3,1.5,0,0.0110074
0.3,1.6,0,0.0117653
0.3,1.7,0,0.0125234
0.3,1.8,0,0.0132858
0.3,1.9,0,0.0140523
0.3,2,0,0.014819
0.3,2.1,0,0.0155937
0.3,2.2,0,0.0163681
0.3,2.3,0,0.0171468
0.3,2.4,0,0.0179278
0.3,2.5,0,0.0187095
0.3,2.6,0,0.019496
0.3,2.7,0,0.0202815
0.3,2.8,0,0.0210702
0.3,2.9,0,0.0218573
0.3,3,0,0.0226457
0.3,3.1,0,0.0234321
0.3,3.2,0,0.0242167
0.3,3.3,0,0.0250015
0.3,3.4,0,0.0257786
0.3,3.5,0,0.0265578
0.3,3.6,0,0.0273238
0.3,3.7,0,0.0280872
0.3,3.8,0,0.0288455
0.3,3.9,0,0.0295879
0.3,4,0,0.030333
0.3,4.1,0,0.0310495
0.3,4.2,0,0.0317627
0.3,4.3,0,0.032463
0.3,4.4,0,0.0331378
0.3,4.5,0,0.0338154
0.3,4.6,0,0.0344459
0.3,4.7,0,0.0350725
0.3,4.8,0,0.0356769
0.3,4.9,0,0.0362705
0.3,5,0,0.0368796
0.3,5.1,0,0.037351
0.3,5.2,0,0.0378226
0.3,5.3,0,0.0383016
0.3,5.4,0,0.0387124
0.3,5.5,0,0.0391097
0.3,5.6,0,0.0395
0.3,5.7,0,0.0398043
0.3,5.8,0,0.0400946
0.3,5.9,0,0.0403761
0.3,6,0,0.0405642
0.3,6.1,0,0.0407385
0.3,6.2,0,0.0409022
0.3,6.3,0,0.0409679
0.3,6.4,0,0.0410203
0.3,6.5,0,0.0410607
0.3,6.6,0,0.0410013
0.3,6.7,0,0.0409298
0.3,6.8,0,0.0408452
0.3,6.9,0,0.0406623
0.3,7,0,0.0404687
0.3,7.1,0,0.0402612
0.3,7.2,0,0.0399599
0.3,7.3,0,0.0396496
0.3,7.4,0,0.0393253
0.3,7.5,0,0.0389143
0.3,7.6,0,0.0384961
0.3,7.7,0,0.0380643
0.3,7.8,0,0.0375663
0.3,7.9,0,0.0370801
0.3,8,0,0.0365986
0.3,8.1,0,0.0359503
0.3,8.2,0,0.0353278
0.3,8.3,0,0.0346953
0.3,8.4,0,0.0340487
0.3,8.5,0,0.0333832
0.3,8.6,0,0.0326874
0.3,8.7,0,0.0319912
0.3,8.8,0,0.0312557
0.3,8.9,0,0.0305218
0.3,9,0,0.0297645
0.3,9.1,0,0.0289998
0.3,9.2,0,0.0282257
0.3,9.3,0,0.027436
0.3,9.4,0,0.0266462
0.3,9.5,0,0.0258398
0.3,9.6,0,0.0250345
0.3,9.7,0,0.0242196
0.3,9.8,0,0.0234032
0.3,9.9,0,0.0225834
0.3,10,0,0.0217599
0.3,10.1,0,0.0209365
0.3,10.2,0,0.0201104
0.3,10.3,0,0.0192855
0.3,10.4,0,0.0184592
0.3,10.5,0,0.0176352
0.3,10.6,0,0.0168106
0.3,10.7,0,0.0159893
0.3,10.8,0,0.015168
0.3,10.9,0,0.0143504
0.3,11,0,0.0135341
0.3,11.1,0,0.01272
0.3,11.2,0,0.0119093
0.3,11.3,0,0.011099
0.3,11.4,0,0.0102944
0.3,11.5,0,0.00948957
0.3,11.6,0,0.00868936
0.3,11.7,0,0.00789029
0.3,11.8,0,0.00709374
0.3,11.9,0,0.00629989
0.3,12,0,0.00550648
0.3,12.1,0,0.00471725
0.3,12.2,0,0.00392772
0.3,12.3,0,0.00314095
0.3,12.4,0,0.00235433
0.3,12.5,0,0.00156918
0.3,12.6,0,0.000784361
0.3,12.7,0,0
0.4,0,0,0
0.4,0.1,0,0.00072201
0.4,0.2,0,0.00144352
0.4,0.3,0,0.00216679
0.4,0.4,0,0.00289051
0.4,0.5,0,0.003615
0.4,0.6,0,0.00434331
0.4,0.7,0,0.00507128
0.4,0.8,0,0.00580256
0.4,0.9,0,0.00653618
0.4,1,0,0.00727045
0.4,1.1,0,0.0080115
0.4,1.2,0,0.00875243
0.4,1.3,0,0.00949765
0.4,1.4,0,0.0102466
0.4,1.5,0,0.0109961
0.4,1.6,0,0.0117539
0.4,1.7,0,0.012512
0.4,1.8,0,0.0132744
0.4,1.9,0,0.0140414
0.4,2,0,0.0148083
0.4,2.1,0,0.0155834
0.4,2.2,0,0.016359
0.4,2.3,0,0.0171378
0.4,2.4,0,0.0179207
0.4,2.5,0,0.0187032
0.4,2.6,0,0.0194906
0.4,2.7,0,0.0202791
0.4,2.8,0,0.0210678
0.4,2.9,0,0.0218589
0.4,3,0,0.0226487
0.4,3.1,0,0.0234367
0.4,3.2,0,0.0242265
0.4,3.3,0,0.0250112
0.4,3.4,0,0.0257946
0.4,3.5,0,0.0265758
0.4,3.6,0,0.0273443
0.4,3.7,0,0.0281149
0.4,3.8,0,0.0288732
0.4,3.9,0,0.0296241
0.4,4,0,0.0303718
0.4,4.1,0,0.0310915
0.4,4.2,0,0.0318136
0.4,4.3,0,0.032514
0.4,4.4,0,0.0331988
0.4,4.5,0,0.0338794
0.4,4.6,0,0.0345135
0.4,4.7,0,0.0351498
0.4,4.8,0,0.0357542
0.4,4.9,0,0.0363461
0.4,5,0,0.0369708
0.4,5.1,0,0.0374422
0.4,5.2,0,0.0379234
0.4,5.3,0,0.0384073
0.4,5.4,0,0.0388271
0.4,5.5,0,0.0392331
0.4,5.6,0,0.0396187
0.4,5.7,0,0.0399323
0.4,5.8,0,0.0402294
0.4,5.9,0,0.0405049
0.4,6,0,0.0407022
0.4,6.1,0,0.0408808
0.4,6.2,0,0.0410375
0.4,6.3,0,0.041112
0.4,6.4,0,0.041166
0.4,6.5,0,0.0411983
0.4,6.6,0,0.041147
0.4,6.7,0,0.0410742
0.4,6.8,0,0.0409808
0.4,6.9,0,0.0408051
0.4,7,0,0.0406074
0.4,7.1,0,0.0403907
0.4,7.2,0,0.0400955
0.4,7.3,0,0.0397786
0.4,7.4,0,0.0394451
0.4,7.5,0,0.0390388
0.4,7.6,0,0.0386121
0.4,7.7,0,0.0381713
0.4,7.8,0,0.0376655
0.4,7.9,0,0.0371699
0.4,8,0,0.0366916
0.4,8.1,0,0.0360206
0.4,8.2,0,0.0354076
0.4,8.3,0,0.0347735
0.4,8.4,0,0.034117
0.4,8.5,0,0.0334506
0.4,8.6,0,0.0327461
0.4,8.7,0,0.0320465
0.4,8.8,0,0.0313072
0.4,8.9,0,0.0305656
0.4,9,0,0.0298074
0.4,9.1,0,0.0290342
0.4,9.2,0,0.0282589
0.4,9.3,0,0.0274633
0.4,9.4,0,0.02667
0.4,9.5,0,0.0258614
0.4,9.6,0,0.02505
0.4,9.7,0,0.0242348
0.4,9.8,0,0.0234129
0.4,9.9,0,0.022592
0.4,10,0,0.0217655
0.4,10.1,0,0.0209394
0.4,10.2,0,0.0201124
0.4,10.3,0,0.0192841
0.4,10.4,0,0.0184578
0.4,10.5,0,0.0176312
0.4,10.6,0,0.016806
0.4,10.7,0,0.0159838
0.4,10.8,0,0.0151613
0.4,10.9,0,0.0143435
0.4,11,0,0.0135262
0.4,11.1,0,0.012712
0.4,11.2,0,0.0119011
0.4,11.3,0,0.0110906
0.4,11.4,0,0.0102862
0.4,11.5,0,0.00948139
0.4,11.6,0,0.00868137
0.4,11.7,0,0.00788293
0.4,11.8,0,0.00708641
0.4,11.9,0,0.00629363
0.4,12,0,0.00550048
0.4,12.1,0,0.00471193
0.4,12.2,0,0.00392342
0.4,12.3,0,0.00313691
0.4,12.4,0,0.00235187
0.4,12.5,0,0.00156689
0.4,12.6,0,0.000783618
0.4,12.7,0,0
0.5,0,0,0
0.5,0.1,0,0.000720764
0.5,0.2,0,0.00144153
0.5,0.3,0,0.00216349
0.5,0.4,0,0.00288665
0.5,0.5,0,0.0036098
0.5,0.6,0,0.00433717
0.5,0.7,0,0.00506453
0.5,0.8,0,0.00579483
0.5,0.9,0,0.00652807
0.5,1,0,0.0072613
0.5,1.1,0,0.00800182
0.5,1.2,0,0.00874234
0.5,1.3,0,0.00948705
0.5,1.4,0,0.0102359
0.5,1.5,0,0.0109848
0.5,1.6,0,0.0117428
0.5,1.7,0,0.0125007
0.5,1.8,0,0.0132633
0.5,1.9,0,0.0140304
0.5,2,0,0.0147976
0.5,2.1,0,0.0155736
0.5,2.2,0,0.0163496
0.5,2.3,0,0.0171294
0.5,2.4,0,0.0179131
0.5,2.5,0,0.0186969
0.5,2.6,0,0.0194864
0.5,2.7,0,0.0202759
0.5,2.8,0,0.0210668
0.5,2.9,0,0.0218592
0.5,3,0,0.0226516
0.5,3.1,0,0.0234431
0.5,3.2,0,0.0242345
0.5,3.3,0,0.0250229
0.5,3.4,0,0.0258083
0.5,3.5,0,0.0265937
0.5,3.6,0,0.0273669
0.5,3.7,0,0.0281401
0.5,3.8,0,0.0289035
0.5,3.9,0,0.029657
0.5,4,0,0.0304105
0.5,4.1,0,0.0311359
0.5,4.2,0,0.0318613
0.5,4.3,0,0.0325678
0.5,4.4,0,0.0332556
0.5,4.5,0,0.0339433
0.5,4.6,0,0.0345833
0.5,4.7,0,0.0352233
0.5,4.8,0,0.0358471
0.5,4.9,0,0.0364546
0.5,5,0,0.0370621
0.5,5.1,0,0.0375457
0.5,5.2,0,0.0380293
0.5,5.3,0,0.038513
0.5,5.4,0,0.0389211
0.5,5.5,0,0.0393293
0.5,5.6,0,0.0397375
0.5,5.7,0,0.0400362
0.5,5.8,0,0.040335
0.5,5.9,0,0.0406337
0.5,6,0,0.0408134
0.5,6.1,0,0.0409931
0.5,6.2,0,0.0411728
0.5,6.3,0,0.0412272
0.5,6.4,0,0.0412815
0.5,6.5,0,0.0413359
0.5,6.6,0,0.0412628
0.5,6.7,0,0.0411896
0.5,6.8,0,0.0411165
0.5,6.9,0,0.0409177
0.5,7,0,0.040719
0.5,7.1,0,0.0405203
0.5,7.2,0,0.0402018
0.5,7.3,0,0.0398833
0.5,7.4,0,0.0395648
0.5,7.5,0,0.0391359
0.5,7.6,0,0.0387071
0.5,7.7,0,0.0382782
0.5,7.8,0,0.0377803
0.5,7.9,0,0.0372824
0.5,8,0,0.0367845
0.5,8.1,0,0.0361441
0.5,8.2,0,0.0355037
0.5,8.3,0,0.0348507
0.5,8.4,0,0.0341908
0.5,8.5,0,0.0335168
0.5,8.6,0,0.0328095
0.5,8.7,0,0.0321022
0.5,8.8,0,0.0313583
0.5,8.9,0,0.0306125
0.5,9,0,0.0298486
0.5,9.1,0,0.0290727
0.5,9.2,0,0.0282911
0.5,9.3,0,0.0274927
0.5,9.4,0,0.0266943
0.5,9.5,0,0.0258819
0.5,9.6,0,0.0250679
0.5,9.7,0,0.0242485
0.5,9.8,0,0.0234248
0.5,9.9,0,0.0226001
0.5,10,0,0.0217715
0.5,10.1,0,0.0209429
0.5,10.2,0,0.0201135
0.5,10.3,0,0.019284
0.5,10.4,0,0.0184555
0.5,10.5,0,0.017628
0.5,10.6,0,0.0168012
0.5,10.7,0,0.0159779
0.5,10.8,0,0.0151547
0.5,10.9,0,0.014336
0.5,11,0,0.0135184
0.5,11.1,0,0.0127037
0.5,11.2,0,0.0118926
0.5,11.3,0,0.0110821
0.5,11.4,0,0.0102776
0.5,11.5,0,0.0094731
0.5,11.6,0,0.00867335
0.5,11.7,0,0.00787518
0.5,11.8,0,0.00707928
0.5,11.9,0,0.00628678
0.5,12,0,0.00549451
0.5,12.1,0,0.00470666
0.5,12.2,0,0.00391881
0.5,12.3,0,0.00313332
0.5,12.4,0,0.00234884
0.5,12.5,0,0.00156505
0.5,12.6,0,0.000782525
0.5,12.7,0,0
0.6,0,0,0
0.6,0.1,0,0.000718049
0.6,0.2,0,0.00143776
0.6,0.3,0,0.00215749
0.6,0.4,0,0.00287946
0.6,0.5,0,0.00360064
0.6,0.6,0,0.00432593
0.6,0.7,0,0.00505241
0.6,0.8,0,0.00578095
0.6,0.9,0,0.00651331
0.6,1,0,0.00724507
0.6,1.1,0,0.00798423
0.6,1.2,0,0.0087242
0.6,1.3,0,0.00946794
0.6,1.4,0,0.0102164
0.6,1.5,0,0.0109646
0.6,1.6,0,0.0117223
0.6,1.7,0,0.0124802
0.6,1.8,0,0.013243
0.6,1.9,0,0.0140103
0.6,2,0,0.0147782
0.6,2.1,0,0.0155554
0.6,2.2,0,0.0163321
0.6,2.3,0,0.0171138
0.6,2.4,0,0.0178986
0.6,2.5,0,0.0186847
0.6,2.6,0,0.0194775
0.6,2.7,0,0.0202688
0.6,2.8,0,0.0210637
0.6,2.9,0,0.0218583
0.6,3,0,0.0226554
0.6,3.1,0,0.0234526
0.6,3.2,0,0.024247
0.6,3.3,0,0.0250419
0.6,3.4,0,0.0258309
0.6,3.5,0,0.0266235
0.6,3.6,0,0.0274052
0.6,3.7,0,0.0281826
0.6,3.8,0,0.0289551
0.6,3.9,0,0.0297135
0.6,4,0,0.0304766
0.6,4.1,0,0.0312129
0.6,4.2,0,0.0319435
0.6,4.3,0,0.0326613
0.6,4.4,0,0.0333549
0.6,4.5,0,0.0340537
0.6,4.6,0,0.0347059
0.6,4.7,0,0.0353517
0.6,4.8,0,0.0359744
0.6,4.9,0,0.0365752
0.6,5,0,0.0372206
0.6,5.1,0,0.0377077
0.6,5.2,0,0.0381956
0.6,5.3,0,0.038697
0.6,5.4,0,0.0391319
0.6,5.5,0,0.0395439
0.6,5.6,0,0.0399445
0.6,5.7,0,0.0402699
0.6,5.8,0,0.0405717
0.6,5.9,0,0.0408586
0.6,6,0,0.0410637
0.6,6.1,0,0.0412453
0.6,6.2,0,0.041409
0.6,6.3,0,0.0414866
0.6,6.4,0,0.0415417
0.6,6.5,0,0.0415763
0.6,6.6,0,0.0415232
0.6,6.7,0,0.0414494
0.6,6.8,0,0.0413534
0.6,6.9,0,0.0411709
0.6,7,0,0.0409704
0.6,7.1,0,0.0407464
0.6,7.2,0,0.04044
0.6,7.3,0,0.0401187
0.6,7.4,0,0.0397736
0.6,7.5,0,0.0393527
0.6,7.6,0,0.0389201
0.6,7.7,0,0.0384645
0.6,7.8,0,0.0379417
0.6,7.9,0,0.0374396
0.6,8,0,0.0369462
0.6,8.1,0,0.0362554
0.6,8.2,0,0.0356322
0.6,8.3,0,0.0349798
0.6,8.4,0,0.0343136
0.6,8.5,0,0.0336293
0.6,8.6,0,0.0329132
0.6,8.7,0,0.032198
0.6,8.8,0,0.0314417
0.6,8.9,0,0.0306911
0.6,9,0,0.0299168
0.6,9.1,0,0.0291354
0.6,9.2,0,0.0283451
0.6,9.3,0,0.0275398
0.6,9.4,0,0.026735
0.6,9.5,0,0.0259142
0.6,9.6,0,0.0250965
0.6,9.7,0,0.0242703
0.6,9.8,0,0.0234431
0.6,9.9,0,0.0226126
0.6,10,0,0.0217801
0.6,10.1,0,0.0209475
0.6,10.2,0,0.020114
0.6,10.3,0,0.0192824
0.6,10.4,0,0.0184504
0.6,10.5,0,0.0176215
0.6,10.6,0,0.0167918
0.6,10.7,0,0.0159673
0.6,10.8,0,0.0151424
0.6,10.9,0,0.0143227
0.6,11,0,0.0135044
0.6,11.1,0,0.012689
0.6,11.2,0,0.0118778
0.6,11.3,0,0.0110668
0.6,11.4,0,0.0102628
0.6,11.5,0,0.00945833
0.6,11.6,0,0.00865942
0.6,11.7,0,0.00786166
0.6,11.8,0,0.00706671
0.6,11.9,0,0.00627502
0.6,12,0,0.00548386
0.6,12.1,0,0.00469757
0.6,12.2,0,0.00391069
0.6,12.3,0,0.00312699
0.6,12.4,0,0.00234353
0.6,12.5,0,0.00156167
0.6,12.6,0,0.000780292
0.6,12.7,0,0
0.7,0,0,0
0.7,0.1,0,0.000716993
0.7,0.2,0,0.00143293
0.7,0.3,0,0.00215266
0.7,0.4,0,0.00287148
0.7,0.5,0,0.00359147
0.7,0.6,0,0.00431588
0.7,0.7,0,0.0050394
0.7,0.8,0,0.00576794
0.7,0.9,0,0.00649795
0.7,1,0,0.00722883
0.7,1.1,0,0.00796744
0.7,1.2,0,0.00870552
0.7,1.3,0,0.00944925
0.7,1.4,0,0.0101967
0.7,1.5,0,0.0109445
0.7,1.6,0,0.0117021
0.7,1.7,0,0.0124597
0.7,1.8,0,0.0132225
0.7,1.9,0,0.0139907
0.7,2,0,0.0147587
0.7,2.1,0,0.0155367
0.7,2.2,0,0.0163154
0.7,2.3,0,0.0170971
0.7,2.4,0,0.0178854
0.7,2.5,0,0.0186726
0.7,2.6,0,0.0194672
0.7,2.7,0,0.0202634
0.7,2.8,0,0.0210583
0.7,2.9,0,0.0218599
0.7,3,0,0.0226592
0.7,3.1,0,0.0234593
0.7,3.2,0,0.0242624
0.7,3.3,0,0.0250574
0.7,3.4,0,0.0258572
0.7,3.5,0,0.0266533
0.7,3.6,0,0.0274393
0.7,3.7,0,0.0282294
0.7,3.8,0,0.0290019
0.7,3.9,0,0.0297748
0.7,4,0,0.0305428
0.7,4.1,0,0.0312843
0.7,4.2,0,0.0320311
0.7,4.3,0,0.0327488
0.7,4.4,0,0.0334594
0.7,4.5,0,0.0341642
0.7,4.6,0,0.0348221
0.7,4.7,0,0.0354857
0.7,4.8,0,0.0361084
0.7,4.9,0,0.0367405
0.7,5,0,0.0373792
0.7,5.1,0,0.0378734
0.7,5.2,0,0.0383782
0.7,5.3,0,0.038881
0.7,5.4,0,0.0393129
0.7,5.5,0,0.0397402
0.7,5.6,0,0.0401515
0.7,5.7,0,0.0404722
0.7,5.8,0,0.0407859
0.7,5.9,0,0.0410835
0.7,6,0,0.0412822
0.7,6.1,0,0.0414714
0.7,6.2,0,0.0416453
0.7,6.3,0,0.041715
0.7,6.4,0,0.0417728
0.7,6.5,0,0.0418167
0.7,6.6,0,0.0417544
0.7,6.7,0,0.0416783
0.7,6.8,0,0.0415903
0.7,6.9,0,0.0413977
0.7,7,0,0.0411899
0.7,7.1,0,0.0409724
0.7,7.2,0,0.0406555
0.7,7.3,0,0.0403226
0.7,7.4,0,0.0399824
0.7,7.5,0,0.0395508
0.7,7.6,0,0.0391032
0.7,7.7,0,0.0386508
0.7,7.8,0,0.0381297
0.7,7.9,0,0.0376113
0.7,8,0,0.0371078
0.7,8.1,0,0.0364292
0.7,8.2,0,0.0357707
0.7,8.3,0,0.0351168
0.7,8.4,0,0.0344336
0.7,8.5,0,0.033746
0.7,8.6,0,0.0330175
0.7,8.7,0,0.0322932
0.7,8.8,0,0.0315326
0.7,8.9,0,0.0307661
0.7,9,0,0.0299907
0.7,9.1,0,0.029195
0.7,9.2,0,0.0284015
0.7,9.3,0,0.0275872
0.7,9.4,0,0.0267748
0.7,9.5,0,0.0259511
0.7,9.6,0,0.0251221
0.7,9.7,0,0.0242954
0.7,9.8,0,0.0234589
0.7,9.9,0,0.0226262
0.7,10,0,0.0217886
0.7,10.1,0,0.0209514
0.7,10.2,0,0.0201164
0.7,10.3,0,0.0192789
0.7,10.4,0,0.0184467
0.7,10.5,0,0.0176134
0.7,10.6,0,0.0167827
0.7,10.7,0,0.0159563
0.7,10.8,0,0.0151297
0.7,10.9,0,0.0143095
0.7,11,0,0.0134897
0.7,11.1,0,0.0126742
0.7,11.2,0,0.0118624
0.7,11.3,0,0.0110514
0.7,11.4,0,0.0102476
0.7,11.5,0,0.00944356
0.7,11.6,0,0.00864481
0.7,11.7,0,0.00784835
0.7,11.8,0,0.00705355
0.7,11.9,0,0.00626355
0.7,12,0,0.00547312
0.7,12.1,0,0.0046879
0.7,12.2,0,0.00390303
0.7,12.3,0,0.00311977
0.7,12.4,0,0.00233912
0.7,12.5,0,0.0015576
0.7,12.6,0,0.000779117
0.7,12.7,0,0
0.8,0,0,0
0.8,0.1,0,0.000713893
0.8,0.2,0,0.00142983
0.8,0.3,0,0.00214396
0.8,0.4,0,0.00286278
0.8,0.5,0,0.00358016
0.8,0.6,0,0.00430213
0.8,0.7,0,0.00502565
0.8,0.8,0,0.00574978
0.8,0.9,0,0.00647979
0.8,1,0,0.0072087
0.8,1.1,0,0.00794572
0.8,1.2,0,0.00868379
0.8,1.3,0,0.00942499
0.8,1.4,0,0.0101724
0.8,1.5,0,0.0109193
0.8,1.6,0,0.0116766
0.8,1.7,0,0.0124342
0.8,1.8,0,0.0131973
0.8,1.9,0,0.0139655
0.8,2,0,0.0147341
0.8,2.1,0,0.0155136
0.8,2.2,0,0.0162923
0.8,2.3,0,0.0170783
0.8,2.4,0,0.0178666
0.8,2.5,0,0.0186565
0.8,2.6,0,0.0194551
0.8,2.7,0,0.0202514
0.8,2.8,0,0.0210558
0.8,2.9,0,0.0218574
0.8,3,0,0.0226621
0.8,3.1,0,0.0234694
0.8,3.2,0,0.0242725
0.8,3.3,0,0.0250832
0.8,3.4,0,0.0258829
0.8,3.5,0,0.0266876
0.8,3.6,0,0.0274841
0.8,3.7,0,0.0282742
0.8,3.8,0,0.0290689
0.8,3.9,0,0.0298418
0.8,4,0,0.0306213
0.8,4.1,0,0.0313764
0.8,4.2,0,0.0321232
0.8,4.3,0,0.0328682
0.8,4.4,0,0.0335788
0.8,4.5,0,0.0342971
0.8,4.6,0,0.0349702
0.8,4.7,0,0.0356338
0.8,4.8,0,0.0362857
0.8,4.9,0,0.0369177
0.8,5,0,0.0375716
0.8,5.1,0,0.0380818
0.8,5.2,0,0.0385866
0.8,5.3,0,0.0391047
0.8,5.4,0,0.0395521
0.8,5.5,0,0.0399795
0.8,5.6,0,0.0404037
0.8,5.7,0,0.040737
0.8,5.8,0,0.0410507
0.8,5.9,0,0.0413578
0.8,6,0,0.0415653
0.8,6.1,0,0.0417545
0.8,6.2,0,0.0419338
0.8,6.3,0,0.0420078
0.8,6.4,0,0.0420656
0.8,6.5,0,0.0421102
0.8,6.6,0,0.0420476
0.8,6.7,0,0.0419715
0.8,6.8,0,0.0418795
0.8,6.9,0,0.0416819
0.8,7,0,0.0414742
0.8,7.1,0,0.0412483
0.8,7.2,0,0.0409222
0.8,7.3,0,0.0405893
0.8,7.4,0,0.0402368
0.8,7.5,0,0.0397926
0.8,7.6,0,0.039345
0.8,7.7,0,0.0388774
0.8,7.8,0,0.0383412
0.8,7.9,0,0.0378228
0.8,8,0,0.037304
0.8,8.1,0,0.0366109
0.8,8.2,0,0.0359488
0.8,8.3,0,0.0352715
0.8,8.4,0,0.0345884
0.8,8.5,0,0.0338786
0.8,8.6,0,0.0331455
0.8,8.7,0,0.032409
0.8,8.8,0,0.0316349
0.8,8.9,0,0.0308665
0.8,9,0,0.0300692
0.8,9.1,0,0.0292735
0.8,9.2,0,0.028463
0.8,9.3,0,0.0276441
0.8,9.4,0,0.0268236
0.8,9.5,0,0.0259892
0.8,9.6,0,0.0251598
0.8,9.7,0,0.0243176
0.8,9.8,0,0.0234811
0.8,9.9,0,0.0226384
0.8,10,0,0.0217976
0.8,10.1,0,0.0209564
0.8,10.2,0,0.0201151
0.8,10.3,0,0.0192775
0.8,10.4,0,0.0184377
0.8,10.5,0,0.0176044
0.8,10.6,0,0.0167697
0.8,10.7,0,0.0159419
0.8,10.8,0,0.0151139
0.8,10.9,0,0.0142917
0.8,11,0,0.013472
0.8,11.1,0,0.0126551
0.8,11.2,0,0.0118433
0.8,11.3,0,0.0110321
0.8,11.4,0,0.0102286
0.8,11.5,0,0.00942475
0.8,11.6,0,0.00862727
0.8,11.7,0,0.00783081
0.8,11.8,0,0.00703835
0.8,11.9,0,0.00624859
0.8,12,0,0.00545992
0.8,12.1,0,0.0046764
0.8,12.2,0,0.00389224
0.8,12.3,0,0.00311242
0.8,12.4,0,0.00233177
0.8,12.5,0,0.00155436
0.8,12.6,0,0.000776486
0.8,12.7,0,0
0.9,0,0,0
0.9,0.1,0,0.000711848
0.9,0.2,0,0.00142278
0.9,0.3,0,0.00213691
0.9,0.4,0,0.00285076
0.9,0.5,0,0.00356671
0.9,0.6,0,0.00428712
0.9,0.7,0,0.00500649
0.9,0.8,0,0.00573062
0.9,0.9,0,0.00645687
0.9,1,0,0.00718468
0.9,1.1,0,0.00792064
0.9,1.2,0,0.008656
0.9,1.3,0,0.0093972
0.9,1.4,0,0.0101427
0.9,1.5,0,0.0108891
0.9,1.6,0,0.0116461
0.9,1.7,0,0.0124032
0.9,1.8,0,0.0131663
0.9,1.9,0,0.0139354
0.9,2,0,0.0147043
0.9,2.1,0,0.0154847
0.9,2.2,0,0.016266
0.9,2.3,0,0.017052
0.9,2.4,0,0.0178449
0.9,2.5,0,0.0186364
0.9,2.6,0,0.0194373
0.9,2.7,0,0.0202406
0.9,2.8,0,0.021045
0.9,2.9,0,0.0218561
0.9,3,0,0.022664
0.9,3.1,0,0.0234755
0.9,3.2,0,0.0242909
0.9,3.3,0,0.0251016
0.9,3.4,0,0.0259167
0.9,3.5,0,0.0267264
0.9,3.6,0,0.0275291
0.9,3.7,0,0.0283372
0.9,3.8,0,0.0291319
0.9,3.9,0,0.0299261
0.9,4,0,0.0307124
0.9,4.1,0,0.0314756
0.9,4.2,0,0.0322453
0.9,4.3,0,0.0329903
0.9,4.4,0,0.0337266
0.9,4.5,0,0.0344527
0.9,4.6,0,0.0351352
0.9,4.7,0,0.0358239
0.9,4.8,0,0.0364758
0.9,4.9,0,0.0371221
0.9,5,0,0.0377977
0.9,5.1,0,0.0383115
0.9,5.2,0,0.0388413
0.9,5.3,0,0.0393683
0.9,5.4,0,0.0398291
0.9,5.5,0,0.040279
0.9,5.6,0,0.0407012
0.9,5.7,0,0.0410476
0.9,5.8,0,0.0413789
0.9,5.9,0,0.0416817
0.9,6,0,0.0419014
0.9,6.1,0,0.0421018
0.9,6.2,0,0.0422744
0.9,6.3,0,0.0423593
0.9,6.4,0,0.0424211
0.9,6.5,0,0.0424569
0.9,6.6,0,0.0424032
0.9,6.7,0,0.0423237
0.9,6.8,0,0.042221
0.9,6.9,0,0.0420303
0.9,7,0,0.0418119
0.9,7.1,0,0.0415738
0.9,7.2,0,0.0412523
0.9,7.3,0,0.0409023
0.9,7.4,0,0.0405368
0.9,7.5,0,0.0400949
0.9,7.6,0,0.0396252
0.9,7.7,0,0.0391443
0.9,7.8,0,0.0385963
0.9,7.9,0,0.0380537
0.9,8,0,0.0375346
0.9,8.1,0,0.0368113
0.9,8.2,0,0.0361455
0.9,8.3,0,0.0354648
0.9,8.4,0,0.0347565
0.9,8.5,0,0.0340431
0.9,8.6,0,0.0332897
0.9,8.7,0,0.0325422
0.9,8.8,0,0.0317601
0.9,8.9,0,0.0309703
0.9,9,0,0.0301711
0.9,9.1,0,0.0293542
0.9,9.2,0,0.0285399
0.9,9.3,0,0.0277071
0.9,9.4,0,0.0268767
0.9,9.5,0,0.0260377
0.9,9.6,0,0.0251925
0.9,9.7,0,0.0243496
0.9,9.8,0,0.0234998
0.9,9.9,0,0.0226542
0.9,10,0,0.0218063
0.9,10.1,0,0.0209585
0.9,10.2,0,0.0201152
0.9,10.3,0,0.0192695
0.9,10.4,0,0.0184294
0.9,10.5,0,0.0175904
0.9,10.6,0,0.0167539
0.9,10.7,0,0.0159241
0.9,10.8,0,0.0150934
0.9,10.9,0,0.0142709
0.9,11,0,0.0134491
0.9,11.1,0,0.012632
0.9,11.2,0,0.01182
0.9,11.3,0,0.0110085
0.9,11.4,0,0.0102057
0.9,11.5,0,0.00940233
0.9,11.6,0,0.00860531
0.9,11.7,0,0.00781084
0.9,11.8,0,0.00701853
0.9,11.9,0,0.00623162
0.9,12,0,0.00544385
0.9,12.1,0,0.00466207
0.9,12.2,0,0.00388083
0.9,12.3,0,0.00310164
0.9,12.4,0,0.00232521
0.9,12.5,0,0.00154833
0.9,12.6,0,0.000774385
0.9,12.7,0,0
1,0,0,0
1,0.1,0,0.000708886
1,0.2,0,0.00141777
1,0.3,0,0.00212842
1,0.4,0,0.00284084
1,0.5,0,0.00355326
1,0.6,0,0.00427107
1,0.7,0,0.00498888
1,0.8,0,0.00571036
1,0.9,0,0.00643551
1,1,0,0.00716066
1,1.1,0,0.00789496
1,1.2,0,0.00862926
1,1.3,0,0.00936889
1,1.4,0,0.0101139
1,1.5,0,0.0108588
1,1.6,0,0.0116157
1,1.7,0,0.0123725
1,1.8,0,0.0131356
1,1.9,0,0.0139051
1,2,0,0.0146745
1,2.1,0,0.0154567
1,2.2,0,0.0162389
1,2.3,0,0.0170273
1,2.4,0,0.0178218
1,2.5,0,0.0186163
1,2.6,0,0.0194219
1,2.7,0,0.0202274
1,2.8,0,0.0210373
1,2.9,0,0.0218516
1,3,0,0.0226659
1,3.1,0,0.0234855
1,3.2,0,0.0243051
1,3.3,0,0.0251249
1,3.4,0,0.0259451
1,3.5,0,0.0267652
1,3.6,0,0.0275796
1,3.7,0,0.028394
1,3.8,0,0.0292017
1,3.9,0,0.0300025
1,4,0,0.0308034
1,4.1,0,0.0315813
1,4.2,0,0.0323592
1,4.3,0,0.0331201
1,4.4,0,0.0338641
1,4.5,0,0.0346082
1,4.6,0,0.0353064
1,4.7,0,0.0360046
1,4.8,0,0.0366878
1,4.9,0,0.0373558
1,5,0,0.0380239
1,5.1,0,0.0385599
1,5.2,0,0.0390959
1,5.3,0,0.0396318
1,5.4,0,0.0400875
1,5.5,0,0.0405431
1,5.6,0,0.0409987
1,5.7,0,0.0413343
1,5.8,0,0.0416699
1,5.9,0,0.0420055
1,6,0,0.0422087
1,6.1,0,0.0424119
1,6.2,0,0.0426151
1,6.3,0,0.0426779
1,6.4,0,0.0427408
1,6.5,0,0.0428036
1,6.6,0,0.0427232
1,6.7,0,0.0426429
1,6.8,0,0.0425625
1,6.9,0,0.0423415
1,7,0,0.0421204
1,7.1,0,0.0418994
1,7.2,0,0.0415452
1,7.3,0,0.041191
1,7.4,0,0.0408368
1,7.5,0,0.0403616
1,7.6,0,0.0398864
1,7.7,0,0.0394111
1,7.8,0,0.0388625
1,7.9,0,0.0383138
1,8,0,0.0377652
1,8.1,0,0.0370641
1,8.2,0,0.0363631
1,8.3,0,0.0356515
1,8.4,0,0.0349341
1,8.5,0,0.034203
1,8.6,0,0.0334397
1,8.7,0,0.0326764
1,8.8,0,0.0318795
1,8.9,0,0.0310808
1,9,0,0.0302667
1,9.1,0,0.0294424
1,9.2,0,0.0286138
1,9.3,0,0.0277725
1,9.4,0,0.0269312
1,9.5,0,0.0260812
1,9.6,0,0.0252302
1,9.7,0,0.0243773
1,9.8,0,0.0235227
1,9.9,0,0.0226684
1,10,0,0.0218151
1,10.1,0,0.0209617
1,10.2,0,0.0201124
1,10.3,0,0.0192638
1,10.4,0,0.0184189
1,10.5,0,0.0175777
1,10.6,0,0.0167378
1,10.7,0,0.0159055
1,10.8,0,0.0150733
1,10.9,0,0.0142489
1,11,0,0.0134265
1,11.1,0,0.0126086
1,11.2,0,0.0117963
1,11.3,0,0.0109849
1,11.4,0,0.0101823
1,11.5,0,0.00937965
1,11.6,0,0.00858372
1,11.7,0,0.00779002
1,11.8,0,0.00699943
1,11.9,0,0.00621351
1,12,0,0.00542789
1,12.1,0,0.00464828
1,12.2,0,0.00386867
1,12.3,0,0.00309234
1,12.4,0,0.00231742
1,12.5,0,0.00154359
1,12.6,0,0.000771795
1,12.7,0,0
1.1,0,0,0
1.1,0.1,0,0.000703255
1.1,0.2,0,0.00141022
1.1,0.3,0,0.00211654
1.1,0.4,0,0.00282653
1.1,0.5,0,0.00353515
1.1,0.6,0,0.00424865
1.1,0.7,0,0.00496471
1.1,0.8,0,0.00568257
1.1,0.9,0,0.00640585
1.1,1,0,0.00712799
1.1,1.1,0,0.00785928
1.1,1.2,0,0.00859239
1.1,1.3,0,0.00932979
1.1,1.4,0,0.0100737
1.1,1.5,0,0.0108171
1.1,1.6,0,0.0115729
1.1,1.7,0,0.0123294
1.1,1.8,0,0.0130924
1.1,1.9,0,0.0138619
1.1,2,0,0.0146319
1.1,2.1,0,0.015416
1.1,2.2,0,0.0161992
1.1,2.3,0,0.0169904
1.1,2.4,0,0.0177868
1.1,2.5,0,0.0185848
1.1,2.6,0,0.0193962
1.1,2.7,0,0.0202045
1.1,2.8,0,0.0210213
1.1,2.9,0,0.0218397
1.1,3,0,0.0226614
1.1,3.1,0,0.0234922
1.1,3.2,0,0.0243166
1.1,3.3,0,0.0251484
1.1,3.4,0,0.0259756
1.1,3.5,0,0.0268077
1.1,3.6,0,0.0276394
1.1,3.7,0,0.0284609
1.1,3.8,0,0.0292858
1.1,3.9,0,0.0300968
1.1,4,0,0.0309141
1.1,4.1,0,0.031715
1.1,4.2,0,0.032502
1.1,4.3,0,0.0332847
1.1,4.4,0,0.0340413
1.1,4.5,0,0.0348047
1.1,4.6,0,0.0355296
1.1,4.7,0,0.0362377
1.1,4.8,0,0.0369303
1.1,4.9,0,0.0375979
1.1,5,0,0.0383156
1.1,5.1,0,0.0388672
1.1,5.2,0,0.0394116
1.1,5.3,0,0.0399743
1.1,5.4,0,0.0404717
1.1,5.5,0,0.040935
1.1,5.6,0,0.0413871
1.1,5.7,0,0.0417634
1.1,5.8,0,0.0421049
1.1,5.9,0,0.0424298
1.1,6,0,0.0426703
1.1,6.1,0,0.0428773
1.1,6.2,0,0.0430622
1.1,6.3,0,0.0431575
1.1,6.4,0,0.0432217
1.1,6.5,0,0.0432589
1.1,6.6,0,0.0432046
1.1,6.7,0,0.0431231
1.1,6.8,0,0.0430107
1.1,6.9,0,0.0428086
1.1,7,0,0.0425839
1.1,7.1,0,0.0423258
1.1,7.2,0,0.0419831
1.1,7.3,0,0.0416231
1.1,7.4,0,0.0412285
1.1,7.5,0,0.0407574
1.1,7.6,0,0.0402747
1.1,7.7,0,0.0397578
1.1,7.8,0,0.0391749
1.1,7.9,0,0.038618
1.1,8,0,0.0380627
1.1,8.1,0,0.0372993
1.1,8.2,0,0.0366086
1.1,8.3,0,0.0358884
1.1,8.4,0,0.0351589
1.1,8.5,0,0.0344049
1.1,8.6,0,0.0336278
1.1,8.7,0,0.032844
1.1,8.8,0,0.0320273
1.1,8.9,0,0.0312168
1.1,9,0,0.0303834
1.1,9.1,0,0.0295493
1.1,9.2,0,0.028702
1.1,9.3,0,0.0278501
1.1,9.4,0,0.026994
1.1,9.5,0,0.0261307
1.1,9.6,0,0.0252718
1.1,9.7,0,0.0244063
1.1,9.8,0,0.0235459
1.1,9.9,0,0.02268
1.1,10,0,0.0218207
1.1,10.1,0,0.0209593
1.1,10.2,0,0.0201036
1.1,10.3,0,0.0192511
1.1,10.4,0,0.0184004
1.1,10.5,0,0.0175569
1.1,10.6,0,0.0167119
1.1,10.7,0,0.0158779
1.1,10.8,0,0.0150429
1.1,10.9,0,0.0142172
1.1,11,0,0.0133939
1.1,11.1,0,0.0125752
1.1,11.2,0,0.0117632
1.1,11.3,0,0.0109514