/*--------------------------------*- C++ -*----------------------------------*\
| =========                 |                                                 |
| \\      /  F ield         | OpenFOAM: The Open Source CFD Toolbox           |
|  \\    /   O peration     | Version:  v1806                                 |
|   \\  /    A nd           | Web:      www.OpenFOAM.com                      |
|    \\/     M anipulation  |                                                 |
\*---------------------------------------------------------------------------*/
FoamFile
{
    version     2.0;
    format      ascii;
    class       volScalarField;
    location    "470";
    object      p;
}
// * * * * * * * * * * * * * * * * * * * * * * * * * * * * * * * * * * * * * //

dimensions      [0 2 -2 0 0 0 0];


internalField   nonuniform List<scalar> 
2400
(
4.36091e-05
4.46552e-05
4.64405e-05
4.92126e-05
5.28012e-05
5.74007e-05
6.26664e-05
6.87317e-05
7.50979e-05
8.17515e-05
8.79333e-05
9.32984e-05
9.67448e-05
9.74883e-05
9.41615e-05
8.56765e-05
7.09625e-05
4.96889e-05
2.23417e-05
-1.0875e-05
0.000130527
0.000133633
0.000138843
0.000147073
0.000157657
0.000171367
0.000186973
0.00020511
0.000224057
0.000244058
0.000262591
0.000278918
0.000289491
0.000292193
0.000282735
0.000258116
0.000214933
0.000151912
6.9431e-05
-2.86304e-05
0.000216624
0.0002218
0.000230384
0.000244056
0.000261585
0.000284442
0.000310377
0.000340752
0.00037241
0.000406179
0.000437456
0.000465543
0.000484014
0.000489852
0.000475323
0.000435699
0.000364655
0.000259755
0.000121329
-4.35864e-05
0.000301347
0.000308643
0.000320557
0.000339715
0.000364171
0.000396332
0.000432655
0.000475637
0.000520273
0.000568601
0.0006133
0.000654557
0.000682161
0.00069313
0.000675096
0.000622191
0.000523965
0.000376751
0.000180369
-5.63018e-05
0.000384161
0.000393635
0.000408821
0.000433529
0.000464887
0.000506563
0.000553341
0.000609439
0.000667389
0.000731384
0.000790387
0.000846841
0.000885226
0.00090428
0.000884854
0.000821416
0.000696944
0.000507038
0.00024933
-6.57213e-05
0.000464541
0.000476237
0.00049463
0.000524954
0.000563183
0.000614613
0.000671915
0.000741749
0.000813407
0.000894477
0.000968848
0.00104319
0.00109438
0.00112565
0.0011075
0.00103775
0.000888217
0.000655675
0.000332144
-6.9995e-05
0.000541972
0.000555894
0.00057743
0.000613428
0.000658501
0.000719921
0.000787825
0.00087208
0.000957895
0.0010577
0.00114866
0.00124425
0.00131063
0.00135962
0.00134593
0.00127617
0.00110293
0.000829065
0.000433761
-6.68296e-05
0.000615951
0.000632034
0.000656671
0.000698371
0.000750281
0.000821872
0.000900479
0.000999829
0.00110032
0.00122067
0.00132961
0.00145038
0.0015347
0.00160845
0.00160291
0.00154234
0.00134676
0.00103565
0.000560154
-5.30509e-05
0.000685996
0.000704074
0.000731805
0.00077918
0.000837958
0.000919784
0.00100924
0.00112424
0.00124004
0.00138272
0.00151127
0.00166151
0.001767
0.00187403
0.00188106
0.00184255
0.00162593
0.00128688
0.000718594
-2.36674e-05
0.000751645
0.000771417
0.000802299
0.00085523
0.000920967
0.0010129
0.00111345
0.0012444
0.00137631
0.00154284
0.001693
0.00187699
0.00200767
0.00215755
0.0021829
0.00218339
0.00194731
0.00159811
0.000918102
3.02435e-05
0.000812456
0.000833467
0.000867632
0.000925881
0.000998747
0.00110039
0.0012124
0.0013592
0.00150829
0.00169962
0.00187394
0.00209541
0.00225652
0.00245905
0.00251093
0.00257086
0.00231889
0.00198843
0.00116901
0.00012683
0.000868008
0.00088964
0.00092731
0.000990488
0.00107074
0.00118137
0.00130535
0.00146736
0.00163502
0.00185125
0.00205301
0.00231449
0.00251302
0.00277703
0.00286759
0.00300907
0.00275079
0.00247948
0.00148363
0.00030033
0.000917897
0.000939391
0.000980863
0.00104841
0.00113638
0.00125491
0.00139154
0.00156746
0.00175541
0.0019955
0.0022288
0.00253099
0.0027761
0.00310798
0.00325508
0.0034989
0.00325608
0.00309338
0.00188141
0.000605319
0.000961724
0.000982236
0.00102785
0.00109905
0.00119508
0.00132006
0.00147014
0.00165797
0.00186826
0.00212979
0.00239959
0.00274075
0.00304405
0.00344621
0.00367505
0.00403711
0.00385054
0.00384811
0.00239756
0.00112553
0.000999083
0.00101779
0.00106787
0.00114185
0.00124625
0.00137593
0.00154026
0.00173737
0.00197215
0.00225132
0.00256318
0.00293888
0.00331436
0.003784
0.00412819
0.0046153
0.00455174
0.00475091
0.00308385
0.00197876
0.00102955
0.0010458
0.00110054
0.00117636
0.00128921
0.00142173
0.00160093
0.00180419
0.0020654
0.00235722
0.00271656
0.00311981
0.00358318
0.00411241
0.00461423
0.00522143
0.00538177
0.00579493
0.00401671
0.00321661
0.00105266
0.00106614
0.00112548
0.0012022
0.00132318
0.00145685
0.00165095
0.00185724
0.0021461
0.00244456
0.00285651
0.00327638
0.00384377
0.00442031
0.00513066
0.00584313
0.00637929
0.00696224
0.00539757
0.00483883
0.00106791
0.00107882
0.00114237
0.00121913
0.00134739
0.00148088
0.00168891
0.00189561
0.00221148
0.00251122
0.00297796
0.00340208
0.00408857
0.00468249
0.00566788
0.00646115
0.00758832
0.0082584
0.00755349
0.00712641
0.00107489
0.0010839
0.00115094
0.00122698
0.00136127
0.00149368
0.0017138
0.00191879
0.00225908
0.00255596
0.00307529
0.00349476
0.00430064
0.00489124
0.00618728
0.00700621
0.00898205
0.00975216
0.0104233
0.0101408
0.0010724
0.00108227
0.00115014
0.00122582
0.00136264
0.00149607
0.00172216
0.00192938
0.00228166
0.00258251
0.00312874
0.00355786
0.0044457
0.00504763
0.00661379
0.00743469
0.0105559
0.0111582
0.016156
0.00106432
-3.6195e-05
-4.3563e-05
-4.94153e-05
-5.4207e-05
-5.88174e-05
-6.3495e-05
-6.81387e-05
-7.26171e-05
-7.6835e-05
-8.07305e-05
-9.08122e-05
-0.000106867
-0.000122239
-0.000137243
-0.000152137
-0.000166958
-0.000181626
-0.00019607
-0.000210265
-0.000224217
-0.000149544
-0.000177832
-0.000205031
-0.000231337
-0.000257233
-0.000282851
-0.000308091
-0.000332827
-0.000356969
-0.00038046
-0.000210679
-0.000251814
-0.000290987
-0.000328684
-0.000365822
-0.000402644
-0.000438978
-0.000474618
-0.000509436
-0.00054336
-0.000273388
-0.000328692
-0.000381242
-0.000431781
-0.000481613
-0.000531058
-0.000579857
-0.000627705
-0.000674411
-0.000719865
-0.000337952
-0.000409381
-0.000477263
-0.000542538
-0.000606895
-0.000670743
-0.000733727
-0.000795438
-0.000855618
-0.000914114
-0.000404656
-0.000494866
-0.00058072
-0.00066332
-0.000744743
-0.00082548
-0.000905059
-0.000982945
-0.00105879
-0.00113238
-0.000473382
-0.000585948
-0.000693478
-0.00079708
-0.000899147
-0.00100022
-0.0010997
-0.00119689
-0.00129133
-0.00138273
-0.000543432
-0.00068331
-0.000817886
-0.000947843
-0.00107565
-0.00120187
-0.00132577
-0.00144651
-0.00156347
-0.00167627
-0.000613744
-0.000788382
-0.000958028
-0.0011221
-0.00128284
-0.00144084
-0.00159533
-0.00174527
-0.00188991
-0.00202872
-0.000683936
-0.000906034
-0.001123
-0.001332
-0.00153531
-0.00173396
-0.00192718
-0.00211373
-0.0022926
-0.00246314
-0.000756878
-0.00104935
-0.00133229
-0.00160042
-0.00185848
-0.00210906
-0.00235141
-0.00258378
-0.00280481
-0.00301375
-0.000845363
-0.00124825
-0.00162406
-0.00196826
-0.00229515
-0.00261144
-0.00291585
-0.00320521
-0.0034775
-0.003732
-0.000982387
-0.0015627
-0.00206813
-0.00250564
-0.00291479
-0.00331133
-0.00369215
-0.00405088
-0.00438422
-0.00469156
-0.00122197
-0.00208331
-0.00277269
-0.0033277
-0.00383553
-0.00432758
-0.00479749
-0.00523424
-0.00563371
-0.00599664
-0.0016734
-0.00293499
-0.00386769
-0.0045778
-0.00522268
-0.00584903
-0.00644073
-0.00697813
-0.00745511
-0.00787347
-0.00279621
-0.00453639
-0.00563205
-0.00639549
-0.00711156
-0.00783924
-0.00853657
-0.00916648
-0.00972016
-0.0102016
-0.00563191
-0.00841815
-0.00992234
-0.010769
-0.0115077
-0.0122566
-0.0129522
-0.0135407
-0.0140119
-0.0143781
-0.00620379
-0.00942698
-0.0112016
-0.0125051
-0.0138167
-0.0151031
-0.0162333
-0.0171595
-0.01789
-0.0184592
-0.0258308
-0.0266814
-0.0241536
-0.0225531
-0.0221025
-0.0221152
-0.0222383
-0.0224118
-0.0226431
-0.0228486
-9.2101e-05
-0.000111817
-0.000126465
-0.000134335
-0.000135595
-0.000131426
-0.000123317
-0.000112728
-0.000100765
-8.83218e-05
-7.59727e-05
-6.42293e-05
-5.32996e-05
-4.3401e-05
-3.45303e-05
-2.66981e-05
-1.96405e-05
-1.34129e-05
-7.61595e-06
-2.39753e-06
-0.000270573
-0.000332456
-0.000375953
-0.000399397
-0.000403388
-0.000391239
-0.000367355
-0.000336046
-0.000300614
-0.000263681
-0.000226994
-0.00019205
-0.000159548
-0.000130211
-0.000103729
-8.03453e-05
-5.93279e-05
-4.07985e-05
-2.35882e-05
-8.02854e-06
-0.000456973
-0.000561388
-0.000634332
-0.000672948
-0.000678535
-0.00065691
-0.000615709
-0.000562271
-0.000502171
-0.000439788
-0.000378061
-0.000319474
-0.000265169
-0.000216178
-0.000172059
-0.000133201
-9.8373e-05
-6.7736e-05
-3.92665e-05
-1.3476e-05
-0.000654264
-0.000804139
-0.000907478
-0.000960421
-0.000965501
-0.000931791
-0.000870697
-0.000792845
-0.000706164
-0.000616832
-0.00052898
-0.000446005
-0.000369403
-0.000300534
-0.000238753
-0.000184551
-0.000136125
-9.36761e-05
-5.42578e-05
-1.86592e-05
-0.000868192
-0.00106689
-0.00120131
-0.00126682
-0.00126808
-0.00121849
-0.00113391
-0.00102856
-0.000912761
-0.000794527
-0.000679144
-0.000570861
-0.00047141
-0.000382465
-0.000303071
-0.000233756
-0.000172077
-0.000118249
-6.83903e-05
-2.35593e-05
-0.00110473
-0.00135666
-0.00152262
-0.00159784
-0.00159054
-0.00151989
-0.0014071
-0.00127021
-0.00112207
-0.000972495
-0.000827872
-0.000693232
-0.000570448
-0.000461112
-0.000364195
-0.000280103
-0.000205661
-0.000141042
-8.14269e-05
-2.80706e-05
-0.00137165
-0.00168216
-0.00187949
-0.00195995
-0.00193745
-0.00183894
-0.00169188
-0.00151841
-0.00133394
-0.00115011
-0.000974271
-0.000812003
-0.000665198
-0.000535421
-0.000421222
-0.00032281
-0.000236243
-0.000161586
-9.30803e-05
-3.20836e-05
-0.00167904
-0.0020543
-0.00228156
-0.00236034
-0.00231362
-0.0021785
-0.00198961
-0.00177339
-0.00154787
-0.00132641
-0.00111716
-0.000926067
-0.000754495
-0.000604245
-0.000473132
-0.000361015
-0.000263131
-0.00017938
-0.000103039
-3.5499e-05
-0.00204043
-0.00248692
-0.00274029
-0.00280704
-0.00272403
-0.00254126
-0.00230129
-0.00203497
-0.00176292
-0.00150003
-0.00125493
-0.00103356
-0.000836865
-0.000666305
-0.000518795
-0.000393774
-0.000285572
-0.000193885
-0.000110967
-3.82213e-05
-0.00247436
-0.00299779
-0.00326928
-0.00330887
-0.00317377
-0.0029296
-0.00262735
-0.00230233
-0.00197757
-0.00166912
-0.00138579
-0.00113274
-0.000910654
-0.000720142
-0.000556959
-0.000420064
-0.00030275
-0.000204526
-0.000116497
-4.01636e-05
-0.00300666
-0.00360971
-0.00388455
-0.00387546
-0.00366795
-0.00334547
-0.0029675
-0.00257388
-0.00218962
-0.00183141
-0.00150694
-0.00122143
-0.000974008
-0.000764131
-0.000586255
-0.000438778
-0.000313792
-0.000210688
-0.000119226
-4.12566e-05
-0.00367364
-0.00435177
-0.00460456
-0.00451697
-0.00421139
-0.00378998
-0.00332051
-0.00284698
-0.0023959
-0.00198313
-0.00161575
-0.00129726
-0.0010248
-0.000796468
-0.000605213
-0.000448731
-0.000317771
-0.0002117
-0.000118718
-4.14507e-05
-0.00452647
-0.00526051
-0.00545022
-0.00524388
-0.00480776
-0.00426282
-0.00368385
-0.00311776
-0.0025919
-0.00212058
-0.00170887
-0.0013573
-0.00106062
-0.000815176
-0.000612289
-0.000448664
-0.000313728
-0.000206818
-0.000114507
-4.06734e-05
-0.00563577
-0.00638016
-0.00644484
-0.00606701
-0.00545899
-0.00476027
-0.00405244
-0.00338121
-0.00277246
-0.00223933
-0.00178247
-0.00139829
-0.0010789
-0.000818231
-0.000605975
-0.000437318
-0.000300765
-0.000195194
-0.000106127
-3.86801e-05
-0.00710063
-0.00776406
-0.00761573
-0.00699946
-0.00616766
-0.00527556
-0.00441417
-0.00362498
-0.00292949
-0.00233339
-0.00183187
-0.00141669
-0.0010771
-0.000803784
-0.000585066
-0.000413677
-0.000278307
-0.000175985
-9.32429e-05
-3.47699e-05
-0.00908226
-0.00947802
-0.00898749
-0.00804866
-0.0069385
-0.00581351
-0.00476508
-0.00384322
-0.00305631
-0.00239705
-0.00185285
-0.00140981
-0.00105372
-0.000771076
-0.000549349
-0.000377598
-0.000246572
-0.000148775
-7.59714e-05
-2.75458e-05
-0.011619
-0.011524
-0.010543
-0.0091507
-0.00769387
-0.0063056
-0.00506984
-0.00401732
-0.00314158
-0.00242393
-0.00184254
-0.00137698
-0.00100931
-0.000721438
-0.000500594
-0.000330785
-0.000207353
-0.000114189
-5.53942e-05
-1.50727e-05
-0.0152245
-0.0139965
-0.0123624
-0.0103646
-0.00843671
-0.00673706
-0.00530861
-0.00413431
-0.00318092
-0.00241444
-0.00180427
-0.00132367
-0.000950276
-0.000661483
-0.000444832
-0.000278525
-0.000165016
-7.49e-05
-3.39698e-05
4.40228e-06
-0.0195725
-0.0163015
-0.0138293
-0.0111934
-0.00894754
-0.00702016
-0.00545044
-0.00418675
-0.00317872
-0.00238101
-0.00175441
-0.00126672
-0.00089197
-0.00060466
-0.000392936
-0.000230092
-0.000126252
-3.66486e-05
-1.52341e-05
3.12059e-05
-0.0214187
-0.018236
-0.0151881
-0.0117938
-0.00930362
-0.00718208
-0.00552121
-0.00419976
-0.00316172
-0.00234799
-0.0017138
-0.00122342
-0.000848578
-0.000562422
-0.000354006
-0.000192895
-9.6755e-05
-5.23104e-06
-3.22224e-06
6.41723e-05
-0.0244953
-0.017889
-0.0151876
-0.0116977
-0.00932338
-0.00715068
-0.00550803
-0.00417587
-0.00313826
-0.00232396
-0.0016905
-0.0012008
-0.000827096
-0.000540318
-0.000335053
-0.000170056
-8.37962e-05
2.10792e-05
-5.10994e-06
0.00010771
-0.0236063
-0.0179294
-0.0152315
-0.011696
-0.00933688
-0.00714637
-0.0055066
-0.00416989
-0.00313201
-0.0023172
-0.00168383
-0.00119418
-0.000820606
-0.000533475
-0.000328824
-0.000162745
-7.90123e-05
2.90376e-05
-4.8932e-06
0.000120483
-0.023208
-0.0179552
-0.0152708
-0.01171
-0.00934998
-0.00714808
-0.00550733
-0.00416709
-0.0031286
-0.0023133
-0.0016799
-0.00119016
-0.000816446
-0.000528893
-0.000324271
-0.00015755
-7.49283e-05
3.4247e-05
-3.49313e-06
0.00012786
-0.0229293
-0.0179594
-0.0152841
-0.0117162
-0.00935735
-0.00714874
-0.00550722
-0.00416493
-0.00312622
-0.00231079
-0.0016775
-0.00118768
-0.000813771
-0.000525683
-0.000320917
-0.000153468
-7.16496e-05
3.8394e-05
-2.17311e-06
0.000133008
-0.0227393
-0.0179463
-0.0152857
-0.0117166
-0.00936031
-0.00714812
-0.00550641
-0.00416324
-0.0031247
-0.00230951
-0.00167644
-0.0011866
-0.000812432
-0.000523727
-0.00031869
-0.000150423
-6.92125e-05
4.1583e-05
-1.16118e-06
0.000136228
-0.0226711
-0.0179404
-0.0152846
-0.0117179
-0.00936055
-0.00714724
-0.00550545
-0.00416232
-0.00312421
-0.0023095
-0.00167673
-0.00118689
-0.000812405
-0.00052304
-0.000317586
-0.000148506
-6.76131e-05
4.36324e-05
-3.88787e-07
0.000137317
-0.0227388
-0.017949
-0.0152858
-0.0117179
-0.0093583
-0.00714622
-0.00550439
-0.00416216
-0.00312468
-0.00231069
-0.00167827
-0.00118846
-0.000813606
-0.000523566
-0.000317573
-0.000147719
-6.68632e-05
4.45097e-05
1.26478e-07
0.000136264
-0.0229226
-0.0179589
-0.0152831
-0.0117166
-0.00935276
-0.00714443
-0.00550288
-0.0041625
-0.00312591
-0.00231289
-0.00168088
-0.00119115
-0.000815909
-0.000525193
-0.000318603
-0.00014799
-6.69967e-05
4.43133e-05
2.75215e-07
0.000133204
-0.0232282
-0.0179665
-0.0152657
-0.0117103
-0.00934243
-0.00714165
-0.00550053
-0.00416324
-0.0031278
-0.00231602
-0.00168451
-0.00119489
-0.000819272
-0.000527901
-0.000320662
-0.000149366
-6.79881e-05
4.29185e-05
2.07701e-07
0.000127766
-0.0236968
-0.0179854
-0.0152332
-0.0117049
-0.0093262
-0.00714052
-0.00549803
-0.00416548
-0.00313113
-0.00232077
-0.00168974
-0.0012002
-0.000824097
-0.000532183
-0.000323927
-0.00015253
-6.95902e-05
3.90967e-05
1.07412e-06
0.000117648
-0.0235086
-0.0181329
-0.0151485
-0.0117026
-0.00928715
-0.00714244
-0.00549427
-0.00417241
-0.00313998
-0.00233217
-0.00170193
-0.0012124
-0.000835237
-0.000542686
-0.000331817
-0.000161667
-7.33429e-05
2.74736e-05
4.45506e-06
9.20173e-05
-0.0218482
-0.0174802
-0.0147014
-0.0115274
-0.00914359
-0.00708223
-0.00545867
-0.00416193
-0.0031418
-0.00234208
-0.00171608
-0.00122837
-0.000851532
-0.000558442
-0.000346097
-0.000175796
-8.39204e-05
1.26397e-05
1.31212e-06
6.73284e-05
-0.0198266
-0.0164937
-0.013941
-0.0111517
-0.00888801
-0.00694849
-0.00538396
-0.00412803
-0.00313126
-0.00234561
-0.00172775
-0.00124427
-0.000869538
-0.000577054
-0.000364139
-0.000194064
-9.87377e-05
-5.68742e-06
-5.23999e-06
4.54634e-05
-0.0170529
-0.0149175
-0.0128636
-0.010557
-0.00850351
-0.00672337
-0.0052524
-0.00405746
-0.00309807
-0.00233522
-0.00173135
-0.00125598
-0.000886064
-0.000596237
-0.000383772
-0.000215134
-0.000115912
-2.66786e-05
-1.3404e-05
2.58779e-05
-0.0143877
-0.0131923
-0.0116328
-0.00977879
-0.0080012
-0.00640944
-0.00505902
-0.00394294
-0.00303431
-0.00230381
-0.00172081
-0.0012585
-0.000896919
-0.000612458
-0.00040203
-0.000236198
-0.000133451
-4.77994e-05
-2.23445e-05
9.76261e-06
-0.0120468
-0.0115173
-0.0103835
-0.00891894
-0.00742256
-0.00602788
-0.00481123
-0.00378577
-0.0029382
-0.00224825
-0.00169253
-0.00124833
-0.00089879
-0.000622671
-0.000416239
-0.000254664
-0.000149463
-6.6975e-05
-3.11997e-05
-2.37816e-06
-0.0100777
-0.00999736
-0.0092059
-0.00805761
-0.0068067
-0.00560544
-0.00452377
-0.00359328
-0.00281256
-0.00216898
-0.00164562
-0.00122387
-0.000889776
-0.000624823
-0.000424468
-0.000268571
-0.000162452
-8.28159e-05
-3.91668e-05
-1.07377e-05
-0.00844757
-0.00865086
-0.00812548
-0.00723044
-0.00619535
-0.00516391
-0.00421058
-0.00337449
-0.0026626
-0.00206869
-0.00158114
-0.00118521
-0.000869352
-0.000617968
-0.000425696
-0.000276755
-0.00017148
-9.45974e-05
-4.56641e-05
-1.59343e-05
-0.00709391
-0.00746537
-0.0071418
-0.0064491
-0.00559563
-0.00471363
-0.00388195
-0.00313699
-0.00249353
-0.00195074
-0.00150113
-0.00113338
-0.000837947
-0.00060205
-0.000419677
-0.000278793
-0.000176134
-0.000102158
-5.03694e-05
-1.87387e-05
-0.00596088
-0.00641984
-0.00624591
-0.0057149
-0.00501495
-0.00426703
-0.00354454
-0.002886
-0.00230955
-0.0018182
-0.00140774
-0.0010698
-0.000796473
-0.000577558
-0.000406669
-0.000274795
-0.000176393
-0.000105705
-5.31662e-05
-1.98695e-05
-0.00500425
-0.00549472
-0.00542793
-0.00502582
-0.00445539
-0.00382505
-0.00320225
-0.00262531
-0.00211387
-0.00167363
-0.00130294
-0.000995902
-0.000745994
-0.000545231
-0.000387187
-0.000265166
-0.000172464
-0.000105628
-5.40773e-05
-1.98816e-05
-0.00418866
-0.00467273
-0.00467874
-0.00437855
-0.00391697
-0.00338973
-0.00285762
-0.00235768
-0.00190892
-0.0015191
-0.00118843
-0.000913035
-0.000687565
-0.000505892
-0.000361849
-0.000250449
-0.000164674
-0.000102368
-5.32109e-05
-1.91445e-05
-0.00348549
-0.00393825
-0.00398986
-0.0037693
-0.00339902
-0.00296244
-0.00251326
-0.00208513
-0.00169662
-0.00135633
-0.0010657
-0.000822421
-0.000622186
-0.000460369
-0.000331297
-0.000231225
-0.000153408
-9.63571e-05
-5.07236e-05
-1.78785e-05
-0.00287136
-0.00327714
-0.0033533
-0.00319411
-0.00290045
-0.00254369
-0.00217004
-0.00180923
-0.00147861
-0.00118682
-0.000936066
-0.000725195
-0.000550807
-0.000409471
-0.000296175
-0.000208073
-0.000139067
-8.79915e-05
-4.67963e-05
-1.62079e-05
-0.00232723
-0.00267667
-0.00276151
-0.00264894
-0.00241976
-0.0021335
-0.00182889
-0.00153133
-0.00125629
-0.00101193
-0.000800747
-0.000622421
-0.000474331
-0.000353982
-0.000257116
-0.000181559
-0.000122065
-7.76362e-05
-4.16221e-05
-1.42104e-05
-0.00183755
-0.00212552
-0.00220737
-0.00212971
-0.00195513
-0.00173159
-0.00149043
-0.0012525
-0.00103089
-0.000832846
-0.000660857
-0.000515102
-0.000393626
-0.000294662
-0.000214746
-0.000152231
-0.000102817
-6.56311e-05
-3.54007e-05
-1.19514e-05
-0.00138962
-0.00161369
-0.00168417
-0.00163238
-0.00150452
-0.00133735
-0.00115492
-0.000973454
-0.000803379
-0.000650606
-0.000517389
-0.00040415
-0.000309494
-0.000232221
-0.00016966
-0.000120604
-8.17199e-05
-5.22819e-05
-2.83159e-05
-9.49117e-06
-0.000972997
-0.00113248
-0.00118593
-0.0011532
-0.00106596
-0.000950071
-0.000822481
-0.000694719
-0.000574519
-0.000466067
-0.000371189
-0.000290354
-0.000222632
-0.000167274
-0.000122372
-8.7114e-05
-5.91093e-05
-3.78281e-05
-2.04873e-05
-6.83023e-06
-0.000578313
-0.000674068
-0.000707238
-0.000688858
-0.000637632
-0.000569051
-0.000493208
-0.000416887
-0.000344977
-0.000279997
-0.000223052
-0.000174483
-0.000133746
-0.000100454
-7.34288e-05
-5.22218e-05
-3.53559e-05
-2.25397e-05
-1.20615e-05
-3.89638e-06
-0.000197602
-0.00022805
-0.000239036
-0.00023242
-0.000214696
-0.000191246
-0.000165537
-0.000139923
-0.000115138
-9.327e-05
-7.41576e-05
-5.78784e-05
-4.42387e-05
-3.31223e-05
-2.41097e-05
-1.70621e-05
-1.14599e-05
-7.22278e-06
-3.72802e-06
-1.00356e-06
-0.0283683
-0.0299572
-0.0289269
-0.0286379
-0.0287866
-0.028802
-0.0285842
-0.0282157
-0.0277999
-0.027303
-0.0171368
-0.0209995
-0.0224837
-0.0233222
-0.0240415
-0.0245446
-0.0247526
-0.0247084
-0.0244797
-0.0241145
-0.0115039
-0.0153261
-0.0172342
-0.0182726
-0.019133
-0.0198911
-0.0204486
-0.0207684
-0.0208688
-0.0207906
-0.0077551
-0.0108278
-0.0124864
-0.013479
-0.014352
-0.015179
-0.0158712
-0.0163775
-0.0167032
-0.0168763
-0.0053348
-0.00772077
-0.00910491
-0.0100127
-0.0108374
-0.0116327
-0.0123329
-0.0128973
-0.013328
-0.013641
-0.00381329
-0.0056646
-0.00681826
-0.00762156
-0.00835755
-0.00907052
-0.00971574
-0.0102636
-0.0107138
-0.0110762
-0.00284152
-0.00426971
-0.00522296
-0.00591945
-0.00656022
-0.00718229
-0.00775585
-0.00825907
-0.00868999
-0.00905469
-0.00220492
-0.00329935
-0.00408051
-0.00467825
-0.0052305
-0.00576651
-0.00626687
-0.00671566
-0.00711026
-0.00745412
-0.00177539
-0.0026099
-0.00324512
-0.00375347
-0.0042255
-0.00468286
-0.00511333
-0.00550571
-0.00585737
-0.00617
-0.00147475
-0.0021099
-0.00262271
-0.00305066
-0.00345054
-0.00383734
-0.00420359
-0.00454162
-0.0048491
-0.00512663
-0.00125308
-0.00173715
-0.00214869
-0.00250525
-0.00284085
-0.00316521
-0.00347377
-0.00376138
-0.00402612
-0.00426797
-0.00107787
-0.00144822
-0.00177698
-0.00207109
-0.00235
-0.00261959
-0.00287706
-0.00311898
-0.00334377
-0.00355114
-0.000928983
-0.00121372
-0.0014752
-0.00171524
-0.0019445
-0.00216633
-0.00237891
-0.00257994
-0.00276817
-0.00294318
-0.000794574
-0.00101421
-0.00122085
-0.00141429
-0.00160023
-0.00178044
-0.00195367
-0.00211835
-0.00227349
-0.00241866
-0.000667874
-0.000836918
-0.000998376
-0.00115161
-0.00129973
-0.00144359
-0.00158227
-0.00171465
-0.00183996
-0.00195782
-0.000545081
-0.000673534
-0.000797159
-0.00091552
-0.00103044
-0.00114231
-0.00125042
-0.00135395
-0.00145233
-0.00154522
-0.00042406
-0.000518643
-0.000609957
-0.00069781
-0.000783358
-0.00086677
-0.00094752
-0.00102504
-0.00109889
-0.00116883
-0.000304077
-0.000368718
-0.000431408
-0.000492087
-0.000551325
-0.000609129
-0.00066514
-0.000718991
-0.0007704
-0.000819196
-0.000187078
-0.000224218
-0.000260035
-0.000294863
-0.000329082
-0.000362636
-0.000395235
-0.000426628
-0.00045668
-0.000485395
-7.14388e-05
-8.78052e-05
-0.000101317
-0.00011296
-0.000124261
-0.000135508
-0.000146458
-0.00015687
-0.00016652
-0.000175206
0.000991805
0.00100083
0.00107025
0.00113697
0.00127488
0.00139614
0.00162683
0.00181571
0.00218011
0.00245455
0.0030295
0.00341642
0.00435938
0.00489929
0.00658299
0.00732127
0.0107715
0.0114018
0.0187625
0.0049538
0.000965434
0.000973944
0.0010417
0.00110794
0.00124186
0.00136182
0.00158565
0.00177311
0.00212538
0.0023988
0.00294998
0.00333729
0.00422455
0.00476639
0.00628227
0.00701246
0.00974906
0.0102498
0.0130216
0.00637929
0.000935325
0.000943738
0.00100945
0.00107466
0.00120418
0.00132215
0.00153813
0.00172317
0.00206116
0.00233235
0.00285481
0.00324131
0.00406081
0.0046036
0.00592157
0.006645
0.00862956
0.00910875
0.00925541
0.00737362
0.000901588
0.000910443
0.000973304
0.00103759
0.00116152
0.0012778
0.00148375
0.0016669
0.00198674
0.00225677
0.00274342
0.00313098
0.00386928
0.004416
0.00551404
0.00623711
0.00754597
0.00806746
0.00696972
0.00687536
0.000864459
0.000874045
0.000933451
0.000996753
0.00111417
0.00122874
0.001423
0.00160421
0.0019031
0.00217186
0.00261814
0.00300616
0.00365695
0.00420499
0.00508717
0.00580017
0.00657443
0.00717905
0.0053936
0.0056061
0.00082413
0.000834576
0.000890099
0.00095222
0.00106243
0.00117499
0.0013564
0.00153508
0.00181127
0.00207763
0.00248135
0.00286731
0.00343072
0.00397329
0.00466264
0.00535117
0.00573753
0.00637286
0.00424303
0.00428458
0.000780783
0.000792112
0.000843441
0.000904104
0.0010066
0.00111667
0.00128442
0.00145967
0.00171219
0.00197439
0.00233531
0.00271535
0.00319642
0.00372463
0.00425085
0.00490581
0.00501465
0.0056049
0.00337295
0.00312736
0.000734607
0.000746745
0.000793677
0.000852537
0.00094696
0.00105391
0.00120756
0.00137817
0.00160682
0.00186254
0.00218202
0.00255147
0.00295786
0.00346392
0.0038561
0.00446514
0.00438042
0.00487359
0.00270786
0.00218746
0.000685794
0.00069858
0.000741021
0.000797668
0.00088383
0.000986875
0.00112631
0.00129084
0.001496
0.00174258
0.00202298
0.00237718
0.00271742
0.00319424
0.00347896
0.00402981
0.00381836
0.00419181
0.00219689
0.00146405
0.000634535
0.000647741
0.000685692
0.000739664
0.000817519
0.000915781
0.00104113
0.00119799
0.00138046
0.00161518
0.00185931
0.00219391
0.00247659
0.00291797
0.00311856
0.00360292
0.003318
0.00357006
0.00179956
0.000929845
0.000581027
0.000594372
0.000627912
0.000678716
0.000748326
0.00084087
0.000952418
0.0011
0.00126079
0.00148104
0.00169189
0.00200298
0.00223624
0.00263735
0.00277383
0.00318831
0.00287087
0.00301208
0.00148363
0.000548391
0.000525469
0.000538636
0.000567905
0.000615039
0.000676542
0.00076242
0.000860574
0.00099731
0.00113753
0.00134086
0.00152137
0.00180568
0.00199684
0.00235454
0.00244366
0.00278904
0.00246893
0.0025168
0.00122546
0.00028616
0.000468064
0.000480718
0.000505894
0.000548864
0.000602449
0.000680739
0.000765952
0.000890364
0.00101113
0.00119539
0.00134828
0.00160322
0.00175866
0.00207135
0.00212672
0.0024069
0.00210456
0.00208021
0.00100888
0.000114599
0.000409018
0.000420825
0.000442107
0.000480443
0.000526321
0.000596156
0.000668896
0.000779639
0.000882009
0.00104534
0.00117305
0.00139667
0.0015218
0.00178917
0.00182143
0.00204247
0.00177086
0.00169656
0.00082314
9.85055e-06
0.000348542
0.000359179
0.000376773
0.000410041
0.00044843
0.000509019
0.000569734
0.000665618
0.000750551
0.000891405
0.000996012
0.00118695
0.00128617
0.00150892
0.00152605
0.00169531
0.00146181
0.00135913
0.000660921
-4.73265e-05
0.00028685
0.000296019
0.000310122
0.000337936
0.000369046
0.000419688
0.000468785
0.000548783
0.000617114
0.000734216
0.000817465
0.000974803
0.0010516
0.00123103
0.0012388
0.00136407
0.00117218
0.00106056
0.000516928
-7.17361e-05
0.000224157
0.0002316
0.000242389
0.000264421
0.000288439
0.00032854
0.000366373
0.000429626
0.000482054
0.000574379
0.000637674
0.000760806
0.000817841
0.00095554
0.000957926
0.00104666
0.000897453
0.000793323
0.000386985
-7.44023e-05
0.000160678
0.000166186
0.000173814
0.0001898
0.000206892
0.000235971
0.000262848
0.000308661
0.000345771
0.000412501
0.000456967
0.000545464
0.000584758
0.000682196
0.000681897
0.000740481
0.000633804
0.000549998
0.000267674
-6.35117e-05
9.66348e-05
0.000100037
0.000104629
0.000114356
0.000124669
0.000142337
0.000158533
0.000186329
0.000208643
0.000249056
0.000275667
0.000329041
0.000352259
0.000410354
0.000409438
0.00044248
0.000378102
0.000323572
0.000156388
-4.43132e-05
3.22579e-05
3.3412e-05
3.50044e-05
3.82705e-05
4.18285e-05
4.7742e-05
5.33425e-05
6.26059e-05
7.03614e-05
8.37675e-05
9.30898e-05
0.000110677
0.000118953
0.000137827
0.000137957
0.00014798
0.00012657
0.000106841
5.08976e-05
-1.75301e-05
0.00106593
0.00107434
0.00114729
0.00121594
0.00136107
0.00148464
0.0017256
0.00191633
0.00229563
0.00256935
0.00316898
0.00354525
0.00453226
0.00504971
0.00684115
0.00755685
0.0114065
0.0122167
0.0236055
0.019568
0.00106215
0.00107065
0.0011442
0.00121161
0.00135809
0.00148005
0.0017236
0.00191169
0.00229591
0.00256541
0.00317361
0.00354412
0.00455289
0.00505985
0.00691228
0.0076101
0.0116936
0.012705
0.0251225
0.0253528
0.00105766
0.00106651
0.00113995
0.00120701
0.00135359
0.00147531
0.00171935
0.00190708
0.00229275
0.00256165
0.00317365
0.00354368
0.00456388
0.00506877
0.00695583
0.00765894
0.0118961
0.0131108
0.0260859
0.0292669
0.00105254
0.00106161
0.00113495
0.00120164
0.0013482
0.00146958
0.00171388
0.00190112
0.00228779
0.00255592
0.0031709
0.00353989
0.00456816
0.00507088
0.0069836
0.00768995
0.0120319
0.0133882
0.026723
0.0317025
0.00104678
0.00105594
0.00112922
0.00119546
0.00134195
0.00146281
0.00170723
0.00189371
0.00228101
0.00254805
0.00316497
0.0035325
0.00456581
0.00506615
0.00699395
0.00770004
0.0120989
0.0135263
0.0270245
0.032797
0.00104037
0.00104953
0.00112271
0.00118853
0.00133478
0.00145506
0.00169928
0.00188496
0.00227224
0.0025382
0.00315558
0.00352184
0.0045565
0.00505499
0.00698593
0.00768964
0.012094
0.0135199
0.0269869
0.0326098
0.00103332
0.00104239
0.00111543
0.00118083
0.00132667
0.00144634
0.00169003
0.00187488
0.00226149
0.0025264
0.00314278
0.00350795
0.00454026
0.00503736
0.00695966
0.00765873
0.0120175
0.0133703
0.0266115
0.0311363
0.00102562
0.0010345
0.00110741
0.00117235
0.00131767
0.0014366
0.00167955
0.0018634
0.00224887
0.0025125
0.00312676
0.00349058
0.00451744
0.00501288
0.00691592
0.00760731
0.0118724
0.0130861
0.0258953
0.0282991
0.00101729
0.00102589
0.00109862
0.00116312
0.00130775
0.00142591
0.00166778
0.0018506
0.00223427
0.00249666
0.00310735
0.00347004
0.00448772
0.00498218
0.00685435
0.00753773
0.0116601
0.012685
0.0248185
0.0239137
0.00100825
0.00101674
0.00108879
0.00115348
0.00129647
0.00141481
0.001654
0.00183742
0.00221648
0.00248049
0.00308244
0.00344914
0.00444746
0.00495033
0.00676886
0.00745981
0.0113731
0.0122108
0.0231886
0.0176714
)
;

boundaryField
{
    inlet
    {
        type            zeroGradient;
    }
    outlet
    {
        type            fixedValue;
        value           uniform 0;
    }
    upAndBottom
    {
        type            empty;
    }
    obstacle
    {
        type            zeroGradient;
    }
}


// ************************************************************************* //
