/*--------------------------------*- C++ -*----------------------------------*\
| =========                 |                                                 |
| \\      /  F ield         | OpenFOAM: The Open Source CFD Toolbox           |
|  \\    /   O peration     | Version:  v1806                                 |
|   \\  /    A nd           | Web:      www.OpenFOAM.com                      |
|    \\/     M anipulation  |                                                 |
\*---------------------------------------------------------------------------*/
FoamFile
{
    version     2.0;
    format      ascii;
    class       surfaceScalarField;
    location    "210";
    object      phi;
}
// * * * * * * * * * * * * * * * * * * * * * * * * * * * * * * * * * * * * * //

dimensions      [0 3 -1 0 0 0 0];
oriented        oriented;


internalField   nonuniform List<scalar> 
8600
(
0.0798848
-0.0664916
-0.0731318
0.0597386
0.0704448
-0.0724157
0.0818557
0.0571938
-0.0746634
0.0879144
0.0462634
-0.0769432
0.0878736
0.0384354
-0.0792154
0.0870434
0.0328552
-0.0811402
0.0867204
0.0287593
-0.0825842
0.0866801
0.0257165
-0.0836186
0.0866614
0.0234659
-0.0843542
0.0866049
0.0218102
-0.0848731
0.0865288
0.0205862
-0.0852274
0.0864513
0.0196648
-0.0854554
0.0863768
0.0189533
-0.0855906
0.0863022
0.0183919
-0.08566
0.0862214
0.0179455
-0.0856833
0.0861297
0.0175936
-0.0856727
0.0860247
0.0173236
-0.0856355
0.0859055
0.0171278
-0.0855754
0.0857712
0.0170002
-0.0854923
0.0856199
-0.0853918
0.085463
0.0239872
-0.0634272
-0.0270516
0.0201235
-0.068552
0.0189185
-0.0734584
0.019601
-0.0776256
0.0204659
-0.0800803
0.0209154
-0.0815897
0.0209495
-0.0826183
0.0207054
-0.0833746
0.0202876
-0.0839363
0.0197661
-0.0843516
0.0192002
-0.0846615
0.0186416
-0.0848968
0.0181272
-0.0850762
0.0176773
-0.0852102
0.0172992
-0.0853053
0.0169932
-0.0853667
0.0167566
-0.085399
0.0165864
-0.0854052
0.016479
-0.0853849
-0.085337
0.0245227
-0.0693238
-0.0186262
0.0285968
-0.072626
0.0302231
-0.0750847
0.0292955
-0.076698
0.0273576
-0.0781424
0.0252455
-0.0794776
0.0233073
-0.0806801
0.0216455
-0.0817128
0.0202774
-0.0825683
0.0191866
-0.0832608
0.0183358
-0.0838107
0.0176773
-0.0842383
0.0171649
-0.0845638
0.0167619
-0.0848072
0.0164432
-0.0849866
0.0161936
-0.085117
0.0160044
-0.0852098
0.0158711
-0.0852718
0.0157904
-0.0853042
-0.0853016
0.0127165
-0.0717208
-0.0103196
0.0134538
-0.0733633
0.0135186
-0.0751495
0.0138409
-0.0770203
0.0144875
-0.078789
0.0152011
-0.0801913
0.0157658
-0.0812447
0.0161274
-0.0820744
0.0162993
-0.0827402
0.0163159
-0.0832774
0.0162173
-0.0837121
0.0160451
-0.0840661
0.0158376
-0.0843562
0.0156249
-0.0845946
0.015428
-0.0847897
0.0152593
-0.0849483
0.0151257
-0.0850761
0.0150306
-0.0851768
0.0149756
-0.0852491
-0.0852829
0.010254
-0.0752611
-0.00671367
0.0132452
-0.0763546
0.0155454
-0.0774497
0.0169384
-0.0784133
0.0174068
-0.0792573
0.0173085
-0.080093
0.0169518
-0.080888
0.0164976
-0.0816201
0.0160343
-0.082277
0.0156097
-0.0828528
0.0152452
-0.0833476
0.0149448
-0.0837657
0.0147023
-0.0841137
0.0145081
-0.0844003
0.0143535
-0.0846351
0.0142326
-0.0848275
0.0141425
-0.084986
0.0140819
-0.0851162
0.0140509
-0.0852181
-0.0852788
0.00732016
-0.0768501
-0.00573113
0.00843153
-0.0774659
0.00919478
-0.078213
0.00983867
-0.0790572
0.0105119
-0.0799305
0.0111846
-0.0807658
0.0117987
-0.0815021
0.0123052
-0.0821266
0.0126883
-0.0826601
0.0129528
-0.0831172
0.0131144
-0.0835092
0.0131942
-0.0838455
0.0132154
-0.0841349
0.0131996
-0.0843845
0.013165
-0.0846005
0.0131252
-0.0847877
0.01309
-0.0849507
0.0130657
-0.085092
0.0130569
-0.0852093
-0.0852867
0.00539577
-0.0789382
-0.00330761
0.00731179
-0.0793819
0.00895926
-0.0798604
0.0102549
-0.0803529
0.01116
-0.0808356
0.011706
-0.0813117
0.0119971
-0.0817933
0.0121326
-0.0822621
0.0121773
-0.0827048
0.0121734
-0.0831134
0.0121478
-0.0834836
0.0121161
-0.0838138
0.012086
-0.0841047
0.0120602
-0.0843588
0.0120395
-0.0845797
0.012024
-0.0847723
0.0120143
-0.084941
0.0120116
-0.0850892
0.0120174
-0.0852152
-0.0853024
0.00468599
-0.079997
-0.00362724
0.00556703
-0.080263
0.00632435
-0.0806178
0.00699844
-0.081027
0.00763437
-0.0814715
0.00824651
-0.0819238
0.00881301
-0.0823598
0.00931273
-0.0827618
0.00973372
-0.0831258
0.0100737
-0.0834534
0.0103374
-0.0837473
0.010534
-0.0840104
0.0106749
-0.0842457
0.0107728
-0.0844566
0.0108391
-0.084646
0.0108838
-0.084817
0.0109148
-0.084972
0.0109382
-0.0851126
0.0109588
-0.0852358
-0.0853244
0.00331762
-0.081305
-0.00200959
0.00457025
-0.0815156
0.00569459
-0.0817421
0.00666217
-0.0819946
0.00745116
-0.0822605
0.00806089
-0.0825335
0.00851388
-0.0828128
0.00884742
-0.0830953
0.00909462
-0.083373
0.00928059
-0.0836394
0.00942351
-0.0838902
0.00953603
-0.0841229
0.0096265
-0.0843362
0.00970015
-0.0845302
0.00976025
-0.0847061
0.00980901
-0.0848657
0.00984821
-0.0850112
0.00987963
-0.085144
0.00990558
-0.0852617
-0.0853483
0.00316655
-0.0820546
-0.00241701
0.003831
-0.08218
0.00444839
-0.0823595
0.00502289
-0.0825691
0.00556334
-0.082801
0.00607535
-0.0830456
0.00655416
-0.0832916
0.00698944
-0.0835306
0.00737364
-0.0837572
0.00770359
-0.0839693
0.00797989
-0.0841665
0.00820597
-0.084349
0.00838713
-0.0845174
0.00852964
-0.0846728
0.00863994
-0.0848164
0.00872401
-0.0849498
0.00878695
-0.0850742
0.00883311
-0.0851902
0.00886649
-0.0852951
-0.085374
0.00222286
-0.0829115
-0.00136592
0.00306185
-0.083019
0.00383459
-0.0831322
0.00452845
-0.0832629
0.005134
-0.0834065
0.00564707
-0.0835586
0.0060724
-0.0837169
0.00642156
-0.0838798
0.00670836
-0.084044
0.00694502
-0.084206
0.00714143
-0.0843629
0.00730521
-0.0845127
0.00744202
-0.0846542
0.00755592
-0.0847867
0.00764978
-0.0849103
0.00772573
-0.0850257
0.00778539
-0.0851338
0.00783033
-0.0852351
0.0078627
-0.0853275
-0.0853981
0.00218128
-0.0834526
-0.00164016
0.00267564
-0.0835134
0.00314819
-0.0836048
0.00359799
-0.0837127
0.00402472
-0.0838333
0.00442882
-0.0839627
0.00480833
-0.0840965
0.00515878
-0.0842302
0.00547581
-0.084361
0.00575679
-0.084487
0.00600098
-0.0846071
0.00620929
-0.0847211
0.00638383
-0.0848287
0.00652745
-0.0849303
0.00664334
-0.0850262
0.00673466
-0.0851171
0.00680431
-0.0852035
0.00685491
-0.0852857
0.0068893
-0.0853619
-0.0854212
0.00153168
-0.0840239
-0.000960451
0.00209698
-0.0840787
0.00262694
-0.0841347
0.00311443
-0.0842002
0.00355504
-0.0842739
0.00394584
-0.0843535
0.00428709
-0.0844377
0.00458216
-0.0845253
0.0048362
-0.084615
0.00505451
-0.0847053
0.00524187
-0.0847945
0.00540225
-0.0848814
0.0055388
-0.0849653
0.00565397
-0.0850455
0.00574963
-0.0851219
0.00582715
-0.0851946
0.00588764
-0.085264
0.00593214
-0.0853302
0.00596227
-0.085392
-0.0854409
0.00148375
-0.0844059
-0.00110172
0.00183875
-0.0844337
0.00218171
-0.0844777
0.00251168
-0.0845302
0.00282687
-0.0845891
0.00312626
-0.0846529
0.00340841
-0.0847199
0.00367113
-0.084788
0.003912
-0.0848559
0.00412923
-0.0849225
0.00432189
-0.0849871
0.00448993
-0.0850495
0.00463397
-0.0851093
0.00475516
-0.0851666
0.0048549
-0.0852216
0.00493471
-0.0852744
0.00499603
-0.0853253
0.00504024
-0.0853744
0.00506911
-0.0854209
-0.0854584
0.0010265
-0.0847784
-0.000653989
0.00139717
-0.0848044
0.0017488
-0.0848293
0.00207696
-0.0848584
0.00237933
-0.0848914
0.00265413
-0.0849277
0.00290076
-0.0849665
0.00312
-0.0850073
0.00331361
-0.0850495
0.00348371
-0.0850926
0.00363243
-0.0851359
0.00376165
-0.0851787
0.00387294
-0.0852206
0.00396759
-0.0852613
0.00404661
-0.0853006
0.00411076
-0.0853385
0.00416065
-0.0853752
0.00419683
-0.0854106
0.00422029
-0.0854443
-0.0854721
0.000950498
-0.0850284
-0.000700534
0.00118477
-0.0850386
0.00141204
-0.0850566
0.00163189
-0.0850782
0.00184289
-0.0851024
0.00204398
-0.0851288
0.00223416
-0.0851567
0.00241215
-0.0851853
0.00257664
-0.085214
0.00272647
-0.0852424
0.00286091
-0.0852703
0.00297963
-0.0852974
0.00308268
-0.0853236
0.00317042
-0.085349
0.00324339
-0.0853736
0.00330223
-0.0853974
0.00334758
-0.0854205
0.00338006
-0.0854431
0.00340057
-0.0854649
-0.0854833
0.000613749
-0.0852488
-0.000393279
0.000833966
-0.0852589
0.00104441
-0.085267
0.00124247
-0.0852763
0.00142689
-0.0852869
0.00159666
-0.0852986
0.00175118
-0.0853112
0.00189049
-0.0853246
0.00201511
-0.0853386
0.00212586
-0.0853532
0.00222361
-0.085368
0.00230921
-0.085383
0.00238339
-0.0853978
0.00244676
-0.0854124
0.00249982
-0.0854266
0.00254293
-0.0854405
0.0025764
-0.085454
0.00260044
-0.0854671
0.0026155
-0.0854799
-0.085491
0.000509912
-0.0853814
-0.000377319
0.00063392
-0.0853829
0.000754906
-0.085388
0.000872714
-0.0853941
0.000986403
-0.0854006
0.00109524
-0.0854074
0.0011986
-0.0854145
0.00129579
-0.0854218
0.00138613
-0.085429
0.00146896
-0.085436
0.0015438
-0.0854429
0.00161037
-0.0854496
0.00166855
-0.085456
0.0017184
-0.0854623
0.00176008
-0.0854683
0.00179382
-0.0854742
0.00181985
-0.08548
0.00183841
-0.0854857
0.0018498
-0.0854913
-0.0854964
0.000241747
-0.0854747
-0.000148465
0.000337351
-0.0854785
0.00042882
-0.0854795
0.00051463
-0.0854799
0.0005943
-0.0854802
0.000667489
-0.0854806
0.000734004
-0.085481
0.000793886
-0.0854816
0.000847385
-0.0854825
0.000894875
-0.0854835
0.000936768
-0.0854848
0.000973454
-0.0854862
0.00100527
-0.0854878
0.00103248
-0.0854895
0.0010553
-0.0854911
0.00107386
-0.0854928
0.00108827
-0.0854944
0.0010986
-0.085496
0.00110492
-0.0854976
-0.0854991
0.000114095
-8.88139e-05
0.000135621
0.000156146
0.000176269
0.00019604
0.000215437
0.000234387
0.00025274
0.000270279
0.000286766
0.00030198
0.00031574
0.000327922
0.000338456
0.000347316
0.000354513
0.000360076
0.000364042
0.000366428
-0.0627599
-0.00861261
0.0713725
-0.0546646
-0.00809523
-0.046957
-0.00770762
-0.0395627
-0.00739437
-0.0324266
-0.00713607
-0.0255014
-0.00692519
-0.0187432
-0.00675816
-0.0121102
-0.006633
-0.00556176
-0.00654848
0.00094215
-0.00650391
0.00744119
-0.00649904
0.0139753
-0.0065341
0.0205851
-0.00660982
0.0273126
-0.00672752
0.034202
-0.00688933
0.0413005
-0.00709856
0.0486613
-0.00736079
0.0563481
-0.00768678
0.0644484
-0.00810032
-0.00868336
-0.0205896
-0.010339
0.022316
-0.0185438
-0.010141
-0.0162964
-0.00995504
-0.0139027
-0.00978806
-0.0113954
-0.00964334
-0.00879819
-0.00952244
-0.00613035
-0.009426
-0.00340922
-0.00935413
-0.000650947
-0.00930675
0.0021289
-0.00928375
0.00491498
-0.00928512
0.00769188
-0.009311
0.0104438
-0.00936171
0.013154
-0.00943778
0.0158046
-0.00953992
0.0183751
-0.00966905
0.0208404
-0.00982611
0.0231655
-0.0100119
0.0252926
-0.0102274
-0.0104424
-0.0152733
-0.0116426
0.0165769
-0.0138382
-0.0115761
-0.0122755
-0.0115177
-0.0105967
-0.0114669
-0.00881651
-0.0114235
-0.00695159
-0.0113874
-0.00501894
-0.0113587
-0.00303547
-0.0113376
-0.00101778
-0.0113244
0.00101784
-0.0113194
0.00305524
-0.0113225
0.00507819
-0.011334
0.00707006
-0.0113536
0.00901358
-0.0113813
0.0108906
-0.0114169
0.0126817
-0.0114602
0.0143668
-0.0115112
0.015925
-0.0115701
0.0173352
-0.0116376
-0.0117333
-0.00632587
-0.0124472
0.00713046
-0.00549582
-0.0124062
-0.00464561
-0.0123679
-0.00377933
-0.0123332
-0.00290017
-0.0123027
-0.00201066
-0.0122769
-0.00111303
-0.0122563
-0.00020934
-0.0122413
0.000698348
-0.0122321
0.00160798
-0.012229
0.00251746
-0.012232
0.00342474
-0.0122412
0.00432778
-0.0122566
0.00522462
-0.0122781
0.00611332
-0.0123056
0.00699195
-0.0123388
0.00785829
-0.0123775
0.00870949
-0.0124213
0.00954164
-0.0124697
-0.0125113
-0.00555995
-0.0130126
0.00612537
-0.00497097
-0.0129952
-0.00435888
-0.01298
-0.00372494
-0.0129671
-0.00307116
-0.0129564
-0.00240017
-0.0129479
-0.0017151
-0.0129414
-0.00101948
-0.0129369
-0.000317133
-0.0129345
0.000387908
-0.012934
0.00109148
-0.0129356
0.00178936
-0.0129391
0.00247731
-0.0129446
0.00315119
-0.012952
0.00380695
-0.0129614
0.00444081
-0.0129727
0.0050493
-0.012986
0.00562944
-0.0130014
0.00617857
-0.0130189
-0.0130464
-0.00296072
-0.0134564
0.00340456
-0.00251165
-0.0134442
-0.00205854
-0.0134331
-0.00160241
-0.0134233
-0.00114409
-0.0134148
-0.000684207
-0.0134077
-0.000223288
-0.0134023
0.000238283
-0.0133985
0.000700208
-0.0133964
0.00116226
-0.0133961
0.00162424
-0.0133976
0.00208601
-0.0134009
0.00254741
-0.013406
0.00300827
-0.0134129
0.00346838
-0.0134215
0.00392748
-0.0134318
0.00438518
-0.0134437
0.0048409
-0.0134571
0.00529402
-0.013472
-0.0134835
-0.00268823
-0.0137548
0.0029866
-0.00238421
-0.0137482
-0.00207475
-0.0137426
-0.00176021
-0.0137378
-0.0014411
-0.0137339
-0.00111806
-0.0137308
-0.000791856
-0.0137285
-0.000463338
-0.013727
-0.000133449
-0.0137263
0.000196811
-0.0137263
0.000526403
-0.0137272
0.000854268
-0.0137287
0.00117935
-0.0137311
0.00150063
-0.0137341
0.00181711
-0.013738
0.00212788
-0.0137426
0.00243212
-0.013748
0.00272917
-0.0137542
0.0030184
-0.0137612
-0.0137727
-0.00171245
-0.0140313
0.0019889
-0.00143407
-0.0140266
-0.00115416
-0.0140225
-0.000873073
-0.0140189
-0.000591119
-0.0140158
-0.000308548
-0.0140133
-2.55691e-05
-0.0140115
0.000257648
-0.0140102
0.000540965
-0.0140096
0.000824272
-0.0140097
0.00110747
-0.0140104
0.00139049
-0.0140118
0.00167322
-0.0140138
0.00195559
-0.0140165
0.00223747
-0.0140199
0.00251873
-0.0140238
0.00279918
-0.0140284
0.00307857
-0.0140336
0.0033566
-0.0140393
-0.0140433
-0.00154399
-0.0142134
0.00172613
-0.00136017
-0.0142104
-0.00117477
-0.0142079
-0.000987921
-0.0142057
-0.000799766
-0.014204
-0.000610503
-0.0142026
-0.000420355
-0.0142016
-0.000229573
-0.014201
-3.8429e-05
-0.0142008
0.000152787
-0.0142009
0.000343775
-0.0142014
0.000534229
-0.0142022
0.000723846
-0.0142034
0.000912331
-0.014205
0.0010994
-0.0142069
0.0012848
-0.0142092
0.00146829
-0.0142119
0.00164972
-0.014215
0.0018289
-0.0142184
-0.014224
-0.00109938
-0.0143967
0.00128264
-0.000915179
-0.0143946
-0.000730216
-0.0143929
-0.000544643
-0.0143913
-0.000358602
-0.01439
-0.000172222
-0.014389
1.43821e-05
-0.0143882
0.000201109
-0.0143877
0.000387866
-0.0143875
0.000574569
-0.0143876
0.000761138
-0.0143879
0.000947496
-0.0143886
0.00113357
-0.0143895
0.00131927
-0.0143907
0.00150451
-0.0143922
0.00168919
-0.0143939
0.00187321
-0.0143959
0.00205641
-0.0143982
0.00223865
-0.0144007
-0.0144024
-0.000975198
-0.0145181
0.00109659
-0.000853227
-0.0145166
-0.000730713
-0.0145154
-0.000607699
-0.0145143
-0.000484243
-0.0145135
-0.000360408
-0.0145128
-0.000236271
-0.0145124
-0.000111915
-0.0145121
1.25722e-05
-0.014512
0.000137095
-0.0145121
0.000261556
-0.0145124
0.000385857
-0.0145129
0.0005099
-0.0145135
0.000633591
-0.0145144
0.00075684
-0.0145154
0.000879563
-0.0145166
0.00100169
-0.0145181
0.00112317
-0.0145197
0.00124396
-0.0145215
-0.0145243
-0.000738052
-0.0146425
0.000862481
-0.000613117
-0.0146415
-0.000487763
-0.0146407
-0.000362069
-0.01464
-0.000236112
-0.0146394
-0.000109965
-0.014639
1.63067e-05
-0.0146386
0.000142637
-0.0146384
0.000268967
-0.0146383
0.000395236
-0.0146384
0.000521389
-0.0146385
0.000647368
-0.0146388
0.000773117
-0.0146393
0.000898577
-0.0146398
0.00102369
-0.0146405
0.00114839
-0.0146413
0.00127261
-0.0146423
0.00139626
-0.0146433
0.00151926
-0.0146445
-0.0146452
-0.000640475
-0.0147259
0.000723883
-0.000556832
-0.0147252
-0.000472971
-0.0147246
-0.000388909
-0.0147241
-0.00030467
-0.0147237
-0.000220279
-0.0147234
-0.000135763
-0.0147231
-5.11524e-05
-0.014723
3.35194e-05
-0.014723
0.000118219
-0.0147231
0.00020291
-0.0147232
0.000287559
-0.0147235
0.000372131
-0.0147238
0.000456591
-0.0147243
0.000540908
-0.0147248
0.000625052
-0.0147255
0.000708997
-0.0147262
0.000792728
-0.014727
0.000876225
-0.014728
-0.0147294
-0.000495264
-0.0148096
0.000579016
-0.000411232
-0.0148092
-0.000326963
-0.0148089
-0.000242503
-0.0148085
-0.000157894
-0.0148083
-7.31786e-05
-0.0148081
1.16034e-05
-0.0148079
9.64126e-05
-0.0148078
0.000181211
-0.0148078
0.00026596
-0.0148078
0.000350625
-0.0148079
0.000435166
-0.014808
0.000519548
-0.0148082
0.000603733
-0.0148085
0.000687682
-0.0148088
0.000771357
-0.0148092
0.000854716
-0.0148096
0.000937711
-0.01481
0.0010203
-0.0148106
-0.0148109
-0.000414887
-0.0148655
0.000470696
-0.000358971
-0.0148651
-0.000302956
-0.0148649
-0.000246851
-0.0148646
-0.000190664
-0.0148645
-0.000134408
-0.0148643
-7.80919e-05
-0.0148642
-2.17296e-05
-0.0148642
3.46662e-05
-0.0148642
9.10823e-05
-0.0148642
0.000147505
-0.0148643
0.00020392
-0.0148644
0.000260314
-0.0148646
0.000316674
-0.0148648
0.000372986
-0.0148651
0.000429238
-0.0148654
0.000485421
-0.0148658
0.000541527
-0.0148662
0.000597548
-0.0148666
-0.0148673
-0.000313954
-0.0149187
0.000367224
-0.000260527
-0.0149186
-0.00020697
-0.0149184
-0.000153306
-0.0149183
-9.95588e-05
-0.0149182
-4.57533e-05
-0.0149181
8.08746e-06
-0.0149181
6.19405e-05
-0.014918
0.000115783
-0.014918
0.000169593
-0.014918
0.000223348
-0.0149181
0.000277025
-0.0149181
0.000330602
-0.0149182
0.000384058
-0.0149183
0.000437369
-0.0149184
0.000490512
-0.0149186
0.000543465
-0.0149187
0.000596199
-0.0149189
0.000648691
-0.0149191
-0.0149191
-0.00024427
-0.014952
0.000277554
-0.000210936
-0.0149519
-0.000177557
-0.0149518
-0.000144135
-0.0149517
-0.000110675
-0.0149517
-7.7179e-05
-0.0149516
-4.3652e-05
-0.0149516
-1.00984e-05
-0.0149516
2.34774e-05
-0.0149516
5.70707e-05
-0.0149516
9.06767e-05
-0.0149517
0.000124291
-0.0149517
0.000157908
-0.0149518
0.000191525
-0.0149519
0.000225136
-0.014952
0.000258737
-0.0149522
0.000292327
-0.0149523
0.000325903
-0.0149525
0.000359464
-0.0149526
-0.014953
-0.000165302
-0.0149805
0.000193792
-0.000136733
-0.0149805
-0.000108097
-0.0149804
-7.94066e-05
-0.0149804
-5.06734e-05
-0.0149804
-2.19098e-05
-0.0149804
6.87243e-06
-0.0149804
3.56614e-05
-0.0149804
6.44457e-05
-0.0149804
9.32137e-05
-0.0149804
0.000121954
-0.0149804
0.000150656
-0.0149804
0.000179308
-0.0149805
0.000207898
-0.0149805
0.000236417
-0.0149805
0.000264852
-0.0149806
0.000293193
-0.0149806
0.000321426
-0.0149807
0.000349542
-0.0149808
-0.0149807
-0.000101247
-0.0149936
0.000114303
-8.81806e-05
-0.0149935
-7.51048e-05
-0.0149935
-6.20191e-05
-0.0149935
-4.89237e-05
-0.0149935
-3.58188e-05
-0.0149935
-2.27047e-05
-0.0149935
-9.58191e-06
-0.0149935
3.54907e-06
-0.0149935
1.66876e-05
-0.0149935
2.9833e-05
-0.0149936
4.29846e-05
-0.0149936
5.61416e-05
-0.0149936
6.93032e-05
-0.0149937
8.24684e-05
-0.0149937
9.5636e-05
-0.0149938
0.000108805
-0.0149938
0.000121975
-0.0149939
0.000135142
-0.0149939
-0.0149941
-3.19921e-05
3.84362e-05
-2.55264e-05
-1.90442e-05
-1.25505e-05
-6.05013e-06
4.5185e-07
6.95049e-06
1.34408e-05
1.99178e-05
2.63764e-05
3.28117e-05
3.92187e-05
4.55923e-05
5.19276e-05
5.82199e-05
6.44645e-05
7.06572e-05
7.67936e-05
8.28706e-05
-0.0545097
-0.0134129
0.0153231
0.0525994
-0.0565274
-0.0133558
0.0153735
-0.0586808
-0.0132904
0.0154438
-0.0609499
-0.0132293
0.0154985
-0.0633082
-0.0131714
0.0155297
-0.0657215
-0.0131148
0.0155281
-0.068148
-0.013057
0.0154835
-0.0705388
-0.0129944
0.0153852
-0.0728382
-0.0129223
0.0152217
-0.0749847
-0.012835
0.0149815
-0.0769119
-0.0127257
0.0146528
-0.0785496
-0.0125863
0.014224
-0.0798246
-0.012408
0.013683
-0.0806609
-0.0121812
0.0130175
-0.0809797
-0.0118958
0.0122145
-0.0806967
-0.0115418
0.0112588
-0.0797185
-0.0111102
0.010132
-0.0779356
-0.0105934
0.00881051
-0.0752172
-0.00998308
0.00726462
-0.00926595
0.00542129
-0.0167115
-0.0133295
0.0166282
-0.0168525
-0.0132149
-0.017053
-0.0130899
-0.0173261
-0.0129563
-0.0176816
-0.0128158
-0.0181261
-0.0126703
-0.0186614
-0.0125218
-0.0192836
-0.0123721
-0.0199828
-0.0122231
-0.0207417
-0.0120761
-0.0215356
-0.0119318
-0.0223318
-0.0117901
-0.0230894
-0.0116503
-0.0237597
-0.0115109
-0.0242859
-0.0113696
-0.024604
-0.0112237
-0.0246439
-0.0110703
-0.0243312
-0.0109061
-0.0235863
-0.010728
-0.0105362
-0.0289401
-0.0133805
0.0289911
-0.0288289
-0.013326
-0.0286497
-0.0132692
-0.0283983
-0.0132076
-0.028073
-0.0131411
-0.0276741
-0.0130693
-0.0272041
-0.0129918
-0.0266677
-0.0129085
-0.0260715
-0.0128194
-0.0254227
-0.0127249
-0.0247291
-0.0126254
-0.0239973
-0.0125219
-0.0232323
-0.0124154
-0.0224358
-0.0123073
-0.0216061
-0.0121993
-0.0207368
-0.012093
-0.0198171
-0.01199
-0.0188311
-0.0118922
-0.0177582
-0.0118009
-0.0117175
-0.0131869
-0.0133832
0.0131896
-0.0131796
-0.0133333
-0.0131691
-0.0132796
-0.0131498
-0.013227
-0.0131155
-0.0131754
-0.0130595
-0.0131252
-0.0129751
-0.0130762
-0.012855
-0.0130285
-0.0126924
-0.012982
-0.0124809
-0.0129364
-0.0122148
-0.0128915
-0.0118894
-0.0128472
-0.0115018
-0.012803
-0.0110504
-0.0127588
-0.0105353
-0.0127144
-0.00995863
-0.0126696
-0.00932406
-0.0126246
-0.00863678
-0.0125795
-0.00790318
-0.0125345
-0.0124902
-0.0140805
-0.0136709
0.0143681
-0.013778
-0.0136358
-0.0134552
-0.0136025
-0.0131141
-0.0135681
-0.0127569
-0.0135326
-0.012386
-0.0134962
-0.0120032
-0.013459
-0.0116104
-0.0134213
-0.0112091
-0.0133833
-0.0108001
-0.0133454
-0.0103839
-0.0133077
-0.00996038
-0.0132707
-0.0095287
-0.0132347
-0.00908756
-0.0131999
-0.00863514
-0.0131668
-0.00816928
-0.0131355
-0.00768761
-0.0131063
-0.00718776
-0.0130793
-0.0066676
-0.0130547
-0.0130324
-0.0091862
-0.0138177
0.00933298
-0.00902456
-0.0137974
-0.00885213
-0.0137749
-0.00866713
-0.0137531
-0.00846794
-0.0137318
-0.00825303
-0.0137111
-0.0080211
-0.0136909
-0.00777106
-0.0136714
-0.00750214
-0.0136523
-0.00721389
-0.0136336
-0.00690623
-0.0136154
-0.00657941
-0.0135975
-0.00623405
-0.01358
-0.00587108
-0.0135629
-0.00549174
-0.0135461
-0.00509748
-0.0135298
-0.00468992
-0.0135138
-0.00427077
-0.0134984
-0.00384176
-0.0134837
-0.0134696
-0.00783248
-0.0140369
0.00805171
-0.00761182
-0.0140181
-0.00738572
-0.014001
-0.00715481
-0.013984
-0.00691966
-0.0139669
-0.00668079
-0.0139499
-0.00643863
-0.0139331
-0.0061935
-0.0139165
-0.00594561
-0.0139002
-0.005695
-0.0138842
-0.00544162
-0.0138688
-0.0051853
-0.0138538
-0.00492576
-0.0138396
-0.00466263
-0.013826
-0.00439553
-0.0138132
-0.00412403
-0.0138013
-0.00384771
-0.0137902
-0.00356621
-0.0137799
-0.00327923
-0.0137706
-0.0137623
-0.0062717
-0.014192
0.00642685
-0.00610706
-0.0141827
-0.00593593
-0.0141722
-0.00575796
-0.0141619
-0.0055729
-0.014152
-0.00538055
-0.0141423
-0.00518074
-0.0141329
-0.00497343
-0.0141238
-0.00475863
-0.014115
-0.00453646
-0.0141064
-0.00430713
-0.0140981
-0.00407094
-0.01409
-0.00382826
-0.0140823
-0.00357951
-0.0140748
-0.00332519
-0.0140675
-0.00306583
-0.0140606
-0.00280197
-0.014054
-0.00253417
-0.0140477
-0.00226297
-0.0140418
-0.0140363
-0.00490469
-0.0143473
0.00505993
-0.00474996
-0.0143374
-0.00459344
-0.0143287
-0.0044353
-0.0143201
-0.00427567
-0.0143116
-0.00411468
-0.0143033
-0.00395242
-0.0142952
-0.00378898
-0.0142872
-0.00362439
-0.0142796
-0.00345865
-0.0142721
-0.00329174
-0.014265
-0.00312363
-0.0142582
-0.00295424
-0.0142517
-0.00278349
-0.0142455
-0.0026113
-0.0142397
-0.00243759
-0.0142343
-0.00226227
-0.0142293
-0.00208527
-0.0142247
-0.00190657
-0.0142206
-0.0142168
-0.00433415
-0.0144743
0.00446116
-0.00420193
-0.0144696
-0.00406625
-0.0144644
-0.00392707
-0.0144593
-0.00378438
-0.0144543
-0.00363819
-0.0144495
-0.00348853
-0.0144448
-0.00333545
-0.0144403
-0.00317904
-0.014436
-0.00301939
-0.0144318
-0.00285665
-0.0144277
-0.00269096
-0.0144238
-0.0025225
-0.0144201
-0.00235145
-0.0144165
-0.00217803
-0.0144132
-0.00200243
-0.0144099
-0.00182488
-0.0144069
-0.00164559
-0.014404
-0.00146477
-0.0144014
-0.0143989
-0.00329163
-0.0145849
0.00340227
-0.0031815
-0.0145798
-0.00307062
-0.0145752
-0.00295907
-0.0145708
-0.00284687
-0.0145665
-0.00273406
-0.0145623
-0.00262069
-0.0145582
-0.00250677
-0.0145542
-0.00239232
-0.0145504
-0.00227734
-0.0145467
-0.00216184
-0.0145432
-0.00204581
-0.0145399
-0.00192922
-0.0145367
-0.00181208
-0.0145337
-0.00169435
-0.0145309
-0.00157603
-0.0145283
-0.0014571
-0.0145258
-0.00133755
-0.0145236
-0.00121738
-0.0145215
-0.0145197
-0.00301101
-0.0146807
0.00310682
-0.00291236
-0.0146784
-0.00281186
-0.0146757
-0.0027095
-0.0146732
-0.00260532
-0.0146707
-0.00249934
-0.0146683
-0.00239161
-0.0146659
-0.00228217
-0.0146637
-0.00217107
-0.0146615
-0.00205839
-0.0146594
-0.00194418
-0.0146574
-0.00182854
-0.0146555
-0.00171154
-0.0146537
-0.00159327
-0.014652
-0.00147384
-0.0146503
-0.00135332
-0.0146488
-0.00123183
-0.0146473
-0.00110947
-0.0146459
-0.000986317
-0.0146447
-0.0146435
-0.00225789
-0.0147591
0.00233623
-0.00217985
-0.0147564
-0.00210144
-0.0147542
-0.00202267
-0.0147519
-0.00194358
-0.0147498
-0.00186418
-0.0147477
-0.00178448
-0.0147456
-0.0017045
-0.0147437
-0.00162424
-0.0147418
-0.00154371
-0.01474
-0.00146292
-0.0147382
-0.00138186
-0.0147366
-0.00130054
-0.014735
-0.00121895
-0.0147335
-0.0011371
-0.0147322
-0.00105498
-0.0147309
-0.000972602
-0.0147297
-0.000889954
-0.0147286
-0.000807046
-0.0147276
-0.0147267
-0.00205498
-0.0148275
0.00212336
-0.00198504
-0.0148264
-0.00191408
-0.0148251
-0.00184211
-0.0148239
-0.00176915
-0.0148227
-0.00169522
-0.0148216
-0.00162036
-0.0148205
-0.00154459
-0.0148194
-0.00146794
-0.0148184
-0.00139045
-0.0148174
-0.00131216
-0.0148165
-0.00123312
-0.0148156
-0.00115336
-0.0148148
-0.00107293
-0.014814
-0.000991876
-0.0148132
-0.000910253
-0.0148125
-0.000828106
-0.0148118
-0.000745485
-0.0148112
-0.000662438
-0.0148106
-0.0148101
-0.00150557
-0.0148806
0.00155873
-0.00145256
-0.0148794
-0.00139935
-0.0148783
-0.00134595
-0.0148773
-0.00129237
-0.0148763
-0.00123861
-0.0148754
-0.00118468
-0.0148744
-0.00113059
-0.0148735
-0.00107636
-0.0148727
-0.00102197
-0.0148718
-0.000967448
-0.014871
-0.000912781
-0.0148703
-0.000857976
-0.0148696
-0.000803037
-0.0148689
-0.000747965
-0.0148683
-0.000692762
-0.0148677
-0.00063743
-0.0148672
-0.000581973
-0.0148667
-0.000526394
-0.0148662
-0.0148658
-0.00131679
-0.0149255
0.00136171
-0.00127102
-0.0149252
-0.00122468
-0.0149247
-0.00117779
-0.0149242
-0.00113036
-0.0149237
-0.00108241
-0.0149233
-0.00103395
-0.0149229
-0.000984996
-0.0149225
-0.000935573
-0.0149221
-0.000885699
-0.0149217
-0.000835394
-0.0149213
-0.000784682
-0.014921
-0.000733584
-0.0149207
-0.000682127
-0.0149204
-0.000630333
-0.0149201
-0.000578229
-0.0149198
-0.000525841
-0.0149196
-0.000473193
-0.0149193
-0.000420312
-0.0149191
-0.0149189
-0.000898317
-0.0149576
0.000930413
-0.000866324
-0.0149572
-0.000834235
-0.0149568
-0.000802057
-0.0149564
-0.000769793
-0.014956
-0.000737447
-0.0149556
-0.000705024
-0.0149553
-0.000672527
-0.014955
-0.000639958
-0.0149546
-0.000607322
-0.0149543
-0.000574619
-0.014954
-0.000541851
-0.0149538
-0.000509021
-0.0149535
-0.000476129
-0.0149533
-0.000443177
-0.014953
-0.000410165
-0.0149528
-0.000377095
-0.0149526
-0.000343969
-0.0149524
-0.000310789
-0.0149523
-0.0149521
-0.00070398
-0.014982
0.00072832
-0.000679199
-0.0149819
-0.000654142
-0.0149818
-0.000628813
-0.0149817
-0.000603219
-0.0149816
-0.000577368
-0.0149815
-0.000551268
-0.0149814
-0.000524926
-0.0149813
-0.000498352
-0.0149812
-0.000471555
-0.0149811
-0.000444546
-0.0149811
-0.000417335
-0.014981
-0.000389933
-0.0149809
-0.000362353
-0.0149808
-0.000334605
-0.0149808
-0.000306702
-0.0149807
-0.000278657
-0.0149807
-0.000250482
-0.0149806
-0.000222189
-0.0149806
-0.0149805
-0.000360901
-0.014995
0.000373894
-0.000348007
-0.0149948
-0.000335095
-0.0149947
-0.000322169
-0.0149946
-0.000309231
-0.0149945
-0.000296283
-0.0149944
-0.000283327
-0.0149944
-0.000270364
-0.0149943
-0.000257394
-0.0149942
-0.000244418
-0.0149941
-0.000231436
-0.014994
-0.000218449
-0.014994
-0.000205456
-0.0149939
-0.000192456
-0.0149938
-0.00017945
-0.0149938
-0.000166437
-0.0149937
-0.000153416
-0.0149937
-0.000140387
-0.0149937
-0.00012735
-0.0149936
-0.0149936
-0.000150498
0.000155521
-0.000145323
-0.000140052
-0.000134685
-0.000129225
-0.000123673
-0.000118032
-0.000112306
-0.000106497
-0.000100611
-9.46513e-05
-8.86217e-05
-8.2527e-05
-7.63717e-05
-7.01605e-05
-6.38983e-05
-5.75899e-05
-5.12401e-05
-4.48539e-05
-0.0184164
-0.0030857
0.0215021
-0.0157081
-0.0027083
-0.0133254
-0.00238268
-0.0112292
-0.00209621
-0.00938812
-0.0018411
-0.00777601
-0.00161211
-0.00637056
-0.00140545
-0.00515225
-0.00121831
-0.00410374
-0.0010485
-0.00320939
-0.000894356
-0.00245487
-0.000754517
-0.00182697
-0.000627904
-0.00131333
-0.000513634
-0.000902347
-0.000410985
-0.000582973
-0.000319374
-0.000344636
-0.000238337
-0.00017712
-0.000167516
-7.04605e-05
-0.00010666
-1.48249e-05
-5.56356e-05
-1.48249e-05
-0.00860802
-0.0037727
0.00929501
-0.00785766
-0.00345866
-0.00708326
-0.00315708
-0.00631044
-0.00286903
-0.00555697
-0.00259457
-0.00483537
-0.00233371
-0.00415439
-0.00208643
-0.00352006
-0.00185263
-0.00293639
-0.00163218
-0.00240585
-0.0014249
-0.00192976
-0.0012306
-0.00150856
-0.00104911
-0.00114197
-0.000880223
-0.000829196
-0.000723756
-0.000569041
-0.000579529
-0.000360001
-0.000447376
-0.000200368
-0.000327149
-8.83127e-05
-0.000218715
-2.19843e-05
-0.000121964
-3.68092e-05
-0.0063984
-0.00434171
0.00696741
-0.00583414
-0.00402292
-0.00527821
-0.00371301
-0.00473513
-0.00341211
-0.00420899
-0.00312071
-0.00370349
-0.00283922
-0.00322191
-0.00256801
-0.00276716
-0.00230739
-0.00234172
-0.00205761
-0.00194771
-0.0018189
-0.00158689
-0.00159142
-0.0012607
-0.0013753
-0.000970296
-0.00117062
-0.000716614
-0.000977438
-0.000500388
-0.000795754
-0.000322214
-0.000625551
-0.000182593
-0.00046677
-8.19846e-05
-0.000319324
-2.08595e-05
-0.000183089
-5.76687e-05
-0.00490926
-0.00484775
0.0054153
-0.00442115
-0.00451103
-0.00395349
-0.00418067
-0.00350778
-0.00385782
-0.00308539
-0.0035431
-0.00268751
-0.00323711
-0.00231514
-0.00294037
-0.00196917
-0.00265336
-0.0016503
-0.00237649
-0.00135908
-0.00211011
-0.00109596
-0.00185455
-0.000861219
-0.00161005
-0.000655021
-0.00137682
-0.000477414
-0.00115505
-0.000328325
-0.000944843
-0.000207572
-0.000746303
-0.000114865
-0.000559477
-4.98046e-05
-0.000384384
-1.18829e-05
-0.000221011
-6.95515e-05
-0.00462836
-0.00533765
0.00511826
-0.00416046
-0.00497893
-0.00371483
-0.0046263
-0.00329235
-0.0042803
-0.00289376
-0.00394168
-0.00251972
-0.00361115
-0.00217077
-0.00328932
-0.00184736
-0.00297677
-0.00154983
-0.00267402
-0.00127844
-0.00238151
-0.00103334
-0.00209964
-0.000814616
-0.00182877
-0.000622257
-0.00156918
-0.000456187
-0.00132112
-0.000316256
-0.00108477
-0.000202258
-0.000860302
-0.000113926
-0.000647809
-5.09458e-05
-0.000447364
-1.29612e-05
-0.000258995
-8.25127e-05
-0.00456338
-0.0058331
0.00505883
-0.00409057
-0.00545174
-0.00364177