/*--------------------------------*- C++ -*----------------------------------*\
| =========                 |                                                 |
| \\      /  F ield         | OpenFOAM: The Open Source CFD Toolbox           |
|  \\    /   O peration     | Version:  v1806                                 |
|   \\  /    A nd           | Web:      www.OpenFOAM.com                      |
|    \\/     M anipulation  |                                                 |
\*---------------------------------------------------------------------------*/
FoamFile
{
    version     2.0;
    format      ascii;
    class       volScalarField;
    location    "11";
    object      p;
}
// * * * * * * * * * * * * * * * * * * * * * * * * * * * * * * * * * * * * * //

dimensions      [0 2 -2 0 0 0 0];


internalField   nonuniform List<scalar> 
24000
(
17.462
16.4869
15.8864
15.4419
15.0233
14.6264
14.2559
13.906
13.5656
13.2289
12.8876
12.5369
12.1733
11.7951
11.3978
10.9817
10.5479
10.0971
9.6289
9.14889
17.2259
16.4195
15.8633
15.4308
15.0215
14.6285
14.2582
13.9082
13.5686
13.2338
12.8948
12.5459
12.1833
11.8059
11.4083
10.9906
10.5547
10.1013
9.62949
9.14531
17.158
16.4013
15.8628
15.4356
15.0311
14.6425
14.2759
13.9279
13.5904
13.2585
12.9216
12.5746
12.2137
11.8365
11.4373
11.0172
10.5777
10.1178
9.63807
9.14516
17.0911
16.3679
15.8504
15.4346
15.037
14.6547
14.2938
13.9502
13.6169
13.2897
12.956
12.6119
12.2533
11.8769
11.4755
11.0525
10.6081
10.1394
9.64796
9.14299
17.0545
16.3527
15.8498
15.444
15.052
14.6753
14.32
13.9808
13.6523
13.3301
13.0002
12.6594
12.3034
11.9281
11.5238
11.0974
10.6471
10.1665
9.66026
9.13901
17.0338
16.3455
15.8515
15.4547
15.0685
14.6989
14.35
14.0166
13.6938
13.3779
13.0524
12.7161
12.3629
11.9898
11.5816
11.1521
10.6944
10.1991
9.6741
9.13318
17.0254
16.3474
15.8595
15.4717
15.0904
14.7285
14.3857
14.0591
13.7426
13.4338
13.1136
12.7828
12.4331
12.0636
11.6502
11.2187
10.7522
10.2382
9.69105
9.12448
17.0266
16.3576
15.8732
15.4934
15.1164
14.7636
14.4262
14.1079
13.7985
13.4978
13.1836
12.8602
12.5141
12.1512
11.7297
11.2999
10.8215
10.2861
9.71158
9.11366
17.0358
16.3742
15.8924
15.5192
15.1467
14.804
14.4714
14.1631
13.8616
13.5694
13.2627
12.9486
12.6066
12.2544
11.8213
11.3987
10.9047
10.3461
9.73778
9.10121
17.0516
16.3959
15.9167
15.5482
15.1807
14.8494
14.5209
14.2243
13.932
13.648
13.3507
13.0481
12.7103
12.3751
11.9258
11.5183
11.0009
10.4238
9.76976
9.08836
17.0736
16.4214
15.9456
15.5792
15.2177
14.8987
14.574
14.2901
14.0097
13.7319
13.4475
13.1575
12.8253
12.513
12.0484
11.6613
11.111
10.5253
9.80595
9.07828
17.0989
16.4502
15.9774
15.6128
15.2562
14.9519
14.6297
14.3595
14.094
13.8195
13.5521
13.2749
12.9512
12.665
12.1947
11.8326
11.2408
10.6655
9.84123
9.08619
17.1266
16.4822
16.0097
15.6508
15.2959
15.0098
14.6862
14.4323
14.1829
13.9098
13.6631
13.3976
13.0887
12.8214
12.3686
12.0306
11.4058
10.8649
9.88633
9.13867
17.1572
16.5164
16.0414
15.6954
15.3382
15.0734
14.7431
14.5099
14.2735
14.0058
13.7789
13.5285
13.2367
12.9804
12.5624
12.2257
11.5976
11.1182
9.9632
9.29093
17.1951
16.5483
16.0734
15.7462
15.3867
15.1392
14.8081
14.5922
14.3648
14.1184
13.8983
13.6872
13.3917
13.1694
12.7825
12.3884
11.7781
11.2343
10.0445
9.56382
17.2419
16.5706
16.1097
15.7929
15.4445
15.1941
14.8868
14.6631
14.4639
14.2404
14.0287
13.8796
13.5771
13.4029
13.0522
12.5631
11.9647
10.9909
9.79255
9.77343
17.2866
16.5818
16.1535
15.8318
15.5075
15.2382
14.9701
14.7232
14.5697
14.3613
14.1872
14.0542
13.8101
13.6028
13.341
12.7504
12.1858
10.8736
9.52416
8.89633
17.3239
16.5941
16.2021
15.8689
15.5725
15.2849
15.0473
14.8096
14.6772
14.4982
14.367
14.214
14.087
13.7878
13.679
13.059
12.4993
11.3541
9.60007
6.96484
17.3515
16.6168
16.2474
15.9072
15.6324
15.336
15.1269
14.9087
14.7915
14.6402
14.5591
14.3836
14.3929
14.0507
14.1008
13.6153
13.2746
12.1748
9.81567
6.05373
17.3804
16.6444
16.2826
15.9446
15.6851
15.3899
15.2094
15.0024
14.9168
14.7758
14.7483
14.5905
14.6719
14.4072
14.5817
14.2046
14.3199
12.8352
11.1253
8.24852
17.2034
16.4468
15.8784
15.4411
15.0308
14.6367
14.2643
13.9116
13.5691
13.2309
12.8885
12.537
12.1729
11.7945
11.3971
10.9811
10.5477
10.0977
9.63011
9.15091
16.9707
16.3872
15.8657
15.4332
15.0302
14.641
14.2696
13.9169
13.5748
13.2384
12.898
12.548
12.1846
11.8069
11.409
10.9912
10.5553
10.1025
9.63123
9.14849
16.9032
16.3705
15.8675
15.4392
15.04
14.6555
14.2882
13.9377
13.598
13.2648
12.9267
12.5784
12.2166
11.8389
11.4393
11.019
10.5794
10.1198
9.64003
9.1484
16.8353
16.3364
15.8553
15.4385
15.0458
14.6675
14.3061
13.9601
13.6246
13.2961
12.9613
12.6161
12.2565
11.8798
11.4779
11.0546
10.6101
10.1418
9.65067
9.14724
16.798
16.3209
15.8548
15.4484
15.061
14.6883
14.3328
13.991
13.66
13.3367
13.0056
12.6637
12.3068
11.9313
11.5264
11.0995
10.6495
10.1691
9.66245
9.14236
16.7768
16.3135
15.8563
15.4591
15.0771
14.7117
14.3625
14.0268
13.7014
13.3845
13.0577
12.7203
12.3662
11.9932
11.5841
11.1541
10.6973
10.2017
9.67642
9.13772
16.768
16.3153
15.864
15.476
15.0989
14.7415
14.398
14.0694
13.7501
13.4407
13.1189
12.7872
12.4361
12.0674
11.6524
11.2205
10.756
10.2404
9.69326
9.12993
16.7688
16.3255
15.8773
15.4977
15.1248
14.7769
14.4382
14.1184
13.8057
13.5049
13.1886
12.8651
12.5166
12.156
11.7312
11.3015
10.8268
10.2875
9.71364
9.12002
16.7778
16.3423
15.8963
15.5236
15.1549
14.8179
14.483
14.1738
13.8686
13.577
13.2673
12.9545
12.6081
12.2614
11.8212
11.4001
10.911
10.3468
9.74068
9.10628
16.7936
16.3641
15.9204
15.5526
15.1886
14.8638
14.5318
14.2352
13.939
13.6559
13.3551
13.0557
12.7102
12.3854
11.9228
11.5197
11.0073
10.4251
9.7749
9.09005
16.8153
16.3898
15.949
15.5836
15.225
14.9139
14.5842
14.3011
14.0177
13.7403
13.4518
13.1677
12.8226
12.5273
12.0402
11.6633
11.1138
10.5282
9.8143
9.07469
16.8406
16.4187
15.9804
15.617
15.2623
14.9677
14.6394
14.3699
14.1045
13.8287
13.5558
13.2878
12.9451
12.6824
12.1841
11.8383
11.234
10.6698
9.84841
9.066
16.8685
16.45
16.0117
15.6544
15.3011
15.025
14.6965
14.4404
14.1969
13.9168
13.6653
13.4081
13.0772
12.8378
12.3557
12.0474
11.3887
10.8775
9.87806
9.0986
16.9008
16.4827
16.0423
15.6979
15.344
15.0871
14.7557
14.5125
14.2898
14.0036
13.7785
13.5272
13.2157
12.9865
12.5455
12.261
11.5828
11.1557
9.91313
9.21336
16.9414
16.5128
16.0744
15.7478
15.3948
15.1515
14.8231
14.5878
14.3829
14.1005
13.9018
13.6688
13.3716
13.1498
12.7545
12.4171
11.7518
11.3053
9.9165
9.40451
16.9898
16.5327
16.1111
15.7948
15.454
15.2053
14.9025
14.6547
14.4801
14.2279
14.0367
13.8699
13.5893
13.3683
13.0759
12.5274
11.8803
11.0207
9.63961
9.56218
17.0329
16.5425
16.1522
15.8351
15.5161
15.2492
14.9813
14.7194
14.5791
14.3637
14.1893
14.0596
13.8105
13.567
13.387
12.6634
12.0998
10.745
9.16877
8.75001
17.0674
16.5553
16.1996
15.8727
15.58
15.2968
15.0527
14.8134
14.6788
14.5096
14.3617
14.2261
14.0695
13.7849
13.6394
13.009
12.4357
11.2991
9.1084
5.98637
17.0921
16.5796
16.2463
15.9112
15.6391
15.3473
15.1307
14.9173
14.7936
14.6513
14.5593
14.3867
14.3824
14.0374
14.025
13.5888
13.1951
12.1921
9.40978
2.96805
17.1209
16.6064
16.2818
15.9469
15.6933
15.3988
15.218
15.0106
14.9252
14.7802
14.7548
14.5817
14.6723
14.3751
14.5659
14.2056
14.3111
12.8892
10.6674
6.51634
17.0987
16.4373
15.8869
15.448
15.0434
14.6518
14.2765
13.9192
13.5733
13.2334
12.8899
12.5375
12.1725
11.7941
11.3962
10.9799
10.5466
10.0973
9.62986
9.15109
16.8692
16.3831
15.8799
15.4439
15.0447
14.659
14.2863
13.9295
13.5833
13.2444
12.902
12.5507
12.1863
11.8081
11.4096
10.9916
10.5554
10.103
9.63081
9.15039
16.8025
16.3673
15.8833
15.4513
15.0548
14.6741
14.3061
13.9516
13.6079
13.2721
12.9321
12.5828
12.2197
11.8413
11.4411
11.0205
10.5806
10.1209
9.64004
9.15078
16.7345
16.3329
15.8717
15.4515
15.0607
14.6862
14.3243
13.9744
13.6351
13.3038
12.9671
12.6208
12.2602
11.8827
11.4801
11.0567
10.612
10.1434
9.65055
9.14901
16.6971
16.3172
15.8715
15.4619
15.076
14.7075
14.3512
14.0057
13.6709
13.3446
13.0114
12.6686
12.3107
11.9342
11.5287
11.1018
10.6516
10.1709
9.66277
9.14407
16.6756
16.3096
15.8728
15.4726
15.0919
14.7311
14.3807
14.0414
13.7124
13.3925
13.0635
12.7251
12.3703
11.9958
11.5864
11.1562
10.6995
10.2036
9.67823
9.14
16.6666
16.3115
15.88
15.4894
15.1137
14.7615
14.4159
14.0839
13.761
13.4489
13.1244
12.792
12.4403
12.0695
11.6547
11.2222
10.7578
10.2421
9.6934
9.13163
16.6673
16.322
15.8928
15.5111
15.1395
14.7976
14.4554
14.1329
13.8162
13.5135
13.1936
12.87
12.5205
12.1575
11.7336
11.3019
10.8283
10.2882
9.7134
9.12222
16.6762
16.339
15.9115
15.537
15.1694
14.8392
14.4993
14.1885
13.8784
13.5864
13.2714
12.9597
12.6113
12.2622
11.8232
11.3987
10.9124
10.3446
9.74069
9.10918
16.6922
16.3612
15.9349
15.5662
15.203
14.8855
14.5472
14.25
13.9478
13.6663
13.358
13.0615
12.7118
12.3859
11.9234
11.5175
11.0084
10.4168
9.77609
9.09733
16.7143
16.3871
15.9627
15.5973
15.2389
14.9356
14.5995
14.3164
14.0255
13.7511
13.4536
13.1735
12.8218
12.5273
12.0372
11.6618
11.1119
10.5117
9.81151
9.06727
16.7401
16.4161
15.993
15.6302
15.2761
14.9889
14.6561
14.3861
14.1117
13.8385
13.5575
13.2918
12.9425
12.6812
12.1738
11.837
11.2282
10.6415
9.84654
9.04098
16.7685
16.4468
16.0236
15.6663
15.3153
15.045
14.7158
14.4576
14.2048
13.9256
13.6668
13.4115
13.0737
12.8361
12.3388
12.044
11.3653
10.8251
9.86117
9.02202
16.802
16.4775
16.0544
15.7073
15.3595
15.1042
14.7759
14.5287
14.2951
14.0122
13.7769
13.5309
13.2104
12.9821
12.5241
12.2509
11.5337
11.0559
9.86175
9.04292
16.8461
16.5043
16.0874
15.7546
15.413
15.1648
14.842
14.5935
14.3802
14.1095
13.8883
13.6714
13.349
13.1288
12.7147
12.412
11.6826
11.1934
9.83226
9.07467
16.898
16.5209
16.1242
15.8025
15.4745
15.2205
14.9189
14.6553
14.4729
14.2314
14.0263
13.8694
13.5556
13.3209
12.9869
12.5103
11.7691
11.0733
9.64354
8.94332
16.9411
16.5275
16.1628
15.8447
15.5362
15.2662
14.9934
14.7243
14.5744
14.3687
14.1999
14.0677
13.7993
13.5474
13.2682
12.615
11.8919
10.8863
9.21764
8.09948
16.9731
16.5427
16.2076
15.884
15.5958
15.3151
15.0585
14.8202
14.6794
14.5092
14.3741
14.2181
14.0745
13.786
13.5726
12.8899
12.2142
11.1882
8.99322
5.58094
16.9925
16.5718
16.2565
15.9261
15.6514
15.3669
15.1353
14.9285
14.7981
14.6548
14.569
14.3803
14.3919
14.0058
13.9647
13.4077
13.1479
12.0186
9.42822
1.36052
17.0157
16.5988
16.2922
15.9595
15.7069
15.4157
15.2284
15.024
14.9352
14.7859
14.7628
14.5757
14.6692
14.3101
14.5215
14.0718
14.3751
12.8351
11.4112
7.08446
17.0184
16.4207
15.8885
15.4502
15.05
14.6614
14.2851
13.9252
13.5771
13.236
12.8917
12.5386
12.173
11.7942
11.3962
10.9796
10.5462
10.0975
9.63032
9.1516
16.7902
16.3676
15.8836
15.4487
15.0521
14.6697
14.2974
13.9382
13.5897
13.2494
12.9058
12.5537
12.1885
11.8098
11.4109
10.9928
10.5564
10.1043
9.63174
9.15158
16.724
16.3518
15.888
15.4575
15.0624
14.6851
14.3179
13.9613
13.6151
13.2777
12.9366
12.5869
12.223
11.8438
11.4432
11.0226
10.5824
10.1228
9.64125
9.15241
16.656
16.3173
15.8769
15.4581
15.0684
14.6974
14.3363
13.9843
13.6429
13.3096
12.972
12.6253
12.264
11.8854
11.4827
11.059
10.6142
10.1462
9.6576
9.15244
16.6185
16.3015
15.8769
15.4689
15.0839
14.7191
14.3633
14.0159
13.6791
13.3506
13.0164
12.6732
12.3147
11.937
11.5314
11.1045
10.6538
10.1736
9.66487
9.14523
16.5969
16.2938
15.8781
15.4796
15.0998
14.7428
14.3925
14.0515
13.7207
13.3985
13.0684
12.7297
12.3744
11.9981
11.5894
11.1587
10.7014
10.2066
9.68374
9.14344
16.5877
16.2958
15.8851
15.4965
15.1215
14.7737
14.4274
14.0941
13.7693
13.4551
13.1292
12.7966
12.4444
12.0713
11.6581
11.2244
10.7591
10.2448
9.69582
9.13185
16.5884
16.3064
15.8978
15.518
15.1472
14.8104
14.4664
14.1431
13.8241
13.5202
13.198
12.8746
12.5247
12.158
11.738
11.3027
10.8288
10.2905
9.71949
9.12655
16.5972
16.3236
15.9158
15.544
15.1769
14.8526
14.5096
14.1988
13.8857
13.5939
13.2746
12.9648
12.6148
12.2619
11.8288
11.3975
10.9119
10.3449
9.7418
9.11034
16.6132
16.3459
15.9386
15.5735
15.2102
14.8993
14.5572
14.2603
13.9543
13.675
13.3592
13.0676
12.7139
12.3848
11.9299
11.5137
11.008
10.4119
9.77714
9.10079
16.6351
16.3721
15.9655
15.6051
15.2458
14.9496
14.6093
14.3265
14.0305
13.7604
13.4522
13.1811
12.8223
12.5263
12.0429
11.6592
11.1139
10.4989
9.81049
9.06711
16.6617
16.4009
15.9949
15.6382
15.2833
15.0022
14.6664
14.3954
14.1143
13.8477
13.554
13.3006
12.9425
12.6806
12.1751
11.8374
11.2266
10.6207
9.85164
9.02719
16.6925
16.4307
16.0261
15.6736
15.3235
15.0563
14.7273
14.4649
14.2029
13.935
13.6637
13.4209
13.0744
12.8369
12.33
12.047
11.3559
10.7964
9.88412
8.98037
16.73
16.4587
16.0595
15.7125
15.3695
15.1108
14.7893
14.5301
14.2925
14.0247
13.7767
13.5406
13.2142
12.9826
12.5007
12.2562
11.5037
11.0135
9.87342
8.94051
16.7783
16.4787
16.095
15.7568
15.4258
15.1673
14.8571
14.5983
14.3781
14.1293
13.896
13.6814
13.3581
13.1172
12.6709
12.415
11.6344
11.1611
9.81005
8.887
16.8332
16.4914
16.13
15.8039
15.4911
15.2229
14.9356
14.6581
14.476
14.2432
14.0454
13.8772
13.5712
13.2996
12.896
12.5099
11.7278
11.0999
9.64939
8.67334
16.8748
16.5027
16.1649
15.8484
15.5532
15.2749
15.0074
14.7303
14.5777
14.3736
14.2208
14.0757
13.8352
13.5647
13.2133
12.5994
11.8714
10.9486
9.40001
8.0767
16.8987
16.5261
16.2063
15.893
15.6066
15.3313
15.0676
14.8317
14.6807
14.5112
14.3836
14.233
14.0983
13.8359
13.5665
12.8497
12.1641
11.1139
9.33352
6.36466
16.9073
16.5613
16.2525
15.9381
15.6547
15.3879
15.1367
14.9431
14.7983
14.6606
14.5654
14.3955
14.3927
14.0515
13.9059
13.3031
13.0208
11.8184
10.2112
2.22624
16.9272
16.588
16.2902
15.9681
15.7079
15.4317
15.2306
15.038
14.9434
14.7911
14.7715
14.5782
14.6727
14.2763
14.4337
13.9845
14.2438
13.0488
12.6257
11.0285
16.9796
16.4129
15.8904
15.4521
15.0536
14.6666
14.2902
13.9289
13.5794
13.2377
12.8928
12.5393
12.1734
11.7945
11.3964
10.9796
10.5462
10.0978
9.63088
9.15182
16.752
16.3603
15.8868
15.4525
15.0562
14.6754
14.3035
13.9432
13.5934
13.2523
12.9082
12.5555
12.19
11.8109
11.4119
10.9934
10.5575
10.1058
9.63701
9.15203
16.6861
16.3446
15.892
15.4618
15.0666
14.6911
14.3243
13.9668
13.6194
13.2811
12.9392
12.5892
12.2249
11.8452
11.4444
11.0239
10.5834
10.1241
9.64222
9.15295
16.6182
16.31
15.8812
15.4627
15.0728
14.7035
14.3428
13.99
13.6475
13.3131
12.9747
12.6278
12.2662
11.8868
11.4842
11.0604
10.6154
10.1478
9.65944
9.15201
16.5806
16.2942
15.8812
15.4736
15.0884
14.7253
14.3699
14.0217
13.6839
13.3542
13.0191
12.6759
12.3169
11.9383
11.533
11.1061
10.6548
10.175
9.66566
9.14541
16.559
16.2865
15.8824
15.4844
15.1043
14.7492
14.399
14.0572
13.7257
13.4021
13.0711
12.7324
12.3769
11.999
11.5912
11.1603
10.7019
10.2081
9.68555
9.14336
16.5497
16.2885
15.8893
15.5014
15.1259
14.7804
14.4336
14.0997
13.7743
13.4589
13.1317
12.7994
12.447
12.0716
11.6603
11.2259
10.759
10.2462
9.6966
9.13102
16.5502
16.2992
15.9018
15.523
15.1515
14.8174
14.4725
14.1487
13.829
13.5243
13.2001
12.8773
12.5274
12.1573
11.7412
11.3037
10.8276
10.2918
9.72125
9.12512
16.5589
16.3166
15.9195
15.5491
15.1811
14.8599
14.5156
14.2043
13.8901
13.5986
13.2759
12.968
12.6173
12.2601
11.8335
11.3977
10.9093
10.3449
9.74241
9.10913
16.5747
16.3393
15.942
15.5789
15.2142
14.9067
14.5631
14.2657
13.958
13.6804
13.3592
13.0713
12.716
12.3821
11.9361
11.5129
11.0036
10.4087
9.77798
9.10039
16.5966
16.3656
15.9686
15.611
15.25
14.9568
14.6154
14.3315
14.0332
13.7666
13.4508
13.1857
12.824
12.5235
12.0489
11.659
11.108
10.4893
9.80905
9.06561
16.6237
16.3944
15.9981
15.6445
15.288
15.0087
14.6725
14.3999
14.1157
13.8544
13.5522
13.3057
12.9447
12.6784
12.1789
11.8398
11.2225
10.6061
9.84758
9.01267
16.656
16.424
16.0302
15.6795
15.3285
15.0613
14.7337
14.4698
14.2036
13.9427
13.6625
13.427
13.0794
12.8365
12.331
12.0521
11.3555
10.7795
9.88934
8.95081
16.6962
16.4512
16.0658
15.7173
15.3754
15.1148
14.7977
14.5422
14.2943
14.035
13.7789
13.5496
13.2289
12.9863
12.4967
12.2626
11.5086
10.9983
9.88143
8.87768
16.7483
16.4711
16.1026
15.7599
15.4333
15.1692
14.869
14.6074
14.3867
14.1428
13.9075
13.6959
13.3989
13.1321
12.6623
12.4229
11.656
11.1487
9.79161
8.78763
16.8065
16.4822
16.1364
15.8043
15.5023
15.2258
14.9543
14.6703
14.4915
14.266
14.0663
13.8824
13.6128
13.3302
12.8714
12.5292
11.7771
11.1172
9.63594
8.57114
16.848
16.4952
16.1696
15.8503
15.5661
15.2819
15.0312
14.7455
14.5985
14.3808
14.2457
14.0697
13.8844
13.6122
13.2289
12.6445
11.8938
10.9616
9.54057
8.16987
16.8676
16.522
16.2087
15.8989
15.6171
15.3449
15.0888
14.8472
14.6972
14.5143
14.3954
14.2342
14.1404
13.8776
13.6091
12.9266
12.1016
11.0575
9.64602
7.58504
16.87
16.5585
16.2527
15.9463
15.6599
15.405
15.1479
14.9574
14.8069
14.6632
14.564
14.4026
14.3998
14.0844
13.8672
13.3073
12.8598
11.7312
10.091
6.08539
16.887
16.5836
16.2898
15.9735
15.7084
15.4439
15.2323
15.0477
14.9438
14.7937
14.7698
14.5849
14.6723
14.2746
14.3549
13.8681
14.2249
12.9487
11.6669
9.25328
16.9796
16.4129
15.8904
15.4521
15.0536
14.6666
14.2902
13.9288
13.5794
13.2377
12.8927
12.5393
12.1735
11.7945
11.3964
10.9796
10.5462
10.0978
9.63087
9.15183
16.752
16.3603
15.8868
15.4525
15.0562
14.6754
14.3035
13.9432
13.5935
13.2523
12.9081
12.5554
12.1901
11.8108
11.4119
10.9935
10.5575
10.1057
9.63699
9.15203
16.6861
16.3446
15.8921
15.4618
15.0665
14.6911
14.3243
13.9667
13.6195
13.2811
12.9391
12.5893
12.225
11.845
11.4443
11.024
10.5833
10.124
9.64225
9.15295
16.6181
16.31
15.8812
15.4627
15.0727
14.7036
14.3428
13.9899
13.6477
13.3131
12.9745
12.6279
12.2664
11.8865
11.4842
11.0606
10.6151
10.1476
9.6595
9.15198
16.5805
16.2942
15.8814
15.4735
15.0883
14.7256
14.3698
14.0215
13.6841
13.3542
13.0188
12.6761
12.3172
11.9378
11.5331
11.1063
10.6543
10.1749
9.66576
9.14532
16.5589
16.2866
15.8826
15.4843
15.1042
14.7495
14.3989
14.057
13.726
13.4022
13.0706
12.7327
12.3772
11.9982
11.5916
11.1606
10.7011
10.2079
9.68567
9.14309
16.5496
16.2888
15.8895
15.5012
15.1258
14.7807
14.4335
14.0994
13.7746
13.459
13.1309
12.7999
12.4474
12.0703
11.6611
11.2264
10.7576
10.246
9.69673
9.1306
16.5501
16.2997
15.902
15.5228
15.1514
14.8177
14.4725
14.1481
13.8294
13.5245
13.199
12.8781
12.5278
12.1553
11.7427
11.3045
10.8254
10.2914
9.72137
9.12434
16.5588
16.3175
15.9198
15.549
15.181
14.8602
14.5158
14.2034
13.8905
13.599
13.2742
12.9691
12.6177
12.2572
11.8362
11.399
10.9057
10.344
9.74255
9.10777
16.5746
16.3401
15.9423
15.5791
15.2142
14.9068
14.5639
14.2642
13.9584
13.681
13.3569
13.0727
12.7166
12.3781
11.94
11.5151
10.9982
10.4063
9.7783
9.09821
16.5965
16.3668
15.9691
15.6119
15.2504
14.9564
14.6166
14.3294
14.0336
13.7677
13.4478
13.1873
12.8252
12.5184
12.0527
11.6625
11.1005
10.4842
9.81063
9.06269
16.6237
16.396
15.9989
15.6461
15.2886
15.0072
14.6739
14.3971
14.1162
13.8561
13.5489
13.3072
12.9471
12.6731
12.1808
11.8457
11.2147
10.5986
9.85515
9.01028
16.6565
16.4254
16.0313
15.6812
15.3293
15.0583
14.7352
14.4672
14.2041
13.9447
13.66
13.4279
13.0831
12.8329
12.3301
12.0619
11.3501
10.775
9.90672
8.95407
16.6975
16.4518
16.0668
15.7186
15.376
15.1114
14.8006
14.5407
14.2951
14.0376
13.778
13.5489
13.2357
12.986
12.4968
12.2786
11.5082
11.0258
9.91557
8.88926
16.7507
16.4706
16.1036
15.7599
15.4339
15.1671
14.8751
14.6128
14.3891
14.1459
13.9079
13.6928
13.4117
13.1367
12.6748
12.4544
11.6616
11.2625
9.85093
8.78859
16.8101
16.4836
16.137
15.8023
15.5037
15.2248
14.9644
14.6824
14.4956
14.2691
14.0677
13.8672
13.6373
13.3398
12.892
12.5914
11.7902
11.2114
9.72488
8.53717
16.8523
16.5001
16.1697
15.8477
15.5681
15.2821
15.0443
14.7569
14.6039
14.3834
14.2446
14.0447
13.8929
13.6103
13.2731
12.7234
11.9133
10.8744
9.57556
7.9406
16.8707
16.527
16.2069
15.8963
15.6182
15.3455
15.0995
14.8524
14.697
14.5109
14.3817
14.2185
14.1406
13.8779
13.719
13.0439
12.0764
10.8299
9.50374
6.60149
16.8709
16.5602
16.249
15.9432
15.6589
15.4056
15.1515
14.9581
14.7998
14.6559
14.5394
14.3962
14.393
14.1049
13.9871
13.4708
12.7175
11.5916
10.0006
4.38949
16.8863
16.5827
16.2865
15.9703
15.7065
15.4435
15.2315
15.0453
14.94
14.7857
14.7565
14.5859
14.6719
14.3211
14.4184
13.8366
14.2034
12.5409
12.0212
5.86947
17.0184
16.4207
15.8885
15.4502
15.0499
14.6614
14.2852
13.9252
13.577
13.2361
12.8916
12.5385
12.1731
11.7942
11.3961
10.9796
10.5462
10.0974
9.63028
9.15159
16.7902
16.3676
15.8837
15.4487
15.052
14.6698
14.2974
13.9381
13.5897
13.2495
12.9057
12.5536
12.1887
11.8097
11.4107
10.9929
10.5563
10.1041
9.63171
9.15158
16.724
16.3519
15.8882
15.4574
15.0622
14.6854
14.3179
13.961
13.6153
13.2778
12.9363
12.5869
12.2233
11.8434
11.4431
11.0229
10.582
10.1226
9.64131
9.1524
16.656
16.3174
15.8772
15.458
15.0682
14.6978
14.3361
13.984
13.6433
13.3097
12.9714
12.6255
12.2645
11.8845
11.4828
11.0594
10.6135
10.1459
9.65777
9.15237
16.6184
16.3017
15.8773
15.4686
15.0837
14.7197
14.363
14.0154
13.6797
13.3507
13.0154
12.6738
12.3153
11.9355
11.5318
11.1051
10.6524
10.1732
9.66516
9.1451
16.5968
16.2942
15.8786
15.4792
15.0996
14.7437
14.3922
14.0507
13.7215
13.3987
13.0669
12.7306
12.3753
11.9957
11.5904
11.1596
10.6988
10.206
9.68408
9.14305
16.5876
16.2965
15.8858
15.496
15.1212
14.7748
14.427
14.0929
13.7704
13.4555
13.1269
12.7981
12.4455
12.0675
11.6603
11.2256
10.7549
10.2441
9.69627
9.13089
16.5881
16.3075
15.8985
15.5176
15.1469
14.8115
14.4663
14.1413
13.8254
13.5209
13.1947
12.8767
12.5259
12.1522
11.7424
11.3047
10.8221
10.2894
9.71999
9.12459
16.5969
16.3253
15.9164
15.544
15.1767
14.8536
14.5104
14.196
13.887
13.5951
13.2699
12.9679
12.6159
12.2533
11.8364
11.4008
10.9015
10.342
9.74242
9.10702
16.6128
16.3483
15.9393
15.5745
15.2102
14.8998
14.5594
14.2562
13.9555
13.6766
13.3527
13.0714
12.7155
12.3728
11.9406
11.5197
10.9921
10.4042
9.77803
9.09554
16.6347
16.3753
15.9665
15.6079
15.2469
14.9486
14.6131
14.3204
14.0313
13.7633
13.4441
13.1853
12.8256
12.5112
12.0526
11.6692
11.0925
10.4829
9.81471
9.05902
16.6617
16.4048
15.9966
15.6429
15.2857
14.9986
14.6707
14.3875
14.1146
13.8523
13.5462
13.3039
12.9499
12.6646
12.1788
11.8545
11.2066
10.5952
9.86792
9.01995
16.6937
16.4344
16.0286
15.6787
15.3262
15.049
14.7311
14.4578
14.2027
13.9414
13.6591
13.4212
13.0886
12.825
12.3247
12.0754
11.3419
10.7609
9.92619
8.9856
16.7333
16.4604
16.0627
15.7162
15.3717
15.102
14.7943
14.5327
14.2932
14.0334
13.7763
13.5352
13.2413
12.9796
12.4894
12.2936
11.4956
10.9796
9.96173
8.96598
16.7844
16.4799
16.0984
15.7574
15.4275
15.1588
14.8672
14.6089
14.3843
14.1424
13.9027
13.6654
13.4094
13.1278
12.6577
12.4457
11.6394
11.1981
9.94399
8.92231
16.8424
16.4951
16.1332
15.7993
15.4941
15.2176
14.9551
14.6829
14.484
14.2664
14.0574
13.8481
13.6038
13.3283
12.8524
12.5359
11.7823
11.2484
9.887
8.72107
16.886
16.5131
16.1666
15.841
15.5587
15.2736
15.0338
14.7542
14.586
14.378
14.2208
14.0401
13.8454
13.6086
13.2075
12.7283
11.9424
11.0209
9.78723
8.20301
16.9074
16.5375
16.2034
15.8862
15.6122
15.3323
15.0914
14.84
14.6777
14.496
14.3506
14.2196
14.0742
13.9067
13.664
13.0776
12.1034
10.8469
9.45788
7.02209
16.9103
16.5656
16.2439
15.9314
15.6542
15.3887
15.1447
14.9383
14.7822
14.6426
14.5092
14.4076
14.3452
14.1739
14.0553
13.5389
12.4625
11.3457
8.73051
5.07304
16.9255
16.5868
16.2825
15.9615
15.7027
15.4292
15.2271
15.0282
14.9353
14.7787
14.7499
14.5961
14.6665
14.3957
14.5527
13.8965
14.0472
12.3905
10.437
3.19305
17.0988
16.4373
15.887
15.4481
15.0433
14.6519
14.2766
13.9191
13.5733
13.2336
12.8898
12.5374
12.1727
11.794
11.396
10.9799
10.5465
10.0971
9.6298
9.15109
16.8692
16.3831
15.88
15.4439
15.0446
14.6591
14.2864
13.9292
13.5834
13.2446
12.9018
12.5505
12.1866
11.8079
11.4093
10.9918
10.5553
10.1027
9.63077
9.1504
16.8024
16.3673
15.8836
15.4512
15.0546
14.6744
14.3061
13.9512
13.6082
13.2722
12.9315
12.583
12.2201
11.8407
11.4409
11.0209
10.5801
10.1205
9.64012
9.15079
16.7345
16.333
15.8721
15.4512
15.0604
14.6869
14.3241
13.9738
13.6357
13.3039
12.9661
12.6213
12.2609
11.8814
11.4801
11.0573
10.6109
10.1428
9.65075
9.14893
16.697
16.3175
15.8722
15.4615
15.0756
14.7086
14.3508
14.0048
13.6719
13.3447
13.0099
12.6694
12.3117
11.932
11.5292
11.1027
10.6495
10.1701
9.66305
9.14402
16.6754
16.3102
15.8737
15.4719
15.0915
14.7325
14.3801
14.0401
13.7138
13.3928
13.0611
12.7266
12.3716
11.9922
11.5878
11.1574
10.6957
10.2025
9.67825
9.13953
16.6662
16.3125
15.8812
15.4886
15.1131
14.7632
14.4152
14.082
13.7629
13.4494
13.1209
12.7943
12.4419
12.0639
11.6579
11.2238
10.7515
10.2406
9.69385
9.13068
16.6668
16.3236
15.8943
15.5104
15.1389
14.7995
14.4551
14.13
13.8184
13.5146
13.1885
12.8734
12.5222
12.1488
11.7399
11.3041
10.818
10.2858
9.71389
9.11991
16.6756
16.3415
15.9128
15.537
15.1688
14.841
14.5003
14.1841
13.8807
13.5882
13.2641
12.9646
12.6126
12.2492
11.834
11.4024
10.8964
10.3391
9.74128
9.1056
16.6915
16.3647
15.9362
15.5677
15.2028
14.8866
14.5507
14.2434
13.9503
13.6692
13.3479
13.0678
12.713
12.3672
11.9377
11.5243
10.9851
10.4038
9.77621
9.09121
16.7132
16.392
15.964
15.6016
15.2403
14.9348
14.606
14.3067
14.0277
13.7559
13.441
13.1809
12.8252
12.5035
12.0503
11.6756
11.0839
10.4866
9.81396
9.05572
16.7394
16.4219
15.9944
15.6374
15.2797
14.9841
14.6643
14.3733
14.1126
13.846
13.5464
13.2988
12.9518
12.6563
12.1743
11.8624
11.1996
10.6011
9.86459
9.02661
16.7697
16.4519
16.0251
15.6745
15.3202
15.0345
14.7232
14.4436
14.202
13.9369
13.6638
13.4145
13.0942
12.8194
12.3183
12.0881
11.3438
10.76
9.92426
9.01568
16.8066
16.4799
16.0564
15.7141
15.3642
15.0894
14.7827
14.5202
14.2917
14.0305
13.7861
13.5263
13.2469
12.9808
12.4887
12.32
11.5044
10.9531
9.98188
9.04926
16.8543
16.5036
16.0905
15.7576
15.4177
15.1504
14.8518
14.6013
14.3804
14.1383
13.912
13.6604
13.4111
13.1397
12.6682
12.5095
11.6541
11.0986
10.0111
9.07244
16.9092
16.5211
16.1277
15.7999
15.4809
15.2095
14.9355
14.6796
14.4756
14.2616
14.0544
13.8452
13.6001
13.3456
12.868
12.5864
11.8287
11.1646
10.0192
8.85448
16.9535
16.5366
16.1638
15.837
15.5454
15.261
15.0158
14.7488
14.5757
14.3742
14.2054
14.057
13.8159
13.6101
13.1631
12.6837
11.9939
11.2603
10.1224
8.19489
16.9801
16.5562
16.2033
15.8758
15.6042
15.3127
15.0814
14.8255
14.6708
14.4944
14.3435
14.2511
14.0534
13.8746
13.5385
12.9836
12.0484
11.4377
10.0215
6.87285
16.9915
16.5795
16.2446
15.9189
15.6513
15.3665
15.1415
14.9157
14.7786
14.6423
14.5155
14.4295
14.3465
14.1141
13.9606
13.4239
12.4273
11.8553
8.65938
4.44373
17.0117
16.5996
16.2848
15.9521
15.702
15.4117
15.2248
15.0088
14.9331
14.7717
14.7526
14.5974
14.6547
14.3804
14.5342
13.8302
13.9168
12.576
9.16397
2.02827
17.2034
16.4468
15.8785
15.4412
15.0307
14.6368
14.2644
13.9115
13.5691
13.2311
12.8884
12.5369
12.1731
11.7944
11.3968
10.9811
10.5476
10.0975
9.63002
9.15092
16.9708
16.3873
15.8659
15.4333
15.03
14.6412
14.2698
13.9166
13.5749
13.2387
12.8976
12.5479
12.185
11.8067
11.4086
10.9914
10.5552
10.1022
9.63116
9.14851
16.9032
16.3706
15.8679
15.4391
15.0397
14.6559
14.2882
13.9372
13.5984
13.265
12.926
12.5786
12.2171
11.8382
11.4391
11.0194
10.5788
10.1193
9.64009
9.14842
16.8353
16.3366
15.8558
15.4383
15.0454
14.6683
14.306
13.9594
13.6253
13.2963
12.9601
12.6166
12.2573
11.8784
11.4778
11.0553
10.6089
10.1411
9.65092
9.14719
16.7979
16.3212
15.8557
15.4479
15.0603
14.6896
14.3323
13.9899
13.6613
13.3369
13.0037
12.6647
12.308
11.9287
11.5268
11.1005
10.6471
10.1681
9.66289
9.1422
16.7766
16.314
15.8576
15.4584
15.0764
14.7136
14.3618
14.0251
13.7031
13.3849
13.0549
12.722
12.3678
11.9891
11.5854
11.1554
10.693
10.2004
9.67709
9.13718
16.7676
16.3162
15.8657
15.4752
15.098
14.7438
14.3973
14.0669
13.7524
13.4415
13.1146
12.7898
12.4381
12.061
11.6556
11.2219
10.7486
10.2387
9.69417
9.12869
16.7683
16.3271
15.8794
15.4971
15.1238
14.7795
14.4379
14.1147
13.8083
13.5064
13.1825
12.8688
12.5186
12.1461
11.7377
11.3031
10.8146
10.2845
9.71471
9.118
16.7771
16.3448
15.8985
15.5238
15.1539
14.8203
14.4841
14.1683
13.8714
13.5796
13.2589
12.9596
12.6098
12.2463
11.8321
11.4029
10.8921
10.3398
9.74111
9.10355
16.7926
16.368
15.9225
15.5548
15.1881
14.8652
14.5358
14.2272
13.9418
13.6604
13.3439
13.0624
12.7117
12.3633
11.9373
11.5266
10.9808
10.4091
9.77292
9.08435
16.8139
16.3952
15.9508
15.5888
15.226
14.913
14.5922
14.29
14.0197
13.747
13.4386
13.1759
12.8266
12.4979
12.0522
11.678
11.0817
10.4987
9.8116
9.0605
16.8397
16.4251
15.9813
15.625
15.266
14.9624
14.6506
14.3558
14.1039
13.8378
13.545
13.2955
12.9568
12.6508
12.1783
11.8646
11.2017
10.6203
9.86194
9.03843
16.8696
16.4559
16.0118
15.6635
15.3073
15.0136
14.7081
14.4258
14.192
13.9297
13.6661
13.4116
13.1018
12.8162
12.3237
12.0946
11.3591
10.7772
9.93564
9.05538
16.9057
16.486
16.0422
15.7054
15.3515
15.0703
14.7664
14.5036
14.2823
14.0241
13.7955
13.5231
13.2548
12.9843
12.4964
12.3591
11.5483
10.9609
10.0304
9.15095
16.9501
16.5127
16.075
15.7505
15.4035
15.1331
14.8342
14.591
14.3751
14.1332
13.928
13.6516
13.4207
13.1598
12.6984
12.5705
11.7308
11.1017
10.0936
9.30556
17.0003
16.5328
16.113
15.7917
15.4646
15.1909
14.9158
14.6722
14.4735
14.2594
14.0679
13.8408
13.6161
13.3806
12.949
12.6726
11.9405
11.1845
10.1473
9.24924
17.0432
16.5489
16.153
15.8274
15.5279
15.2414
14.9953
14.7402
14.5741
14.3739
14.212
14.0546
13.8212
13.612
13.2346
12.7672
12.1641
11.4339
10.3784
8.80343
17.073
16.5673
16.1956
15.8641
15.589
15.2908
15.068
14.8165
14.674
14.5017
14.3519
14.2616
14.0402
13.8377
13.5228
13.0532
12.3055
11.7745
10.5182
7.63046
17.0917
16.5886
16.2369
15.9053
15.6395
15.3444
15.1363
14.9033
14.7826
14.6473
14.5231
14.4425
14.3215
14.0957
13.9128
13.511
12.7687
12.2122
9.64142
4.9352
17.1171
16.6087
16.2763
15.9407
15.6904
15.394
15.216
14.995
14.9246
14.7684
14.7486
14.5986
14.6498
14.3811
14.5121
13.9402
13.9808
12.8144
9.80423
2.13003
17.462
16.4869
15.8865
15.4419
15.0232
14.6265
14.256
13.9058
13.5657
13.229
12.8874
12.5368
12.1735
11.795
11.3976
10.9817
10.5478
10.0969
9.62883
9.14888
17.2259
16.4195
15.8635
15.4308
15.0214
14.6287
14.2583
13.9079
13.5687
13.234
12.8945
12.5458
12.1836
11.8057
11.408
10.9908
10.5545
10.1009
9.62943
9.14532
17.1581
16.4014
15.8631
15.4356
15.0308
14.6429
14.2759
13.9275
13.5907
13.2587
12.9211
12.5748
12.2142
11.8358
11.4371
11.0176
10.5772
10.1173
9.63809
9.1452
17.0911
16.3681
15.8509
15.4344
15.0367
14.6554
14.2937
13.9496
13.6176
13.2898
12.955
12.6124
12.2539
11.8756
11.4754
11.0531
10.607
10.1386
9.6481
9.14306
17.0544
16.3531
15.8507
15.4436
15.0515
14.6764
14.3196
13.9799
13.6533