x,y,z,U_0,U_1,U_2
0,0,0,1.5,0,0
0,0.1,0,2.1,0,0
0,0.2,0,2.7,0,0
0,0.3,0,3,0,0
0,0.4,0,3,0,0
0,0.5,0,3,0,0
0,0.6,0,3,0,0
0,0.7,0,3,0,0
0,0.8,0,3,0,0
0,0.9,0,3,0,0
0,1,0,3,0,0
0,1.1,0,3,0,0
0,1.2,0,3,0,0
0,1.3,0,3,0,0
0,1.4,0,3,0,0
0,1.5,0,3,0,0
0,1.6,0,3,0,0
0,1.7,0,3,0,0
0,1.8,0,3,0,0
0,1.9,0,3,0,0
0,2,0,3,0,0
0,2.1,0,3,0,0
0,2.2,0,3,0,0
0,2.3,0,3,0,0
0,2.4,0,3,0,0
0,2.5,0,3,0,0
0,2.6,0,3,0,0
0,2.7,0,3,0,0
0,2.8,0,3,0,0
0,2.9,0,3,0,0
0,3,0,3,0,0
0,3.1,0,3,0,0
0,3.2,0,3,0,0
0,3.3,0,3,0,0
0,3.4,0,3,0,0
0,3.5,0,3,0,0
0,3.6,0,3,0,0
0,3.7,0,3,0,0
0,3.8,0,3,0,0
0,3.9,0,3,0,0
0,4,0,3,0,0
0,4.1,0,3,0,0
0,4.2,0,3,0,0
0,4.3,0,3,0,0
0,4.4,0,3,0,0
0,4.5,0,3,0,0
0,4.6,0,3,0,0
0,4.7,0,3,0,0
0,4.8,0,3,0,0
0,4.9,0,3,0,0
0,5,0,3,0,0
0,5.1,0,3,0,0
0,5.2,0,3,0,0
0,5.3,0,3,0,0
0,5.4,0,3,0,0
0,5.5,0,3,0,0
0,5.6,0,3,0,0
0,5.7,0,3,0,0
0,5.8,0,3,0,0
0,5.9,0,3,0,0
0,6,0,3,0,0
0,6.1,0,3,0,0
0,6.2,0,3,0,0
0,6.3,0,3,0,0
0,6.4,0,3,0,0
0,6.5,0,3,0,0
0,6.6,0,3,0,0
0,6.7,0,3,0,0
0,6.8,0,3,0,0
0,6.9,0,3,0,0
0,7,0,3,0,0
0,7.1,0,3,0,0
0,7.2,0,3,0,0
0,7.3,0,3,0,0
0,7.4,0,3,0,0
0,7.5,0,3,0,0
0,7.6,0,3,0,0
0,7.7,0,3,0,0
0,7.8,0,3,0,0
0,7.9,0,3,0,0
0,8,0,3,0,0
0,8.1,0,3,0,0
0,8.2,0,3,0,0
0,8.3,0,3,0,0
0,8.4,0,3,0,0
0,8.5,0,3,0,0
0,8.6,0,3,0,0
0,8.7,0,3,0,0
0,8.8,0,3,0,0
0,8.9,0,3,0,0
0,9,0,3,0,0
0,9.1,0,3,0,0
0,9.2,0,3,0,0
0,9.3,0,3,0,0
0,9.4,0,3,0,0
0,9.5,0,3,0,0
0,9.6,0,3,0,0
0,9.7,0,3,0,0
0,9.8,0,3,0,0
0,9.9,0,3,0,0
0,10,0,3,0,0
0,10.1,0,3,0,0
0,10.2,0,3,0,0
0,10.3,0,3,0,0
0,10.4,0,3,0,0
0,10.5,0,3,0,0
0,10.6,0,3,0,0
0,10.7,0,3,0,0
0,10.8,0,3,0,0
0,10.9,0,3,0,0
0,11,0,3,0,0
0,11.1,0,3,0,0
0,11.2,0,3,0,0
0,11.3,0,3,0,0
0,11.4,0,3,0,0
0,11.5,0,3,0,0
0,11.6,0,3,0,0
0,11.7,0,3,0,0
0,11.8,0,3,0,0
0,11.9,0,3,0,0
0,12,0,3,0,0
0,12.1,0,3,0,0
0,12.2,0,3,0,0
0,12.3,0,3,0,0
0,12.4,0,2.82294,0,0
0,12.5,0,2.31704,0,0
0,12.6,0,1.81115,0,0
0,12.7,0,1.30525,0,0
0.1,0,0,0.9,0,0
0.1,0.1,0,2.10951,0.0140896,-3.5e-08
0.1,0.2,0,2.70951,0.0140896,-3.5e-08
0.1,0.3,0,3.01472,0.0125425,-3.5e-08
0.1,0.4,0,3.01993,0.0109954,-3.5e-08
0.1,0.5,0,3.01993,0.0109954,-3.5e-08
0.1,0.6,0,3.01879,0.0057653,-7.5e-08
0.1,0.7,0,3.01879,0.0057653,-7.5e-08
0.1,0.8,0,3.01842,0.00483654,-5e-08
0.1,0.9,0,3.01805,0.00390779,-2.5e-08
0.1,1,0,3.01805,0.00390779,-2.5e-08
0.1,1.1,0,3.01769,0.00210728,-4.5e-08
0.1,1.2,0,3.01769,0.00210728,-4.5e-08
0.1,1.3,0,3.01759,0.00155259,-3e-08
0.1,1.4,0,3.0175,0.000997896,-1.5e-08
0.1,1.5,0,3.0175,0.000997896,-1.5e-08
0.1,1.6,0,3.01738,0.000107273,-6.5e-08
0.1,1.7,0,3.01738,0.000107273,-6.5e-08
0.1,1.8,0,3.01733,-0.000232145,-6.75e-08
0.1,1.9,0,3.01728,-0.000571562,-7e-08
0.1,2,0,3.01728,-0.000571562,-7e-08
0.1,2.1,0,3.01717,-0.0010965,5e-09
0.1,2.2,0,3.01717,-0.0010965,5e-09
0.1,2.3,0,3.01709,-0.00129485,-2e-08
0.1,2.4,0,3.01702,-0.00149321,-4.5e-08
0.1,2.5,0,3.01702,-0.00149321,-4.5e-08
0.1,2.6,0,3.01679,-0.00176822,-5.2038e-19
0.1,2.7,0,3.01679,-0.00176822,-5.20417e-19
0.1,2.8,0,3.01662,-0.00186109,2.5e-09
0.1,2.9,0,3.01645,-0.00195396,5e-09
0.1,3,0,3.01645,-0.00195396,5e-09
0.1,3.1,0,3.01598,-0.0021031,5e-09
0.1,3.2,0,3.01598,-0.0021031,5e-09
0.1,3.3,0,3.01569,-0.00219334,2.5e-09
0.1,3.4,0,3.01539,-0.00228357,-2.60209e-18
0.1,3.5,0,3.01539,-0.00228357,-2.60209e-18
0.1,3.6,0,3.01477,-0.00253323,1.73472e-19
0.1,3.7,0,3.01477,-0.00253323,1.73472e-19
0.1,3.8,0,3.01446,-0.00283079,-1.73472e-19
0.1,3.9,0,3.01415,-0.00312836,-5.20417e-19
0.1,4,0,3.01415,-0.00312836,-5.20417e-19
0.1,4.1,0,3.01382,-0.00441182,2.60209e-19
0.1,4.2,0,3.01382,-0.00441182,2.60209e-19
0.1,4.3,0,3.0138,-0.00515206,2.5e-10
0.1,4.4,0,3.01377,-0.0058923,5e-10
0.1,4.5,0,3.01377,-0.0058923,5e-10
0.1,4.6,0,3.01318,-0.0069876,5e-10
0.1,4.7,0,3.01318,-0.0069876,5e-10
0.1,4.8,0,3.01456,-0.00603712,2.5e-10
0.1,4.9,0,3.01595,-0.00508664,-3.46945e-19
0.1,5,0,3.01595,-0.00508664,-3.46945e-19
0.1,5.1,0,3.02034,-0.002972,5e-10
0.1,5.2,0,3.02316,-0.00233194,5e-10
0.1,5.3,0,3.02465,-0.00158744,5e-10
0.1,5.4,0,3.02526,-0.00072898,5e-10
0.1,5.5,0,3.02544,0.000303419,1.38778e-18
0.1,5.6,0,3.02544,0.00140779,-1.21431e-18
0.1,5.7,0,3.02531,0.00243538,-5e-10
0.1,5.8,0,3.02481,0.00335987,-5e-10
0.1,5.9,0,3.02325,0.00389258,6.93889e-19
0.1,6,0,3.01846,0.00629921,0
0.1,6.1,0,3.01427,0.00794699,-2.84805e-18
0.1,6.2,0,3.01285,0.00850723,-3.81639e-18
0.1,6.3,0,3.01285,0.00850723,-3.81639e-18
0.1,6.4,0,3.01312,0.00753198,-5.34657e-19
0.1,6.5,0,3.0134,0.00649671,2.94903e-18
0.1,6.6,0,3.0134,0.00649671,2.94903e-18
0.1,6.7,0,3.0136,0.00622081,3.08108e-19
0.1,6.8,0,3.01426,0.00530114,-8.49497e-18
0.1,6.9,0,3.01429,0.00526435,-8.84709e-18
0.1,7,0,3.01429,0.00526435,-8.84709e-18
0.1,7.1,0,3.01472,0.00473947,1.60656e-18
0.1,7.2,0,3.0149,0.00452399,5.89806e-18
0.1,7.3,0,3.0149,0.00452399,5.89806e-18
0.1,7.4,0,3.01527,0.00439932,3.02411e-18
0.1,7.5,0,3.01572,0.00424556,-5.20417e-19
0.1,7.6,0,3.01572,0.00424556,-5.20417e-19
0.1,7.7,0,3.01583,0.00423581,-1.10297e-18
0.1,7.8,0,3.01628,0.00419685,-3.4332e-18
0.1,7.9,0,3.01632,0.00419334,-3.64292e-18
0.1,8,0,3.01632,0.00419334,-3.64292e-18
0.1,8.1,0,3.01659,0.00412899,3.35821e-09
0.1,8.2,0,3.01672,0.00409754,5e-09
0.1,8.3,0,3.01672,0.00409754,5e-09
0.1,8.4,0,3.01681,0.00401993,7.05224e-09
0.1,8.5,0,3.01694,0.00390847,1e-08
0.1,8.6,0,3.01694,0.00390847,1e-08
0.1,8.7,0,3.01696,0.00386206,8.50746e-09
0.1,8.8,0,3.01705,0.00363,1.04478e-09
0.1,8.9,0,3.01706,0.00359751,-3.46945e-19
0.1,9,0,3.01706,0.00359751,-3.46945e-19
0.1,9.1,0,3.0171,0.00333499,2.22015e-08
0.1,9.2,0,3.01712,0.00318366,3.5e-08
0.1,9.3,0,3.01712,0.00318366,3.5e-08
0.1,9.4,0,3.01714,0.00299823,3.87313e-08
0.1,9.5,0,3.01716,0.00268671,4.5e-08
0.1,9.6,0,3.01716,0.00268671,4.5e-08
0.1,9.7,0,3.01717,0.00262327,4.38806e-08
0.1,9.8,0,3.01719,0.00220033,3.64179e-08
0.1,9.9,0,3.01719,0.00211997,3.5e-08
0.1,10,0,3.01719,0.00211997,3.5e-08
0.1,10.1,0,3.01721,0.00174532,3.79851e-08
0.1,10.2,0,3.01722,0.00149244,4e-08
0.1,10.3,0,3.01722,0.00149244,4e-08
0.1,10.4,0,3.01723,0.00123889,3.49627e-08
0.1,10.5,0,3.01727,0.00073741,2.5e-08
0.1,10.6,0,3.01726,0.00073741,2.5e-08
0.1,10.7,0,3.01727,0.000676154,2.27612e-08
0.1,10.8,0,3.01731,6.35905e-05,3.73134e-10
0.1,10.9,0,3.01732,-8.34248e-05,-5e-09
0.1,11,0,3.01732,-8.34248e-05,-5e-09
0.1,11.1,0,3.01741,-0.000760423,-1.0597e-08
0.1,11.2,0,3.01747,-0.001293,-1.5e-08
0.1,11.3,0,3.01747,-0.001293,-1.5e-08
0.1,11.4,0,3.01757,-0.00166764,-7.53731e-09
0.1,11.5,0,3.01781,-0.00254805,1e-08
0.1,11.6,0,3.01781,-0.00254805,1e-08
0.1,11.7,0,3.01784,-0.00267904,9.62687e-09
0.1,11.8,0,3.01828,-0.00529877,2.16418e-09
0.1,11.9,0,3.01841,-0.00605849,9.19403e-18
0.1,12,0,3.01841,-0.00605849,9.19403e-18
0.1,12.1,0,3.01566,-0.00734057,-2.61194e-09
0.1,12.2,0,3.01315,-0.00851276,-5e-09
0.1,12.3,0,3.01315,-0.00851276,-5e-09
0.1,12.4,0,2.69628,-0.00628928,-3.69403e-09
0.1,12.5,0,1.79494,0,0
0.1,12.6,0,1.28905,0,0
0.1,12.7,0,0.783151,0,0
0.2,0,0,0.3,0,0
0.2,0.1,0,1.50951,0.0140896,-3.5e-08
0.2,0.2,0,2.71901,0.0281793,-7e-08
0.2,0.3,0,3.02422,0.0266322,-7e-08
0.2,0.4,0,3.03464,0.0235379,-7e-08
0.2,0.5,0,3.03985,0.0219908,-7e-08
0.2,0.6,0,3.03871,0.0167607,-1.1e-07
0.2,0.7,0,3.03758,0.0115306,-1.5e-07
0.2,0.8,0,3.03721,0.0106018,-1.25e-07
0.2,0.9,0,3.03647,0.00874433,-7.5e-08
0.2,1,0,3.03611,0.00781557,-5e-08
0.2,1.1,0,3.03574,0.00601507,-7e-08
0.2,1.2,0,3.03537,0.00421456,-9e-08
0.2,1.3,0,3.03528,0.00365987,-7.5e-08
0.2,1.4,0,3.0351,0.00255049,-4.5e-08
0.2,1.5,0,3.03501,0.00199579,-3e-08
0.2,1.6,0,3.03488,0.00110517,-8e-08
0.2,1.7,0,3.03476,0.000214547,-1.3e-07
0.2,1.8,0,3.03471,-0.000124871,-1.325e-07
0.2,1.9,0,3.03461,-0.000803707,-1.375e-07
0.2,2,0,3.03456,-0.00114312,-1.4e-07
0.2,2.1,0,3.03445,-0.00166807,-6.5e-08
0.2,2.2,0,3.03434,-0.00219301,1e-08
0.2,2.3,0,3.03426,-0.00239136,-1.5e-08
0.2,2.4,0,3.03411,-0.00278806,-6.5e-08
0.2,2.5,0,3.03404,-0.00298641,-9e-08
0.2,2.6,0,3.03381,-0.00326143,-4.5e-08
0.2,2.7,0,3.03358,-0.00353645,-1.04076e-18
0.2,2.8,0,3.03341,-0.00362932,2.5e-09
0.2,2.9,0,3.03308,-0.00381506,7.5e-09
0.2,3,0,3.03291,-0.00390793,1e-08
0.2,3.1,0,3.03243,-0.00405707,1e-08
0.2,3.2,0,3.03196,-0.0042062,1e-08
0.2,3.3,0,3.03167,-0.00429644,7.5e-09
0.2,3.4,0,3.03108,-0.00447691,2.5e-09
0.2,3.5,0,3.03079,-0.00456714,-5.20417e-18
0.2,3.6,0,3.03017,-0.0048168,-2.42861e-18
0.2,3.7,0,3.02954,-0.00506646,3.46945e-19
0.2,3.8,0,3.02923,-0.00536402,1.25185e-33
0.2,3.9,0,3.02861,-0.00595915,-6.93889e-19
0.2,4,0,3.02829,-0.00625672,-1.04083e-18
0.2,4.1,0,3.02796,-0.00754018,-2.60209e-19
0.2,4.2,0,3.02763,-0.00882364,5.20417e-19
0.2,4.3,0,3.02761,-0.00956388,2.5e-10
0.2,4.4,0,3.02757,-0.0110444,7.5e-10
0.2,4.5,0,3.02755,-0.0117846,1e-09
0.2,4.6,0,3.02695,-0.0128799,1e-09
0.2,4.7,0,3.02636,-0.0139752,1e-09
0.2,4.8,0,3.02774,-0.0130247,7.5e-10
0.2,4.9,0,3.03051,-0.0111238,2.5e-10
0.2,5,0,3.03189,-0.0101733,-6.93889e-19
0.2,5.1,0,3.04069,-0.005944,1e-09
0.2,5.2,0,3.04631,-0.00466388,1e-09
0.2,5.3,0,3.04929,-0.00317488,1e-09
0.2,5.4,0,3.05053,-0.00145796,1e-09
0.2,5.5,0,3.05088,0.000606838,2.77556e-18
0.2,5.6,0,3.05089,0.00281558,-2.42861e-18
0.2,5.7,0,3.05061,0.00487076,-1e-09
0.2,5.8,0,3.04962,0.00671974,-1e-09
0.2,5.9,0,3.0465,0.00778516,1.38778e-18
0.2,6,0,3.03691,0.0125984,0
0.2,6.1,0,3.03273,0.0142462,-2.84805e-18
0.2,6.2,0,3.02855,0.015894,-5.69611e-18
0.2,6.3,0,3.0257,0.0170145,-7.63278e-18
0.2,6.4,0,3.02597,0.0160392,-4.35105e-18
0.2,6.5,0,3.02638,0.0145388,6.97773e-19
0.2,6.6,0,3.02679,0.0130384,5.7466e-18
0.2,6.7,0,3.027,0.0127175,3.25714e-18
0.2,6.8,0,3.02766,0.0117978,-5.54594e-18
0.2,6.9,0,3.02833,0.0108782,-1.4349e-17
0.2,7,0,3.02858,0.0105287,-1.76942e-17
0.2,7.1,0,3.02901,0.0100038,-7.24053e-18
0.2,7.2,0,3.02947,0.00945131,3.76331e-18
0.2,7.3,0,3.0298,0.00904798,1.17961e-17
0.2,7.4,0,3.03017,0.00892331,8.92217e-18
0.2,7.5,0,3.03078,0.00871552,4.13227e-18
0.2,7.6,0,3.03139,0.00850774,-6.57641e-19
0.2,7.7,0,3.03155,0.00848137,-1.62339e-18
0.2,7.8,0,3.032,0.0084424,-3.95362e-18
0.2,7.9,0,3.03245,0.00840343,-6.28384e-18
0.2,8,0,3.03264,0.00838668,-7.28584e-18
0.2,8.1,0,3.03291,0.00832233,3.35821e-09
0.2,8.2,0,3.03321,0.00825084,7.08955e-09
0.2,8.3,0,3.03344,0.00819507,1e-08
0.2,8.4,0,3.03353,0.00811747,1.20522e-08
0.2,8.5,0,3.0337,0.00797637,1.57836e-08
0.2,8.6,0,3.03387,0.00783528,1.95149e-08
0.2,8.7,0,3.03391,0.00777052,1.85075e-08
0.2,8.8,0,3.03399,0.00753847,1.10448e-08
0.2,8.9,0,3.03408,0.00730641,3.58209e-09
0.2,9,0,3.03412,0.00719502,-6.93889e-19
0.2,9.1,0,3.03416,0.0069325,2.22015e-08
0.2,9.2,0,3.03421,0.00662366,4.83209e-08
0.2,9.3,0,3.03425,0.00636731,7e-08
0.2,9.4,0,3.03426,0.00618189,7.37313e-08
0.2,9.5,0,3.03429,0.00581103,8.1194e-08
0.2,9.6,0,3.03432,0.00544018,8.86567e-08
0.2,9.7,0,3.03433,0.00530998,8.88806e-08
0.2,9.8,0,3.03435,0.00488704,8.14179e-08
0.2,9.9,0,3.03437,0.00446409,7.39552e-08
0.2,10,0,3.03438,0.00423993,7e-08
0.2,10.1,0,3.0344,0.00386529,7.29851e-08
0.2,10.2,0,3.03442,0.00339699,7.67164e-08
0.2,10.3,0,3.03444,0.00298488,8e-08
0.2,10.4,0,3.03445,0.00273133,7.49627e-08
0.2,10.5,0,3.03449,0.00216787,6.37687e-08
0.2,10.6,0,3.03452,0.00160442,5.25746e-08
0.2,10.7,0,3.03453,0.00141356,4.77612e-08
0.2,10.8,0,3.03458,0.000801001,2.53731e-08
0.2,10.9,0,3.03462,0.000188437,2.98507e-09
0.2,11,0,3.03465,-0.00016685,-1e-08
0.2,11.1,0,3.03473,-0.000843848,-1.5597e-08
0.2,11.2,0,3.03484,-0.00174651,-2.30597e-08
0.2,11.3,0,3.03494,-0.00258599,-3e-08
0.2,11.4,0,3.03504,-0.00296063,-2.25373e-08
0.2,11.5,0,3.0353,-0.00389724,-3.8806e-09
0.2,11.6,0,3.03556,-0.00483386,1.47761e-08
0.2,11.7,0,3.03565,-0.00522709,1.96269e-08
0.2,11.8,0,3.0361,-0.00784682,1.21642e-08
0.2,11.9,0,3.03654,-0.0104666,4.70149e-09
0.2,12,0,3.03682,-0.012117,1.83881e-17
0.2,12.1,0,3.03407,-0.0133991,-2.61194e-09
0.2,12.2,0,3.03015,-0.0152306,-6.34328e-09
0.2,12.3,0,3.02631,-0.0170255,-1e-08
0.2,12.4,0,2.70944,-0.014802,-8.69403e-09
0.2,12.5,0,1.8041,-0.00844923,-4.96269e-09
0.2,12.6,0,0.898762,-0.00209643,-1.23134e-09
0.2,12.7,0,0.26105,0,0
0.3,0,0,0,0,0
0.3,0.1,0,1.22796,0.0164723,-1e-08
0.3,0.2,0,2.43747,0.030562,-4.5e-08
0.3,0.3,0,3.05156,0.035998,-7.75e-08
0.3,0.4,0,3.06198,0.0329038,-7.75e-08
0.3,0.5,0,3.0724,0.0298096,-7.75e-08
0.3,0.6,0,3.07038,0.024094,-7.75e-08
0.3,0.7,0,3.06924,0.0188639,-1.175e-07
0.3,0.8,0,3.0676,0.0148487,-1.4e-07
0.3,0.9,0,3.06687,0.0129912,-9e-08
0.3,1,0,3.06613,0.0111337,-4e-08
0.3,1.1,0,3.06539,0.00873246,-5.5e-08
0.3,1.2,0,3.06502,0.00693195,-7.5e-08
0.3,1.3,0,3.06453,0.00505342,-1e-07
0.3,1.4,0,3.06435,0.00394403,-7e-08
0.3,1.5,0,3.06417,0.00283465,-4e-08
0.3,1.6,0,3.0639,0.00155206,-6.75e-08
0.3,1.7,0,3.06378,0.000661432,-1.175e-07
0.3,1.8,0,3.06356,-0.000446126,-1.35e-07
0.3,1.9,0,3.06346,-0.00112496,-1.4e-07
0.3,2,0,3.06336,-0.0018038,-1.45e-07
0.3,2.1,0,3.06315,-0.00260757,-1.1e-07
0.3,2.2,0,3.06304,-0.00313251,-3.5e-08
0.3,2.3,0,3.06281,-0.0038402,1.25e-08
0.3,2.4,0,3.06266,-0.00423691,-3.75e-08
0.3,2.5,0,3.06251,-0.00463361,-8.75e-08
0.3,2.6,0,3.06217,-0.00512661,-6.5e-08
0.3,2.7,0,3.06194,-0.00540163,-2e-08
0.3,2.8,0,3.06154,-0.00581339,1.86756e-18
0.3,2.9,0,3.0612,-0.00599913,5e-09
0.3,3,0,3.06086,-0.00618487,1e-08
0.3,3.1,0,3.06024,-0.00644653,1.25e-08
0.3,3.2,0,3.05977,-0.00659567,1.25e-08
0.3,3.3,0,3.0591,-0.00675172,1e-08
0.3,3.4,0,3.05852,-0.00693219,5e-09
0.3,3.5,0,3.05794,-0.00711265,-3.38271e-18
0.3,3.6,0,3.05726,-0.00720373,-3.29597e-18
0.3,3.7,0,3.05664,-0.00745339,-5.20417e-19
0.3,3.8,0,3.05619,-0.00751035,-2.86229e-18
0.3,3.9,0,3.05556,-0.00810548,-3.55618e-18
0.3,4,0,3.05494,-0.00870061,-4.25007e-18
0.3,4.1,0,3.05512,-0.0092498,9.97466e-19
0.3,4.2,0,3.05479,-0.0105333,1.77809e-18
0.3,4.3,0,3.05446,-0.0108483,2.5e-10
0.3,4.4,0,3.05441,-0.0123288,7.5e-10
0.3,4.5,0,3.05437,-0.0138093,1.25e-09
0.3,4.6,0,3.0547,-0.012914,1.25e-09
0.3,4.7,0,3.0541,-0.0140093,1.25e-09
0.3,4.8,0,3.05754,-0.0125816,1e-09
0.3,4.9,0,3.06031,-0.0106807,5e-10
0.3,5,0,3.06308,-0.0087797,-1.12757e-18
0.3,5.1,0,3.07457,-0.0040998,1.25e-09
0.3,5.2,0,3.08088,-0.00319255,1.25e-09
0.3,5.3,0,3.08358,-0.00205917,1e-09
0.3,5.4,0,3.08424,-0.00053061,1e-09
0.3,5.5,0,3.08421,0.00151306,3.68629e-18
0.3,5.6,0,3.08423,0.00376625,-4.03964e-18
0.3,5.7,0,3.08435,0.00581686,-1e-09
0.3,5.8,0,3.08399,0.00750878,-1e-09
0.3,5.9,0,3.08132,0.00810832,1.25767e-18
0.3,6,0,3.06991,0.0130416,-1.30104e-19
0.3,6.1,0,3.06346,0.0155678,-5.01646e-18
0.3,6.2,0,3.05928,0.0172156,-7.86451e-18
0.3,6.3,0,3.0551,0.0188634,-1.07126e-17
0.3,6.4,0,3.0521,0.0209198,-3.54712e-18
0.3,6.5,0,3.05245,0.019495,1.65187e-18
0.3,6.6,0,3.05287,0.0179946,6.70069e-18
0.3,6.7,0,3.05335,0.0170993,4.87535e-18
0.3,6.8,0,3.054,0.0167111,-7.28066e-18
0.3,6.9,0,3.05466,0.0157914,-1.60837e-17
0.3,7,0,3.05532,0.0148717,-2.48868e-17
0.3,7.1,0,3.05556,0.0148235,-7.06706e-18
0.3,7.2,0,3.05601,0.014271,3.93679e-18
0.3,7.3,0,3.05647,0.0137185,1.49406e-17
0.3,7.4,0,3.05708,0.0135422,1.11087e-17
0.3,7.5,0,3.0577,0.0133541,5.69352e-18
0.3,7.6,0,3.05831,0.0131463,9.0361e-19
0.3,7.7,0,3.05894,0.0129685,9.32836e-10
0.3,7.8,0,3.05948,0.012909,2.5e-09
0.3,7.9,0,3.05992,0.0128701,2.5e-09
0.3,8,0,3.06037,0.0128311,2.5e-09
0.3,8.1,0,3.06082,0.0126222,8.58209e-10
0.3,8.2,0,3.06111,0.0125507,4.58955e-09
0.3,8.3,0,3.06141,0.0124792,8.3209e-09
0.3,8.4,0,3.06171,0.0122191,5.89552e-09
0.3,8.5,0,3.0619,0.0120452,8.28358e-09
0.3,8.6,0,3.06207,0.0119041,1.20149e-08
0.3,8.7,0,3.06224,0.0116831,1.20149e-08
0.3,8.8,0,3.06238,0.0113061,1.04478e-09
0.3,8.9,0,3.06247,0.011074,-6.41791e-09
0.3,9,0,3.06256,0.0108419,-1.38806e-08
0.3,9.1,0,3.06266,0.0103156,-1.52985e-08
0.3,9.2,0,3.0627,0.0100067,1.08209e-08
0.3,9.3,0,3.06275,0.00969788,3.69403e-08
0.3,9.4,0,3.06282,0.00916858,5e-08
0.3,9.5,0,3.06286,0.00873331,5.6194e-08
0.3,9.6,0,3.06289,0.00836246,6.36567e-08
0.3,9.7,0,3.06292,0.00792123,6.77612e-08
0.3,9.8,0,3.06297,0.00728142,5.64179e-08
0.3,9.9,0,3.06299,0.00685847,4.89552e-08
0.3,10,0,3.06301,0.00643553,4.14925e-08
0.3,10.1,0,3.06307,0.00567752,1.79851e-08
0.3,10.2,0,3.06309,0.00520922,2.17164e-08
0.3,10.3,0,3.06311,0.00474092,2.54478e-08
0.3,10.4,0,3.06317,0.00399088,2.91791e-08
0.3,10.5,0,3.06322,0.00331062,2.12687e-08
0.3,10.6,0,3.06326,0.00274716,1.00746e-08
0.3,10.7,0,3.0633,0.00212443,6.34328e-09
0.3,10.8,0,3.06342,0.00120195,3.28731e-08
0.3,10.9,0,3.06346,0.00058939,1.04851e-08
0.3,11,0,3.0635,-2.31739e-05,-1.1903e-08
0.3,11.1,0,3.06376,-0.00133682,-5.59701e-09
0.3,11.2,0,3.06387,-0.00223949,-1.30597e-08
0.3,11.3,0,3.06398,-0.00314215,-2.05224e-08
0.3,11.4,0,3.06436,-0.00431972,-2.94776e-08
0.3,11.5,0,3.06476,-0.00543273,-1.88806e-08
0.3,11.6,0,3.06502,-0.00636934,-2.23881e-10
0.3,11.7,0,3.06532,-0.00743544,1.75e-08
0.3,11.8,0,3.06625,-0.0106173,1.46642e-08
0.3,11.9,0,3.06669,-0.013237,7.20149e-09
0.3,12,0,3.06714,-0.0158567,-2.61194e-10
0.3,12.1,0,3.06275,-0.0182566,-1.01119e-08
0.3,12.2,0,3.05882,-0.0200882,-1.38433e-08
0.3,12.3,0,3.0549,-0.0219197,-1.75746e-08
0.3,12.4,0,2.72531,-0.0199316,-1.47761e-08
0.3,12.5,0,1.81068,-0.0127056,-7.46269e-09
0.3,12.6,0,0.905338,-0.00635281,-3.73134e-09
0.3,12.7,0,0,0,0
0.4,0,0,0,0,0
0.4,0.1,0,1.24641,0.018855,1.5e-08
0.4,0.2,0,2.47437,0.0353274,5e-09
0.4,0.3,0,3.08847,0.0407634,-2.75e-08
0.4,0.4,0,3.10716,0.0375459,-5.75e-08
0.4,0.5,0,3.11758,0.0344517,-5.75e-08
0.4,0.6,0,3.11467,0.0282507,-1.75e-08
0.4,0.7,0,3.11265,0.0225352,-1.75e-08
0.4,0.8,0,3.11101,0.01852,-4e-08
0.4,0.9,0,3.10886,0.0157197,-4.5e-08
0.4,1,0,3.10813,0.0138622,5e-09
0.4,1.1,0,3.10701,0.0108602,-5e-09
0.4,1.2,0,3.10626,0.00845894,-2e-08
0.4,1.3,0,3.10578,0.00658041,-4.5e-08
0.4,1.4,0,3.10518,0.00462385,-7.5e-08
0.4,1.5,0,3.10499,0.00351447,-4.5e-08
0.4,1.6,0,3.10458,0.0018399,-5e-08
0.4,1.7,0,3.10431,0.000557307,-7.75e-08
0.4,1.8,0,3.10409,-0.000550251,-9.5e-08
0.4,1.9,0,3.10378,-0.00187474,-8e-08
0.4,2,0,3.10368,-0.00255358,-8.5e-08
0.4,2.1,0,3.10337,-0.00363618,-9e-08
0.4,2.2,0,3.10316,-0.00443995,-5.5e-08
0.4,2.3,0,3.10293,-0.00514764,-7.5e-09
0.4,2.4,0,3.10258,-0.00603809,1.25e-08
0.4,2.5,0,3.10243,-0.0064348,-3.75e-08
0.4,2.6,0,3.10198,-0.00714578,-3.75e-08
0.4,2.7,0,3.10164,-0.00763878,-1.5e-08
0.4,2.8,0,3.10123,-0.00805054,5e-09
0.4,2.9,0,3.10064,-0.00859905,8.20475e-18
0.4,3,0,3.1003,-0.00878479,5e-09
0.4,3.1,0,3.09955,-0.00915898,1e-08
0.4,3.2,0,3.09893,-0.00942065,1.25e-08
0.4,3.3,0,3.09827,-0.00957669,1e-08
0.4,3.4,0,3.09742,-0.00973964,5e-09
0.4,3.5,0,3.09683,-0.00992011,2.86229e-18
0.4,3.6,0,3.09611,-0.0098526,2.60209e-19
0.4,3.7,0,3.09543,-0.00994368,3.46945e-19
0.4,3.8,0,3.09498,-0.0100006,-1.99493e-18
0.4,3.9,0,3.0947,-0.0098649,-9.45424e-18
0.4,4,0,3.09408,-0.01046,-1.01481e-17
0.4,4.1,0,3.09478,-0.0102749,-4.33681e-19
0.4,4.2,0,3.09496,-0.0108241,4.81386e-18
0.4,4.3,0,3.09463,-0.0111392,2.5e-10
0.4,4.4,0,3.09428,-0.0104859,7.5e-10
0.4,4.5,0,3.09424,-0.0119664,1.25e-09
0.4,4.6,0,3.09549,-0.0090805,1.25e-09
0.4,4.7,0,3.09581,-0.0081852,1.25e-09
0.4,4.8,0,3.09925,-0.00675753,1e-09
0.4,4.9,0,3.10673,-0.00280689,5e-10
0.4,5,0,3.1095,-0.000905929,-1.64799e-18
0.4,5.1,0,3.12199,0.0025606,1.25e-09
0.4,5.2,0,3.12686,0.00208205,1.25e-09
0.4,5.3,0,3.12751,0.00175968,5e-10
0.4,5.4,0,3.12639,0.00205307,5e-10
0.4,5.5,0,3.12544,0.0030221,4.11997e-18
0.4,5.6,0,3.12547,0.0042598,-6.04738e-18
0.4,5.7,0,3.12653,0.00527368,-5e-10
0.4,5.8,0,3.12792,0.00572699,-5e-10
0.4,5.9,0,3.12771,0.00486206,3.03577e-19
0.4,6,0,3.11746,0.00762884,-3.90313e-19
0.4,6.1,0,3.10989,0.0105877,-6.28061e-18
0.4,6.2,0,3.10232,0.0135466,-1.21709e-17
0.4,6.3,0,3.09811,0.0152075,-1.50494e-17
0.4,6.4,0,3.09511,0.0172639,-7.88393e-18
0.4,6.5,0,3.09274,0.0195404,4.6734e-18
0.4,6.6,0,3.09216,0.0193997,1.24253e-17
0.4,6.7,0,3.09264,0.0185044,1.05999e-17
0.4,6.8,0,3.09329,0.019021,-7.26513e-18
0.4,6.9,0,3.09394,0.0191211,-2.25022e-17
0.4,7,0,3.0946,0.0182015,-3.13053e-17
0.4,7.1,0,3.09473,0.0183716,-1.02232e-17
0.4,7.2,0,3.09484,0.0185992,1.24318e-17
0.4,7.3,0,3.09527,0.0180935,2.41347e-17
0.4,7.4,0,3.09589,0.0179172,2.03027e-17
0.4,7.5,0,3.0966,0.0179916,6.5803e-18
0.4,7.6,0,3.09726,0.0178996,-1.87195e-18
0.4,7.7,0,3.09788,0.0177218,9.32836e-10
0.4,7.8,0,3.09854,0.0176339,4.66418e-09
0.4,7.9,0,3.09915,0.0175578,7.5e-09
0.4,8,0,3.0996,0.0175188,7.5e-09
0.4,8.1,0,3.10009,0.0172617,4.14179e-09
0.4,8.2,0,3.10058,0.0169802,4.10448e-10
0.4,8.3,0,3.10089,0.0168857,3.3209e-09
0.4,8.4,0,3.1012,0.0166255,8.95522e-10
0.4,8.5,0,3.10152,0.0162111,-6.56716e-09
0.4,8.6,0,3.10175,0.0159442,-7.98507e-09
0.4,8.7,0,3.10192,0.0157232,-7.98507e-09
0.4,8.8,0,3.10212,0.0151827,-2.29104e-08
0.4,8.9,0,3.10229,0.0147007,-3.64179e-08
0.4,9,0,3.10238,0.0144687,-4.38806e-08
0.4,9.1,0,3.1025,0.0138807,-5.13433e-08
0.4,9.2,0,3.10262,0.01323,-5.8806e-08
0.4,9.3,0,3.10268,0.0128665,-3.80597e-08
0.4,9.4,0,3.10274,0.0123372,-2.5e-08
0.4,9.5,0,3.10283,0.0115875,-2.5e-08
0.4,9.6,0,3.10289,0.0110234,-2.13433e-08
0.4,9.7,0,3.10292,0.0105821,-1.72388e-08
0.4,9.8,0,3.103,0.00974213,-3.21642e-08
0.4,9.9,0,3.10306,0.00896051,-4.60448e-08
0.4,10,0,3.10308,0.00853757,-5.35075e-08
0.4,10.1,0,3.10314,0.00772159,-8.18657e-08
0.4,10.2,0,3.10322,0.00680736,-1.15448e-07
0.4,10.3,0,3.10325,0.00624541,-1.19552e-07
0.4,10.4,0,3.10332,0.00549537,-1.15821e-07
0.4,10.5,0,3.10343,0.00440099,-1.1209e-07
0.4,10.6,0,3.10351,0.00354022,-1.14925e-07
0.4,10.7,0,3.10356,0.00291748,-1.18657e-07
0.4,10.8,0,3.10372,0.00176122,-5.52239e-08
0.4,10.9,0,3.10387,0.000653884,4.85075e-10
0.4,11,0,3.10391,4.13204e-05,-2.1903e-08
0.4,11.1,0,3.10419,-0.00133006,-1.35075e-08
0.4,11.2,0,3.10454,-0.00295439,5.14925e-09
0.4,11.3,0,3.10471,-0.00404468,4.47761e-09
0.4,11.4,0,3.10509,-0.00522225,-4.47761e-09
0.4,11.5,0,3.10588,-0.00681218,-1.56716e-08
0.4,11.6,0,3.10646,-0.00814731,-1.52239e-08
0.4,11.7,0,3.10677,-0.00921341,2.5e-09
0.4,11.8,0,3.108,-0.0127398,2.5e-09
0.4,11.9,0,3.10919,-0.0162299,2.20149e-09
0.4,12,0,3.10964,-0.0188496,-5.26119e-09
0.4,12.1,0,3.10516,-0.0212643,-1.53358e-08
0.4,12.2,0,3.09858,-0.0235912,-2.65299e-08
0.4,12.3,0,3.09383,-0.0255763,-3.25746e-08
0.4,12.4,0,2.76425,-0.0235882,-2.97761e-08
0.4,12.5,0,1.82985,-0.0145066,-1.48507e-08
0.4,12.6,0,0.905338,-0.00635281,-3.73134e-09
0.4,12.7,0,0,0,0
0.5,0,0,0,0,0
0.5,0.1,0,1.24641,0.018855,1.5e-08
0.5,0.2,0,2.49283,0.0377101,3e-08
0.5,0.3,0,3.12538,0.0455288,2.25e-08
0.5,0.4,0,3.14407,0.0423113,-7.5e-09
0.5,0.5,0,3.16275,0.0390938,-3.75e-08
0.5,0.6,0,3.15985,0.0328928,2.5e-09
0.5,0.7,0,3.15694,0.0266919,4.25e-08
0.5,0.8,0,3.15442,0.0221912,6e-08
0.5,0.9,0,3.15227,0.0193909,5.5e-08
0.5,1,0,3.15013,0.0165907,5e-08
0.5,1.1,0,3.14901,0.0135887,4e-08
0.5,1.2,0,3.14789,0.0105867,3e-08
0.5,1.3,0,3.14702,0.00810739,1e-08
0.5,1.4,0,3.14642,0.00615084,-2e-08
0.5,1.5,0,3.14582,0.00419428,-5e-08
0.5,1.6,0,3.1454,0.00251972,-5.5e-08
0.5,1.7,0,3.14499,0.000845152,-6e-08
0.5,1.8,0,3.14462,-0.000654376,-5.5e-08
0.5,1.9,0,3.14431,-0.00197887,-4e-08
0.5,2,0,3.144,-0.00330336,-2.5e-08
0.5,2.1,0,3.14369,-0.00438596,-3e-08
0.5,2.2,0,3.14338,-0.00546856,-3.5e-08
0.5,2.3,0,3.14305,-0.00645508,-2.75e-08
0.5,2.4,0,3.1427,-0.00734553,-7.5e-09
0.5,2.5,0,3.14235,-0.00823598,1.25e-08
0.5,2.6,0,3.1419,-0.00894696,1.25e-08
0.5,2.7,0,3.14145,-0.00965795,1.25e-08
0.5,2.8,0,3.14093,-0.0102877,1e-08
0.5,2.9,0,3.14034,-0.0108362,5e-09
0.5,3,0,3.13975,-0.0113847,1.45419e-17
0.5,3.1,0,3.139,-0.0117589,5e-09
0.5,3.2,0,3.13824,-0.0121331,1e-08
0.5,3.3,0,3.13744,-0.0124017,1e-08
0.5,3.4,0,3.13658,-0.0125646,5e-09
0.5,3.5,0,3.13573,-0.0127276,9.1073e-18
0.5,3.6,0,3.135,-0.0126601,6.50521e-18
0.5,3.7,0,3.13428,-0.0125926,3.90313e-18
0.5,3.8,0,3.13378,-0.0124909,-1.12757e-18
0.5,3.9,0,3.13349,-0.0123552,-8.58688e-18
0.5,4,0,3.13321,-0.0122195,-1.60462e-17
0.5,4.1,0,3.13392,-0.0120344,-6.33174e-18
0.5,4.2,0,3.13462,-0.0118493,3.38271e-18
0.5,4.3,0,3.1348,-0.0114301,2.5e-10
0.5,4.4,0,3.13445,-0.0107768,7.5e-10
0.5,4.5,0,3.13411,-0.0101235,1.25e-09
0.5,4.6,0,3.13536,-0.0072376,1.25e-09
0.5,4.7,0,3.1366,-0.0043517,1.25e-09
0.5,4.8,0,3.14097,-0.000933431,1e-09
0.5,4.9,0,3.14845,0.00301721,5e-10
0.5,5,0,3.15593,0.00696785,-2.1684e-18
0.5,5.1,0,3.16942,0.009221,1.25e-09
0.5,5.2,0,3.17284,0.00735665,1.25e-09
0.5,5.3,0,3.17144,0.00557853,6.07153e-18
0.5,5.4,0,3.16854,0.00463675,1.43361e-18
0.5,5.5,0,3.16667,0.00453113,4.55365e-18
0.5,5.6,0,3.16671,0.00475335,-7.47112e-18
0.5,5.7,0,3.16871,0.0047305,5.85469e-18
0.5,5.8,0,3.17186,0.0039452,-1.30104e-18
0.5,5.9,0,3.17409,0.0016158,-6.50521e-19
0.5,6,0,3.165,0.00221604,-6.50521e-19
0.5,6.1,0,3.15744,0.00517491,-6.54081e-18
0.5,6.2,0,3.14987,0.00813378,-1.24311e-17
0.5,6.3,0,3.1423,0.0110926,-1.83214e-17
0.5,6.4,0,3.13812,0.013608,-1.22207e-17
0.5,6.5,0,3.13575,0.0158845,3.36588e-19
0.5,6.6,0,3.13339,0.018161,1.28939e-17
0.5,6.7,0,3.13193,0.0199095,1.63245e-17
0.5,6.8,0,3.13258,0.0204261,-1.54054e-18
0.5,6.9,0,3.13323,0.0209428,-1.94056e-17
0.5,7,0,3.13388,0.0214594,-3.72707e-17
0.5,7.1,0,3.13401,0.0217014,-1.66417e-17
0.5,7.2,0,3.13411,0.0219289,6.01328e-18
0.5,7.3,0,3.13422,0.0221565,2.86682e-17
0.5,7.4,0,3.13469,0.0222922,2.94968e-17
0.5,7.5,0,3.13541,0.0223666,1.57743e-17
0.5,7.6,0,3.13612,0.0224411,2.05189e-18
0.5,7.7,0,3.13683,0.022475,9.32836e-10
0.5,7.8,0,3.13749,0.0223871,4.66418e-09
0.5,7.9,0,3.13815,0.0222993,8.39552e-09
0.5,8,0,3.13881,0.0222114,1.21269e-08
0.5,8.1,0,3.13931,0.0219494,9.14179e-09
0.5,8.2,0,3.1398,0.021668,5.41045e-09
0.5,8.3,0,3.14029,0.0213866,1.6791e-09
0.5,8.4,0,3.14069,0.021032,-4.10448e-09
0.5,8.5,0,3.141,0.0206175,-1.15672e-08
0.5,8.6,0,3.14132,0.020203,-1.90299e-08
0.5,8.7,0,3.14161,0.0197633,-2.79851e-08
0.5,8.8,0,3.1418,0.0192228,-4.29104e-08
0.5,8.9,0,3.142,0.0186822,-5.78358e-08
0.5,9,0,3.14219,0.0181416,-7.27612e-08
0.5,9.1,0,3.14232,0.0175075,-8.13433e-08
0.5,9.2,0,3.14244,0.0168568,-8.8806e-08
0.5,9.3,0,3.14257,0.0162061,-9.62687e-08
0.5,9.4,0,3.14267,0.0155058,-1e-07
0.5,9.5,0,3.14276,0.0147561,-1e-07
0.5,9.6,0,3.14284,0.0140063,-1e-07
0.5,9.7,0,3.14293,0.013243,-1.02239e-07
0.5,9.8,0,3.143,0.012403,-1.17164e-07
0.5,9.9,0,3.14307,0.011563,-1.3209e-07
0.5,10,0,3.14314,0.010723,-1.47015e-07
0.5,10.1,0,3.14321,0.00982364,-1.76866e-07
0.5,10.2,0,3.14329,0.0089094,-2.10448e-07
0.5,10.3,0,3.14336,0.00799517,-2.4403e-07
0.5,10.4,0,3.14346,0.00699987,-2.60821e-07
0.5,10.5,0,3.14357,0.00590549,-2.5709e-07
0.5,10.6,0,3.14369,0.00481111,-2.53358e-07
0.5,10.7,0,3.14381,0.00371054,-2.43657e-07
0.5,10.8,0,3.14397,0.00255427,-1.80224e-07
0.5,10.9,0,3.14413,0.00139801,-1.16791e-07
0.5,11,0,3.14429,0.00024174,-5.33582e-08
0.5,11.1,0,3.1446,-0.00126557,-2.35075e-08
0.5,11.2,0,3.14495,-0.00288989,-4.85075e-09
0.5,11.3,0,3.1453,-0.00451422,1.3806e-08
0.5,11.4,0,3.14582,-0.00612478,2.05224e-08
0.5,11.5,0,3.14661,-0.00771471,9.32836e-09
0.5,11.6,0,3.14741,-0.00930463,-1.86567e-09
0.5,11.7,0,3.14822,-0.0109914,-1.25e-08
0.5,11.8,0,3.14944,-0.0145177,-1.25e-08
0.5,11.9,0,3.15067,-0.0180441,-1.25e-08
0.5,12,0,3.1519,-0.0215705,-1.25e-08
0.5,12.1,0,3.14766,-0.0242572,-2.03358e-08
0.5,12.2,0,3.14108,-0.0265841,-3.15299e-08
0.5,12.3,0,3.1345,-0.028911,-4.27239e-08
0.5,12.4,0,2.80318,-0.0272449,-4.47761e-08
0.5,12.5,0,1.86879,-0.0181632,-2.98507e-08
0.5,12.6,0,0.934393,-0.00908162,-1.49254e-08
0.5,12.7,0,0,0,0
0.6,0,0,0,0,0
0.6,0.1,0,1.28299,0.0198855,3.5e-08
0.6,0.2,0,2.5294,0.0387405,5e-08
0.6,0.3,0,3.16812,0.0468483,6.5e-08
0.6,0.4,0,3.19296,0.0439199,5.75e-08
0.6,0.5,0,3.21165,0.0407024,2.75e-08
0.6,0.6,0,3.20811,0.034829,-2.25e-08
0.6,0.7,0,3.2052,0.028628,1.75e-08
0.6,0.8,0,3.20212,0.0239193,6e-08
0.6,0.9,0,3.19942,0.0209109,8e-08
0.6,1,0,3.19728,0.0181107,7.5e-08
0.6,1.1,0,3.19547,0.0144219,6e-08
0.6,1.2,0,3.19435,0.0114199,5e-08
0.6,1.3,0,3.19325,0.00864161,5.75e-08
0.6,1.4,0,3.19241,0.00638604,5.5e-08
0.6,1.5,0,3.19181,0.00442948,2.5e-08
0.6,1.6,0,3.19104,0.00212006,-5e-09
0.6,1.7,0,3.19062,0.000445499,-1e-08
0.6,1.8,0,3.19013,-0.00132691,-2.5e-08
0.6,1.9,0,3.18968,-0.00292428,-3e-08
0.6,2,0,3.18937,-0.00424877,-1.5e-08
0.6,2.1,0,3.18885,-0.00580828,1e-08
0.6,2.2,0,3.18854,-0.00689088,5e-09
0.6,2.3,0,3.18812,-0.00806996,-2.25e-08
0.6,2.4,0,3.18769,-0.00915296,-3.75e-08
0.6,2.5,0,3.18733,-0.0100434,-1.75e-08
0.6,2.6,0,3.18677,-0.0110292,2.5e-09
0.6,2.7,0,3.18632,-0.0117402,2.5e-09
0.6,2.8,0,3.18578,-0.0124529,5e-09
0.6,2.9,0,3.18517,-0.0130844,5e-09
0.6,3,0,3.18458,-0.0136329,9.16429e-18
0.6,3.1,0,3.18388,-0.0140873,1e-08
0.6,3.2,0,3.18313,-0.0144615,1.5e-08
0.6,3.3,0,3.18237,-0.0147467,1.5e-08
0.6,3.4,0,3.18157,-0.0149262,1e-08
0.6,3.5,0,3.18071,-0.0150892,5e-09
0.6,3.6,0,3.17992,-0.0150353,2.1684e-18
0.6,3.7,0,3.17919,-0.0149678,-4.33681e-19
0.6,3.8,0,3.17843,-0.0149565,-1.17094e-18
0.6,3.9,0,3.17789,-0.0149112,-4.33681e-18
0.6,4,0,3.1776,-0.0147754,-1.17961e-17
0.6,4.1,0,3.17685,-0.0151359,-7.7339e-18
0.6,4.2,0,3.17755,-0.0149508,1.98055e-18
0.6,4.3,0,3.17632,-0.0148215,2.5e-10
0.6,4.4,0,3.17456,-0.0144582,7.5e-10
0.6,4.5,0,3.17421,-0.0138049,1.25e-09
0.6,4.6,0,3.17138,-0.0119504,1.25e-09
0.6,4.7,0,3.17262,-0.0090645,1.25e-09
0.6,4.8,0,3.17697,-0.00504362,1e-09
0.6,4.9,0,3.18444,-0.000490377,5e-10
0.6,5,0,3.19192,0.00346026,-4.0766e-18
0.6,5.1,0,3.20859,0.0074583,1.25e-09
0.6,5.2,0,3.2138,0.00620595,1.25e-09
0.6,5.3,0,3.21266,0.00519521,1.38778e-18
0.6,5.4,0,3.20938,0.00481279,2.64791e-18
0.6,5.5,0,3.20708,0.00519562,3.07913e-18
0.6,5.6,0,3.20704,0.00587321,-4.60882e-18
0.6,5.7,0,3.20934,0.0062713,4.90059e-18
0.6,5.8,0,3.21297,0.00614368,3.55618e-18
0.6,5.9,0,3.21464,0.0042541,-2.81893e-18
0.6,6,0,3.20251,0.00679452,2.38524e-18
0.6,6.1,0,3.19448,0.0109573,-5.93237e-18
0.6,6.2,0,3.18676,0.0143255,-1.26479e-17
0.6,6.3,0,3.17919,0.0172843,-1.85382e-17
0.6,6.4,0,3.1772,0.0190604,-1.40574e-17
0.6,6.5,0,3.17717,0.0205522,-3.21959e-18
0.6,6.6,0,3.17481,0.0228287,9.33773e-18
0.6,6.7,0,3.17391,0.0245016,1.52733e-17
0.6,6.8,0,3.17641,0.0247659,5.75825e-18
0.6,6.9,0,3.17714,0.0252724,-1.17728e-17
0.6,7,0,3.17778,0.025789,-2.96379e-17
0.6,7.1,0,3.17845,0.025941,-1.35717e-17
0.6,7.2,0,3.17878,0.0261316,7.2101e-18
0.6,7.3,0,3.17888,0.0263591,2.98651e-17
0.6,7.4,0,3.17937,0.0265077,2.77198e-17
0.6,7.5,0,3.18011,0.026598,1.03967e-17
0.6,7.6,0,3.18083,0.0266725,-3.32575e-18
0.6,7.7,0,3.18151,0.0267108,-1.20317e-17
0.6,7.8,0,3.18211,0.0266405,-5.68834e-18
0.6,7.9,0,3.18276,0.0265543,3.39552e-09
0.6,8,0,3.18342,0.0264664,7.12687e-09
0.6,8.1,0,3.18392,0.0261376,7.5e-09
0.6,8.2,0,3.18441,0.0258236,5.41045e-09
0.6,8.3,0,3.1849,0.0255422,1.6791e-09
0.6,8.4,0,3.18532,0.0250922,-4.10448e-09