x,y,z,U_0,U_1,U_2
0,0,0,3.00009,-0.00168525,0
0,0.1,0,3.00005,-0.00101115,0
0,0.2,0,3.00002,-0.000337051,0
0,0.3,0,3,0,0
0,0.4,0,3,0,0
0,0.5,0,3,-9.28921e-19,0
0,0.6,0,3,0,0
0,0.7,0,3,0,0
0,0.8,0,3,0,0
0,0.9,0,3,0,0
0,1,0,3,0,0
0,1.1,0,3,0,0
0,1.2,0,3,0,0
0,1.3,0,3,0,0
0,1.4,0,3,0,0
0,1.5,0,3,0,0
0,1.6,0,3,0,0
0,1.7,0,3,0,0
0,1.8,0,3,0,0
0,1.9,0,3,0,0
0,2,0,3,0,0
0,2.1,0,3,0,0
0,2.2,0,3,0,0
0,2.3,0,3,0,0
0,2.4,0,3,0,0
0,2.5,0,3,0,0
0,2.6,0,3,0,0
0,2.7,0,3,0,0
0,2.8,0,3,0,0
0,2.9,0,3,0,0
0,3,0,3,0,0
0,3.1,0,3,0,0
0,3.2,0,3,0,0
0,3.3,0,3,0,0
0,3.4,0,3,0,0
0,3.5,0,3,0,0
0,3.6,0,3,0,0
0,3.7,0,3,0,0
0,3.8,0,3,0,0
0,3.9,0,3,0,0
0,4,0,3,0,0
0,4.1,0,3,0,0
0,4.2,0,3,0,0
0,4.3,0,3,0,0
0,4.4,0,3,0,0
0,4.5,0,3,0,0
0,4.6,0,3,0,0
0,4.7,0,3,0,0
0,4.8,0,3,0,0
0,4.9,0,3,0,0
0,5,0,3,-2.94229e-19,0
0,5.1,0,3,0,0
0,5.2,0,3,-2.26716e-19,0
0,5.3,0,3,-1.94011e-19,0
0,5.4,0,3,0,0
0,5.5,0,3,-8.20422e-20,0
0,5.6,0,3,0,0
0,5.7,0,3,0,0
0,5.8,0,3,0,0
0,5.9,0,3,9.77052e-20,0
0,6,0,3,0,0
0,6.1,0,3,0,0
0,6.2,0,3,0,0
0,6.3,0,3,0,0
0,6.4,0,3,0,0
0,6.5,0,3,0,0
0,6.6,0,3,0,0
0,6.7,0,3,0,0
0,6.8,0,3,0,0
0,6.9,0,3,0,0
0,7,0,3,0,0
0,7.1,0,3,0,0
0,7.2,0,3,0,0
0,7.3,0,3,0,0
0,7.4,0,3,0,0
0,7.5,0,3,0,0
0,7.6,0,3,0,0
0,7.7,0,3,0,0
0,7.8,0,3,0,0
0,7.9,0,3,0,0
0,8,0,3,0,0
0,8.1,0,3,0,0
0,8.2,0,3,0,0
0,8.3,0,3,0,0
0,8.4,0,3,0,0
0,8.5,0,3,0,0
0,8.6,0,3,0,0
0,8.7,0,3,0,0
0,8.8,0,3,0,0
0,8.9,0,3,0,0
0,9,0,3,0,0
0,9.1,0,3,0,0
0,9.2,0,3,0,0
0,9.3,0,3,0,0
0,9.4,0,3,0,0
0,9.5,0,3,0,0
0,9.6,0,3,0,0
0,9.7,0,3,0,0
0,9.8,0,3,0,0
0,9.9,0,3,0,0
0,10,0,3,0,0
0,10.1,0,3,0,0
0,10.2,0,3,0,0
0,10.3,0,3,0,0
0,10.4,0,3,0,0
0,10.5,0,3,0,0
0,10.6,0,3,0,0
0,10.7,0,3,0,0
0,10.8,0,3,0,0
0,10.9,0,3,0,0
0,11,0,3,0,0
0,11.1,0,3,0,0
0,11.2,0,3,0,0
0,11.3,0,3,0,0
0,11.4,0,3,0,0
0,11.5,0,3,0,0
0,11.6,0,3,0,0
0,11.7,0,3,0,0
0,11.8,0,3,0,0
0,11.9,0,3,0,0
0,12,0,3,0,0
0,12.1,0,3,0,0
0,12.2,0,3,0,0
0,12.3,0,3,0,0
0,12.4,0,3.00002,0.000174928,0
0,12.5,0,3.00007,0.000674721,0
0,12.6,0,3.00012,0.00117451,0
0,12.7,0,3.00017,0.00167431,0
0.1,0,0,3.00008,-0.00322312,0
0.1,0.1,0,3.00011,-0.00218247,0
0.1,0.2,0,3.00007,-0.0015811,0
0.1,0.3,0,3.00011,-0.00147559,0
0.1,0.4,0,3.00012,-0.00142859,0
0.1,0.5,0,2.99992,-0.00185933,0
0.1,0.6,0,3.00026,-0.00106319,0
0.1,0.7,0,3.00022,-0.00113701,0
0.1,0.8,0,3.00028,-0.000613333,0
0.1,0.9,0,3.00032,-0.00048132,0
0.1,1,0,2.99972,-0.00173834,0
0.1,1.1,0,3.00052,0.000466547,0
0.1,1.2,0,3.00042,0.000251155,0
0.1,1.3,0,3.00057,0.00155095,0
0.1,1.4,0,3.00068,0.00191076,0
0.1,1.5,0,2.99936,-0.00166433,0
0.1,1.6,0,3.001,0.00384667,0
0.1,1.7,0,3.00082,0.00329289,0
0.1,1.8,0,3.00115,0.00583761,0
0.1,1.9,0,3.00137,0.00667413,0
0.1,2,0,2.99892,-0.00174876,0
0.1,2.1,0,3.0017,0.00970964,0
0.1,2.2,0,3.00141,0.00855532,0
0.1,2.3,0,3.00184,0.0119644,0
0.1,2.4,0,3.00218,0.0134975,0
0.1,2.5,0,2.99869,-0.00195523,0
0.1,2.6,0,3.00285,0.0172715,0
0.1,2.7,0,3.00245,0.0153346,0
0.1,2.8,0,3.00379,0.0187796,0
0.1,2.9,0,3.00434,0.0210992,0
0.1,3,0,2.99906,-0.00225457,0
0.1,3.1,0,3.00715,0.02437,0
0.1,3.2,0,3.00638,0.0216912,0
0.1,3.3,0,3.01072,0.0240186,0
0.1,3.4,0,3.01197,0.0269559,0
0.1,3.5,0,2.9999,-0.00256677,0
0.1,3.6,0,3.01828,0.0282023,0
0.1,3.7,0,3.01648,0.0251237,0
0.1,3.8,0,3.02305,0.025077,0
0.1,3.9,0,3.02557,0.0281504,0
0.1,4,0,3.00062,-0.00230093,0
0.1,4.1,0,3.0344,0.0243775,0
0.1,4.2,0,3.03104,0.0217565,0
0.1,4.3,0,3.04636,0.0196565,0
0.1,4.4,0,3.05143,0.0220442,0
0.1,4.5,0,3.00057,-0.00124517,0
0.1,4.6,0,3.08419,0.0156286,0
0.1,4.7,0,3.07575,0.0139866,0
0.1,4.8,0,3.10141,0.0124906,0
0.1,4.9,0,3.1127,0.0139665,0
0.1,5,0,3.00013,-0.000588929,0
0.1,5.1,0,3.0013,-0.000481617,0
0.1,5.2,0,3.00174,-0.000453794,0
0.1,5.3,0,3.00197,-0.000388333,0
0.1,5.4,0,3.00207,-0.000285954,0
0.1,5.5,0,3.00209,-0.000164216,0
0.1,5.6,0,3.00205,-4.01646e-05,0
0.1,5.7,0,3.00193,7.23744e-05,0
0.1,5.8,0,3.0017,0.000157667,0
0.1,5.9,0,3.00132,0.000195567,0
0.1,6,0,3.00024,0.000397699,0
0.1,6.1,0,3.11175,-0.0136493,0
0.1,6.2,0,3.11175,-0.0136493,0
0.1,6.3,0,3.0526,-0.00604932,0
0.1,6.4,0,3.04337,-0.0113359,0
0.1,6.5,0,3.04965,-0.0130839,0
0.1,6.6,0,3.04672,-0.0122228,0
0.1,6.7,0,3.01169,-0.00939099,0
0.1,6.8,0,3.02815,-0.0252881,0
0.1,6.9,0,3.02815,-0.0252881,0
0.1,7,0,3.00171,1.00114e-05,0
0.1,7.1,0,3.015,-0.0215677,0
0.1,7.2,0,3.015,-0.0215677,0
0.1,7.3,0,3.00772,-0.0108533,0
0.1,7.4,0,3.00658,-0.0170312,0
0.1,7.5,0,3.00835,-0.021514,0
0.1,7.6,0,3.00835,-0.021514,0
0.1,7.7,0,3.00101,-0.00474983,0
0.1,7.8,0,3.00476,-0.0166979,0
0.1,7.9,0,3.00476,-0.0166979,0
0.1,8,0,2.99984,-0.00129117,0
0.1,8.1,0,3.00266,-0.0127821,0
0.1,8.2,0,3.00266,-0.0127821,0
0.1,8.3,0,3.00126,-0.00733663,0
0.1,8.4,0,3.00078,-0.00617591,0
0.1,8.5,0,3.00136,-0.00870778,0
0.1,8.6,0,3.00136,-0.00870778,0
0.1,8.7,0,2.99964,-0.000616456,0
0.1,8.8,0,3.00075,-0.00478773,0
0.1,8.9,0,3.00075,-0.00478773,0
0.1,9,0,2.9997,-0.000231015,0
0.1,9.1,0,3.00034,-0.00205427,0
0.1,9.2,0,3.00034,-0.00205427,0
0.1,9.3,0,3.00011,-0.00105013,0
0.1,9.4,0,2.99998,0.000201173,0
0.1,9.5,0,3.00014,-0.000191222,0
0.1,9.6,0,3.00014,-0.000191222,0
0.1,9.7,0,2.99982,0.00107263,0
0.1,9.8,0,2.99997,0.00085412,0
0.1,9.9,0,2.99997,0.00085412,0
0.1,10,0,2.99988,0.00116766,0
0.1,10.1,0,3.00013,0.00129393,0
0.1,10.2,0,3.00013,0.00129393,0
0.1,10.3,0,3.00008,0.00133451,0
0.1,10.4,0,3,0.00169747,0
0.1,10.5,0,3.00004,0.00185986,0
0.1,10.6,0,3.00004,0.00185986,0
0.1,10.7,0,3.00002,0.00157521,0
0.1,10.8,0,2.99992,0.00127196,0
0.1,10.9,0,2.99992,0.00127196,0
0.1,11,0,3,0.00155767,0
0.1,11.1,0,2.99983,0.00161366,0
0.1,11.2,0,2.99983,0.00161366,0
0.1,11.3,0,2.99986,0.00162701,0
0.1,11.4,0,2.9999,0.00161709,0
0.1,11.5,0,2.99982,0.00156079,0
0.1,11.6,0,2.99982,0.00156079,0
0.1,11.7,0,2.99998,0.00169369,0
0.1,11.8,0,3.00003,0.00158096,0
0.1,11.9,0,3.00003,0.00158096,0
0.1,12,0,3.00001,0.00168597,0
0.1,12.1,0,3.00003,0.00165405,0
0.1,12.2,0,3.00003,0.00164752,0
0.1,12.3,0,3.00003,0.0016674,0
0.1,12.4,0,3.00009,0.0016696,0
0.1,12.5,0,3.00019,0.00182054,0
0.1,12.6,0,3.00024,0.00232033,0
0.1,12.7,0,3.00017,0.00312741,0
0.2,0,0,3.00008,-0.00476099,0
0.2,0.1,0,3.00016,-0.0034271,0
0.2,0.2,0,3.00006,-0.0034797,0
0.2,0.3,0,3.0001,-0.00337419,0
0.2,0.4,0,3.0002,-0.00294333,0
0.2,0.5,0,2.99984,-0.00371866,0
0.2,0.6,0,3.00045,-0.0022856,0
0.2,0.7,0,3.00005,-0.00293847,0
0.2,0.8,0,3.00011,-0.00241479,0
0.2,0.9,0,3.00053,-0.00121404,0
0.2,1,0,2.99944,-0.00347668,0
0.2,1.1,0,3.00088,0.000492116,0
0.2,1.2,0,2.99999,-0.00143621,0
0.2,1.3,0,3.00014,-0.000136423,0
0.2,1.4,0,3.0011,0.0031065,0
0.2,1.5,0,2.99873,-0.00332865,0
0.2,1.6,0,3.00168,0.00659114,0
0.2,1.7,0,2.99995,0.00160179,0
0.2,1.8,0,3.00029,0.0041465,0
0.2,1.9,0,3.00226,0.0116637,0
0.2,2,0,2.99784,-0.00349752,0
0.2,2.1,0,3.00285,0.0171276,0
0.2,2.2,0,3.00016,0.00672176,0
0.2,2.3,0,3.00059,0.0101308,0
0.2,2.4,0,3.00367,0.0239044,0
0.2,2.5,0,2.99739,-0.00391047,0
0.2,2.6,0,3.00487,0.0306977,0
0.2,2.7,0,3.00124,0.013237,0
0.2,2.8,0,3.00258,0.0166819,0
0.2,2.9,0,3.00763,0.0375277,0
0.2,3,0,2.99811,-0.00450913,0
0.2,3.1,0,3.01268,0.0434151,0
0.2,3.2,0,3.00584,0.0192735,0
0.2,3.3,0,3.01018,0.0216009,0
0.2,3.4,0,3.02153,0.0480073,0
0.2,3.5,0,2.99981,-0.00513354,0
0.2,3.6,0,3.03288,0.0502507,0
0.2,3.7,0,3.0168,0.0225399,0
0.2,3.8,0,3.02336,0.0224933,0
0.2,3.9,0,3.04616,0.0502106,0
0.2,4,0,3.00124,-0.00460187,0
0.2,4.1,0,3.06204,0.0434193,0
0.2,4.2,0,3.03181,0.019924,0
0.2,4.3,0,3.04713,0.0178241,0
0.2,4.4,0,3.09268,0.0394305,0
0.2,4.5,0,3.00114,-0.00249034,0
0.2,4.6,0,3.15166,0.0278825,0
0.2,4.7,0,3.07553,0.0131945,0
0.2,4.8,0,3.10119,0.0116986,0
0.2,4.9,0,3.20288,0.0250219,0
0.2,5,0,3.00026,-0.00117786,0
0.2,5.1,0,3.0026,-0.000963233,0
0.2,5.2,0,3.00348,-0.000907589,0
0.2,5.3,0,3.00393,-0.000776667,0
0.2,5.4,0,3.00413,-0.000571909,0
0.2,5.5,0,3.00417,-0.000328431,0
0.2,5.6,0,3.00409,-8.03292e-05,0
0.2,5.7,0,3.00386,0.000144749,0
0.2,5.8,0,3.0034,0.000315333,0
0.2,5.9,0,3.00263,0.000391133,0
0.2,6,0,3.00047,0.000795397,0
0.2,6.1,0,3.15026,-0.0180737,0
0.2,6.2,0,3.20267,-0.0246225,0
0.2,6.3,0,3.05272,-0.00535502,0
0.2,6.4,0,3.04348,-0.0106416,0
0.2,6.5,0,3.0993,-0.0261677,0
0.2,6.6,0,3.0473,-0.0108832,0
0.2,6.7,0,3.01226,-0.0080514,0
0.2,6.8,0,3.04931,-0.04382,0
0.2,6.9,0,3.03959,-0.0345878,0
0.2,7,0,3.00152,0.00184149,0
0.2,7.1,0,3.019,-0.0261972,0
0.2,7.2,0,3.02812,-0.0403705,0
0.2,7.3,0,3.00698,-0.0092641,0
0.2,7.4,0,3.00585,-0.015442,0
0.2,7.5,0,3.01669,-0.0430279,0
0.2,7.6,0,3.00753,-0.0203928,0
0.2,7.7,0,3.00013,-0.00345851,0
0.2,7.8,0,3.00772,-0.0276231,0
0.2,7.9,0,3.00656,-0.0240986,0
0.2,8,0,2.99892,-0.000191639,0
0.2,8.1,0,3.00249,-0.0145832,0
0.2,8.2,0,3.00514,-0.024845,0
0.2,8.3,0,3.00039,-0.00635096,0
0.2,8.4,0,2.99991,-0.00519023,0
0.2,8.5,0,3.00273,-0.0174156,0
0.2,8.6,0,3.00076,-0.00851011,0
0.2,8.7,0,2.99888,0.000299394,0
0.2,8.8,0,3.00091,-0.00736214,0
0.2,8.9,0,3.0009,-0.00697771,0
0.2,9,0,2.99914,0.000687796,0
0.2,9.1,0,2.9999,-0.00155701,0
0.2,9.2,0,3.00068,-0.00410853,0
0.2,9.3,0,2.99976,-4.63268e-05,0
0.2,9.4,0,2.99962,0.00120497,0
0.2,9.5,0,3.00028,-0.000382444,0
0.2,9.6,0,2.99997,0.000749525,0
0.2,9.7,0,2.9996,0.0022004,0
0.2,9.8,0,2.99985,0.00183281,0
0.2,9.9,0,2.99989,0.00187461,0
0.2,10,0,2.99972,0.00245049,0
0.2,10.1,0,3,0.00257759,0
0.2,10.2,0,3.00026,0.00258786,0
0.2,10.3,0,3.00001,0.00278381,0
0.2,10.4,0,2.99994,0.00314677,0
0.2,10.5,0,3.00008,0.00369827,0
0.2,10.6,0,3.00008,0.00353177,0
0.2,10.7,0,3.00006,0.00319747,0
0.2,10.8,0,2.99991,0.00272692,0
0.2,10.9,0,2.99989,0.00268197,0
0.2,11,0,3.00004,0.0032598,0
0.2,11.1,0,2.99987,0.00331513,0
0.2,11.2,0,2.99966,0.00322732,0
0.2,11.3,0,2.99986,0.00330947,0
0.2,11.4,0,2.9999,0.00329955,0
0.2,11.5,0,2.99967,0.00313611,0
0.2,11.6,0,2.99976,0.00322366,0
0.2,11.7,0,2.99996,0.00339549,0
0.2,11.8,0,3.00003,0.00323317,0
0.2,11.9,0,3.00005,0.00320656,0
0.2,12,0,3.00001,0.00344281,0
0.2,12.1,0,3.00003,0.0034109,0
0.2,12.2,0,3.00006,0.00329505,0
0.2,12.3,0,3.00006,0.00347163,0
0.2,12.4,0,3.00012,0.00347383,0
0.2,12.5,0,3.00029,0.00308919,0
0.2,12.6,0,3.00028,0.00366795,0
0.2,12.7,0,3.00017,0.00458051,0
0.3,0,0,3.00008,-0.00629885,0
0.3,0.1,0,3.00014,-0.00518315,0
0.3,0.2,0,3.00005,-0.00537829,0
0.3,0.3,0,3.00009,-0.00527278,0
0.3,0.4,0,3.00008,-0.00494366,0
0.3,0.5,0,2.99977,-0.00557798,0
0.3,0.6,0,3.00024,-0.00436641,0
0.3,0.7,0,2.99988,-0.00473992,0
0.3,0.8,0,2.99994,-0.00421624,0
0.3,0.9,0,3.0001,-0.00334842,0
0.3,1,0,2.99916,-0.00521502,0
0.3,1.1,0,3.00031,-0.0018924,0
0.3,1.2,0,2.99955,-0.00312358,0
0.3,1.3,0,2.9997,-0.00182379,0
0.3,1.4,0,3.00013,0.000362737,0
0.3,1.5,0,2.99809,-0.00499298,0
0.3,1.6,0,3.00049,0.00326548,0
0.3,1.7,0,2.99909,-8.93165e-05,0
0.3,1.8,0,2.99942,0.0024554,0
0.3,1.9,0,3.00051,0.00740536,0
0.3,2,0,2.99676,-0.00524628,0
0.3,2.1,0,3.00089,0.0119159,0
0.3,2.2,0,2.99892,0.00488819,0
0.3,2.3,0,2.99935,0.00829723,0
0.3,2.4,0,3.00133,0.0173499,0
0.3,2.5,0,2.99608,-0.0058657,0
0.3,2.6,0,3.00235,0.0229317,0
0.3,2.7,0,3.00003,0.0111393,0
0.3,2.8,0,3.00137,0.0145843,0
0.3,2.9,0,3.00502,0.0283141,0
0.3,3,0,2.99717,-0.0067637,0
0.3,3.1,0,3.00943,0.0331242,0
0.3,3.2,0,3.00529,0.0168558,0
0.3,3.3,0,3.00964,0.0191832,0
0.3,3.4,0,3.01768,0.0366284,0
0.3,3.5,0,2.99971,-0.00770032,0
0.3,3.6,0,3.0274,0.0384481,0
0.3,3.7,0,3.01712,0.0199561,0
0.3,3.8,0,3.02368,0.0199095,0
0.3,3.9,0,3.0392,0.0386894,0
0.3,4,0,3.00186,-0.0069028,0
0.3,4.1,0,3.05257,0.0332553,0
0.3,4.2,0,3.03258,0.0180916,0
0.3,4.3,0,3.04791,0.0159916,0
0.3,4.4,0,3.07806,0.0310223,0
0.3,4.5,0,3.00171,-0.00373552,0
0.3,4.6,0,3.12691,0.0217111,0
0.3,4.7,0,3.07531,0.0124025,0
0.3,4.8,0,3.10096,0.0109066,0
0.3,4.9,0,3.16914,0.0200054,0
0.3,5,0,3.00039,-0.00176679,0
0.3,5.1,0,3.00389,-0.00144485,0
0.3,5.2,0,3.00522,-0.00136138,0
0.3,5.3,0,3.0059,-0.001165,0
0.3,5.4,0,3.0062,-0.000857863,0
0.3,5.5,0,3.00626,-0.000492647,0
0.3,5.6,0,3.00614,-0.000120494,0
0.3,5.7,0,3.00579,0.000217123,0
0.3,5.8,0,3.00509,0.000473,0
0.3,5.9,0,3.00395,0.0005867,0
0.3,6,0,3.00071,0.0011931,0
0.3,6.1,0,3.1505,-0.017676,0
0.3,6.2,0,3.16784,-0.0195254,0
0.3,6.3,0,3.05284,-0.00466071,0
0.3,6.4,0,3.0436,-0.00994728,0
0.3,6.5,0,3.07498,-0.018122,0
0.3,6.6,0,3.04787,-0.00954359,0
0.3,6.7,0,3.01284,-0.00671181,0
0.3,6.8,0,3.0429,-0.0358017,0
0.3,6.9,0,3.0394,-0.0327564,0
0.3,7,0,3.00132,0.00367297,0
0.3,7.1,0,3.01881,-0.0243658,0
0.3,7.2,0,3.0216,-0.0298756,0
0.3,7.3,0,3.00625,-0.00767488,0
0.3,7.4,0,3.00511,-0.0138528,0
0.3,7.5,0,3.01132,-0.0300805,0
0.3,7.6,0,3.00665,-0.0191015,0
0.3,7.7,0,2.99925,-0.00216719,0
0.3,7.8,0,3.00582,-0.0231442,0
0.3,7.9,0,3.00564,-0.0229991,0
0.3,8,0,2.998,0.000907889,0
0.3,8.1,0,3.00157,-0.0134837,0
0.3,8.2,0,3.00266,-0.0176436,0
0.3,8.3,0,2.99952,-0.00536529,0
0.3,8.4,0,2.99904,-0.00420456,0
0.3,8.5,0,3.0008,-0.0116238,0
0.3,8.6,0,3,-0.00759426,0
0.3,8.7,0,2.99812,0.00121524,0
0.3,8.8,0,3,-0.00580749,0
0.3,8.9,0,3.00027,-0.00580352,0
0.3,9,0,2.99857,0.00160661,0
0.3,9.1,0,2.99934,-0.0006382,0
0.3,9.2,0,2.99987,-0.00161946,0
0.3,9.3,0,2.9994,0.000957472,0
0.3,9.4,0,2.99927,0.00220877,0
0.3,9.5,0,2.99975,0.0012827,0
0.3,9.6,0,2.99975,0.00187729,0
0.3,9.7,0,2.99938,0.00332817,0
0.3,9.8,0,2.99963,0.00297977,0
0.3,9.9,0,2.99971,0.00318807,0
0.3,10,0,2.99957,0.00373332,0
0.3,10.1,0,2.99984,0.00386042,0
0.3,10.2,0,3.00004,0.00401795,0
0.3,10.3,0,2.99995,0.00423311,0
0.3,10.4,0,2.99987,0.00459607,0
0.3,10.5,0,3.00002,0.00504118,0
0.3,10.6,0,3.00012,0.00515403,0
0.3,10.7,0,3.00009,0.00481974,0
0.3,10.8,0,2.99994,0.00434919,0
0.3,10.9,0,2.99995,0.00444684,0
0.3,11,0,3.00008,0.00496193,0
0.3,11.1,0,2.99991,0.00501726,0
0.3,11.2,0,2.99977,0.00495695,0
0.3,11.3,0,2.99986,0.00499193,0
0.3,11.4,0,2.9999,0.00498201,0
0.3,11.5,0,2.99972,0.00487224,0
0.3,11.6,0,2.99974,0.00492546,0
0.3,11.7,0,2.99994,0.00509729,0
0.3,11.8,0,3.00001,0.00493497,0
0.3,11.9,0,3.00004,0.00499316,0
0.3,12,0,3.00001,0.00519966,0
0.3,12.1,0,3.00003,0.00516774,0
0.3,12.2,0,3.00007,0.00514368,0
0.3,12.3,0,3.00009,0.00527586,0
0.3,12.4,0,3.00015,0.00527806,0
0.3,12.5,0,3.00028,0.00498973,0
0.3,12.6,0,3.00028,0.00512105,0
0.3,12.7,0,3.00017,0.00603362,0
0.4,0,0,3.00008,-0.00783672,0
0.4,0.1,0,3.00006,-0.00744829,0
0.4,0.2,0,3.00002,-0.00742351,0
0.4,0.3,0,3,-0.00734367,0
0.4,0.4,0,2.99987,-0.00727299,0
0.4,0.5,0,2.99969,-0.00743731,0
0.4,0.6,0,2.99974,-0.006964,0
0.4,0.7,0,2.99958,-0.00685983,0
0.4,0.8,0,2.99954,-0.0065205,0
0.4,0.9,0,2.99933,-0.0064069,0
0.4,1,0,2.99888,-0.00695336,0
0.4,1.1,0,2.99908,-0.00578466,0
0.4,1.2,0,2.9988,-0.00569291,0
0.4,1.3,0,2.99874,-0.0049412,0
0.4,1.4,0,2.99838,-0.00489972,0
0.4,1.5,0,2.99746,-0.00665731,0
0.4,1.6,0,2.99798,-0.00393662,0
0.4,1.7,0,2.99757,-0.00398482,0
0.4,1.8,0,2.99758,-0.00260486,0
0.4,1.9,0,2.99719,-0.00270864,0
0.4,2,0,2.99569,-0.00699504,0
0.4,2.1,0,2.99686,-0.00137609,0
0.4,2.2,0,2.99656,-0.00152874,0
0.4,2.3,0,2.99671,0.000282583,0
0.4,2.4,0,2.9966,6.35833e-05,0
0.4,2.5,0,2.99478,-0.00782093,0
0.4,2.6,0,2.99698,0.0016073,0
0.4,2.7,0,2.99715,0.00135096,0
0.4,2.8,0,2.99804,0.0031451,0
0.4,2.9,0,2.99852,0.00286264,0
0.4,3,0,2.99623,-0.00901827,0
0.4,3.1,0,3.00079,0.00408194,0
0.4,3.2,0,3.00151,0.0037883,0
0.4,3.3,0,3.00426,0.00495638,0
0.4,3.4,0,3.00507,0.00468805,0
0.4,3.5,0,2.99962,-0.0102671,0
0.4,3.6,0,3.00934,0.00509533,0
0.4,3.7,0,3.01008,0.00506473,0
0.4,3.8,0,3.01402,0.00514516,0
0.4,3.9,0,3.01456,0.00565427,0
0.4,4,0,3.00248,-0.00920373,0
0.4,4.1,0,3.01957,0.00474448,0
0.4,4.2,0,3.01984,0.00558773,0
0.4,4.3,0,3.02834,0.00484339,0
0.4,4.4,0,3.02797,0.00590051,0
0.4,4.5,0,3.00228,-0.00498069,0
0.4,4.6,0,3.04306,0.00404529,0
0.4,4.7,0,3.04164,0.00486094,0
0.4,4.8,0,3.05572,0.00429237,0
0.4,4.9,0,3.05635,0.00465796,0
0.4,5,0,3.00052,-0.00235571,0
0.4,5.1,0,3.00519,-0.00192647,0
0.4,5.2,0,3.00696,-0.00181518,0
0.4,5.3,0,3.00787,-0.00155333,0
0.4,5.4,0,3.00826,-0.00114382,0
0.4,5.5,0,3.00835,-0.000656863,0
0.4,5.6,0,3.00819,-0.000160658,0
0.4,5.7,0,3.00772,0.000289498,0
0.4,5.8,0,3.00679,0.000630667,0
0.4,5.9,0,3.00527,0.000782267,0
0.4,6,0,3.00094,0.00159079,0
0.4,6.1,0,3.0566,-0.00518258,0
0.4,6.2,0,3.05644,-0.00478415,0
0.4,6.3,0,3.05296,-0.00396641,0
0.4,6.4,0,3.02541,-0.00387109,0
0.4,6.5,0,3.02603,-0.00300429,0
0.4,6.6,0,3.02664,-0.00213749,0
0.4,6.7,0,3.01342,-0.00537222,0
0.4,6.8,0,3.01513,-0.00734248,0
0.4,6.9,0,3.0141,-0.00668173,0
0.4,7,0,3.00113,0.00550444,0
0.4,7.1,0,3.0064,-0.00456171,0
0.4,7.2,0,3.00567,-0.00488713,0
0.4,7.3,0,3.00494,-0.00521255,0
0.4,7.4,0,3.00155,-0.00528585,0
0.4,7.5,0,3.00135,-0.00568602,0
0.4,7.6,0,3.00116,-0.00608619,0
0.4,7.7,0,2.99837,-0.000875877,0
0.4,7.8,0,2.99925,-0.00405546,0
0.4,7.9,0,2.99919,-0.00431309,0
0.4,8,0,2.99707,0.00200742,0
0.4,8.1,0,2.99814,-0.00262342,0
0.4,8.2,0,2.99821,-0.00277636,0
0.4,8.3,0,2.99827,-0.0029293,0
0.4,8.4,0,2.99766,-0.00092071,0
0.4,8.5,0,2.9978,-0.0010145,0
0.4,8.6,0,2.99795,-0.00110829,0
0.4,8.7,0,2.99736,0.00213109,0
0.4,8.8,0,2.99793,0.000814901,0
0.4,8.9,0,2.99819,0.000818879,0
0.4,9,0,2.99801,0.00252542,0
0.4,9.1,0,2.99833,0.00224325,0
0.4,9.2,0,2.99861,0.00235741,0
0.4,9.3,0,2.9989,0.00247158,0
0.4,9.4,0,2.99886,0.00343896,0
0.4,9.5,0,2.99903,0.00360549,0
0.4,9.6,0,2.99921,0.00377201,0
0.4,9.7,0,2.99916,0.00445593,0
0.4,9.8,0,2.99928,0.00453626,0
0.4,9.9,0,2.99937,0.00474455,0
0.4,10,0,2.99942,0.00501616,0
0.4,10.1,0,2.99958,0.00523254,0
0.4,10.2,0,2.9997,0.00545615,0
0.4,10.3,0,2.99982,0.00567976,0
0.4,10.4,0,2.99981,0.00602055,0
0.4,10.5,0,2.99994,0.00625289,0
0.4,10.6,0,3.00008,0.00648523,0
0.4,10.7,0,3.00013,0.006442,0
0.4,10.8,0,3.00009,0.00639199,0
0.4,10.9,0,3.0001,0.00649927,0
0.4,11,0,3.00012,0.00666406,0
0.4,11.1,0,3.00003,0.0067543,0
0.4,11.2,0,2.99998,0.00672788,0
0.4,11.3,0,2.99992,0.00670146,0
0.4,11.4,0,2.9999,0.00666973,0
0.4,11.5,0,2.99988,0.00669571,0
0.4,11.6,0,2.99985,0.00672169,0
0.4,11.7,0,2.99992,0.0067991,0
0.4,11.8,0,2.99996,0.0067969,0
0.4,11.9,0,2.99999,0.00687084,0
0.4,12,0,3.00001,0.0069565,0
0.4,12.1,0,3.00002,0.00699358,0
0.4,12.2,0,3.00007,0.00705723,0
0.4,12.3,0,3.00011,0.00712087,0
0.4,12.4,0,3.00018,0.00708228,0
0.4,12.5,0,3.00019,0.00710124,0
0.4,12.6,0,3.0002,0.00712938,0
0.4,12.7,0,3.00017,0.00748672,0
0.5,0,0,3.00001,-0.00977814,0
0.5,0.1,0,3.00002,-0.0097272,0
0.5,0.2,0,2.99997,-0.00970242,0
0.5,0.3,0,2.9998,-0.00968473,0
0.5,0.4,0,2.99968,-0.00961405,0
0.5,0.5,0,2.99951,-0.00952399,0
0.5,0.6,0,2.99924,-0.00956848,0
0.5,0.7,0,2.99909,-0.0094643,0
0.5,0.8,0,2.99879,-0.00957733,0
0.5,0.9,0,2.99859,-0.00946373,0
0.5,1,0,2.99851,-0.00899423,0
0.5,1.1,0,2.99786,-0.00966642,0
0.5,1.2,0,2.99758,-0.00957467,0
0.5,1.3,0,2.99701,-0.0101862,0
0.5,1.4,0,2.99665,-0.0101447,0
0.5,1.5,0,2.99682,-0.00865152,0
0.5,1.6,0,2.99548,-0.0111063,0
0.5,1.7,0,2.99507,-0.0111545,0
0.5,1.8,0,2.99425,-0.0127204,0
0.5,1.9,0,2.99386,-0.0128242,0
0.5,2,0,2.99479,-0.00890938,0
0.5,2.1,0,2.9928,-0.0146394,0
0.5,2.2,0,2.9925,-0.014792,0
0.5,2.3,0,2.9919,-0.0169955,0
0.5,2.4,0,2.9918,-0.0172145,0
0.5,2.5,0,2.99375,-0.00962283,0
0.5,2.6,0,2.99153,-0.0197045,0
0.5,2.7,0,2.9917,-0.0199609,0
0.5,2.8,0,2.99146,-0.0223044,0
0.5,2.9,0,2.99194,-0.0225869,0
0.5,3,0,2.99524,-0.0106717,0
0.5,3.1,0,2.99211,-0.0249561,0
0.5,3.2,0,2.99283,-0.0252497,0
0.5,3.3,0,2.99165,-0.0270023,0
0.5,3.4,0,2.99246,-0.0272706,0
0.5,3.5,0,2.99893,-0.0117234,0
0.5,3.6,0,2.99132,-0.0283712,0
0.5,3.7,0,2.99206,-0.0284018,0
0.5,3.8,0,2.98945,-0.0280761,0
0.5,3.9,0,2.99,-0.027567,0
0.5,4,0,3.00263,-0.0102333,0
0.5,4.1,0,2.98663,-0.0237659,0
0.5,4.2,0,2.98691,-0.0229227,0
0.5,4.3,0,2.97853,-0.0203977,0
0.5,4.4,0,2.97817,-0.0193406,0
0.5,4.5,0,3.00313,-0.0056289,0
0.5,4.6,0,2.95953,-0.0133671,0
0.5,4.7,0,2.95811,-0.0125515,0
0.5,4.8,0,2.94148,-0.0110585,0
0.5,4.9,0,2.94211,-0.0106929,0
0.5,5,0,3.00229,-0.00280798,0
0.5,5.1,0,3.00696,-0.00238064,0
0.5,5.2,0,3.00858,-0.00227562,0
0.5,5.3,0,3.00933,-0.00200143,0
0.5,5.4,0,3.00962,-0.00156456,0
0.5,5.5,0,3.00967,-0.00104317,0
0.5,5.6,0,3.00953,-0.000513039,0
0.5,5.7,0,3.00913,-3.48194e-05,0
0.5,5.8,0,3.00831,0.000324661,0
0.5,5.9,0,3.0069,0.000473408,0
0.5,6,0,3.0025,0.00129329,0
0.5,6.1,0,2.94355,0.00967405,0
0.5,6.2,0,2.9434,0.0100725,0
0.5,6.3,0,2.94673,0.00999433,0
0.5,6.4,0,2.97754,0.0107827,0
0.5,6.5,0,2.97815,0.0116495,0
0.5,6.6,0,2.97877,0.0125163,0
0.5,6.7,0,2.99131,0.0180873,0
0.5,6.8,0,2.98751,0.0217341,0
0.5,6.9,0,2.98648,0.0223949,0
0.5,7,0,2.9977,0.00980172,0
0.5,7.1,0,2.9901,0.0205435,0
0.5,7.2,0,2.98937,0.020218,0
0.5,7.3,0,2.98864,0.0198926,0
0.5,7.4,0,2.99156,0.0190475,0
0.5,7.5,0,2.99136,0.0186474,0
0.5,7.6,0,2.99117,0.0182472,0
0.5,7.7,0,2.99369,0.012202,0
0.5,7.8,0,2.99259,0.0149882,0
0.5,7.9,0,2.99254,0.0147306,0
0.5,8,0,2.99463,0.00787215,0
0.5,8.1,0,2.99367,0.012211,0
0.5,8.2,0,2.99374,0.012058,0
0.5,8.3,0,2.99381,0.0119051,0
0.5,8.4,0,2.99461,0.00967747,0
0.5,8.5,0,2.99476,0.00958368,0
0.5,8.6,0,2.9949,0.00948989,0
0.5,8.7,0,2.9958,0.00622895,0
0.5,8.8,0,2.99581,0.00737563,0
0.5,8.9,0,2.99607,0.00737961,0
0.5,9,0,2.99669,0.0059544,0
0.5,9.1,0,2.99711,0.00619976,0
0.5,9.2,0,2.99739,0.00631392,0
0.5,9.3,0,2.99767,0.00642809,0
0.5,9.4,0,2.99819,0.00574314,0
0.5,9.5,0,2.99837,0.00590966,0
0.5,9.6,0,2.99855,0.00607619,0
0.5,9.7,0,2.9988,0.00595425,0
0.5,9.8,0,2.99896,0.00608026,0
0.5,9.9,0,2.99905,0.00628855,0
0.5,10,0,2.99912,0.0065466,0
0.5,10.1,0,2.99918,0.00667182,0
0.5,10.2,0,2.9993,0.00689543,0
0.5,10.3,0,2.99942,0.00711905,0
0.5,10.4,0,2.99977,0.00722468,0
0.5,10.5,0,2.9999,0.00745702,0
0.5,10.6,0,3.00004,0.00768936,0
0.5,10.7,0,3.00011,0.00821079,0
0.5,10.8,0,3.00031,0.00854509,0
0.5,10.9,0,3.00031,0.00865238,0
0.5,11,0,3.00025,0.0086761,0
0.5,11.1,0,3.00023,0.0085241,0
0.5,11.2,0,3.00017,0.00849768,0
0.5,11.3,0,3.00011,0.00847126,0
0.5,11.4,0,3.00005,0.00845534,0
0.5,11.5,0,3.00002,0.00848132,0
0.5,11.6,0,3,0.0085073,0
0.5,11.7,0,2.99988,0.0086041,0
0.5,11.8,0,2.99988,0.00867676,0
0.5,11.9,0,2.9999,0.00875069,0
0.5,12,0,2.99993,0.00882364,0
0.5,12.1,0,3.00004,0.00891262,0
0.5,12.2,0,3.00008,0.00897626,0
0.5,12.3,0,3.00012,0.00903991,0
0.5,12.4,0,3.0001,0.00919819,0
0.5,12.5,0,3.00011,0.0092337,0
0.5,12.6,0,3.00012,0.00926184,0
0.5,12.7,0,3.00011,0.00919096,0
0.6,0,0,2.99987,-0.0121231,0
0.6,0.1,0,3,-0.0120199,0
0.6,0.2,0,2.99985,-0.012014,0
0.6,0.3,0,2.99962,-0.0120204,0
0.6,0.4,0,2.9995,-0.0119668,0
0.6,0.5,0,2.99923,-0.011838,0
0.6,0.6,0,2.99875,-0.0121798,0
0.6,0.7,0,2.99867,-0.0119062,0
0.6,0.8,0,2.99828,-0.0121967,0
0.6,0.9,0,2.99786,-0.0125189,0
0.6,1,0,2.99806,-0.0113376,0
0.6,1.1,0,2.99667,-0.0135377,0
0.6,1.2,0,2.99677,-0.0125335,0
0.6,1.3,0,2.996,-0.0136876,0
0.6,1.4,0,2.99495,-0.0153723,0
0.6,1.5,0,2.99618,-0.0109756,0
0.6,1.6,0,2.99298,-0.0182437,0
0.6,1.7,0,2.99365,-0.0153464,0
0.6,1.8,0,2.99249,-0.0181041,0
0.6,1.9,0,2.99052,-0.0229412,0
0.6,2,0,2.99406,-0.0109893,0
0.6,2.1,0,2.98871,-0.027874,0
0.6,2.2,0,2.99043,-0.0212206,0
0.6,2.3,0,2.98952,-0.0250381,0
0.6,2.4,0,2.98692,-0.0344843,0
0.6,2.5,0,2.993,-0.0112714,0
0.6,2.6,0,2.98599,-0.0410038,0
0.6,2.7,0,2.98898,-0.0293015,0
0.6,2.8,0,2.98829,-0.0333043,0
0.6,2.9,0,2.98527,-0.0480344,0
0.6,3,0,2.9942,-0.0117239,0
0.6,3.1,0,2.98338,-0.0539899,0
0.6,3.2,0,2.98859,-0.0372853,0
0.6,3.3,0,2.98586,-0.0402151,0
0.6,3.4,0,2.97984,-0.0592476,0
0.6,3.5,0,2.99764,-0.0120692,0
0.6,3.6,0,2.97333,-0.0619516,0
0.6,3.7,0,2.98431,-0.0418108,0
0.6,3.8,0,2.9791,-0.0414158,0
0.6,3.9,0,2.9655,-0.0609743,0
0.6,4,0,3.00233,-0.00999156,0
0.6,4.1,0,2.95377,-0.0522759,0
0.6,4.2,0,2.97395,-0.0342067,0
0.6,4.3,0,2.95891,-0.0304218,0
0.6,4.4,0,2.92865,-0.0447009,0
0.6,4.5,0,3.00426,-0.00568016,0
0.6,4.6,0,2.87631,-0.0305261,0
0.6,4.7,0,2.92657,-0.0195627,0
0.6,4.8,0,2.89696,-0.0173477,0
0.6,4.9,0,2.82642,-0.0260471,0
0.6,5,0,3.0057,-0.00312357,0
0.6,5.1,0,3.00921,-0.00280738,0
0.6,5.2,0,3.01006,-0.00274272,0
0.6,5.3,0,3.01029,-0.00250929,0
0.6,5.4,0,3.01028,-0.00212008,0
0.6,5.5,0,3.01023,-0.00165158,0
0.6,5.6,0,3.01016,-0.00117764,0
0.6,5.7,0,3.01003,-0.000755828,0
0.6,5.8,0,3.00966,-0.000445017,0
0.6,5.9,0,3.00885,-0.000339875,0
0.6,6,0,3.00539,0.000300582,0
0.6,6.1,0,2.84729,0.0221441,0
0.6,6.2,0,2.8287,0.0250444,0
0.6,6.3,0,2.94892,0.00900107,0
0.6,6.4,0,2.96145,0.0154547,0
0.6,6.5,0,2.93136,0.0258392,0
0.6,6.6,0,2.95872,0.0181565,0
0.6,6.7,0,2.99231,0.0170019,0
0.6,6.8,0,2.96003,0.0514281,0
0.6,6.9,0,2.96154,0.0493467,0
0.6,7,0,2.99854,0.00887466,0
0.6,7.1,0,2.97735,0.0399111,0
0.6,7.2,0,2.9727,0.04544,0
0.6,7.3,0,2.98827,0.0206631,0
0.6,7.4,0,2.98868,0.0263512,0
0.6,7.5,0,2.98135,0.0429197,0
0.6,7.6,0,2.9859,0.0307903,0
0.6,7.7,0,2.99333,0.0126605,0
0.6,7.8,0,2.98586,0.0339869,0
0.6,7.9,0,2.98594,0.0333251,0
0.6,8,0,2.99375,0.0088196,0
0.6,8.1,0,2.99024,0.0229803,0
0.6,8.2,0,2.98926,0.0268595,0
0.6,8.3,0,2.99242,0.0146103,0
0.6,8.4,0,2.99309,0.0131907,0
0.6,8.5,0,2.99166,0.0201707,0
0.6,8.6,0,2.99269,0.0162369,0
0.6,8.7,0,2.99478,0.00778859,0
0.6,8.8,0,2.99364,0.0138747,0
0.6,8.9,0,2.99391,0.0138787,0
0.6,9,0,2.99571,0.0076657,0
0.6,9.1,0,2.99599,0.00933894,0
0.6,9.2,0,2.99619,0.0102501,0
0.6,9.3,0,2.9968,0.00857937,0
0.6,9.4,0,2.99742,0.00761111,0
0.6,9.5,0,2.99775,0.00819522,0
0.6,9.6,0,2.99796,0.0081904,0
0.6,9.7,0,2.99826,0.00776146,0
0.6,9.8,0,2.99866,0.00761177,0
0.6,9.9,0,2.99875,0.00782007,0
0.6,10,0,2.99875,0.00829317,0
0.6,10.1,0,2.99877,0.00824244,0
0.6,10.2,0,2.99886,0.0083358,0
0.6,10.3,0,2.99907,0.00871883,0
0.6,10.4,0,2.99948,0.00882713,0
0.6,10.5,0,2.9999,0.00865358,0
0.6,10.6,0,2.99997,0.00901293,0
0.6,10.7,0,2.99986,0.00984373,0
0.6,10.8,0,3.00057,0.010785,0
0.6,10.9,0,3.00059,0.0109062,0
0.6,11,0,3.00014,0.010421,0
0.6,11.1,0,3.00026,0.010281,0
0.6,11.2,0,3.00034,0.0102663,0
0.6,11.3,0,3.00014,0.0103032,0
0.6,11.4,0,3.00002,0.0103109,0
0.6,11.5,0,3.00016,0.0102291,0
0.6,11.6,0,3.0001,0.0102858,0
0.6,11.7,0,2.99983,0.0104891,0
0.6,11.8,0,2.99977,0.010559,0
0.6,11.9,0,2.99979,0.0106327,0
0.6,12,0,2.99982,0.0106954,0
0.6,12.1,0,2.99999,0.0108076,0
0.6,12.2,0,3.00011,0.0109008,0
0.6,12.3,0,3.00006,0.010953,0
0.6,12.4,0,2.99998,0.0111044,0
0.6,12.5,0,3.00003,0.0113871,0
0.6,12.6,0,3.00004,0.0113842,0
0.6,12.7,0,3.00001,0.0111463,0
0.7,0,0,2.99974,-0.0144681,0
0.7,0.1,0,2.9999,-0.0143492,0
0.7,0.2,0,2.99966,-0.0143382,0
0.7,0.3,0,2.99943,-0.0143446,0
0.7,0.4,0,2.99925,-0.0142925,0
0.7,0.5,0,2.99894,-0.0141521,0
0.7,0.6,0,2.9984,-0.0145831,0
0.7,0.7,0,2.9983,-0.014235,0
0.7,0.8,0,2.99791,-0.0145256,0
0.7,0.9,0,2.99732,-0.0150758,0
0.7,1,0,2.9976,-0.013681,0
0.7,1.1,0,2.99599,-0.0163394,0
0.7,1.2,0,2.99622,-0.0148841,0
0.7,1.3,0,2.99544,-0.0160382,0
0.7,1.4,0,2.99399,-0.0185675,0
0.7,1.5,0,2.99554,-0.0132997,0
0.7,1.6,0,2.99178,-0.0220117,0
0.7,1.7,0,2.99295,-0.0175747,0
0.7,1.8,0,2.99179,-0.0203324,0
0.7,1.9,0,2.98901,-0.0274322,0
0.7,2,0,2.99334,-0.0130692,0
0.7,2.1,0,2.98697,-0.0333004,0
0.7,2.2,0,2.9897,-0.0231118,0
0.7,2.3,0,2.98879,-0.0269293,0
0.7,2.4,0,2.98493,-0.0408193,0
0.7,2.5,0,2.99225,-0.01292,0
0.7,2.6,0,2.9838,-0.0485476,0
0.7,2.7,0,2.98813,-0.0306696,0
0.7,2.8,0,2.98744,-0.0346724,0
0.7,2.9,0,2.98255,-0.0564052,0
0.7,3,0,2.99317,-0.0127762,0
0.7,3.1,0,2.98003,-0.0634366,0
0.7,3.2,0,2.98734,-0.0379887,0
0.7,3.3,0,2.98461,-0.0409185,0
0.7,3.4,0,2.97516,-0.0690828,0
0.7,3.5,0,2.99635,-0.0124151,0
0.7,3.6,0,2.96704,-0.0722678,0
0.7,3.7,0,2.98338,-0.0417723,0
0.7,3.8,0,2.97817,-0.0413773,0
0.7,3.9,0,2.95795,-0.0708272,0
0.7,4,0,3.00203,-0.0097498,0
0.7,4.1,0,2.94371,-0.0606597,0
0.7,4.2,0,2.97424,-0.0340068,0
0.7,4.3,0,2.9592,-0.0302219,0
0.7,4.4,0,2.91458,-0.0523449,0
0.7,4.5,0,3.00539,-0.00573141,0
0.7,4.6,0,2.85213,-0.0357097,0
0.7,4.7,0,2.9295,-0.0198087,0
0.7,4.8,0,2.89988,-0.0175938,0
0.7,4.9,0,2.7941,-0.0308742,0
0.7,5,0,3.00911,-0.00343917,0
0.7,5.1,0,3.01145,-0.00323412,0
0.7,5.2,0,3.01155,-0.00320981,0
0.7,5.3,0,3.01126,-0.00301715,0
0.7,5.4,0,3.01094,-0.0026756,0
0.7,5.5,0,3.01078,-0.00225998,0
0.7,5.6,0,3.0108,-0.00184223,0
0.7,5.7,0,3.01093,-0.00147684,0
0.7,5.8,0,3.01101,-0.00121469,0
0.7,5.9,0,3.01081,-0.00115316,0
0.7,6,0,3.00828,-0.000692126,0
0.7,6.1,0,2.85017,0.0211514,0
0.7,6.2,0,2.79426,0.0290552,0
0.7,6.3,0,2.95111,0.00800781,0
0.7,6.4,0,2.96364,0.0144614,0
0.7,6.5,0,2.9088,0.0324175,0
0.7,6.6,0,2.95972,0.017071,0
0.7,6.7,0,2.99331,0.0159164,0
0.7,6.8,0,2.95402,0.0579227,0
0.7,6.9,0,2.96238,0.0484196,0
0.7,7,0,2.99939,0.0079476,0
0.7,7.1,0,2.97819,0.0389841,0
0.7,7.2,0,2.96651,0.0549296,0
0.7,7.3,0,2.98854,0.0204859,0
0.7,7.4,0,2.98895,0.0261739,0
0.7,7.5,0,2.97638,0.0550621,0
0.7,7.6,0,2.98554,0.0312489,0
0.7,7.7,0,2.99296,0.013119,0
0.7,7.8,0,2.98436,0.0377661,0
0.7,7.9,0,2.98506,0.0342726,0
0.7,8,0,2.99287,0.00976704,0
0.7,8.1,0,2.98937,0.0239277,0
0.7,8.2,0,2.98669,0.0342016,0
0.7,8.3,0,2.99139,0.0159042,0
0.7,8.4,0,2.99206,0.0144846,0
0.7,8.5,0,2.9896,0.026133,0
0.7,8.6,0,2.99167,0.0177966,0
0.7,8.7,0,2.99376,0.00934824,0
0.7,8.8,0,2.99249,0.0159873,0
0.7,8.9,0,2.99288,0.0158044,0
0.7,9,0,2.99473,0.00937699,0
0.7,9.1,0,2.99501,0.0110502,0
0.7,9.2,0,2.99519,0.0131078,0
0.7,9.3,0,2.99599,0.0103608,0
0.7,9.4,0,2.99661,0.00939255,0
0.7,9.5,0,2.99704,0.0102291,0
0.7,9.6,0,2.99741,0.00999761,0
0.7,9.7,0,2.99771,0.00956867,0
0.7,9.8,0,2.99813,0.00940664,0
0.7,9.9,0,2.99838,0.00954257,0
0.7,10,0,2.99838,0.0100397,0
0.7,10.1,0,2.9984,0.00998901,0
0.7,10.2,0,2.99848,0.00988882,0
0.7,10.3,0,2.99875,0.0103686,0
0.7,10.4,0,2.99916,0.0104769,0
0.7,10.5,0,2.99972,0.0101004,0
0.7,10.6,0,2.99972,0.0106459,0
0.7,10.7,0,2.99962,0.0114767,0
0.7,10.8,0,3.00032,0.0124179,0
0.7,10.9,0,3.00054,0.0127422,0
0.7,11,0,3.00003,0.0121658,0
0.7,11.1,0,3.00015,0.0120259,0
0.7,11.2,0,3.0004,0.0120634,0
0.7,11.3,0,3.00011,0.0121629,0
0.7,11.4,0,2.99999,0.0121707,0
0.7,11.5,0,3.0002,0.0120462,0
0.7,11.6,0,3.00004,0.0121707,0
0.7,11.7,0,2.99977,0.0123741,0
0.7,11.8,0,2.99972,0.012444,0
0.7,11.9,0,2.99969,0.012507,0
0.7,12,0,2.99972,0.0125672,0
0.7,12.1,0,2.99988,0.0126794,0
0.7,12.2,0,3.00007,0.0128087,0
0.7,12.3,0,2.99994,0.0128592,0
0.7,12.4,0,2.99987,0.0130106,0
0.7,12.5,0,2.99993,0.0133708,0
0.7,12.6,0,2.99993,0.0133396,0
0.7,12.7,0,2.9999,0.0131017,0
0.8,0,0,2.9996,-0.0168131,0
0.8,0.1,0,2.99963,-0.0167194,0
0.8,0.2,0,2.99947,-0.0166625,0
0.8,0.3,0,2.99925,-0.0166688,0
0.8,0.4,0,2.99896,-0.0165837,0
0.8,0.5,0,2.99866,-0.0164661,0
0.8,0.6,0,2.99823,-0.0166711,0
0.8,0.7,0,2.99794,-0.0165639,0
0.8,0.8,0,2.99755,-0.0168545,0
0.8,0.9,0,2.99715,-0.0168382,0
0.8,1,0,2.99714,-0.0160244,0