/*--------------------------------*- C++ -*----------------------------------*\
| =========                 |                                                 |
| \\      /  F ield         | OpenFOAM: The Open Source CFD Toolbox           |
|  \\    /   O peration     | Version:  v1806                                 |
|   \\  /    A nd           | Web:      www.OpenFOAM.com                      |
|    \\/     M anipulation  |                                                 |
\*---------------------------------------------------------------------------*/
FoamFile
{
    version     2.0;
    format      ascii;
    class       surfaceScalarField;
    location    "10";
    object      phi;
}
// * * * * * * * * * * * * * * * * * * * * * * * * * * * * * * * * * * * * * //

dimensions      [0 3 -1 0 0 0 0];
oriented        oriented;


internalField   nonuniform List<scalar> 
13505
(
-2.24408e-07
0.251576
-0.282276
-0.363372
0.394072
-8.49302e-11
0.251563
-0.282278
-0.363325
0.394039
2.24332e-07
0.251563
-0.282278
-0.363325
0.394039
0.251576
-0.282276
-0.363372
0.394072
1.14936e-07
-0.610645
0.0909185
0.519727
-1.3985e-10
-0.610625
0.0908923
0.519733
-1.149e-07
-0.610625
0.0908923
0.519733
-0.610645
0.0909185
0.519727
3.59348e-08
-0.35907
-2.59091e-10
-0.359062
-3.6614e-08
-0.359062
-0.35907
-2.03336e-07
0.0260621
-0.0209171
0.0301754
-0.0353202
2.35547e-11
0.0260272
-0.0208843
0.0301846
-0.0353277
2.03659e-07
0.0260272
-0.0208843
0.0301846
-0.0353277
0.0260622
-0.0209171
0.0301754
-0.0353203
3.9157e-07
0.312385
-0.438639
0.137359
-0.0111055
-6.30901e-11
0.312455
-0.438649
0.137312
-0.011117
-3.91641e-07
0.312455
-0.438649
0.137312
-0.011117
0.312385
-0.438639
0.137359
-0.0111055
-4.13974e-07
0.22228
0.116168
3.57872e-10
0.222292
0.116189
4.14295e-07
0.222292
0.116189
0.22228
0.116168
2.04297e-07
0.199432
-0.378097
-0.299613
0.478278
-2.81071e-11
0.199457
-0.378115
-0.299618
0.478275
-2.04142e-07
0.199457
-0.378115
-0.299618
0.478275
0.199432
-0.378097
-0.299613
0.478278
6.12914e-08
-0.463167
0.560704
0.101895
1.99089e-11
-0.463182
0.560663
0.101976
-6.12696e-08
-0.463182
0.560663
0.101976
-0.463167
0.560704
0.101895
7.67775e-08
-0.0480326
-0.454903
0.0397689
-2.32398e-11
-0.0480315
-0.454882
0.0397315
-7.67506e-08
-0.0480315
-0.454882
0.0397315
-0.0480326
-0.454903
0.0397689
4.36586e-07
0.103934
-0.530065
1.11906e-10
0.103946
-0.530092
-4.35933e-07
0.103946
-0.530092
0.103934
-0.530065
-6.8273e-08
-0.448607
0.252929
-1.39058e-10
-0.448613
0.252942
6.84111e-08
-0.448613
0.252942
-0.448607
0.252929
-6.59071e-08
-0.0107112
0.074529
-0.118488
0.0546706
-5.98574e-11
-0.0107049
0.0745248
-0.118485
0.0546648
6.57837e-08
-0.0107049
0.0745248
-0.118485
0.0546648
-0.0107111
0.074529
-0.118488
0.0546705
-5.79832e-08
0.103392
0.0193952
-0.133498
-1.34118e-11
0.103398
0.0193991
-0.133502
5.78694e-08
0.103398
0.0193991
-0.133502
0.103392
0.0193952
-0.133498
4.19519e-08
-0.158991
0.256805
-0.417919
0.320105
2.62919e-11
-0.15898
0.256808
-0.417911
0.320083
-4.20073e-08
-0.15898
0.256808
-0.417911
0.320083
-0.158991
0.256805
-0.417919
0.320105
7.21405e-08
0.359821
-0.497594
-0.021218
-6.55164e-11
0.359831
-0.497586
-0.0212247
-7.21335e-08
0.359831
-0.497586
-0.0212247
0.359821
-0.497594
-0.021218
3.5203e-08
0.53363
0.082996
1.02681e-10
0.53362
0.0830187
-3.51182e-08
0.53362
0.0830187
0.53363
0.082996
-9.12092e-08
0.0099461
-0.0641826
-0.0924267
0.146663
-1.25728e-10
0.00994533
-0.0641884
-0.0924202
0.146663
9.10907e-08
0.00994532
-0.0641884
-0.0924202
0.146663
0.00994614
-0.0641826
-0.0924268
0.146663
-1.10007e-07
-0.0754697
0.136012
-0.0505959
-1.60083e-10
-0.0754756
0.136015
-0.0505938
1.09663e-07
-0.0754755
0.136015
-0.0505938
-0.0754697
0.136012
-0.0505959
-1.92497e-09
-0.140888
0.0012355
-1.2801e-10
-0.140899
0.00123537
1.96691e-09
-0.140899
0.00123538
-0.140888
0.00123554
1.16596e-07
-0.245612
0.351398
-0.505191
0.399405
-6.833e-11
-0.245602
0.351398
-0.505201
0.399406
-1.16723e-07
-0.245602
0.351398
-0.505201
0.399406
-0.245612
0.351398
-0.505191
0.399405
3.3612e-07
0.478002
-0.672499
-0.0511151
1.46167e-10
0.477978
-0.672488
-0.0510922
-3.36038e-07
0.477978
-0.672488
-0.0510922
0.478002
-0.672499
-0.0511151
-4.23564e-08
0.685303
0.144097
-2.30637e-10
0.685316
0.14406
4.20513e-08
0.685316
0.14406
0.685303
0.144097
-7.10871e-08
-0.0488417
0.110953
-0.115517
0.0534061
1.60178e-10
-0.0488502
0.110947
-0.115499
0.0534024
7.1344e-08
-0.0488502
0.110947
-0.115499
0.0534024
-0.0488418
0.110953
-0.115517
0.0534061
-8.67354e-08
-0.144376
0.00261628
0.0929185
1.92711e-10
-0.144369
0.00260145
0.092917
8.69969e-08
-0.144369
0.00260144
0.092917
-0.144376
0.00261624
0.0929186
-1.33595e-07
-0.0402395
0.0252376
0.125955
3.80962e-11
-0.0402303
0.0252215
0.125956
1.33695e-07
-0.0402303
0.0252215
0.125956
-0.0402395
0.0252376
0.125955
-3.59852e-09
-0.10624
0.113992
0.13058
-0.138331
9.16034e-11
-0.106235
0.113993
0.130575
-0.138333
3.6817e-09
-0.106235
0.113993
0.130575
-0.138333
-0.10624
0.113992
0.13058
-0.138331
-2.97698e-08
0.0970018
-0.0918954
-0.111346
1.82089e-10
0.0970028
-0.0918887
-0.111349
3.00286e-08
0.0970028
-0.0918887
-0.111349
0.0970019
-0.0918955
-0.111346
-8.33059e-08
0.0852989
0.130766
-0.102074
-7.04606e-11
0.0852942
0.130759
-0.102061
8.31576e-08
0.0852942
0.130759
-0.102061
0.0852988
0.130766
-0.102074
-6.03575e-08
0.125531
0.0693689
-0.109601
-1.93917e-10
0.125539
0.0693721
-0.109617
6.00409e-08
0.125539
0.0693721
-0.109617
0.125531
0.0693689
-0.109601
-7.44877e-08
0.773046
-0.629469
-0.496867
0.35329
3.64992e-10
0.773035
-0.629469
-0.496857
0.353291
7.47113e-08
0.773035
-0.629469
-0.496857
0.353291
0.773046
-0.629469
-0.496867
0.35329
-5.15893e-07
0.215708
-0.115161
6.94858e-10
0.215708
-0.115162
5.17368e-07
0.215708
-0.115162
0.215708
-0.115161
2.24513e-07
0.349146
0.0417041
-0.340136
-0.0507142
-1.54814e-11
0.349169
0.0416913
-0.340155
-0.0507059
-2.2448e-07
0.349169
0.0416913
-0.340155
-0.0507059
0.349146
0.0417041
-0.340136
-0.0507142
-1.00425e-07
0.0370073
0.027754
0.284385
6.59271e-12
0.0370094
0.0277736
0.284386
1.00291e-07
0.0370094
0.0277736
0.284386
0.0370073
0.027754
0.284385
-4.6012e-08
0.332365
0.1438
-0.43446
-6.27175e-11
0.332381
0.143794
-0.434484
4.59561e-08
0.332381
0.143794
-0.434484
0.332364
0.1438
-0.43446
4.84777e-08
0.169769
0.199603
9.62805e-11
0.169763
0.199628
-4.85354e-08
0.169763
0.199628
0.169769
0.199603
1.51735e-08
-0.557828
0.577237
-0.0243716
0.00496253
-7.9425e-12
-0.557841
0.577222
-0.024341
0.00496037
-1.52961e-08
-0.557841
0.577222
-0.024341
0.00496037
-0.557828
0.577237
-0.0243716
0.00496254
1.53055e-07
0.00352672
-0.611355
0.533361
0.0744674
-6.6405e-11
0.00354102
-0.611353
0.533384
0.0744277
-1.53077e-07
0.00354102
-0.611353
0.533384
0.0744277
0.00352672
-0.611355
0.533361
0.0744674
1.6732e-07
-0.669124
0.114823
8.06651e-12
-0.669107
0.114807
-1.67221e-07
-0.669107
0.114807
-0.669124
0.114823
2.5085e-07
0.405188
0.0315256
0.140523
1.16425e-11
0.405187
0.0315038
0.140531
-2.50764e-07
0.405187
0.0315038
0.140531
0.405188
0.0315256
0.140523
1.70047e-07
0.368734
0.180254
1.03416e-10
0.368732
0.180249
-1.70005e-07
0.368732
0.180249
0.368734
0.180254
4.45633e-08
-0.3605
-0.445975
0.137351
7.72069e-11
-0.360507
-0.445947
0.137347
-4.44398e-08
-0.360507
-0.445947
0.137347
-0.3605
-0.445975
0.137351
5.92395e-08
-0.434212
-0.119826
0.193538
1.15312e-11
-0.434227
-0.119831
0.193551
-5.92629e-08
-0.434227
-0.119831
0.193551
-0.434212
-0.119826
0.193538
-2.4832e-08
0.133367
0.0232703
-0.590849
-4.08568e-12
0.133351
0.0232687
-0.590847
2.4858e-08
0.133351
0.0232687
-0.590847
0.133367
0.0232704
-0.590849
5.54112e-09
-0.648901
0.0830999
3.98094e-11
-0.648865
0.0830871
-5.46744e-09
-0.648865
0.0830871
-0.648901
0.0830999
-9.56973e-08
0.115582
-0.631116
-3.47325e-11
0.115597
-0.631111
9.57134e-08
0.115597
-0.631111
0.115582
-0.631116
3.62775e-08
-0.492134
0.0743163
-8.65567e-11
-0.492162
0.0743607
-3.64234e-08
-0.492162
0.0743607
-0.492134
0.0743163
2.64992e-08
-0.554768
0.0859038
-3.3248e-11
-0.554756
0.0858625
-2.65804e-08
-0.554756
0.0858625
-0.554768
0.0859038
-1.00904e-07
0.563342
-0.0543527
4.02112e-12
0.563366
-0.0543228
1.00741e-07
0.563366
-0.0543228
0.563342
-0.0543527
3.6831e-08
0.256226
6.42722e-11
0.256217
-3.69265e-08
0.256217
0.256226
-3.05117e-08
-0.413683
0.230565
-1.47542e-11
-0.41365
0.230575
3.0483e-08
-0.41365
0.230575
-0.413683
0.230565
-1.39292e-07
-0.514214
0.132057
9.20567e-11
-0.514183
0.132036
1.39223e-07
-0.514183
0.132036
-0.514214
0.132057
3.68351e-08
-0.595992
0.0867407
1.75438e-11
-0.595977
0.0867549
-3.6905e-08
-0.595977
0.0867549
-0.595992
0.0867407
7.49559e-11
-0.595472
0.114303
1.30102e-11
-0.595457
0.114286
-2.15035e-11
-0.595457
0.114286
-0.595472
0.114303
5.65194e-08
-0.571805
0.113684
2.0794e-11
-0.571799
0.11369
-5.64722e-08
-0.571799
0.11369
-0.571805
0.113684
-1.31619e-07
-0.594482
0.105777
-1.90803e-11
-0.594485
0.105772
1.31617e-07
-0.594485
0.105772
-0.594482
0.105777
7.82472e-08
-0.512723
0.033823
-6.1936e-11
-0.512718
0.0338303
-7.82618e-08
-0.512718
0.0338303
-0.512723
0.033823
-1.30569e-07
-0.0183106
0.122824
-0.617237
-3.78294e-11
-0.0182807
0.122808
-0.617245
1.30563e-07
-0.0182807
0.122808
-0.617245
-0.0183106
0.122824
-0.617237
-9.99788e-09
-0.0348912
-0.614535
-6.28292e-11
-0.0348828
-0.614509
9.97824e-09
-0.0348828
-0.614509
-0.0348912
-0.614535
8.75351e-08
-0.00713672
-0.618603
-4.64872e-11
-0.00714001
-0.618589
-8.75734e-08
-0.00714001
-0.618589
-0.00713672
-0.618603
-3.97443e-08
-0.602967
0.0410629
-3.53461e-11
-0.602988
0.0410922
3.96754e-08
-0.602988
0.0410921
-0.602967
0.0410629
2.82564e-07
-0.0707312
0.293937
-1.45189e-11
-0.070741
0.293953
-2.82552e-07
-0.070741
0.293953
-0.0707312
0.293937
1.54146e-08
-0.45954
0.627378
0.226234
-1.46045e-10
-0.459561
0.627378
0.226222
-1.53304e-08
-0.459561
0.627378
0.226222
-0.45954
0.627378
0.226234
3.3591e-07
-0.483889
0.254913
-1.46155e-10
-0.483901
0.254915
-3.36083e-07
-0.483901
0.254915
-0.483889
0.254913
5.05123e-08
-0.518212
0.166379
-2.7382e-11
-0.518237
0.166373
-5.06386e-08
-0.518237
0.166373
-0.518212
0.166379
8.66563e-08
-0.564288
0.132816
-5.99444e-11
-0.564286
0.132804
-8.6696e-08
-0.564286
0.132804
-0.564288
0.132816
5.62381e-10
-0.590426
0.140441
1.61324e-11
-0.590454
0.140454
-5.86392e-10
-0.590454
0.140454
-0.590426
0.140441
-5.27243e-08
-0.594622
0.11788
3.58184e-12
-0.594642
0.117877
5.27321e-08
-0.594642
0.117877
-0.594622
0.11788
-3.27888e-08
-0.589318
0.100473
-3.60994e-11
-0.589339
0.100469
3.27866e-08
-0.589339
0.100469
-0.589318
0.100473
5.33327e-08
-0.63834
0.0828452
-5.16554e-11
-0.638343
0.0828351
-5.3362e-08
-0.638343
0.0828351
-0.63834
0.0828452
-3.81795e-08
-0.607952
0.0924368
-1.62295e-11
-0.607971
0.0924349
3.81425e-08
-0.607971
0.0924349
-0.607952
0.0924368
2.3717e-09
-0.0533379
0.0803757
-0.63499
-4.44244e-11
-0.0533472
0.0803639
-0.634987
-2.41009e-09
-0.0533472
0.0803639
-0.634987
-0.0533379
0.0803757
-0.63499
3.55473e-08
-0.0227209
-0.647854
-6.78039e-11
-0.0227506
-0.647842
-3.56453e-08
-0.0227506
-0.647842
-0.0227209
-0.647854
-7.09961e-08
0.00539718
-0.642653
-6.43207e-11
0.00539281
-0.642652
7.09022e-08
0.0053928
-0.642652
0.00539717
-0.642653
-6.71837e-08
0.0265421
-0.639748
-6.30566e-11
0.0265495
-0.639746
6.70922e-08
0.0265495
-0.639746
0.0265421
-0.639748
-6.10461e-09
0.0681521
-0.644577
-4.57067e-11
0.0681225
-0.644561
6.02768e-09
0.0681225
-0.644561
0.0681521
-0.644577
-7.03074e-08
0.594073
0.113456
-0.639377
-1.46267e-11
0.59409
0.113418
-0.639385
7.02754e-08
0.59409
0.113418
-0.639385
0.594073
0.113456
-0.639377
-1.40654e-08
0.588681
0.0464554
-2.89762e-11
0.588695
0.0464879
1.40024e-08
0.588695
0.0464879
0.588681
0.0464554
5.4473e-09
0.577798
0.0967865
-6.36279e-11
0.577807
0.0967496
-5.57949e-09
0.577807
0.0967496
0.577798
0.0967865
1.15506e-07
0.584184
0.0679305
-3.9172e-11
0.584206
0.0679622
-1.15606e-07
0.584206
0.0679622
0.584184
0.0679305
4.42834e-08
0.576041
0.0826106
1.54395e-11
0.57605
0.0825834
-4.4319e-08
0.57605
0.0825834
0.576041
0.0826106
6.34692e-08
0.501293
0.0203945
-1.81822e-11
0.501309
0.0204185
-6.34818e-08
0.501309
0.0204185
0.501293
0.0203945
9.18071e-08
0.461381
-0.0308185
9.76899e-11
0.461377
-0.0308084
-9.18358e-08
0.461377
-0.0308084
0.461381
-0.0308185
2.04601e-07
-0.0834284
0.494095
5.50275e-11
-0.0834344
0.494105
-2.04379e-07
-0.0834344
0.494105
-0.0834284
0.494095
1.27562e-08
0.422183
-0.5518
0.0987978
1.19443e-11
0.4222
-0.551808
0.0987998
-1.2864e-08
0.4222
-0.551808
0.0987998
0.422183
-0.5518
0.0987978
2.82169e-07
-0.352247
0.691002
8.12736e-11
-0.352251
0.691016
-2.82178e-07
-0.352251
0.691016
-0.352247
0.691002
2.64594e-07
-0.596909
0.0655036
-6.50336e-11
-0.596911
0.0655221
-2.64568e-07
-0.596911
0.0655221
-0.596909
0.0655036
3.07702e-08
-0.599817
0.0855185
-7.87015e-11
-0.599823
0.085495
-3.08342e-08
-0.599823
0.085495
-0.599817
0.0855185
1.50938e-07
-0.626801
0.0949139
-1.01907e-10
-0.626787
0.0949271
-1.51127e-07
-0.626787
0.0949271
-0.626801
0.0949139
-1.49768e-08
-0.623603
0.0935886
-8.82673e-11
-0.623607
0.093569
1.47662e-08
-0.623607
0.093569
-0.623603
0.0935887
2.6241e-08
-0.630391
0.0532439
-4.5431e-11
-0.630381
0.0532619
-2.63643e-08
-0.630381
0.0532619
-0.630391
0.0532439
-7.78171e-08
-0.642382
0.125447
-7.09987e-12
-0.64239
0.125427
7.77948e-08
-0.64239
0.125427
-0.642382
0.125447
-1.34683e-07
0.562031
0.156265
-2.06634e-10
0.562025
0.156245
1.34838e-07
0.562025
0.156245
0.562031
0.156265
4.712e-08
0.118236
-0.053799
-3.68954e-11
0.118251
-0.0538112
-4.69434e-08
0.118251
-0.0538112
0.118236
-0.053799
9.32065e-08
-0.51766
0.217977
5.98553e-12
-0.517654
0.217995
-9.29495e-08
-0.517654
0.217995
-0.51766
0.217977
-1.88169e-07
-0.577171
0.215776
-1.78408e-10
-0.577167
0.215757
1.88124e-07
-0.577167
0.215757
-0.577171
0.215776
-2.65718e-07
-0.570922
0.219985
-1.7941e-10
-0.570924
0.219978
2.65447e-07
-0.570924
0.219978
-0.570922
0.219985
9.57062e-09
-0.544473
0.228465
-1.40947e-10
-0.544467
0.228459
-9.82888e-09
-0.544467
0.228459
-0.544473
0.228465
-6.67857e-09
-0.551904
0.17381
-1.04291e-10
-0.551926
0.173831
6.47096e-09
-0.551926
0.173831
-0.551904
0.17381
2.11011e-08
-0.579224
0.160136
-6.92016e-11
-0.579246
0.160124
-2.12273e-08
-0.579246
0.160124
-0.579224
0.160136
5.46499e-08
-0.591151
0.152369
-5.83558e-11
-0.591178
0.152386
-5.47607e-08
-0.591178
0.152386
-0.591151
0.152369
1.20157e-09
-0.612219
0.138947
-3.21405e-11
-0.612243
0.138942
-1.23369e-09
-0.612243
0.138942
-0.612219
0.138947
1.37861e-08
-0.621736
0.109991
-4.17267e-11
-0.621757
0.109984
-1.38045e-08
-0.621757
0.109984
-0.621736
0.109991
5.83857e-09
-0.628352
0.0894614
-1.79458e-11
-0.628375
0.0894538
-5.85415e-09
-0.628375
0.0894538
-0.628352
0.0894614
-2.62003e-08
-0.607895
0.0719796
1.10626e-11
-0.607913
0.0719721
2.62192e-08
-0.607913
0.0719721
-0.607895
0.0719796
-2.7574e-08
-0.637884
0.110365
-2.2641e-11
-0.637902
0.110353
2.75618e-08
-0.637902
0.110353
-0.637884
0.110365
-5.14812e-08
-0.074514
0.0929348
-0.656305
-4.25337e-11
-0.0745218
0.0929377
-0.656318
5.14206e-08
-0.0745218
0.0929377
-0.656318
-0.074514
0.0929348
-0.656305
-6.18998e-08
-0.0507681
-0.658736
-5.92877e-11
-0.0507556
-0.658754
6.18144e-08
-0.0507556
-0.658754
-0.0507681
-0.658736
-1.21891e-07
-0.0378261
-0.660796
-6.49497e-11
-0.0377914
-0.660806
1.2179e-07
-0.0377914
-0.660806
-0.0378261
-0.660796
-1.64482e-08
-0.00925002
-0.671229
-5.39071e-11
-0.00924243
-0.671201
1.63665e-08
-0.00924243
-0.671201
-0.00925002
-0.671229
1.84441e-08
0.0233695
-0.672368
-4.31331e-11
0.0233589
-0.672348
-1.84952e-08
0.0233589
-0.672348
0.0233695
-0.672368
-7.65154e-08
0.0395883
-0.660796
-1.28165e-11
0.0396095
-0.660812
7.64965e-08
0.0396095
-0.660812
0.0395883
-0.660796
-6.07765e-08
0.0662886
-0.666077
1.72627e-11
0.0663138
-0.66609
6.0813e-08
0.0663138
-0.66609
0.0662885
-0.666077
-1.05251e-07
0.0834362
-0.65953
3.35856e-11
0.083457
-0.659533
1.05332e-07
0.083457
-0.659533
0.0834362
-0.65953
9.25982e-08
-0.539616
0.286167
-3.50046e-11
-0.539609
0.286159
-9.27116e-08
-0.539609
0.286159
-0.539616
0.286167
-2.04498e-08
0.0517585
-0.089515
-0.10662
1.68195e-10
0.0517635
-0.0895116
-0.106621
2.08158e-08
0.0517635
-0.0895116
-0.106621
0.0517585
-0.089515
-0.10662
-3.58488e-08
-0.0991639
0.0980391
0.0528833
1.92423e-10
-0.0991643
0.0980322
0.0528956
3.62089e-08
-0.0991643
0.0980322
0.0528956
-0.099164
0.0980391
0.0528834
-5.68808e-08
-0.0276173
-0.141221
0.0599884
0.10885
4.44779e-11
-0.0276204
-0.141211
0.0599849
0.108846
5.70381e-08
-0.0276204
-0.141211
0.0599849
0.108846
-0.0276174
-0.141221
0.0599884
0.10885
-4.48942e-08
0.0933593
-0.0175848
7.56493e-12
0.0933616
-0.0175845
4.49763e-08
0.0933616
-0.0175845
0.0933593
-0.0175849
-7.45194e-08
-0.00357433
-0.00223025
-4.32459e-11
-0.00357715
-0.00222557
7.44989e-08
-0.00357717
-0.00222555
-0.0035744
-0.00223021
-5.45394e-08
-0.151353
0.029527
1.00868e-10
-0.151345
0.0295332
5.50152e-08
-0.151345
0.0295332
-0.151353
0.029527
-5.36744e-08
0.00139648
-0.144935
0.0100406
-9.10667e-11
0.00140336
-0.144943
0.0100377
5.34444e-08
0.00140337
-0.144943
0.0100376
0.00139652
-0.144935
0.0100406
-4.35455e-08
-0.152146
0.00219
-1.29772e-10
-0.15214
0.002198
4.35892e-08
-0.15214
0.00219801
-0.152146
0.00219005
-7.90557e-09
-0.0196524
0.000248682
-6.66119e-11
-0.019646
0.000242787
7.76346e-09
-0.019646
0.00024278
-0.0196523
0.000248655
-1.68013e-08
-0.0410322
-1.86052e-10
-0.0410265
1.66926e-08
-0.0410265
-0.0410322
-5.2088e-08
0.105805
-0.135331
2.6795e-10
0.105795
-0.135322
5.2971e-08
0.105795
-0.135322
0.105805
-0.135331
-5.57776e-08
0.107213
-0.00655757
3.83966e-10
0.107204
-0.00657039
5.61973e-08
0.107204
-0.00657041
0.107213
-0.00655762
-5.0124e-08
0.0822469
-0.0253027
-8.78015e-11
0.0822446
-0.0253043
5.01627e-08
0.0822446
-0.0253043
0.0822469
-0.0253027
-9.10779e-08
-0.166502
0.0580547
-8.69014e-11
-0.166503
0.0580557
9.07341e-08
-0.166503
0.0580557
-0.166502
0.0580546
-8.77198e-08
-0.209446
0.0431923
6.20288e-11
-0.209448
0.0431873
8.75485e-08
-0.209448
0.0431873
-0.209446
0.0431922
-6.50194e-08
-0.16047
0.0203935
9.71805e-11
-0.160471
0.0203957
6.51495e-08
-0.160471
0.0203957
-0.16047
0.0203935
-7.8344e-08
-0.260137
-0.0099346
2.10175e-11
-0.260136
-0.00995258
7.84512e-08
-0.260136
-0.00995258
-0.260137
-0.00993464
-1.01689e-07
-0.158994
0.0294371
1.18817e-11
-0.158987
0.0294261
1.01424e-07
-0.158987
0.0294262
-0.158994
0.0294371
1.48438e-07
-0.597691
0.123578
-4.40592e-11
-0.597685
0.123598
-1.48475e-07
-0.597685
0.123598
-0.597691
0.123578
3.91848e-08
-0.622662
0.11049
-9.82224e-11
-0.622684
0.110494
-3.91882e-08
-0.622684
0.110494
-0.622662
0.11049
1.76879e-07
-0.626347
0.0985993
-1.01353e-10
-0.62635
0.0985932
-1.76991e-07
-0.62635
0.0985932
-0.626347
0.0985993
5.29314e-10
-0.631646
0.0988875
-6.0364e-11
-0.631662
0.0988807
-6.75751e-10
-0.631662
0.0988807
-0.631646
0.0988875
5.51508e-08
-0.675857
0.0974541
-2.97447e-11
-0.675849
0.0974488
-5.52609e-08
-0.675849
0.0974488
-0.675857
0.0974541
-5.90825e-08
-0.653885
0.103475
6.85944e-12
-0.653899
0.103476
5.90981e-08
-0.653899
0.103476
-0.653885
0.103475
-1.25093e-08
-0.666676
0.0962276
4.05967e-11
-0.666669
0.0962268
1.26054e-08
-0.666669
0.0962267
-0.666676
0.0962276
2.66923e-07
-0.326335
0.230496
1.56717e-10
-0.326346
0.230497
-2.67253e-07
-0.326346
0.230497
-0.326335
0.230496
1.40104e-07
-0.409567
0.403338
1.04542e-10
-0.409562
0.4033
-1.40506e-07
-0.409562
0.4033
-0.409567
0.403338
2.69456e-07
-0.512464
0.320874
2.11744e-10
-0.512469
0.320902
-2.69153e-07
-0.512469
0.320902
-0.512464
0.320874
-3.34679e-09
-0.545853
0.249164
1.32568e-10
-0.545863
0.249151
3.63219e-09
-0.545863
0.249151
-0.545853
0.249164
2.2914e-08
-0.560295
0.234428
7.00192e-12
-0.560327
0.234443
-2.27139e-08
-0.560327
0.234443
-0.560295
0.234428
-2.54459e-09
-0.562333
0.230503
-7.31983e-11
-0.562355
0.230487
2.59708e-09
-0.562355
0.230487
-0.562333
0.230503
-1.90469e-09
-0.592502
0.203979
-1.06983e-10
-0.592526
0.204003
1.748e-09
-0.592526
0.204003
-0.592502
0.203979
-3.74411e-08
-0.590674
0.158308
-1.10332e-10
-0.59069
0.158288
3.72664e-08
-0.59069
0.158288
-0.590674
0.158308
1.09133e-07
-0.609597
0.171292
-9.74071e-11
-0.609608
0.171305
-1.09285e-07
-0.609608
0.171305
-0.609597
0.171292
1.16918e-07
-0.618308
0.147658
-4.54744e-11
-0.618313
0.147646
-1.17012e-07
-0.618313
0.147646
-0.618308
0.147658
6.26101e-08
-0.624243
0.115926
-2.04319e-11
-0.624257
0.115928
-6.26256e-08
-0.624257
0.115928
-0.624243
0.115926
-1.71993e-08
-0.633386
0.0986041
3.31654e-11
-0.633393
0.0985901
1.72276e-08
-0.633393
0.0985901
-0.633386
0.0986041
-5.00053e-08
-0.661353
0.0999471
5.45248e-11
-0.661369
0.0999482
5.00687e-08
-0.661369
0.0999482
-0.661353
0.0999471
-6.92965e-08
-0.633681
0.0826926
8.94654e-12
-0.633695
0.0826783
6.93404e-08
-0.633695
0.0826783
-0.633681
0.0826926
-5.1184e-08
-0.662474
0.121728
-3.28585e-11
-0.662489
0.121733
5.1153e-08
-0.662489
0.121733
-0.662474
0.121728
-8.42768e-08
-0.0738081
-0.673637
0.0849711
-2.79821e-11
-0.0737941
-0.673656
0.0849603
8.42414e-08
-0.0737941
-0.673656
0.0849603
-0.0738081
-0.673637
0.0849711
-8.68995e-08
-0.0583734
-0.671739
-3.81055e-11
-0.058355
-0.671757
8.68397e-08
-0.058355
-0.671757
-0.0583734
-0.671739
-3.82521e-08
-0.0376834
-0.679426
-2.95499e-11
-0.0376915
-0.679417
3.81916e-08
-0.0376915
-0.679417
-0.0376834
-0.679426
-2.79241e-10
-0.00155933
-0.69692
-1.7755e-11
-0.00159379
-0.696904
2.38471e-10
-0.00159379
-0.696904
-0.00155932
-0.69692
-7.81768e-08
0.0182504
-0.691039
-9.79779e-13
0.0182444
-0.69104
7.81789e-08
0.0182444
-0.69104
0.0182504
-0.691039
-6.13335e-08
0.0288418
-0.682959
9.81805e-12
0.0288555
-0.682959
6.1357e-08
0.0288555
-0.682959
0.0288418
-0.682959
-1.1875e-09
0.056165
-0.688119
3.60838e-11
0.0561481
-0.688105
1.24941e-09
0.0561481
-0.688105
0.056165
-0.688119
-6.92181e-08
0.0746154
-0.684528
4.88432e-11
0.0745865
-0.684528
6.93077e-08
0.0745865
-0.684528
0.0746154
-0.684528
-7.24459e-08
0.0908666
-0.675781
6.34652e-11
0.0908409
-0.675788
7.25474e-08
0.0908409
-0.675788
0.0908666
-0.675781
-7.76342e-08
0.0982841
-0.674094
6.17722e-11
0.0982786
-0.674106
7.77247e-08
0.0982786
-0.674106
0.0982841
-0.674094
4.70086e-07
-0.00399215
0.52584
-1.93811e-10
-0.00399312
0.525873
-4.69768e-07
-0.00399312
0.525873
-0.00399214
0.52584
2.11893e-07
0.595236
0.0917739
8.72314e-11
0.595252
0.0917718
-2.11759e-07
0.595252
0.0917718
0.595236
0.0917739
-1.35952e-07
-0.155985
0.146273
-2.98824e-11
-0.155974
0.14627
1.36318e-07
-0.155974
0.14627
-0.155985
0.146273
-8.17322e-08
0.0229051
0.0557676
-3.55922e-11
0.0229092
0.0557582
8.17736e-08
0.0229092
0.0557582
0.0229051
0.0557676
-5.5042e-08
-0.17916
0.0733555
-1.424e-10
-0.179143
0.0733544
5.54751e-08
-0.179143
0.0733544
-0.17916
0.0733556
-2.35957e-08
-0.196006
0.0190357
-2.0548e-10
-0.195996
0.0190504
2.37758e-08
-0.195996
0.0190504
-0.196006
0.0190358
7.5699e-09
-0.20762
-0.0294173
-1.4068e-10
-0.207615
-0.0294069
-7.60024e-09
-0.207616
-0.0294068
-0.207621
-0.0294173
-7.06893e-08
-0.277795
-0.0318987
4.68654e-11
-0.277795
-0.0318807
7.08409e-08
-0.277796
-0.0318806
-0.277795
-0.0318986
-3.47168e-08
-0.151376
-0.0294172
8.939e-11
-0.151381
-0.029412
3.52071e-08
-0.151381
-0.029412
-0.151376
-0.0294172
2.2047e-09
-0.161168
-0.0821038
1.71075e-10
-0.161172
-0.0820978
-1.75472e-09
-0.161172
-0.0820978
-0.161168
-0.0821038
-6.14986e-08
0.0409367
-0.114211
-0.0878938
3.10776e-10
0.0409331
-0.114215
-0.0878898
6.18275e-08
0.0409331
-0.114215
-0.0878899
0.0409367
-0.114211
-0.0878938
-7.16068e-08
0.0424766
-0.112886
1.26375e-10
0.0424633
-0.112879
7.19396e-08
0.0424633
-0.112879
0.0424767
-0.112886
-9.59262e-08
0.0240322
-0.119887
-7.20892e-11
0.0240168
-0.119887
9.63163e-08
0.0240168
-0.119887
0.0240322
-0.119887
-1.46514e-07
-0.00522373
-0.129738
-2.15511e-11
-0.00523542
-0.129735
1.46127e-07
-0.00523541
-0.129735
-0.00522371
-0.129738
-9.10249e-08
-0.110562
0.13993
-3.05229e-10
-0.110569
0.139929
9.0947e-08
-0.110569
0.139929
-0.110562
0.13993
-7.12785e-08
-0.0410459
0.116692
0.0315665
4.3604e-10
-0.0410591
0.116689
0.0315737
7.16656e-08
-0.0410591
0.116689
0.0315737
-0.0410459
0.116692
0.0315665
-4.53665e-08
0.105279
2.83975e-10
0.10526
4.56508e-08
0.10526
0.105279
-5.27798e-08
-0.163808
0.1113
-1.36161e-10
-0.163806
0.111293
5.25853e-08
-0.163806
0.111293
-0.163808
0.1113
-8.1783e-08
-0.18857
0.0679553
1.23796e-10
-0.188577
0.0679578
8.18602e-08
-0.188577
0.0679578
-0.18857
0.0679552
-6.30569e-08
-0.211406
0.0432292
2.78792e-10
-0.211402
0.0432207
6.30082e-08
-0.211402
0.0432206
-0.211406
0.0432291
-7.01484e-08
-0.217282
-0.00405839
1.171e-10
-0.217282
-0.00407201
6.98707e-08
-0.217282
-0.00407202
-0.217282
-0.00405845
-8.56523e-08
-0.182077
-0.00576751
-1.428e-10
-0.182072
-0.0057843
8.52902e-08
-0.182072
-0.0057843
-0.182077
-0.00576754
-1.49559e-07
-0.137767
-0.0495337
6.49688e-11
-0.137758
-0.0495498
1.49131e-07
-0.137758
-0.0495498
-0.137767
-0.0495336
-1.69866e-07
0.0534121
0.109423
-1.3242e-10
0.0534224
0.109416
1.69913e-07
0.0534224
0.109416
0.0534121
0.109423
-4.84954e-08
0.060526
-0.0942994
-0.0804373
3.27651e-10
0.0605199
-0.0942991
-0.0804357
4.8676e-08
0.0605199
-0.0942992
-0.0804357
0.0605261
-0.0942995
-0.0804373
-6.90188e-08
0.0327844
-0.0851446
2.47376e-10
0.0327818
-0.0851411
6.95684e-08
0.0327818
-0.0851411
0.0327845
-0.0851446
-7.96277e-08
0.00420619
-0.0913083
-5.24641e-11
0.00419939
-0.0913044
8.01355e-08
0.00419941
-0.0913044
0.00420624
-0.0913083
-1.06147e-07
-0.0288484
-0.0966837
-8.3877e-11
-0.0288604
-0.0966757
1.0604e-07
-0.0288604
-0.0966757
-0.0288484
-0.0966837
-1.27165e-07
-0.0989666
-0.0676491
-2.19277e-11
-0.0989576
-0.0676608
1.27176e-07
-0.0989576
-0.0676608
-0.0989665
-0.067649
-7.78728e-08
-0.193236
0.110606
-1.50438e-10
-0.193217
0.110597
7.81498e-08
-0.193217
0.110597
-0.193236
0.110606
-2.23538e-08
-0.2225
0.0483001
-1.80846e-11
-0.22249
0.0483228
2.25473e-08
-0.22249
0.0483228
-0.2225
0.0483002
-1.17032e-08
-0.247425
-0.0044925
1.24679e-10
-0.247416
-0.00448056
1.17389e-08
-0.247416
-0.00448054
-0.247425
-0.00449244
2.14083e-08
-0.243115
-0.0362088
2.49951e-10
-0.243109
-0.0361872
-2.11169e-08
-0.243109
-0.0361872
-0.243115
-0.0362087
-2.12785e-08
-0.196146
-0.0763865
2.85507e-10
-0.196151
-0.0763701
2.19819e-08
-0.196151
-0.0763701
-0.196146
-0.0763865
4.52402e-08
-0.159498
-0.118751
2.35767e-10
-0.159502
-0.118747
-4.44531e-08
-0.159502
-0.118747
-0.159499
-0.118751
-8.66974e-09
-0.115879
-0.131513
5.2875e-11
-0.115887
-0.131505
9.03467e-09
-0.115887
-0.131505
-0.115879
-0.131513
-1.00966e-08
-0.1369
-0.0732788
8.46956e-11
-0.136906
-0.0732798
1.03293e-08
-0.136906
-0.0732798
-0.1369
-0.0732788
-9.5468e-08
0.127781
-0.0217472
-6.53191e-11
0.127776
-0.0217364
9.54875e-08
0.127776
-0.0217364
0.127781
-0.0217472
-2.05769e-07
0.015821
0.114696
1.11948e-10
0.0157976
0.114684
2.05797e-07
0.0157976
0.114684
0.015821
0.114696
-1.34288e-07
0.136749
-0.00423527
2.34358e-10
0.136742
-0.00425519
1.3447e-07
0.136742
-0.00425517
0.136749
-0.00423525
-5.90933e-08
-0.0736166
0.0562896
0.132023
-1.40516e-10
-0.0736233
0.0563193
0.131988
5.90552e-08
-0.0736233
0.0563193
0.131988
-0.0736166
0.0562896
0.132023
-1.32313e-07
-0.0986773
0.151016
-4.27823e-11
-0.0986655
0.150998
1.32302e-07
-0.0986655
0.150998
-0.0986773
0.151016
-1.03189e-07
-0.132616
0.16172
-5.77878e-11
-0.13259
0.161701
1.03172e-07
-0.13259
0.161701
-0.132616
0.16172
-8.58706e-08
-0.239643
0.0852798
1.61663e-11
-0.239614
0.0852868
8.60114e-08
-0.239614
0.0852868
-0.239643
0.0852799
-2.20112e-07
-0.220093
0.0910567
2.57279e-10
-0.220074
0.0910571
2.20493e-07
-0.220074
0.0910571
-0.220093
0.0910568
-3.68558e-09
-0.264501
0.0927079
4.43855e-10
-0.264484
0.0927328
4.24292e-09
-0.264484
0.0927329
-0.264501
0.092708
6.19982e-08
-0.285856
0.0168624
3.91005e-10
-0.28585
0.0168857
-6.15043e-08
-0.28585
0.0168857
-0.285856
0.0168625
8.35521e-08
-0.265428
-0.0566365
4.06409e-10
-0.265424
-0.0566129
-8.31882e-08
-0.265424
-0.0566129
-0.265428
-0.0566365
9.49395e-08
-0.225042
-0.116773
2.57212e-10
-0.225046
-0.116748
-9.44625e-08
-0.225046
-0.116748
-0.225042
-0.116773
1.06408e-07
-0.177067
-0.166726
-7.35463e-11
-0.177078
-0.166715
-1.06015e-07
-0.177078
-0.166715
-0.177067
-0.166726
4.41369e-08
-0.115905
-0.192676
-2.56134e-10
-0.115912
-0.192671
-4.42914e-08
-0.115912
-0.192671
-0.115905
-0.192676
-2.49191e-08
-0.0622748
-0.19053
-3.14185e-10
-0.0622743
-0.190544
2.42597e-08
-0.0622743
-0.190544
-0.0622748
-0.19053
-5.73402e-08
0.124927
-0.167564
-0.0196371
-4.43833e-10
0.124929
-0.167569
-0.0196341
5.72141e-08
0.124929
-0.167569
-0.0196341
0.124927
-0.167565
-0.0196371
-7.12967e-08
0.0868959
-0.0352477
5.91216e-11
0.0868947
-0.035246
7.08377e-08
0.0868948
-0.035246
0.086896
-0.0352477
-9.05523e-08
0.0536288
-0.0471702
3.26802e-10
0.0536263
-0.0471674
9.03758e-08
0.0536264
-0.0471674
0.0536289
-0.0471702
-1.04098e-07
0.0234387
-0.0549543
1.08748e-10
0.0234346
-0.0549494
1.04696e-07
0.0234346
-0.0549494
0.0234387
-0.0549543
-1.19448e-07
-0.00714079
-0.0607288
-1.26161e-10
-0.00714603
-0.0607239
1.19676e-07
-0.00714601
-0.0607239
-0.00714072
-0.0607288
-1.45258e-07
-0.0415885
-0.0622358
-1.85944e-10
-0.0415926
-0.0622293
1.45117e-07
-0.0415926
-0.0622293
-0.0415885
-0.0622358
-1.54029e-07
-0.0795057
-0.0610492
-1.6289e-10
-0.0795135
-0.0610369
1.54122e-07
-0.0795135
-0.0610369
-0.0795056
-0.0610492
-1.88502e-07
0.102547
-0.122308
-0.0597442
-1.89832e-10
0.102534
-0.122316
-0.0597312
1.88645e-07
0.102534
-0.122316
-0.0597312
0.102547
-0.122308
-0.0597442
-1.60929e-07
0.156764
-0.121866
3.71548e-11
0.156756
-0.121884
1.60695e-07
0.156756
-0.121884
0.156764
-0.121866
-1.8151e-07
0.208151
-0.10092
-2.99513e-11
0.208142
-0.100935
1.80888e-07
0.208142
-0.100935
0.208151
-0.10092
-1.71743e-07
0.24286
-0.0404765
-3.7074e-10
0.242862
-0.0405051
1.71156e-07
0.242862
-0.0405051
0.24286
-0.0404766
-1.38684e-07
0.239492
-0.000689855
-2.17878e-10
0.239493
-0.000702965
1.37697e-07
0.239493
-0.000702968
0.239492
-0.000689958
-9.68191e-08
0.215341
0.0673797
-7.35858e-11
0.215345
0.0673689
9.66962e-08
0.215345
0.0673689
0.215341
0.0673796
-8.5251e-08
0.16379
0.119507
6.36511e-11
0.163792
0.11951
8.56702e-08
0.163792
0.11951
0.16379
0.119507
-1.87209e-07
0.167819
0.107271