/*--------------------------------*- C++ -*----------------------------------*\
| =========                 |                                                 |
| \\      /  F ield         | OpenFOAM: The Open Source CFD Toolbox           |
|  \\    /   O peration     | Version:  v1806                                 |
|   \\  /    A nd           | Web:      www.OpenFOAM.com                      |
|    \\/     M anipulation  |                                                 |
\*---------------------------------------------------------------------------*/
FoamFile
{
    version     2.0;
    format      ascii;
    class       volVectorField;
    location    "13";
    object      U;
}
// * * * * * * * * * * * * * * * * * * * * * * * * * * * * * * * * * * * * * //

dimensions      [0 1 -1 0 0 0 0];


internalField   nonuniform List<vector> 
5220
(
(-1.11896 -0.299399 0.00484243)
(-1.11867 -0.299227 -1.46972e-06)
(-1.11867 -0.299227 1.4731e-06)
(-1.11896 -0.299399 -0.00484244)
(-0.806434 -0.541609 0.00563809)
(-0.806179 -0.541306 -1.6634e-06)
(-0.80618 -0.541306 1.66648e-06)
(-0.806434 -0.541609 -0.0056381)
(-1.20929 -0.620432 0.00734746)
(-1.20894 -0.619955 -2.64136e-06)
(-1.20894 -0.619955 2.6463e-06)
(-1.20929 -0.620432 -0.00734746)
(-0.047111 -0.68148 0.00658048)
(-0.0471272 -0.681353 -6.73729e-07)
(-0.0471271 -0.681353 6.75121e-07)
(-0.0471109 -0.68148 -0.00658049)
(-0.0841615 -0.628037 0.0058443)
(-0.084199 -0.627881 -7.51725e-07)
(-0.0841989 -0.627881 7.52979e-07)
(-0.0841615 -0.628037 -0.0058443)
(-0.132428 -0.616609 0.0060866)
(-0.132461 -0.616403 -8.52347e-07)
(-0.132461 -0.616403 8.5375e-07)
(-0.132428 -0.616609 -0.0060866)
(-0.22811 -0.731826 0.00683364)
(-0.228051 -0.731701 -9.38805e-07)
(-0.228051 -0.731701 9.40452e-07)
(-0.22811 -0.731826 -0.00683364)
(-0.0370364 -0.790117 0.00764416)
(-0.0371181 -0.789884 -9.67879e-07)
(-0.0371181 -0.789884 9.69706e-07)
(-0.0370363 -0.790117 -0.00764417)
(-0.422788 -0.916828 0.00860566)
(-0.422778 -0.916565 -1.44527e-06)
(-0.422778 -0.916565 1.44827e-06)
(-0.422788 -0.916828 -0.00860566)
(-0.402428 -0.713712 0.00693321)
(-0.402317 -0.713459 -1.28048e-06)
(-0.402317 -0.713459 1.28283e-06)
(-0.402428 -0.713712 -0.00693322)
(-0.367344 -0.793742 0.00765641)
(-0.367354 -0.79356 -1.06582e-06)
(-0.367354 -0.79356 1.06808e-06)
(-0.367344 -0.793742 -0.00765641)
(-1.30018 -0.808828 0.0102347)
(-1.29987 -0.80833 -3.40959e-06)
(-1.29987 -0.80833 3.41594e-06)
(-1.30018 -0.808829 -0.0102347)
(2.08539 0.204918 -0.0157606)
(2.08543 0.204972 1.50518e-07)
(2.08543 0.204972 -1.50596e-07)
(2.08539 0.204918 0.0157606)
(1.75951 0.193929 -0.0168972)
(1.75971 0.193899 6.55061e-07)
(1.75971 0.193899 -6.55077e-07)
(1.75951 0.193929 0.0168972)
(3.19512 1.78093 -0.00187452)
(3.19739 1.7814 1.96397e-06)
(3.19738 1.7814 -1.9664e-06)
(3.19512 1.78093 0.00187452)
(2.73561 1.83722 -0.00154203)
(2.73487 1.83702 4.14472e-06)
(2.73487 1.83702 -4.14682e-06)
(2.73561 1.83722 0.00154204)
(-1.16643 0.00598543 0.00210395)
(-1.16583 0.00617116 -1.41416e-06)
(-1.16583 0.00617101 1.41637e-06)
(-1.16643 0.00598513 -0.00210396)
(-1.26807 -0.269691 0.00447057)
(-1.26763 -0.269556 -1.95391e-06)
(-1.26763 -0.269557 1.9574e-06)
(-1.26807 -0.269692 -0.00447058)
(-1.02143 -0.0392728 0.0023715)
(-1.02102 -0.039133 -1.23689e-06)
(-1.02102 -0.0391332 1.23946e-06)
(-1.02143 -0.039273 -0.0023715)
(1.59681 0.208056 -0.018942)
(1.59679 0.208228 -4.72267e-08)
(1.59679 0.208228 4.71642e-08)
(1.59681 0.208056 0.018942)
(1.49497 0.550599 -0.0184338)
(1.49502 0.55056 1.18053e-07)
(1.49501 0.55056 -1.18156e-07)
(1.49497 0.550599 0.0184338)
(1.189 0.317475 -0.0202161)
(1.18912 0.317551 1.35639e-07)
(1.18912 0.317551 -1.35698e-07)
(1.189 0.317475 0.0202161)
(-1.06656 0.548363 -0.000138292)
(-1.06587 0.546317 -3.79677e-06)
(-1.06587 0.546317 3.79802e-06)
(-1.06656 0.548363 0.000138291)
(-0.406928 -0.260019 -0.00297103)
(-0.406694 -0.262183 -1.98827e-06)
(-0.406694 -0.262182 1.98929e-06)
(-0.406929 -0.260019 0.00297103)
(0.646852 -1.41836 0.00467377)
(0.64916 -1.41948 3.90875e-07)
(0.64916 -1.41948 -3.92354e-07)
(0.646851 -1.41836 -0.00467377)
(-0.67106 -0.744605 0.00769132)
(-0.670965 -0.74433 -1.61119e-06)
(-0.670965 -0.744331 1.61413e-06)
(-0.67106 -0.744605 -0.00769133)
(0.228775 -1.6594 0.0202653)
(0.228234 -1.65922 -2.75289e-06)
(0.228234 -1.65922 2.75841e-06)
(0.228776 -1.6594 -0.0202653)
(-0.181785 -1.72557 0.0194543)
(-0.182164 -1.72523 -3.20991e-06)
(-0.182163 -1.72523 3.21588e-06)
(-0.181785 -1.72557 -0.0194543)
(-0.855986 -0.759389 0.00861487)
(-0.855773 -0.759051 -2.42445e-06)
(-0.855773 -0.759051 2.42902e-06)
(-0.855986 -0.759389 -0.00861487)
(-1.72269 -1.41511 0.0226566)
(-1.72252 -1.41441 -7.68771e-06)
(-1.72252 -1.41441 7.69976e-06)
(-1.72269 -1.41511 -0.0226566)
(-2.36237 -1.21051 0.0320551)
(-2.36219 -1.20983 -1.29001e-05)
(-2.36219 -1.20983 1.2915e-05)
(-2.36237 -1.21051 -0.0320551)
(-1.80023 -0.903768 0.0154859)
(-1.79974 -0.903205 -5.97895e-06)
(-1.79974 -0.903205 5.98856e-06)
(-1.80023 -0.903769 -0.0154859)
(-2.52012 -0.678954 0.0210272)
(-2.51931 -0.678175 -1.01193e-05)
(-2.51931 -0.678175 1.01312e-05)
(-2.52012 -0.678955 -0.0210272)
(-0.38886 -0.608851 0.00556675)
(-0.388795 -0.608638 -1.06059e-06)
(-0.388795 -0.608639 1.06235e-06)
(-0.38886 -0.608852 -0.00556675)
(-0.618643 -0.60618 0.00572916)
(-0.618561 -0.60591 -1.22973e-06)
(-0.618561 -0.60591 1.23197e-06)
(-0.618643 -0.60618 -0.00572916)
(-0.289758 -0.692141 0.00647916)
(-0.289766 -0.691957 -9.78605e-07)
(-0.289766 -0.691957 9.80465e-07)
(-0.289758 -0.692142 -0.00647916)
(-0.33265 -0.594947 0.00576125)
(-0.332629 -0.594785 -7.88973e-07)
(-0.332629 -0.594785 7.90372e-07)
(-0.33265 -0.594947 -0.00576125)
(-0.300497 -0.542868 0.0052473)
(-0.300455 -0.542667 -7.86333e-07)
(-0.300455 -0.542667 7.87417e-07)
(-0.300497 -0.542868 -0.0052473)
(-1.22844 -1.37279 0.0163226)
(-1.22837 -1.37216 -4.70406e-06)
(-1.22837 -1.37216 4.71283e-06)
(-1.22844 -1.37279 -0.0163227)
(-0.867712 -1.19779 0.012437)
(-0.867613 -1.19733 -3.05192e-06)
(-0.867613 -1.19733 3.05759e-06)
(-0.867712 -1.19779 -0.012437)
(-0.606688 -1.01892 0.0101434)
(-0.6067 -1.01858 -1.97336e-06)
(-0.6067 -1.01858 1.97718e-06)
(-0.606688 -1.01892 -0.0101434)
(-3.14412 -0.0466744 0.0265123)
(-3.14336 -0.0462327 -1.28183e-05)
(-3.14337 -0.0462329 1.28357e-05)
(-3.14412 -0.046675 -0.0265123)
(-2.97534 -0.190265 0.0431042)
(-2.97571 -0.19051 -1.61868e-05)
(-2.97571 -0.19051 1.62123e-05)
(-2.97534 -0.190266 -0.0431042)
(-3.01317 1.49745 0.0238687)
(-3.01351 1.4969 -1.19793e-05)
(-3.01351 1.4969 1.19931e-05)
(-3.01317 1.49745 -0.0238687)
(-2.19512 2.31013 0.0373022)
(-2.1968 2.30854 -1.41706e-05)
(-2.1968 2.30854 1.41897e-05)
(-2.19511 2.31013 -0.0373022)
(-0.347118 -0.505062 0.00484911)
(-0.347051 -0.504949 -8.95986e-07)
(-0.347051 -0.504949 8.97407e-07)
(-0.347118 -0.505062 -0.00484911)
(-0.5942 -0.485736 0.00451186)
(-0.594036 -0.485535 -9.34688e-07)
(-0.594036 -0.485535 9.36472e-07)
(-0.5942 -0.485736 -0.00451186)
(-1.85449 -0.456792 0.010093)
(-1.85387 -0.45639 -4.49409e-06)
(-1.85387 -0.456391 4.50088e-06)
(-1.85449 -0.456793 -0.010093)
(-2.30156 -0.215901 0.0128165)
(-2.30064 -0.215367 -6.90136e-06)
(-2.30064 -0.215367 6.91028e-06)
(-2.30157 -0.215902 -0.0128165)
(-2.86406 0.314098 0.0150284)
(-2.86286 0.3144 -8.40001e-06)
(-2.86286 0.314399 8.4105e-06)
(-2.86406 0.314097 -0.0150284)
(-2.98962 1.23032 0.0136612)
(-2.98875 1.23041 -8.36671e-06)
(-2.98875 1.23041 8.37648e-06)
(-2.98962 1.23032 -0.0136613)
(-2.60527 1.8031 0.0114279)
(-2.60455 1.8033 -9.51938e-06)
(-2.60455 1.8033 9.53102e-06)
(-2.60527 1.8031 -0.0114279)
(-2.2116 2.27364 0.0189391)
(-2.21231 2.27335 -1.13843e-05)
(-2.21231 2.27335 1.1397e-05)
(-2.21159 2.27364 -0.0189391)
(-1.1671 3.0962 0.0266543)
(-1.16853 3.09521 -1.17586e-05)
(-1.16853 3.09521 1.17707e-05)
(-1.1671 3.0962 -0.0266543)
(-1.72158 -1.44983 0.0443197)
(-1.72216 -1.44957 -1.29173e-05)
(-1.72216 -1.44957 1.29352e-05)
(-1.72158 -1.44983 -0.0443197)
(-1.31884 -1.82242 0.0320002)
(-1.31922 -1.82182 -8.47213e-06)
(-1.31922 -1.82182 8.48607e-06)
(-1.31884 -1.82242 -0.0320002)
(-0.276965 -0.507425 0.00500557)
(-0.276984 -0.507321 -6.55057e-07)
(-0.276984 -0.507321 6.55847e-07)
(-0.276965 -0.507426 -0.00500557)
(-0.376277 -0.427552 0.00487918)
(-0.376232 -0.427372 -7.0652e-07)
(-0.376232 -0.427372 7.0745e-07)
(-0.376277 -0.427553 -0.00487918)
(-0.321724 -0.396536 0.00417648)
(-0.321632 -0.39637 -8.28503e-07)
(-0.321632 -0.39637 8.29466e-07)
(-0.321724 -0.396536 -0.00417648)
(-0.320284 -0.383103 0.00445517)
(-0.32024 -0.382979 -6.69568e-07)
(-0.32024 -0.382979 6.70263e-07)
(-0.320284 -0.383103 -0.00445517)
(-0.223488 -0.482998 0.00470721)
(-0.223384 -0.482979 -7.39067e-07)
(-0.223384 -0.482979 7.39721e-07)
(-0.223488 -0.482998 -0.00470721)
(-0.295677 -0.396776 0.00452891)
(-0.295613 -0.396641 -6.91714e-07)
(-0.295613 -0.396641 6.92241e-07)
(-0.295677 -0.396776 -0.00452891)
(-0.21448 -0.327736 0.00477673)
(-0.214503 -0.327618 -5.3352e-07)
(-0.214503 -0.327618 5.34161e-07)
(-0.21448 -0.327736 -0.00477673)
(-0.114589 -0.230979 0.00462086)
(-0.114491 -0.230823 -5.43659e-07)
(-0.114491 -0.230823 5.44183e-07)
(-0.114589 -0.230979 -0.00462086)
(-0.160284 -0.556456 0.00560065)
(-0.160243 -0.55631 -7.75921e-07)
(-0.160243 -0.55631 7.77046e-07)
(-0.160284 -0.556456 -0.00560065)
(-0.100099 -0.440911 0.00510724)
(-0.100029 -0.440692 -7.32383e-07)
(-0.100029 -0.440692 7.33367e-07)
(-0.100099 -0.440911 -0.00510724)
(-0.199297 -0.493443 0.0048592)
(-0.199232 -0.49334 -6.43604e-07)
(-0.199232 -0.49334 6.44405e-07)
(-0.199297 -0.493443 -0.0048592)
(-0.158249 -0.416444 0.00461988)
(-0.158169 -0.416402 -6.25535e-07)
(-0.158169 -0.416402 6.26154e-07)
(-0.158249 -0.416444 -0.00461988)
(-0.234056 -0.392607 0.00452164)
(-0.234039 -0.392576 -6.21689e-07)
(-0.234039 -0.392576 6.22167e-07)
(-0.234056 -0.392608 -0.00452164)
(-0.122632 -0.929639 0.00868156)
(-0.122723 -0.929435 -1.00704e-06)
(-0.122722 -0.929435 1.00937e-06)
(-0.122632 -0.929639 -0.00868157)
(-0.207506 -1.01836 0.0102797)
(-0.207615 -1.01808 -1.36539e-06)
(-0.207615 -1.01808 1.36851e-06)
(-0.207506 -1.01836 -0.0102797)
(-0.389046 -1.234 0.0127647)
(-0.389164 -1.23365 -2.05646e-06)
(-0.389164 -1.23365 2.0608e-06)
(-0.389046 -1.234 -0.0127647)
(-0.909417 -1.67989 0.0227196)
(-0.909663 -1.67929 -5.39489e-06)
(-0.909663 -1.67929 5.40401e-06)
(-0.909417 -1.67989 -0.0227197)
(-0.607325 -1.47604 0.0165814)
(-0.607424 -1.47558 -3.37879e-06)
(-0.607424 -1.47558 3.38526e-06)
(-0.607325 -1.47604 -0.0165814)
(-0.487662 -0.372721 0.00377515)
(-0.487547 -0.372616 -7.81128e-07)
(-0.487547 -0.372616 7.82399e-07)
(-0.487662 -0.372721 -0.00377515)
(-2.02711 0.1223 0.0580923)
(-2.02839 0.121378 -1.26414e-05)
(-2.02839 0.121378 1.26689e-05)
(-2.02711 0.1223 -0.0580923)
(-1.10519 3.49623 0.0506309)
(-1.10632 3.49461 -1.31279e-05)
(-1.10632 3.49461 1.31576e-05)
(-1.10519 3.49623 -0.050631)
(-0.488296 4.16277 0.0346759)
(-0.488414 4.16186 -1.135e-05)
(-0.488415 4.16186 1.13689e-05)
(-0.488297 4.16278 -0.034676)
(-0.591501 -0.424572 0.00357066)
(-0.591347 -0.42444 -7.71861e-07)
(-0.591347 -0.42444 7.73693e-07)
(-0.591501 -0.424572 -0.00357067)
(-1.67848 -0.0131496 0.00563311)
(-1.67783 -0.0128517 -3.15464e-06)
(-1.67783 -0.012852 3.15854e-06)
(-1.67848 -0.01315 -0.00563311)
(-2.00684 0.140012 0.00669069)
(-2.00593 0.14026 -4.44354e-06)
(-2.00593 0.140259 4.44837e-06)
(-2.00684 0.140011 -0.00669069)
(-2.44242 0.638936 0.00742828)
(-2.44129 0.639042 -5.28684e-06)
(-2.44129 0.639042 5.29285e-06)
(-2.44242 0.638936 -0.00742829)
(-2.52988 1.20451 0.00658512)
(-2.52877 1.20464 -5.33796e-06)
(-2.52877 1.20464 5.34449e-06)
(-2.52988 1.20451 -0.00658512)
(-2.49564 1.67261 0.00512057)
(-2.49433 1.67283 -5.80209e-06)
(-2.49433 1.67283 5.81009e-06)
(-2.49564 1.67261 -0.00512058)
(-2.42298 1.98321 0.00337416)
(-2.42138 1.98329 -6.44436e-06)
(-2.42138 1.98329 6.45397e-06)
(-2.42298 1.98321 -0.00337417)
(-2.54062 2.10101 0.0101242)
(-2.53973 2.10104 -1.13514e-05)
(-2.53973 2.10104 1.1366e-05)
(-2.54062 2.10101 -0.0101243)
(-1.9176 2.3583 0.0170686)
(-1.91867 2.35802 -1.34226e-05)
(-1.91866 2.35802 1.34358e-05)
(-1.9176 2.3583 -0.0170686)
(-0.478662 2.88083 0.0224668)
(-0.48074 2.87965 -1.3207e-05)
(-0.480739 2.87965 1.32173e-05)
(-0.47866 2.88083 -0.0224668)
(0.535127 3.91376 0.0289304)
(0.534714 3.9118 -1.36011e-05)
(0.534714 3.9118 1.36191e-05)
(0.535127 3.91376 -0.0289304)
(-0.546439 -2.05405 0.0386999)
(-0.547221 -2.05378 -7.3783e-06)
(-0.54722 -2.05378 7.39022e-06)
(-0.546439 -2.05405 -0.0386999)
(-0.653525 -1.44805 0.0532722)
(-0.654511 -1.44818 -1.07086e-05)
(-0.65451 -1.44818 1.07274e-05)
(-0.653525 -1.44805 -0.0532722)
(-0.0708631 -0.560168 0.00548705)
(-0.0708889 -0.560039 -6.10143e-07)
(-0.0708889 -0.560039 6.11186e-07)
(-0.070863 -0.560168 -0.00548705)
(-0.0912716 -0.446198 0.00484677)
(-0.0912617 -0.446068 -6.19477e-07)
(-0.0912617 -0.446068 6.2044e-07)
(-0.0912715 -0.446198 -0.00484677)
(-0.163248 -0.428175 0.00482962)
(-0.163339 -0.428074 -5.64389e-07)
(-0.163339 -0.428074 5.65239e-07)
(-0.163248 -0.428175 -0.00482962)
(-0.0993678 -0.261674 0.00453329)
(-0.0994495 -0.261576 -4.56564e-07)
(-0.0994496 -0.261576 4.57077e-07)
(-0.0993678 -0.261674 -0.00453329)
(0.0315148 -0.0830965 0.00454277)
(0.0316539 -0.0827977 -4.02628e-07)
(0.0316539 -0.0827977 4.02981e-07)
(0.0315149 -0.0830965 -0.00454277)
(-0.0100731 -0.718886 0.00655631)
(-0.0101514 -0.718768 -7.3393e-07)
(-0.0101514 -0.718768 7.3524e-07)
(-0.010073 -0.718887 -0.00655631)
(0.011651 -0.525541 0.00557747)
(0.0116316 -0.525359 -7.40145e-07)
(0.0116316 -0.525359 7.41289e-07)
(0.0116511 -0.525541 -0.00557747)
(1.18214 0.0851114 -0.0203341)
(1.18216 0.0850501 1.08589e-07)
(1.18216 0.0850501 -1.08679e-07)
(1.18214 0.0851114 0.0203341)
(1.70414 -0.0510898 -0.0186125)
(1.70422 -0.0509292 1.17042e-07)
(1.70422 -0.0509292 -1.17065e-07)
(1.70414 -0.0510898 0.0186125)
(1.82895 0.420954 -0.0173216)
(1.82901 0.42095 6.70435e-07)
(1.82901 0.42095 -6.70575e-07)
(1.82895 0.420954 0.0173216)
(-0.0100297 -0.80462 0.00753999)
(-0.0101052 -0.804468 -8.69809e-07)
(-0.0101052 -0.804468 8.71399e-07)
(-0.0100297 -0.80462 -0.00753999)
(-0.209174 -1.45387 0.0144621)
(-0.209398 -1.45356 -1.79823e-06)
(-0.209398 -1.45356 1.80244e-06)
(-0.209174 -1.45387 -0.0144621)
(-0.0791413 -0.967672 0.00909507)
(-0.0792612 -0.967431 -1.04916e-06)
(-0.0792611 -0.967431 1.05135e-06)
(-0.0791412 -0.967672 -0.00909507)
(-0.104603 -1.19719 0.0111782)
(-0.104778 -1.19693 -1.35173e-06)
(-0.104778 -1.19693 1.35469e-06)
(-0.104603 -1.19719 -0.0111782)
(-0.752753 0.654768 0.0665929)
(-0.754256 0.653892 -1.05532e-05)
(-0.754256 0.653892 1.05775e-05)
(-0.752752 0.654768 -0.066593)
(-0.435384 4.17802 0.0599445)
(-0.435851 4.17788 -8.84806e-06)
(-0.435851 4.17788 8.88221e-06)
(-0.435384 4.17802 -0.0599445)
(-0.615929 4.88937 0.0421938)
(-0.615001 4.88944 -8.0764e-06)
(-0.615002 4.88944 8.0962e-06)
(-0.615929 4.88937 -0.0421938)
(0.262311 5.01654 0.0354182)
(0.262543 5.01627 -8.59035e-06)
(0.262543 5.01627 8.61823e-06)
(0.262311 5.01655 -0.0354183)
(-0.388828 -2.02084 0.0274221)
(-0.389357 -2.02049 -4.61458e-06)
(-0.389356 -2.02049 4.62148e-06)
(-0.388827 -2.02084 -0.0274221)
(0.388534 -1.81262 0.0405798)
(0.387544 -1.81258 -5.60944e-06)
(0.387544 -1.81258 5.61783e-06)
(0.388534 -1.81262 -0.0405798)
(0.635428 -1.19056 0.0557918)
(0.634268 -1.19085 -5.54876e-06)
(0.634269 -1.19085 5.56373e-06)
(0.635428 -1.19056 -0.0557918)
(-2.33243 2.43543 -0.00027307)
(-2.33079 2.43438 -5.8012e-06)
(-2.33079 2.43438 5.81217e-06)
(-2.33243 2.43543 0.000273059)
(-2.26349 2.659 0.00785546)
(-2.26325 2.65759 -1.17707e-05)
(-2.26325 2.65759 1.17929e-05)
(-2.26349 2.659 -0.00785548)
(-1.45364 2.91211 0.0169979)
(-1.45596 2.91099 -1.44116e-05)
(-1.45596 2.91098 1.44378e-05)
(-1.45364 2.91211 -0.0169979)
(0.303706 3.00821 0.0228124)
(0.300243 3.00723 -1.30466e-05)
(0.300245 3.00723 1.30649e-05)
(0.303707 3.00821 -0.0228124)
(1.52918 3.49037 0.027576)
(1.52926 3.48782 -1.22897e-05)
(1.52926 3.48782 1.23027e-05)
(1.52918 3.49037 -0.0275761)
(0.636882 4.34287 0.0318342)
(0.640134 4.34159 -7.00275e-06)
(0.640133 4.34159 7.01956e-06)
(0.636881 4.34287 -0.0318342)
(-1.45648 0.227008 0.00221257)
(-1.45576 0.227127 -1.73806e-06)
(-1.45576 0.227127 1.74031e-06)
(-1.45648 0.227008 -0.00221257)
(-1.79328 0.450758 0.00274861)
(-1.79244 0.450849 -2.45471e-06)
(-1.79244 0.450849 2.45704e-06)
(-1.79328 0.450757 -0.00274861)
(-2.00569 0.790099 0.00267275)
(-2.00471 0.790069 -2.75194e-06)
(-2.00471 0.790069 2.75467e-06)
(-2.00569 0.790099 -0.00267275)
(-2.19904 1.24301 0.00209247)
(-2.19799 1.24297 -2.81309e-06)
(-2.19799 1.24297 2.81658e-06)
(-2.19904 1.24301 -0.00209247)
(-2.16592 1.62238 0.000790442)
(-2.16462 1.62227 -2.522e-06)
(-2.16463 1.62227 2.52614e-06)
(-2.16592 1.62238 -0.000790446)
(-2.16556 1.91056 -0.00131785)
(-2.1641 1.91037 -1.31065e-06)
(-2.16411 1.91037 1.31359e-06)
(-2.16556 1.91056 0.00131785)
(-2.0613 2.25664 -0.00515688)
(-2.05952 2.25581 3.80563e-07)
(-2.05953 2.25581 -3.80641e-07)
(-2.0613 2.25664 0.00515688)
(-0.815301 -0.155835 0.00254226)
(-0.814931 -0.155709 -1.01067e-06)
(-0.814931 -0.155709 1.0126e-06)
(-0.815301 -0.155835 -0.00254226)
(-0.331083 -0.253984 0.0027323)
(-0.331051 -0.253782 -8.15071e-07)
(-0.331051 -0.253782 8.16612e-07)
(-0.331083 -0.253984 -0.0027323)
(-0.0404915 -0.499554 0.00512506)
(-0.0405302 -0.499435 -5.65511e-07)
(-0.0405302 -0.499435 5.66551e-07)
(-0.0404915 -0.499554 -0.00512506)
(0.0245625 -0.252526 0.00456049)
(0.0246752 -0.252338 -5.78782e-07)
(0.0246752 -0.252338 5.7971e-07)
(0.0245625 -0.252526 -0.00456049)
(-0.197903 -0.406924 0.00451878)
(-0.197904 -0.406778 -5.60003e-07)
(-0.197904 -0.406778 5.60646e-07)
(-0.197903 -0.406924 -0.00451878)
(0.00202487 -0.412734 0.0042934)
(0.00209207 -0.412768 -4.66372e-07)
(0.0020921 -0.412768 4.66639e-07)
(0.00202492 -0.412734 -0.0042934)
(-0.201324 -0.635422 0.00471175)
(-0.201465 -0.635489 -6.86579e-07)
(-0.201465 -0.635489 6.86741e-07)
(-0.201324 -0.635422 -0.00471175)
(0.188245 -1.38494 0.0152005)
(0.187966 -1.38476 -1.24465e-06)
(0.187966 -1.38476 1.2483e-06)
(0.188245 -1.38494 -0.0152005)
(0.183939 -1.98419 0.0293484)
(0.183277 -1.98399 -2.84236e-06)
(0.183277 -1.98399 2.84621e-06)
(0.18394 -1.98419 -0.0293484)
(0.670702 0.875442 0.0673894)
(0.6691 0.875123 -4.76281e-06)
(0.669101 0.875122 4.78527e-06)
(0.670703 0.875442 -0.0673895)
(0.356547 3.96648 0.06262)
(0.354853 3.96786 -4.35554e-06)
(0.354853 3.96786 4.38044e-06)
(0.356546 3.96648 -0.06262)
(-0.773259 4.93904 0.046062)
(-0.774031 4.93924 -4.97195e-06)
(-0.774031 4.93924 4.98209e-06)
(-0.773259 4.93904 -0.046062)
(0.264939 5.07123 0.0346233)
(0.263822 5.07226 -3.94519e-06)
(0.263822 5.07226 3.96216e-06)
(0.264939 5.07123 -0.0346233)
(-0.38308 4.2679 0.030754)
(-0.383682 4.26807 -7.18905e-06)
(-0.383681 4.26807 7.21252e-06)
(-0.383078 4.2679 -0.030754)
(0.206723 -1.137 0.0114038)
(0.206546 -1.13683 -1.14419e-06)
(0.206546 -1.13683 1.14703e-06)
(0.206723 -1.137 -0.0114038)
(0.16609 -1.00778 0.00919514)
(0.165964 -1.0076 -8.41283e-07)
(0.165964 -1.0076 8.43217e-07)
(0.16609 -1.00778 -0.00919514)
(0.141647 -0.797838 0.00744643)
(0.141559 -0.797663 -8.12372e-07)
(0.141559 -0.797663 8.13834e-07)
(0.141647 -0.797838 -0.00744644)
(0.126257 -0.669587 0.00628112)
(0.126241 -0.669441 -5.96628e-07)
(0.126241 -0.669441 5.9777e-07)
(0.126257 -0.669587 -0.00628112)
(0.0427227 -0.543663 0.00525424)
(0.0426776 -0.543536 -6.48737e-07)
(0.0426777 -0.543536 6.49797e-07)
(0.0427228 -0.543663 -0.00525424)
(0.0466394 -0.462185 0.00491481)
(0.0466274 -0.46211 -4.6923e-07)
(0.0466274 -0.46211 4.70258e-07)
(0.0466394 -0.462185 -0.00491481)
(-0.048844 -0.254274 0.00407734)
(-0.0488306 -0.254187 -5.21243e-07)
(-0.0488306 -0.254187 5.22003e-07)
(-0.0488439 -0.254274 -0.00407734)
(-0.0980482 -0.479569 0.00470893)
(-0.0981519 -0.479587 -4.04085e-07)
(-0.0981519 -0.479587 4.04582e-07)
(-0.0980482 -0.479569 -0.00470893)
(-0.360262 -0.249095 0.00437779)
(-0.360279 -0.249147 -4.18079e-07)
(-0.360279 -0.249147 4.17963e-07)
(-0.360262 -0.249095 -0.00437779)
(-0.192859 0.13238 0.00559497)
(-0.192775 0.132884 -4.76806e-07)
(-0.192775 0.132884 4.76906e-07)
(-0.192859 0.13238 -0.00559497)
(-0.713821 -0.0642344 0.0017742)
(-0.713568 -0.064279 -7.41707e-07)
(-0.713568 -0.064279 7.42939e-07)
(-0.713821 -0.0642344 -0.00177421)
(-0.737866 -0.0635222 0.00074823)
(-0.737576 -0.0636372 -4.18335e-07)
(-0.737576 -0.0636373 4.19844e-07)
(-0.737866 -0.0635223 -0.000748232)
(1.47538 -0.387626 -0.0194762)
(1.47541 -0.387654 4.35361e-07)
(1.47541 -0.387654 -4.35443e-07)
(1.47538 -0.387626 0.0194762)
(1.51178 -0.158219 -0.0184618)
(1.51182 -0.158147 9.85214e-08)
(1.51182 -0.158147 -9.85911e-08)
(1.51178 -0.158219 0.0184618)
(1.91761 -0.17362 -0.0169195)
(1.91766 -0.173535 4.19517e-07)
(1.91766 -0.173535 -4.19605e-07)
(1.91761 -0.17362 0.0169195)
(1.94586 -0.0262882 -0.0154508)
(1.94598 -0.026258 4.08908e-07)
(1.94598 -0.026258 -4.08993e-07)
(1.94586 -0.0262882 0.0154508)
(2.29154 -0.0732707 -0.0140179)
(2.29153 -0.073154 1.82502e-07)
(2.29153 -0.073154 -1.82582e-07)
(2.29154 -0.0732707 0.0140179)
(2.13647 0.119052 -0.0140026)
(2.13659 0.119113 5.5182e-07)
(2.13659 0.119113 -5.51877e-07)
(2.13647 0.119052 0.0140026)
(-0.848664 0.224958 -0.000347987)
(-0.848167 0.224718 -5.0349e-07)
(-0.848167 0.224718 5.04818e-07)
(-0.848665 0.224958 0.000347986)
(-1.38256 0.560594 -0.000248126)
(-1.38207 0.560677 -6.06969e-07)
(-1.38207 0.560677 6.07968e-07)
(-1.38256 0.560594 0.000248125)
(-1.37606 0.698153 -0.000367364)
(-1.37533 0.698028 -1.05417e-06)
(-1.37533 0.698028 1.05475e-06)
(-1.37606 0.698152 0.000367363)
(-1.70773 0.992554 -0.000614142)
(-1.70689 0.992488 -9.68945e-07)
(-1.70689 0.992488 9.69177e-07)
(-1.70773 0.992554 0.000614142)
(-1.77142 1.36331 -0.00104049)
(-1.77049 1.36312 -7.3447e-07)
(-1.77049 1.36312 7.34948e-07)
(-1.77142 1.36331 0.00104049)
(-1.82161 1.63307 -0.00209345)
(-1.82059 1.63283 5.10068e-08)
(-1.82059 1.63283 -5.03393e-08)
(-1.82161 1.63307 0.00209345)
(-1.83913 1.93145 -0.00385046)
(-1.83803 1.93103 1.77317e-06)
(-1.83803 1.93103 -1.77452e-06)
(-1.83913 1.93145 0.00385046)
(-1.7409 2.18556 -0.00705644)
(-1.73966 2.18483 3.5832e-06)
(-1.73966 2.18483 -3.58832e-06)
(-1.7409 2.18556 0.00705644)
(-1.72093 2.49166 -0.0112678)
(-1.71988 2.48982 6.76467e-06)
(-1.71988 2.48982 -6.77614e-06)
(-1.72093 2.49166 0.0112679)
(-1.93985 2.88445 -0.0109052)
(-1.93865 2.88183 3.26898e-06)
(-1.93866 2.88184 -3.27449e-06)
(-1.93985 2.88445 0.0109052)
(-2.04676 3.49156 -0.00668806)
(-2.04569 3.48852 -4.76103e-06)
(-2.04569 3.48852 4.77394e-06)
(-2.04676 3.49156 0.00668805)
(-2.01919 3.84967 0.00279052)
(-2.01833 3.8477 -1.48339e-05)
(-2.01833 3.8477 1.48661e-05)
(-2.01919 3.84967 -0.00279055)
(-1.39128 3.75922 0.015398)
(-1.39215 3.75912 -1.99345e-05)
(-1.39215 3.75912 1.99732e-05)
(-1.39128 3.75922 -0.015398)
(0.213939 3.20977 0.0249726)
(0.210952 3.21059 -1.36042e-05)
(0.210954 3.21059 1.36308e-05)
(0.213942 3.20977 -0.0249726)
(1.64029 2.64385 0.0282978)
(1.63964 2.64312 -8.4683e-06)
(1.63964 2.64312 8.48689e-06)
(1.64029 2.64385 -0.0282979)
(1.11094 2.95402 0.0279759)
(1.11325 2.95174 -3.4736e-06)
(1.11325 2.95174 3.49083e-06)
(1.11094 2.95402 -0.027976)
(1.06778 -0.0341675 -0.021647)
(1.06786 -0.034193 1.67395e-07)
(1.06786 -0.034193 -1.67583e-07)
(1.06778 -0.0341675 0.021647)
(0.907622 -0.412976 -0.0208827)
(0.907633 -0.412883 1.7975e-08)
(0.907633 -0.412883 -1.80937e-08)
(0.907622 -0.412976 0.0208827)
(0.176116 3.54119 0.0237129)
(0.175263 3.53904 3.8153e-06)
(0.175264 3.53904 -3.79681e-06)
(0.176117 3.54119 -0.0237129)
(0.521909 0.409759 -0.0225886)
(0.522039 0.409693 1.74882e-07)
(0.522039 0.409693 -1.75128e-07)
(0.521909 0.409759 0.0225886)
(1.69796 0.597143 -0.0183089)
(1.69779 0.597229 1.57292e-07)
(1.69779 0.597229 -1.57419e-07)
(1.69796 0.597143 0.0183089)
(1.17949 0.563157 -0.0209619)
(1.17957 0.563281 -1.52103e-07)
(1.17957 0.563281 1.52126e-07)
(1.17949 0.563157 0.0209619)
(2.2055 0.349679 -0.0134769)
(2.20563 0.349703 5.05298e-07)
(2.20563 0.349703 -5.05362e-07)
(2.2055 0.349679 0.0134769)
(2.11682 0.327795 -0.0149948)
(2.11678 0.327875 1.49514e-07)
(2.11678 0.327875 -1.49627e-07)
(2.11682 0.327795 0.0149948)
(1.86276 0.545843 -0.0161497)
(1.86292 0.545905 5.72217e-07)
(1.86292 0.545905 -5.72311e-07)
(1.86276 0.545843 0.0161497)
(1.83437 0.643866 -0.0166489)
(1.83439 0.643819 2.16016e-07)
(1.83439 0.643819 -2.16095e-07)
(1.83437 0.643866 0.0166489)
(1.6214 0.92084 -0.0168849)
(1.62146 0.920957 2.79984e-07)
(1.62146 0.920957 -2.80182e-07)
(1.6214 0.92084 0.0168849)
(1.22553 1.14818 -0.0182838)
(1.22563 1.14815 3.01044e-07)
(1.22563 1.14815 -3.01205e-07)
(1.22553 1.14818 0.0182838)
(2.28062 -0.0166032 -0.0126337)
(2.2807 -0.0166383 2.4166e-07)
(2.2807 -0.0166383 -2.41681e-07)
(2.28062 -0.0166032 0.0126337)
(2.42562 0.119721 -0.012735)
(2.42566 0.119725 1.15262e-07)
(2.42566 0.119725 -1.15265e-07)
(2.42562 0.119721 0.012735)
(2.42437 0.219479 -0.0123287)
(2.4244 0.219545 2.13248e-07)
(2.4244 0.219545 -2.13272e-07)
(2.42437 0.219479 0.0123287)
(1.47965 -0.667505 -0.018437)
(1.47966 -0.667501 1.72025e-07)
(1.47966 -0.667501 -1.72115e-07)
(1.47965 -0.667505 0.018437)
(1.68351 -0.412778 -0.0175095)
(1.68361 -0.412769 3.42922e-07)
(1.68361 -0.412769 -3.43054e-07)
(1.68351 -0.412778 0.0175095)
(1.8848 -0.365703 -0.0163121)
(1.88492 -0.365625 4.81949e-07)
(1.88492 -0.365625 -4.82086e-07)
(1.8848 -0.365703 0.0163121)
(2.06597 -0.229346 -0.0149393)
(2.06604 -0.229314 2.26691e-07)
(2.06604 -0.229314 -2.26832e-07)
(2.06597 -0.229346 0.0149393)
(2.24769 -0.229122 -0.0135811)
(2.24771 -0.229082 1.51009e-07)
(2.24771 -0.229082 -1.51113e-07)
(2.24769 -0.229122 0.0135811)
(2.37318 -0.153088 -0.0123017)
(2.37321 -0.153019 9.80102e-08)
(2.37321 -0.153019 -9.80645e-08)
(2.37318 -0.153088 0.0123017)
(1.25805 -0.690152 -0.0195221)
(1.25793 -0.690103 -2.81781e-07)
(1.25793 -0.690103 2.81637e-07)
(1.25805 -0.690152 0.0195221)
(0.924779 -0.630174 -0.0215086)
(0.92485 -0.630081 2.21771e-07)
(0.92485 -0.630081 -2.2193e-07)
(0.924779 -0.630174 0.0215086)
(1.05276 0.894674 -0.0196502)
(1.05269 0.894752 7.62848e-07)
(1.05269 0.894753 -7.63216e-07)
(1.05276 0.894674 0.0196503)
(1.73521 1.23111 -0.0155406)
(1.73525 1.2313 5.57076e-07)
(1.73525 1.2313 -5.57311e-07)
(1.73521 1.23111 0.0155406)
(1.83478 1.1105 -0.0149209)
(1.83486 1.11073 1.08248e-06)
(1.83486 1.11073 -1.08277e-06)
(1.83478 1.1105 0.0149209)
(1.7906 1.03384 -0.0152749)
(1.79085 1.03391 8.02556e-07)
(1.79085 1.03391 -8.02739e-07)
(1.7906 1.03384 0.0152749)
(2.01635 0.778525 -0.0150508)
(2.01637 0.778628 6.51794e-07)
(2.01637 0.778628 -6.51929e-07)
(2.01635 0.778525 0.0150508)
(1.97386 0.71074 -0.0145938)
(1.97409 0.710701 2.26582e-07)
(1.97409 0.710701 -2.26694e-07)
(1.97386 0.71074 0.0145938)
(2.27166 0.493049 -0.013633)
(2.27155 0.493186 4.06824e-07)
(2.27155 0.493186 -4.06936e-07)
(2.27166 0.493049 0.013633)
(2.23172 0.494575 -0.0126333)
(2.23203 0.494511 5.01655e-07)
(2.23203 0.494511 -5.01756e-07)
(2.23172 0.494575 0.0126333)
(2.49685 0.335628 -0.0116315)
(2.49673 0.335742 4.21755e-07)
(2.49673 0.335743 -4.2183e-07)
(2.49685 0.335628 0.0116315)
(2.52191 -0.165685 -0.0111192)
(2.52191 -0.165685 7.61685e-08)
(2.52191 -0.165685 -7.61536e-08)
(2.52191 -0.165685 0.0111192)
(2.56164 -0.0447999 -0.011387)
(2.56163 -0.0446942 9.83209e-08)
(2.56163 -0.0446942 -9.82817e-08)
(2.56164 -0.0447999 0.011387)
(2.43019 0.072968 -0.0113899)
(2.43027 0.0730441 3.75812e-07)
(2.43027 0.0730441 -3.75775e-07)
(2.43019 0.072968 0.0113899)
(2.47277 0.21821 -0.0111067)
(2.47286 0.218189 4.34516e-07)
(2.47286 0.218189 -4.3451e-07)
(2.47277 0.21821 0.0111067)
(2.47449 0.332631 -0.0106108)
(2.47475 0.332541 3.97085e-07)
(2.47475 0.332541 -3.97122e-07)
(2.47449 0.332631 0.0106108)
(1.49724 -0.882813 -0.0166334)
(1.49725 -0.882766 1.90152e-07)
(1.49725 -0.882766 -1.90267e-07)
(1.49724 -0.882813 0.0166334)
(1.90012 -0.649684 -0.0162077)
(1.90024 -0.649674 3.03305e-07)
(1.90024 -0.649674 -3.03484e-07)
(1.90012 -0.649684 0.0162077)
(1.89656 -0.568988 -0.0151005)
(1.89664 -0.568947 4.5491e-07)
(1.89664 -0.568947 -4.55101e-07)
(1.89656 -0.568988 0.0151005)
(2.20435 -0.413168 -0.0140241)
(2.20442 -0.413181 2.651e-07)
(2.20442 -0.413181 -2.65267e-07)
(2.20435 -0.413168 0.0140241)
(2.23743 -0.381974 -0.0128323)
(2.23749 -0.381919 3.30808e-07)
(2.23749 -0.381919 -3.30949e-07)
(2.23743 -0.381974 0.0128323)
(2.4666 -0.285151 -0.0117046)
(2.46662 -0.285119 3.81821e-08)
(2.46662 -0.285119 -3.82601e-08)
(2.4666 -0.285151 0.0117046)
(2.50105 -0.262595 -0.0106191)
(2.50104 -0.262562 4.05482e-08)
(2.50104 -0.262562 -4.05522e-08)
(2.50105 -0.262595 0.0106191)
(1.65593 -1.01771 -0.017228)
(1.65599 -1.01773 4.03778e-08)
(1.65599 -1.01773 -4.04705e-08)
(1.65593 -1.01771 0.017228)
(0.875165 -1.13409 -0.0191466)
(0.875209 -1.13414 2.31909e-07)
(0.875209 -1.13414 -2.32071e-07)
(0.875165 -1.13409 0.0191466)
(-0.577273 0.108021 -5.94474e-05)
(-0.577096 0.108238 -5.17082e-08)
(-0.577096 0.108238 5.2078e-08)
(-0.577273 0.108021 5.9447e-05)
(1.24844 4.14365 0.0244955)
(1.24438 4.14239 -7.39204e-06)
(1.24438 4.14239 7.40136e-06)
(1.24844 4.14366 -0.0244955)
(0.996277 5.20307 0.0310952)
(0.996842 5.20246 -8.47429e-06)
(0.996841 5.20246 8.47255e-06)
(0.996274 5.20307 -0.0310952)
(0.270032 4.99361 0.0438826)
(0.266417 4.99398 1.97529e-07)
(0.266419 4.99398 -2.04057e-07)
(0.270034 4.99361 -0.0438826)
(1.54657 3.09685 0.0559767)
(1.54538 3.09767 7.25448e-07)
(1.54538 3.09767 -7.12749e-07)
(1.54657 3.09685 -0.0559767)
(1.80278 0.756342 0.0589932)
(1.80209 0.755737 1.64119e-06)
(1.80209 0.755737 -1.62094e-06)
(1.80278 0.756341 -0.0589932)
(1.45469 -0.925247 0.0495417)
(1.45389 -0.925832 -1.40491e-06)
(1.45389 -0.925832 1.41725e-06)
(1.45469 -0.925248 -0.0495418)
(1.10374 -1.51235 0.0379483)
(1.10285 -1.51255 -2.7373e-06)
(1.10285 -1.51255 2.74223e-06)
(1.10374 -1.51236 -0.0379483)
(0.644375 -1.87056 0.0285302)
(0.643788 -1.87059 -1.63926e-06)
(0.643789 -1.87059 1.64186e-06)
(0.644376 -1.87056 -0.0285302)
(0.535391 -1.69928 0.0201899)
(0.534885 -1.69923 -1.87912e-06)
(0.534886 -1.69923 1.88354e-06)
(0.535391 -1.69928 -0.0201899)