/*--------------------------------*- C++ -*----------------------------------*\
| =========                 |                                                 |
| \\      /  F ield         | OpenFOAM: The Open Source CFD Toolbox           |
|  \\    /   O peration     | Version:  v1806                                 |
|   \\  /    A nd           | Web:      www.OpenFOAM.com                      |
|    \\/     M anipulation  |                                                 |
\*---------------------------------------------------------------------------*/
FoamFile
{
    version     2.0;
    format      ascii;
    class       volScalarField;
    location    "2";
    object      p;
}
// * * * * * * * * * * * * * * * * * * * * * * * * * * * * * * * * * * * * * //

dimensions      [0 2 -2 0 0 0 0];


internalField   nonuniform List<scalar> 
2400
(
0.0476937
0.0478052
0.0496231
0.0524865
0.0517729
0.0531098
0.0619556
0.0673284
0.0658259
0.0655705
0.0758391
0.0973486
0.117911
0.130179
0.13448
0.134954
0.136268
0.139222
0.141818
0.142758
0.143709
0.143536
0.14635
0.153663
0.157837
0.163854
0.17992
0.1924
0.192257
0.200548
0.230379
0.270601
0.306911
0.33545
0.354533
0.366536
0.376647
0.386214
0.393435
0.397322
0.238416
0.239591
0.243215
0.254104
0.263105
0.270513
0.290041
0.314074
0.322483
0.334632
0.368397
0.41956
0.470628
0.512688
0.544003
0.570278
0.592807
0.609906
0.620248
0.623761
0.331923
0.334611
0.338422
0.351947
0.36655
0.375195
0.398059
0.431234
0.448881
0.464588
0.50471
0.566022
0.623673
0.666871
0.705713
0.745722
0.779687
0.80366
0.817712
0.824171
0.424144
0.427545
0.431234
0.44759
0.467194
0.476909
0.504592
0.545373
0.569879
0.590427
0.637346
0.7023
0.762577
0.819138
0.873056
0.919164
0.952215
0.975146
0.989046
0.99492
0.514287
0.516908
0.522892
0.542261
0.563295
0.577524
0.609591
0.653331
0.681402
0.709246
0.763823
0.832211
0.894375
0.961797
1.02473
1.07243
1.10369
1.1259
1.1393
1.14508
0.601212
0.606024
0.61353
0.632617
0.656692
0.676631
0.707414
0.754319
0.792489
0.828615
0.87979
0.945191
1.01339
1.08393
1.14423
1.19368
1.23007
1.25849
1.27542
1.28177
0.6865
0.691793
0.698513
0.720551
0.749563
0.768202
0.801785
0.856907
0.899722
0.934607
0.987421
1.06755
1.14508
1.20447
1.25436
1.30629
1.34402
1.37072
1.38347
1.38752
0.767843
0.773251
0.782829
0.806321
0.834804
0.857222
0.8974
0.954556
0.997282
1.03761
1.10128
1.17924
1.23708
1.29662
1.36351
1.42816
1.46908
1.49552
1.50145
1.4983
0.846247
0.852758
0.862256
0.886245
0.919643
0.945623
0.983579
1.04295
1.09501
1.14221
1.20305
1.2789
1.35806
1.44319
1.50365
1.54539
1.56414
1.58052
1.58078
1.57489
0.921012
0.927518
0.93837
0.965062
0.999074
1.0253
1.06895
1.13416
1.18716
1.23325
1.29599
1.38596
1.46755
1.54093
1.58556
1.63044
1.65809
1.68054
1.66843
1.65218
0.991762
0.999239
1.01102
1.03767
1.07425
1.10463
1.14974
1.21486
1.27264
1.32738
1.39783
1.48066
1.54598
1.61378
1.67132
1.73314
1.75212
1.77621
1.74843
1.71959
1.05874
1.06621
1.07861
1.10759
1.14621
1.17664
1.22498
1.2953
1.35791
1.41169
1.48313
1.5753
1.6707
1.76547
1.82833
1.86926
1.86219
1.87049
1.80735
1.76816
1.12111
1.12908
1.14277
1.17222
1.21223
1.24582
1.29762
1.36783
1.43406
1.49418
1.57585
1.66548
1.73712
1.80528
1.85583
1.92971
1.94089
1.96356
1.87211
1.83035
1.17918
1.1874
1.20162
1.23233
1.27483
1.30887
1.36318
1.437
1.51004
1.57045
1.65637
1.74905
1.85308
1.95027
2.02845
2.0838
2.06344
2.07273
1.92547
1.8881
1.23247
1.24077
1.25603
1.28783
1.33136
1.36711
1.42596
1.50048
1.57622
1.64065
1.73999
1.83583
1.93679
2.01947
2.09461
2.16331
2.16108
2.17431
1.98659
1.96083
1.28083
1.28937
1.30548
1.33797
1.38304
1.42049
1.48178
1.55774
1.63977
1.70804
1.81257
1.90825
2.03119
2.13234
2.24368
2.30847
2.31781
2.30766
2.07531
2.0528
1.32413
1.33276
1.34978
1.38326
1.42907
1.46774
1.53227
1.61069
1.69549
1.7666
1.87997
1.98394
2.11838
2.22191
2.35905
2.4294
2.4866
2.45627
2.22238
2.20856
1.36218
1.371
1.38883
1.42282
1.46937
1.51016
1.57634
1.65609
1.74415
1.82126
1.93906
2.04861
2.19178
2.31423
2.48215
2.56514
2.69758
2.62742
2.4686
2.26961
1.3948
1.40401
1.4226
1.45648
1.50377
1.54703
1.61406
1.69446
1.78644
1.86723
1.98959
2.10321
2.26219
2.39186
2.60008
2.68533
2.96897
2.7535
3.11145
0.877635
0.143153
0.143995
0.14402
0.143522
0.142901
0.142246
0.141521
0.140702
0.139845
0.138906
0.39735
0.396868
0.396042
0.394872
0.393331
0.391534
0.389501
0.387148
0.384354
0.381194
0.623322
0.623487
0.623281
0.622247
0.620425
0.618053
0.61532
0.612316
0.608974
0.605203
0.822937
0.820956
0.81884
0.816997
0.815008
0.812418
0.809065
0.805022
0.80035
0.795134
0.995409
0.996561
0.996664
0.995283
0.992954
0.990112
0.986764
0.982857
0.97834
0.973225
1.14353
1.14112
1.13956
1.1385
1.13696
1.1346
1.13145
1.12772
1.1234
1.11854
1.28219
1.2824
1.2809
1.27864
1.27605
1.273
1.26922
1.26466
1.2594
1.25344
1.38727
1.38677
1.38639
1.38556
1.38415
1.38223
1.37973
1.37661
1.37293
1.36861
1.49439
1.49152
1.48748
1.4836
1.48025
1.4772
1.47383
1.46977
1.46509
1.45985
1.57239
1.57138
1.56883
1.56516
1.56157
1.55867
1.55604
1.55299
1.5496
1.5457
1.64016
1.63354
1.62539
1.61829
1.61317
1.6099
1.60735
1.60451
1.60141
1.59806
1.7003
1.69086
1.67826
1.66707
1.65945
1.65516
1.65243
1.64967
1.64721
1.64508
1.73028
1.70825
1.68602
1.67057
1.66244
1.65934
1.65833
1.65735
1.65676
1.65701
1.758
1.71898
1.68274
1.65916
1.64782
1.64377
1.64288
1.64295
1.64454
1.64861
1.74766
1.68317
1.63264
1.60238
1.58732
1.5797
1.57606
1.57578
1.57993
1.5902
1.69883
1.605
1.54718
1.51817
1.50002
1.48371
1.46955
1.46212
1.46484
1.47998
1.51541
1.37496
1.341
1.34243
1.33779
1.3201
1.2983
1.28614
1.29115
1.3134
1.21948
0.964549
0.905071
0.896196
0.878073
0.847286
0.829073
0.84584
0.898232
0.969868
1.396
1.25079
1.20588
1.0665
0.831482
0.537752
0.276742
0.171332
0.237726
0.383817
-1.54505
-0.54964
0.178773
0.435027
0.464443
0.389657
0.274515
0.216466
0.232188
0.290618
0.131017
0.11643
0.0974805
0.0794616
0.063653
0.0506635
0.0403341
0.032197
0.0257694
0.0206546
0.0165521
0.0132373
0.0105403
0.00832935
0.00649999
0.00496701
0.00365949
0.0025157
0.00148164
0.000491758
0.366583
0.327032
0.275289
0.225913
0.182601
0.146671
0.117712
0.0945693
0.0760543
0.0611724
0.0491457
0.0393747
0.0313931
0.0248309
0.0193894
0.0148221
0.0109217
0.00750663
0.00441722
0.00146433
0.582158
0.522457
0.442406
0.364321
0.29547
0.238284
0.192029
0.154851
0.124922
0.100727
0.0810796
0.0650548
0.0519243
0.0411032
0.0321132
0.0245564
0.0180955
0.0124336
0.00730895
0.0024197
0.770289
0.695678
0.593495
0.492353
0.401651
0.325443
0.263308
0.213031
0.172321
0.139245
0.112273
0.0902007
0.0720663
0.0570892
0.0446252
0.0341338
0.0251542
0.0172788
0.0101475
0.00335535
0.94325
0.855204
0.731864
0.610065
0.500358
0.407465
0.3311
0.268824
0.218057
0.176585
0.142619
0.114728
0.0917508
0.0727342
0.0568822
0.0435212
0.0320734
0.0220261
0.0129246
0.00426911
1.09132
0.997676
0.858657
0.719297
0.592655
0.484756
0.395479
0.322174
0.262039
0.212651
0.172029
0.13856
0.110914
0.0879864
0.0688428
0.0526866
0.0388298
0.0266599
0.0156323
0.00515872
1.22386
1.12446
0.971919
0.818565
0.677883
0.557038
0.456295
0.372967
0.304163
0.247352
0.200422
0.161626
0.129497
0.102797
0.0804678
0.0615996
0.0454011
0.0311654
0.0182624
0.00602185
1.34038
1.24019
1.07552
0.909611
0.756616
0.624447
0.513536
0.421139
0.344352
0.280606
0.227724
0.183861
0.147444
0.117119
0.0917199
0.0702312
0.0517659
0.0355283
0.0208074
0.00685618
1.43622
1.34028
1.16705
0.99179
0.828764
0.686979
0.567178
0.466641
0.382541
0.312347
0.253869
0.205206
0.164702
0.13091
0.102564
0.078554
0.0579039
0.0397349
0.0232595
0.00765943
1.52164
1.43107
1.24909
1.06594
0.894598
0.744728
0.617238
0.509449
0.418682
0.342517
0.278798
0.225606
0.181226
0.144129
0.112967
0.086542
0.063796
0.0437722
0.0256117
0.00842938
1.58514
1.50874
1.32055
1.13204
0.954248
0.797787
0.663754
0.549554
0.452741
0.371067
0.302462
0.245013
0.196969
0.156739
0.122898
0.0941708
0.0694239
0.047628
0.027857
0.0091639
1.63626
1.57699
1.3824
1.19055
1.00794
0.846291
0.706788
0.586966
0.484694
0.39796
0.324815
0.263383
0.211893
0.168704
0.132327
0.101418
0.0747707
0.0512907
0.0299889
0.00986095
1.66546
1.63419
1.43421
1.24172
1.05589
0.890399
0.746427
0.621712
0.514532
0.423165
0.345818
0.280675
0.225959
0.179993
0.141229
0.108261
0.0798204
0.0547495
0.0320014
0.0105186
1.67595
1.68164
1.4761
1.28595
1.09837
0.930308
0.782779
0.65383
0.54225
0.446656
0.365438
0.296853
0.239135
0.190575
0.149578
0.114682
0.0845582
0.0579942
0.0338887
0.0111351
1.65463
1.71779
1.50772
1.32364
1.13567
0.966251
0.815971
0.683374
0.567855
0.468416
0.383645
0.311887
0.25139
0.200424
0.157352
0.12066
0.0889704
0.0610155
0.0356455
0.0117086
1.59371
1.74263
1.52917
1.35532
1.1682
0.998508
0.846151
0.710401
0.591358
0.48843
0.400415
0.325747
0.262695
0.209514
0.164528
0.126181
0.0930443
0.0638046
0.0372668
0.0122377
1.49375
1.76016
1.54171
1.38183
1.19648
1.02741
0.873481
0.734977
0.612772
0.506687
0.415725
0.338407
0.273027
0.217823
0.171089
0.131228
0.0967683
0.0663538
0.0387482
0.012721
1.32704
1.75445
1.54376
1.4038
1.22117
1.05331
0.898127
0.757167
0.632113
0.523179
0.429556
0.349846
0.282361
0.22533
0.177017
0.135787
0.100132
0.0686557
0.0400855
0.0131571
1.16705
1.77636
1.5444
1.42364
1.24329
1.07664
0.92025
0.777026
0.649391
0.537895
0.44189
0.360041
0.290678
0.232016
0.182295
0.139846
0.103126
0.0707038
0.041275
0.0135448
1.00278
1.73028
1.54229
1.44201
1.26369
1.09776
0.939986
0.794602
0.664615
0.550827
0.452708
0.368973
0.297959
0.237866
0.18691
0.143393
0.105741
0.0724923
0.0423134
0.013883
1.11193
1.72868
1.54668
1.45531
1.27745
1.11123
0.952202
0.805329
0.673837
0.558624
0.459211
0.374331
0.302319
0.241365
0.189668
0.145512
0.107302
0.0735592
0.0429326
0.0140845
1.09545
1.71996
1.54991
1.46288
1.28522
1.11863
0.958822
0.8111
0.678777
0.56279
0.46268
0.377185
0.30464
0.243226
0.191134
0.146638
0.108131
0.0741258
0.0432614
0.0141915
1.09832
1.71066
1.55449
1.47061
1.29293
1.12573
0.965084
0.816514
0.683389
0.566667
0.465901
0.379832
0.306789
0.244949
0.192491
0.147678
0.108897
0.0746492
0.043565
0.0142903
1.09055
1.69972
1.56028
1.47851
1.30059
1.13254
0.970986
0.82157
0.687671
0.570254
0.468874
0.382271
0.308767
0.246532
0.193736
0.148633
0.1096
0.0751293
0.0438434
0.014381
1.07915
1.68782
1.56733
1.48658
1.30819
1.13905
0.976526
0.826266
0.691622
0.573549
0.471598
0.3845
0.310573
0.247976
0.194871
0.149503
0.110239
0.0755659
0.0440965
0.0144633
1.06511
1.67657
1.57567
1.49484
1.31572
1.14525
0.981701
0.8306
0.695241
0.576553
0.474071
0.386519
0.312205
0.249279
0.195894
0.150286
0.110815
0.0759587
0.0443242
0.0145374
1.05185
1.67032
1.58526
1.50319
1.32313
1.15114
0.986504
0.834569
0.698526
0.579262
0.476293
0.388328
0.313663
0.250441
0.196804
0.150983
0.111327
0.0763075
0.0445262
0.0146032
1.02818
1.67502
1.59609
1.51144
1.33035
1.15669
0.990928
0.83817
0.701475
0.581677
0.478263
0.389924
0.314946
0.251461
0.197603
0.151592
0.111774
0.0766123
0.0447026
0.0146607
1.03474
1.69144
1.60824
1.51942
1.3373
1.16186
0.994964
0.8414
0.704087
0.583796
0.479979
0.391308
0.316054
0.252339
0.198288
0.152115
0.112157
0.0768728
0.0448533
0.0147098
0.942418
1.7073
1.62151
1.5271
1.34396
1.16667
0.998607
0.844256
0.70636
0.585619
0.481442
0.392479
0.316986
0.253074
0.19886
0.15255
0.112475
0.0770889
0.0449781
0.0147505
1.14434
1.74208
1.65233
1.54311
1.35776
1.17629
1.00566
0.849644
0.710561
0.588933
0.484068
0.394561
0.318631
0.254363
0.199858
0.153305
0.113025
0.0774623
0.0451935
0.0148209
1.38683
1.83124
1.70406
1.56158
1.37178
1.18548
1.0116
0.853533
0.713129
0.590648
0.485226
0.395349
0.31917
0.254734
0.200112
0.153478
0.11314
0.0775353
0.0452336
0.0148339
1.62108
1.85904
1.73037
1.57283
1.37974
1.18929
1.0125
0.852861
0.711687
0.588907
0.483456
0.393694
0.317701
0.253479
0.199077
0.152656
0.11252
0.0771046
0.0449811
0.0147514
1.85324
1.92413
1.76068
1.57997
1.38068
1.18667
1.00789
0.847424
0.706136
0.583662
0.478733
0.389584
0.314218
0.250598
0.196754
0.150842
0.111167
0.0761712
0.0444366
0.0145737
1.87807
1.91109
1.75936
1.57459
1.37301
1.17726
0.997552
0.837067
0.696387
0.574864
0.471036
0.383011
0.308722
0.246095
0.193148
0.148039
0.109083
0.0747383
0.043602
0.0143014
1.97876
1.92937
1.75723
1.56149
1.35723
1.16078
0.981228
0.821642
0.682357
0.562474
0.46035
0.373976
0.301221
0.239981
0.18827
0.144258
0.106278
0.0728118
0.0424808
0.0139356
1.97779
1.90521
1.73543
1.5372
1.33257
1.13689
0.958706
0.801019
0.663976
0.546462
0.44667
0.362489
0.29173
0.232273
0.182138
0.139513
0.102763
0.0703997
0.0410775
0.0134777
1.97006
1.87506
1.70235
1.50258
1.29895
1.10539
0.929813
0.775086
0.641188
0.526811
0.430005
0.348569
0.280275
0.222998
0.174774
0.133826
0.0985544
0.067513
0.0393984
0.0129298
1.94165
1.83071
1.65636
1.45717
1.25611
1.06607
0.894398
0.743758
0.613959
0.503522
0.410375
0.332249
0.266892
0.21219
0.166211
0.12722
0.0936704
0.064165
0.0374512
0.0122942
1.88942
1.77113
1.5972
1.40065
1.20378
1.01874
0.852333
0.706969
0.582272
0.476612
0.387817
0.313573
0.251627
0.199892
0.156484
0.119727
0.0881346
0.0603717
0.0352451
0.0115739
1.82352
1.69797
1.52504
1.33273
1.14169
0.963211
0.803517
0.66468
0.546135
0.446118
0.362384
0.2926
0.234537
0.186155
0.145639
0.111383
0.0819743
0.0561519
0.0327907
0.0107723
1.73073
1.60728
1.43864
1.25283
1.06952
0.899314
0.747867
0.616879
0.505581
0.412099
0.334147
0.269404
0.215691
0.171043
0.133727
0.102228
0.0752211
0.0515272
0.0301002
0.00989319
1.63231
1.50378
1.33877
1.16075
0.986997
0.82689
0.685331
0.56358
0.46067
0.374639
0.303198
0.244076
0.195173
0.154627
0.120809
0.0923118
0.0679104
0.0465217
0.0271875
0.00894091
1.49671
1.37686
1.22175
1.05522
0.893642
0.74576
0.615873
0.504832
0.411491
0.333847
0.269651
0.216722
0.173079
0.136989
0.106953
0.0816868
0.0600822
0.0411626
0.0240676
0.00792024
1.3556
1.23816
1.09112
0.93683
0.789403
0.655861
0.539515
0.440722
0.358172
0.289863
0.233642
0.187467
0.149519
0.118222
0.0922341
0.0704128
0.0517803
0.0354795
0.0207573
0.00683634
1.17719
1.06965
0.938545
0.802487
0.67323
0.5569
0.456256
0.371367
0.30087
0.242855
0.195332
0.156458
0.124617
0.0984311
0.0767369
0.058555
0.0430531
0.0295048
0.0172745
0.00569474
0.973858
0.883195
0.771165
0.655043
0.546078
0.449249
0.366332
0.296984
0.239804
0.19303
0.154909
0.123858
0.0985138
0.0777306
0.0605533
0.0461846
0.0339526
0.0232735
0.0136384
0.00450123
0.74733
0.670735
0.579894
0.489028
0.405447
0.331977
0.269544
0.217677
0.175178
0.140612
0.112583
0.0898502
0.0713622
0.0562462
0.0437832
0.0333784
0.024535
0.0168229
0.009869
0.00326173
0.472898
0.422919
0.36484
0.307073
0.25363
0.206593
0.166838
0.134067
0.107435
0.0859391
0.0686208
0.0546493
0.0433349
0.0341154
0.0265343
0.0202187
0.0148599
0.0101925
0.00598702
0.00198204
0.17251
0.154247
0.132182
0.110043
0.089761
0.0722404
0.0577304
0.0460059
0.0366357
0.0291695
0.0232123
0.0184406
0.0145966
0.0114766
0.0089185
0.0067922
0.0049911
0.00342434
0.00201377
0.000667724
-0.104494
0.111539
0.606547
0.89188
1.00151
1.05109
1.09293
1.1237
1.14222
1.1393
2.28992
2.10338
2.03151
1.97843
1.91509
1.84043
1.76504
1.69708
1.63818
1.58925
1.90198
1.74778
1.66898
1.64611
1.6399
1.63403
1.62517
1.61621
1.60988
1.60858
2.23943
2.18142
2.13173
2.0953
2.06814
2.04459
2.02108
1.99701
1.97334
1.95148
2.17609
2.12533
2.07515
2.03499
2.00541
1.98349
1.96541
1.94931
1.9348
1.92246
2.16566
2.14102
2.11589
2.0956
2.0807
2.06956
2.05985
2.05025
2.04035
2.03034
2.14487
2.13079
2.11505
2.10031
2.08722
2.0754
2.06401
2.05257
2.04099
2.02963
2.10833
2.09782
2.08596
2.07465
2.0643
2.05465
2.04515
2.03557
2.02591
2.01634
2.05777
2.05185
2.04435
2.03664
2.02919
2.02178
2.01403
2.00582
1.99722
1.98833
1.99035
1.98449
1.97832
1.97283
1.9676
1.96198
1.95556
1.94834
1.94035
1.93181
1.93379
1.93149
1.92746
1.92203
1.91567
1.90865
1.90097
1.89264
1.88382
1.87448
1.81225
1.80922
1.80571
1.80269
1.79964
1.79575
1.79064
1.78441
1.77719
1.76929
1.73419
1.73471
1.73333
1.72992
1.72487
1.71867
1.7116
1.70374
1.6952
1.68579
1.58072
1.57815
1.57474
1.57147
1.56798
1.56362
1.55803
1.55132
1.54373
1.53552
1.41549
1.41821
1.42051
1.42134
1.42048
1.41819
1.41475
1.41029
1.40476
1.39807
1.2647
1.26356
1.26027
1.2561
1.25159
1.24645
1.24041
1.23346
1.22581
1.21753
1.04102
1.03687
1.03412
1.03236
1.03007
1.0266
1.0222
1.01724
1.01173
1.0057
0.811635
0.812363
0.811949
0.809637
0.806093
0.802077
0.797745
0.792963
0.787587
0.781606
0.524193
0.521814
0.519112
0.516589
0.514034
0.511086
0.507584
0.503549
0.499079
0.494324
0.190565
0.191274
0.191332
0.190836
0.190101
0.189167
0.188076
0.186838
0.1855
0.183916
1.47733
1.48702
1.50549
1.54091
1.5889
1.6329
1.70018
1.78524
1.87726
1.96141
2.08416
2.20445
2.36174
2.50172
2.70451
2.83727
3.06475
3.03033
3.07274
1.81137
1.47446
1.48409
1.50161
1.53729
1.58469
1.62722
1.69133
1.77803
1.86472
1.94725
2.05754
2.18057
2.31321
2.45196
2.594
2.73933
2.83853
2.94541
2.83105
2.96423
1.46172
1.47133
1.48807
1.52295
1.56989
1.61096
1.672
1.75696
1.84035
1.91731
2.01981
2.13418
2.25562
2.37471
2.49618
2.60371
2.66182
2.69207
2.5372
2.37982
1.43939
1.44889
1.4648
1.49879
1.54473
1.58447
1.64185
1.7249
1.8035
1.87674
1.9688
2.07797
2.18358
2.29214
2.38867
2.47998
2.51227
2.53259
2.42944
2.36543
1.40773
1.41697
1.4322
1.46508
1.50962
1.54756
1.60225
1.68241
1.75667
1.82409
1.90942
2.01216
2.10898
2.20436
2.28711
2.36344
2.39228
2.40534
2.34513
2.27199
1.36702
1.37596
1.39047
1.42218
1.46522
1.5012
1.5529
1.63001
1.70118
1.76368
1.8414
1.936
2.0276
2.11896
2.19964
2.26781
2.2986
2.30664
2.27067
2.21323
1.31758
1.32613
1.33989
1.37043
1.41191
1.44612
1.49532
1.56851
1.63546
1.69506
1.77076
1.85819
1.9368
2.01223
2.08439
2.15129
2.19279
2.21148
2.20028
2.17099
1.25979
1.26796
1.28085
1.31015
1.35004
1.38221
1.42952
1.50046
1.56338
1.61703
1.68873
1.77955
1.87135
1.96065
2.04037
2.10143
2.13544
2.14968
2.14519
2.12712
1.19391
1.2017
1.21397
1.24203
1.28001
1.3102
1.3552
1.42364
1.48494
1.53688
1.60221
1.67296
1.73414
1.79488
1.86306
1.93677
2.00287
2.04887
2.06835
2.06764
1.12047
1.12769
1.13892
1.16625
1.20308
1.231
1.27353
1.33904
1.3969
1.44695
1.51817
1.60921
1.70665
1.80353
1.8885
1.94734
1.97598
1.99153
2.0003
1.99924
1.03958
1.04665
1.05715
1.08253
1.11748
1.14445
1.18582
1.24918
1.30459
1.35097
1.40887
1.46875
1.51486
1.55659
1.61841
1.70625
1.80196
1.87184
1.91684
1.93466
0.951827
0.958063
0.967935
0.993082
1.02592
1.04968
1.08849
1.14973
1.20265
1.25006
1.31899
1.41121
1.51176
1.60508
1.67208
1.70481
1.73209
1.77221
1.80171
1.81554
0.857766
0.863758
0.872137
0.89489
0.926687
0.949774
0.986944
1.04532
1.09674
1.13886
1.19691
1.26963
1.34271
1.41046
1.47162
1.53142
1.59152
1.65283
1.70202
1.72853
0.757345
0.762408
0.77067
0.79284
0.82068
0.839902
0.876023
0.931054
0.976188
1.01587
1.08064
1.15738
1.21503
1.25984
1.31387
1.38769
1.46177
1.52305
1.56296
1.58232
0.651764
0.656612
0.662467
0.683049
0.710281
0.7267
0.757858
0.811055
0.852659
0.886422
0.943542
1.03527
1.14369
1.22974
1.2741
1.30295
1.33149
1.3599
1.38687
1.40778
0.540586
0.544703
0.550708
0.568488
0.591022
0.606626
0.635248
0.67958
0.715809
0.750906
0.801056
0.861341
0.929777
1.01088
1.10093
1.16888
1.21428
1.24319
1.26074
1.26644
0.425586
0.427762
0.432564
0.449075
0.466966
0.478458
0.506922
0.545481
0.570398
0.593851
0.649518
0.717508
0.765658
0.814798
0.880682
0.944206
0.991473
1.02243
1.04008
1.04613
0.307069
0.308969
0.311205
0.324947
0.339582
0.345428
0.368259
0.402679
0.420253
0.433072
0.474103
0.536295
0.596963
0.641738
0.676922
0.714248
0.753108
0.784519
0.803563
0.810935
0.185455
0.186663
0.188544
0.197629
0.205493
0.209589
0.22766
0.250631
0.255151
0.260585
0.293753
0.347715
0.400967
0.434416
0.451017
0.468655
0.491412
0.510849
0.522649
0.527133
0.0621079
0.0624214
0.0634053
0.0672716
0.0684874
0.0690873
0.0777445
0.0870374
0.0862586
0.0856874
0.10023
0.13239
0.163521
0.180057
0.183296
0.183322
0.185455
0.188605
0.190772
0.190657
1.41383
1.42335
1.44238
1.4759
1.52375
1.56852
1.63618
1.71617
1.81095
1.8935
2.0191
2.13423
2.30147
2.43908
2.6657
2.79004
3.11964
3.08532
3.74643
2.56378
1.42384
1.43354
1.45272
1.4861
1.53429
1.57981
1.64755
1.72764
1.82355
1.90736
2.03387
2.15038
2.32116
2.46362
2.69875
2.84511
3.19677
3.26665
3.91863
3.40774
1.433
1.44282
1.46209
1.49546
1.54391
1.58994
1.65779
1.7381
1.83484
1.91962
2.04683
2.16468
2.33789
2.48501
2.72598
2.89314
3.261
3.41732
4.12751
4.01103
1.44128
1.45119
1.47056
1.50397
1.55255
1.59896
1.66694
1.74751
1.84477
1.9303
2.05805
2.17689
2.3518
2.50237
2.74747
2.93153
3.30883
3.54014
4.23805
4.41062
1.44868
1.45867
1.4781
1.51156
1.56022
1.6069
1.67496
1.75582
1.85336
1.9394
2.06746
2.18697
2.36277
2.51539
2.76305
2.95721
3.34229
3.61532
4.33198
4.66165
1.45522
1.46525
1.48467
1.51825
1.56698
1.61376
1.6818
1.76303
1.86063
1.94693
2.07505
2.19492
2.37076
2.52408
2.77196
2.97076
3.35634
3.65101
4.37167
4.76446
1.46089
1.47094
1.49028
1.52403
1.57281
1.61952
1.68748
1.76912
1.86656
1.95289
2.08086
2.20072
2.37592
2.52824
2.77476
2.97094
3.35251
3.64268
4.3594
4.72009
1.46568
1.47572
1.49496
1.52891
1.57766
1.6242
1.69205
1.77412
1.87111
1.9573
2.08491
2.20453
2.37827
2.52825
2.77149
2.95816
3.33068
3.58638
4.33317
4.58893
1.46959
1.47958
1.49871
1.53293
1.58151
1.62772
1.69553
1.7781
1.87426
1.96014
2.08717
2.2065
2.37783
2.52494
2.76193
2.93745
3.28886
3.49401
4.16624
4.20067
1.47264
1.48253
1.50149
1.53611
1.58443
1.63009
1.69783
1.7811
1.87608
1.96144
2.08768
2.20632
2.37501
2.51688
2.74796
2.90315
3.23954
3.35901
4.09953
3.61314
)
;

boundaryField
{
    inlet
    {
        type            zeroGradient;
    }
    outlet
    {
        type            fixedValue;
        value           uniform 0;
    }
    upAndBottom
    {
        type            empty;
    }
    obstacle
    {
        type            zeroGradient;
    }
}


// ************************************************************************* //
