x,y,z,U_0,U_1,U_2
0,0,0,0.298478,0.00555424,0
0,0.1,0,0.298913,0.00396731,0
0,0.2,0,0.299348,0.00238039,0
0,0.3,0,0.299783,0.000793463,0
0,0.4,0,0.3,0,0
0,0.5,0,0.3,0,0
0,0.6,0,0.3,0,0
0,0.7,0,0.3,0,0
0,0.8,0,0.3,0,0
0,0.9,0,0.3,0,0
0,1,0,0.3,0,0
0,1.1,0,0.3,0,0
0,1.2,0,0.3,0,0
0,1.3,0,0.3,0,0
0,1.4,0,0.3,0,0
0,1.5,0,0.3,0,0
0,1.6,0,0.3,0,0
0,1.7,0,0.3,0,0
0,1.8,0,0.3,0,0
0,1.9,0,0.3,0,0
0,2,0,0.3,0,0
0,2.1,0,0.3,0,0
0,2.2,0,0.3,0,0
0,2.3,0,0.3,0,0
0,2.4,0,0.3,0,0
0,2.5,0,0.3,0,0
0,2.6,0,0.3,0,0
0,2.7,0,0.3,0,0
0,2.8,0,0.3,0,0
0,2.9,0,0.3,0,0
0,3,0,0.3,0,0
0,3.1,0,0.3,0,0
0,3.2,0,0.3,0,0
0,3.3,0,0.3,0,0
0,3.4,0,0.3,0,0
0,3.5,0,0.3,0,0
0,3.6,0,0.3,0,0
0,3.7,0,0.3,0,0
0,3.8,0,0.3,0,0
0,3.9,0,0.3,0,0
0,4,0,0.3,0,0
0,4.1,0,0.3,0,0
0,4.2,0,0.3,0,0
0,4.3,0,0.3,0,0
0,4.4,0,0.3,0,0
0,4.5,0,0.3,0,0
0,4.6,0,0.3,0,0
0,4.7,0,0.3,0,0
0,4.8,0,0.3,0,0
0,4.9,0,0.3,0,0
0,5,0,0.3,0,0
0,5.1,0,0.3,0,0
0,5.2,0,0.3,0,0
0,5.3,0,0.3,0,0
0,5.4,0,0.3,0,0
0,5.5,0,0.3,0,0
0,5.6,0,0.3,0,0
0,5.7,0,0.3,0,0
0,5.8,0,0.3,0,0
0,5.9,0,0.3,0,0
0,6,0,0.3,0,0
0,6.1,0,0.3,0,0
0,6.2,0,0.3,0,0
0,6.3,0,0.3,0,0
0,6.4,0,0.3,0,0
0,6.5,0,0.3,0,0
0,6.6,0,0.3,0,0
0,6.7,0,0.3,0,0
0,6.8,0,0.3,0,0
0,6.9,0,0.3,0,0
0,7,0,0.3,0,0
0,7.1,0,0.3,0,0
0,7.2,0,0.3,0,0
0,7.3,0,0.3,0,0
0,7.4,0,0.3,0,0
0,7.5,0,0.3,0,0
0,7.6,0,0.3,0,0
0,7.7,0,0.3,0,0
0,7.8,0,0.3,0,0
0,7.9,0,0.3,0,0
0,8,0,0.3,0,0
0,8.1,0,0.3,0,0
0,8.2,0,0.3,0,0
0,8.3,0,0.3,0,0
0,8.4,0,0.3,0,0
0,8.5,0,0.3,0,0
0,8.6,0,0.3,0,0
0,8.7,0,0.3,0,0
0,8.8,0,0.3,0,0
0,8.9,0,0.3,0,0
0,9,0,0.3,0,0
0,9.1,0,0.3,0,0
0,9.2,0,0.3,0,0
0,9.3,0,0.3,0,0
0,9.4,0,0.3,0,0
0,9.5,0,0.3,0,0
0,9.6,0,0.3,0,0
0,9.7,0,0.3,0,0
0,9.8,0,0.3,0,0
0,9.9,0,0.3,0,0
0,10,0,0.3,0,0
0,10.1,0,0.3,0,0
0,10.2,0,0.3,0,0
0,10.3,0,0.3,0,0
0,10.4,0,0.3,0,0
0,10.5,0,0.3,0,0
0,10.6,0,0.3,0,0
0,10.7,0,0.3,0,0
0,10.8,0,0.3,0,0
0,10.9,0,0.3,0,0
0,11,0,0.3,0,0
0,11.1,0,0.3,0,0
0,11.2,0,0.3,0,0
0,11.3,0,0.3,0,0
0,11.4,0,0.3,0,0
0,11.5,0,0.3,0,0
0,11.6,0,0.3,0,0
0,11.7,0,0.3,0,0
0,11.8,0,0.3,0,0
0,11.9,0,0.3,0,0
0,12,0,0.3,0,0
0,12.1,0,0.3,0,0
0,12.2,0,0.3,0,0
0,12.3,0,0.3,0,0
0,12.4,0,0.3,0,0
0,12.5,0,0.299794,-0.000778895,0
0,12.6,0,0.299205,-0.00300431,0
0,12.7,0,0.298617,-0.00522972,0
0.1,0,0,0.299088,0.00232905,0
0.1,0.1,0,0.29829,0.00623966,0
0.1,0.2,0,0.298725,0.00465274,0
0.1,0.3,0,0.29916,0.00306581,0
0.1,0.4,0,0.298922,0.0022761,0
0.1,0.5,0,0.298922,0.0022761,0
0.1,0.6,0,0.298922,0.0022761,0
0.1,0.7,0,0.300264,-0.00217517,0
0.1,0.8,0,0.299028,0.0021525,0
0.1,0.9,0,0.299028,0.0021525,0
0.1,1,0,0.299028,0.0021525,0
0.1,1.1,0,0.29869,0.00172089,0
0.1,1.2,0,0.29869,0.00172089,0
0.1,1.3,0,0.29869,0.00172089,0
0.1,1.4,0,0.300113,-0.00173996,0
0.1,1.5,0,0.298558,0.00161114,0
0.1,1.6,0,0.298558,0.00161114,0
0.1,1.7,0,0.298558,0.00161114,0
0.1,1.8,0,0.298449,0.00133407,0
0.1,1.9,0,0.298449,0.00133407,0
0.1,2,0,0.298449,0.00133407,0
0.1,2.1,0,0.300026,-0.00135449,0
0.1,2.2,0,0.29835,0.00119402,0
0.1,2.3,0,0.29835,0.00119402,0
0.1,2.4,0,0.29835,0.00119402,0
0.1,2.5,0,0.298266,0.00103001,0
0.1,2.6,0,0.298266,0.00103001,0
0.1,2.7,0,0.298266,0.00103001,0
0.1,2.8,0,0.299973,-0.00103496,0
0.1,2.9,0,0.298201,0.000889024,0
0.1,3,0,0.298201,0.000889024,0
0.1,3.1,0,0.298201,0.000889024,0
0.1,3.2,0,0.298148,0.000762355,0
0.1,3.3,0,0.298148,0.000762355,0
0.1,3.4,0,0.298148,0.000762355,0
0.1,3.5,0,0.299941,-0.000763392,0
0.1,3.6,0,0.298106,0.000643475,0
0.1,3.7,0,0.298106,0.000643475,0
0.1,3.8,0,0.298106,0.000643475,0
0.1,3.9,0,0.298074,0.000531447,0
0.1,4,0,0.298074,0.000531447,0
0.1,4.1,0,0.298074,0.000531447,0
0.1,4.2,0,0.299923,-0.000535635,0
0.1,4.3,0,0.298049,0.000423588,0
0.1,4.4,0,0.298049,0.000423588,0
0.1,4.5,0,0.298049,0.000423588,0
0.1,4.6,0,0.298032,0.000318162,0
0.1,4.7,0,0.298032,0.000318162,0
0.1,4.8,0,0.298032,0.000318162,0
0.1,4.9,0,0.299916,-0.000338382,0
0.1,5,0,0.29802,0.000213325,0
0.1,5.1,0,0.29802,0.000213325,0
0.1,5.2,0,0.29802,0.000213325,0
0.1,5.3,0,0.298014,0.00010789,0
0.1,5.4,0,0.298014,0.00010789,0
0.1,5.5,0,0.298014,0.00010789,0
0.1,5.6,0,0.299916,-0.000158353,0
0.1,5.7,0,0.298013,1.07978e-06,0
0.1,5.8,0,0.298013,1.07978e-06,0
0.1,5.9,0,0.298013,1.07978e-06,0
0.1,6,0,0.298017,-0.000111644,0
0.1,6.1,0,0.298017,-0.000111644,0
0.1,6.2,0,0.298017,-0.000111644,0
0.1,6.3,0,0.29992,1.70965e-05,0
0.1,6.4,0,0.298025,-0.000212892,0
0.1,6.5,0,0.298025,-0.000212892,0
0.1,6.6,0,0.298025,-0.000212892,0
0.1,6.7,0,0.298025,-0.00035804,0
0.1,6.8,0,0.298025,-0.00035804,0
0.1,6.9,0,0.298025,-0.00035804,0
0.1,7,0,0.299917,0.000185892,0
0.1,7.1,0,0.299919,0.000218889,0
0.1,7.2,0,0.29992,0.000235224,0
0.1,7.3,0,0.29992,0.000251092,0
0.1,7.4,0,0.29992,0.000267432,0
0.1,7.5,0,0.29992,0.000284165,0
0.1,7.6,0,0.299921,0.000301181,0
0.1,7.7,0,0.299922,0.000318433,0
0.1,7.8,0,0.299924,0.000335915,0
0.1,7.9,0,0.299925,0.000354135,0
0.1,8,0,0.299927,0.000381994,0
0.1,8.1,0,0.298056,-0.000318838,0
0.1,8.2,0,0.298056,-0.000318838,0
0.1,8.3,0,0.298079,-0.000381287,0
0.1,8.4,0,0.298079,-0.000381287,0
0.1,8.5,0,0.298106,-0.000445664,0
0.1,8.6,0,0.298106,-0.000445664,0
0.1,8.7,0,0.299619,0.000394906,0
0.1,8.8,0,0.298133,-0.000513784,0
0.1,8.9,0,0.298133,-0.000513784,0
0.1,9,0,0.29816,-0.000587598,0
0.1,9.1,0,0.29816,-0.000587598,0
0.1,9.2,0,0.29836,-0.000532105,0
0.1,9.3,0,0.298189,-0.000666701,0
0.1,9.4,0,0.299333,0.000285451,0
0.1,9.5,0,0.298222,-0.000750586,0
0.1,9.6,0,0.298222,-0.000750586,0
0.1,9.7,0,0.29826,-0.000839438,0
0.1,9.8,0,0.29826,-0.000839438,0
0.1,9.9,0,0.298774,-0.000395286,0
0.1,10,0,0.298304,-0.000933708,0
0.1,10.1,0,0.299088,3.75365e-06,0
0.1,10.2,0,0.298353,-0.00103403,0
0.1,10.3,0,0.298353,-0.00103403,0
0.1,10.4,0,0.29841,-0.00114161,0
0.1,10.5,0,0.29841,-0.00114161,0
0.1,10.6,0,0.299196,-6.89115e-05,0
0.1,10.7,0,0.298474,-0.00125731,0
0.1,10.8,0,0.298917,-0.000504733,0
0.1,10.9,0,0.298547,-0.00138344,0
0.1,11,0,0.298547,-0.00138344,0
0.1,11.1,0,0.298628,-0.00152067,0
0.1,11.2,0,0.298628,-0.00152067,0
0.1,11.3,0,0.299624,0.000499534,0
0.1,11.4,0,0.298722,-0.0016709,0
0.1,11.5,0,0.298861,-0.00133181,0
0.1,11.6,0,0.298826,-0.00183909,0
0.1,11.7,0,0.298826,-0.00183909,0
0.1,11.8,0,0.298928,-0.00202033,0
0.1,11.9,0,0.298928,-0.00202033,0
0.1,12,0,0.300058,0.0013709,0
0.1,12.1,0,0.299063,-0.00223538,0
0.1,12.2,0,0.299063,-0.00223538,0
0.1,12.3,0,0.299172,-0.00244593,0
0.1,12.4,0,0.299172,-0.00244593,0
0.1,12.5,0,0.299215,-0.00296632,0
0.1,12.6,0,0.298627,-0.00519173,0
0.1,12.7,0,0.299228,-0.00204638,0
0.2,0,0,0.299698,-0.000896145,0
0.2,0.1,0,0.297667,0.00851201,0
0.2,0.2,0,0.298102,0.00692509,0
0.2,0.3,0,0.299308,0.00164166,0
0.2,0.4,0,0.298972,0.00085275,0
0.2,0.5,0,0.297844,0.00455219,0
0.2,0.6,0,0.297844,0.00455219,0
0.2,0.7,0,0.300529,-0.00435035,0
0.2,0.8,0,0.298056,0.004305,0
0.2,0.9,0,0.298056,0.004305,0
0.2,1,0,0.298967,0.00108288,0
0.2,1.1,0,0.298556,0.000558787,0
0.2,1.2,0,0.29738,0.00344178,0
0.2,1.3,0,0.29738,0.00344178,0
0.2,1.4,0,0.300227,-0.00347993,0
0.2,1.5,0,0.297117,0.00322229,0
0.2,1.6,0,0.297117,0.00322229,0
0.2,1.7,0,0.298304,0.000743153,0
0.2,1.8,0,0.298172,0.00040671,0
0.2,1.9,0,0.296899,0.00266815,0
0.2,2,0,0.296899,0.00266815,0
0.2,2.1,0,0.300052,-0.00270898,0
0.2,2.2,0,0.296699,0.00238804,0
0.2,2.3,0,0.296699,0.00238804,0
0.2,2.4,0,0.297994,0.000517904,0
0.2,2.5,0,0.297892,0.00031875,0
0.2,2.6,0,0.296532,0.00206002,0
0.2,2.7,0,0.296532,0.00206002,0
0.2,2.8,0,0.299946,-0.00206992,0
0.2,2.9,0,0.296403,0.00177805,0
0.2,3,0,0.296403,0.00177805,0
0.2,3.1,0,0.29778,0.00037856,0
0.2,3.2,0,0.297716,0.000224748,0
0.2,3.3,0,0.296296,0.00152471,0
0.2,3.4,0,0.296296,0.00152471,0
0.2,3.5,0,0.299881,-0.00152678,0
0.2,3.6,0,0.296213,0.00128695,0
0.2,3.7,0,0.296213,0.00128695,0
0.2,3.8,0,0.297646,0.000274691,0
0.2,3.9,0,0.297606,0.000138657,0
0.2,4,0,0.296148,0.00106289,0
0.2,4.1,0,0.296148,0.00106289,0
0.2,4.2,0,0.299846,-0.00107127,0
0.2,4.3,0,0.296098,0.000847176,0
0.2,4.4,0,0.296098,0.000847176,0
0.2,4.5,0,0.297567,0.000173358,0
0.2,4.6,0,0.297545,4.53409e-05,0
0.2,4.7,0,0.296063,0.000636325,0
0.2,4.8,0,0.296063,0.000636325,0
0.2,4.9,0,0.299831,-0.000676765,0
0.2,5,0,0.29604,0.00042665,0
0.2,5.1,0,0.29604,0.00042665,0
0.2,5.2,0,0.297529,6.48579e-05,0
0.2,5.3,0,0.297521,-6.31701e-05,0
0.2,5.4,0,0.296027,0.00021578,0
0.2,5.5,0,0.296027,0.00021578,0
0.2,5.6,0,0.299832,-0.000316707,0
0.2,5.7,0,0.296025,2.15957e-06,0
0.2,5.8,0,0.296025,2.15957e-06,0
0.2,5.9,0,0.297522,-5.44528e-05,0
0.2,6,0,0.297527,-0.000191332,0
0.2,6.1,0,0.296033,-0.000223288,0
0.2,6.2,0,0.296033,-0.000223288,0
0.2,6.3,0,0.299839,3.4193e-05,0
0.2,6.4,0,0.29605,-0.000425784,0
0.2,6.5,0,0.29605,-0.000425784,0
0.2,6.6,0,0.297537,-0.000171122,0
0.2,6.7,0,0.297538,-0.000347373,0
0.2,6.8,0,0.296051,-0.00071608,0
0.2,6.9,0,0.296051,-0.00071608,0
0.2,7,0,0.299834,0.000371784,0
0.2,7.1,0,0.299839,0.000437779,0
0.2,7.2,0,0.29984,0.000470447,0
0.2,7.3,0,0.29984,0.000502184,0
0.2,7.4,0,0.29984,0.000534865,0
0.2,7.5,0,0.29984,0.00056833,0
0.2,7.6,0,0.299842,0.000602361,0
0.2,7.7,0,0.299844,0.000636866,0
0.2,7.8,0,0.299847,0.00067183,0
0.2,7.9,0,0.299851,0.00070827,0
0.2,8,0,0.299855,0.000763988,0
0.2,8.1,0,0.296113,-0.000637675,0
0.2,8.2,0,0.29749,-8.46299e-05,0
0.2,8.3,0,0.296159,-0.000762574,0
0.2,8.4,0,0.296159,-0.000762574,0
0.2,8.5,0,0.297893,-2.11193e-05,0
0.2,8.6,0,0.296213,-0.000891327,0
0.2,8.7,0,0.299573,0.000975393,0
0.2,8.8,0,0.296265,-0.00102757,0
0.2,8.9,0,0.297278,-0.000379382,0
0.2,9,0,0.296319,-0.0011752,0
0.2,9.1,0,0.296319,-0.0011752,0
0.2,9.2,0,0.298332,0.000206972,0
0.2,9.3,0,0.296378,-0.0013334,0
0.2,9.4,0,0.299315,0.00111045,0
0.2,9.5,0,0.296444,-0.00150117,0
0.2,9.6,0,0.297103,-0.000880573,0
0.2,9.7,0,0.296538,-0.0016602,0
0.2,9.8,0,0.29652,-0.00167888,0
0.2,9.9,0,0.298777,0.000617609,0
0.2,10,0,0.296607,-0.00186742,0
0.2,10.1,0,0.299105,0.00111938,0
0.2,10.2,0,0.296706,-0.00206806,0
0.2,10.3,0,0.297028,-0.00163551,0
0.2,10.4,0,0.29713,-0.00183008,0
0.2,10.5,0,0.296819,-0.00228322,0
0.2,10.6,0,0.299249,0.00127167,0
0.2,10.7,0,0.296948,-0.00251461,0
0.2,10.8,0,0.298992,0.0009588,0
0.2,10.9,0,0.297094,-0.00276688,0
0.2,11,0,0.297111,-0.00273521,0
0.2,11.1,0,0.297806,-0.00188211,0
0.2,11.2,0,0.297257,-0.00304134,0
0.2,11.3,0,0.299758,0.00222898,0
0.2,11.4,0,0.297443,-0.0033418,0
0.2,11.5,0,0.299034,0.000538899,0
0.2,11.6,0,0.297652,-0.00367818,0
0.2,11.7,0,0.297652,-0.00367818,0
0.2,11.8,0,0.298571,-0.00180549,0
0.2,11.9,0,0.297856,-0.00404066,0
0.2,12,0,0.300337,0.003538,0
0.2,12.1,0,0.298126,-0.00447077,0
0.2,12.2,0,0.299298,-0.00030522,0
0.2,12.3,0,0.298345,-0.00489186,0
0.2,12.4,0,0.298345,-0.00489186,0
0.2,12.5,0,0.299364,-0.00172449,0
0.2,12.6,0,0.298048,-0.00737915,0
0.2,12.7,0,0.299839,0.00113695,0
0.3,0,0,0.300308,-0.00412134,0
0.3,0.1,0,0.297749,0.00764291,0
0.3,0.2,0,0.297479,0.00919743,0
0.3,0.3,0,0.299665,-0.000790623,0
0.3,0.4,0,0.29933,-0.00157953,0
0.3,0.5,0,0.296766,0.00682829,0
0.3,0.6,0,0.297533,0.00428471,0
0.3,0.7,0,0.300793,-0.00652552,0
0.3,0.8,0,0.297791,0.00398454,0
0.3,0.9,0,0.297085,0.0064575,0
0.3,1,0,0.299153,-0.000865495,0
0.3,1.1,0,0.298742,-0.00138959,0
0.3,1.2,0,0.29607,0.00516268,0
0.3,1.3,0,0.296884,0.00318504,0
0.3,1.4,0,0.300341,-0.00521989,0
0.3,1.5,0,0.296564,0.00291851,0
0.3,1.6,0,0.295675,0.00483343,0
0.3,1.7,0,0.298374,-0.000800966,0
0.3,1.8,0,0.298242,-0.00113741,0
0.3,1.9,0,0.295348,0.00400222,0
0.3,2,0,0.296249,0.0024659,0
0.3,2.1,0,0.300079,-0.00406347,0
0.3,2.2,0,0.296007,0.00212577,0
0.3,2.3,0,0.295049,0.00358206,0
0.3,2.4,0,0.297991,-0.000668251,0
0.3,2.5,0,0.297889,-0.000867405,0
0.3,2.6,0,0.294798,0.00309004,0
0.3,2.7,0,0.295773,0.00191005,0
0.3,2.8,0,0.299919,-0.00310489,0
0.3,2.9,0,0.295617,0.00156765,0
0.3,3,0,0.294604,0.00266707,0
0.3,3.1,0,0.297735,-0.000513583,0
0.3,3.2,0,0.29767,-0.000667394,0
0.3,3.3,0,0.294445,0.00228707,0
0.3,3.4,0,0.295469,0.00141521,0
0.3,3.5,0,0.299822,-0.00229018,0
0.3,3.6,0,0.295367,0.0011265,0
0.3,3.7,0,0.294319,0.00193043,0
0.3,3.8,0,0.297576,-0.000370164,0
0.3,3.9,0,0.297537,-0.000506199,0
0.3,4,0,0.294222,0.00159434,0
0.3,4.1,0,0.295278,0.00098458,0
0.3,4.2,0,0.299769,-0.00160691,0
0.3,4.3,0,0.295218,0.000722637,0
0.3,4.4,0,0.294148,0.00127076,0
0.3,4.5,0,0.297485,-0.000260641,0
0.3,4.6,0,0.297463,-0.000388658,0
0.3,4.7,0,0.294095,0.000954487,0
0.3,4.8,0,0.295171,0.000579319,0
0.3,4.9,0,0.299747,-0.00101515,0
0.3,5,0,0.295143,0.000324714,0
0.3,5.1,0,0.294059,0.000639975,0
0.3,5.2,0,0.297444,-0.00018228,0
0.3,5.3,0,0.297436,-0.000310308,0
0.3,5.4,0,0.294041,0.00032367,0
0.3,5.5,0,0.295128,0.000171531,0
0.3,5.6,0,0.299747,-0.00047506,0
0.3,5.7,0,0.295126,-8.78654e-05,0
0.3,5.8,0,0.294038,3.23935e-06,0
0.3,5.9,0,0.29744,-0.000125425,0
0.3,6,0,0.297444,-0.000262304,0
0.3,6.1,0,0.29405,-0.000334933,0
0.3,6.2,0,0.295137,-0.000261367,0
0.3,6.3,0,0.299759,5.12895e-05,0
0.3,6.4,0,0.295158,-0.000507255,0
0.3,6.5,0,0.294076,-0.000638677,0
0.3,6.6,0,0.297455,-5.98992e-05,0
0.3,6.7,0,0.297455,-0.00023615,0
0.3,6.8,0,0.294076,-0.00107412,0
0.3,6.9,0,0.295157,-0.000763302,0
0.3,7,0,0.299751,0.000557676,0
0.3,7.1,0,0.299758,0.000656668,0
0.3,7.2,0,0.299759,0.000705671,0
0.3,7.3,0,0.299759,0.000753275,0
0.3,7.4,0,0.299759,0.000802297,0
0.3,7.5,0,0.29976,0.000852495,0
0.3,7.6,0,0.299762,0.000903542,0
0.3,7.7,0,0.299766,0.0009553,0
0.3,7.8,0,0.299771,0.00100774,0
0.3,7.9,0,0.299776,0.0010624,0
0.3,8,0,0.299782,0.00114598,0
0.3,8.1,0,0.294169,-0.000956513,0
0.3,8.2,0,0.297424,0.000349957,0
0.3,8.3,0,0.295441,-0.000614411,0
0.3,8.4,0,0.29511,-0.000728772,0
0.3,8.5,0,0.297836,0.000484375,0
0.3,8.6,0,0.294319,-0.00133699,0
0.3,8.7,0,0.299526,0.00155588,0
0.3,8.8,0,0.294398,-0.00154135,0
0.3,8.9,0,0.297241,0.000278554,0
0.3,9,0,0.295975,-0.000729265,0
0.3,9.1,0,0.294999,-0.00138173,0
0.3,9.2,0,0.298304,0.000946049,0
0.3,9.3,0,0.294567,-0.0020001,0
0.3,9.4,0,0.299296,0.00193546,0
0.3,9.5,0,0.294666,-0.00225176,0
0.3,9.6,0,0.297095,3.55916e-05,0
0.3,9.7,0,0.29653,-0.000744034,0
0.3,9.8,0,0.294966,-0.00232126,0
0.3,9.9,0,0.298781,0.0016305,0
0.3,10,0,0.294911,-0.00280112,0
0.3,10.1,0,0.299122,0.00223501,0
0.3,10.2,0,0.295059,-0.00310208,0
0.3,10.3,0,0.297061,-0.000410696,0
0.3,10.4,0,0.297164,-0.000605262,0
0.3,10.5,0,0.295229,-0.00342484,0
0.3,10.6,0,0.299302,0.00261225,0
0.3,10.7,0,0.295422,-0.00377192,0
0.3,10.8,0,0.299067,0.00242233,0
0.3,10.9,0,0.295804,-0.00384744,0
0.3,11,0,0.297213,-0.00114252,0
0.3,11.1,0,0.297909,-0.00028941,0
0.3,11.2,0,0.295885,-0.00456201,0
0.3,11.3,0,0.299893,0.00395843,0
0.3,11.4,0,0.296165,-0.0050127,0
0.3,11.5,0,0.299208,0.00240961,0
0.3,11.6,0,0.296865,-0.00445169,0
0.3,11.7,0,0.297635,-0.00231489,0
0.3,11.8,0,0.298792,0.000214695,0
0.3,11.9,0,0.296785,-0.006061,0
0.3,12,0,0.300615,0.0057051,0
0.3,12.1,0,0.297188,-0.00670615,0
0.3,12.2,0,0.299642,0.00201244,0
0.3,12.3,0,0.298066,-0.00510802,0
0.3,12.4,0,0.298322,-0.00413838,0
0.3,12.5,0,0.299777,0.000759826,0
0.3,12.6,0,0.297469,-0.00956657,0
0.3,12.7,0,0.30045,0.00432029,0
0.4,0,0,0.300919,-0.00734653,0
0.4,0.1,0,0.298359,0.00441771,0
0.4,0.2,0,0.297207,0.00978956,0
0.4,0.3,0,0.300023,-0.00322291,0
0.4,0.4,0,0.299688,-0.00401182,0
0.4,0.5,0,0.2962,0.00742282,0
0.4,0.6,0,0.297797,0.00210953,0
0.4,0.7,0,0.301058,-0.00870069,0
0.4,0.8,0,0.298056,0.00180937,0
0.4,0.9,0,0.296527,0.0071454,0
0.4,1,0,0.299339,-0.00281387,0
0.4,1.1,0,0.298929,-0.00333797,0
0.4,1.2,0,0.295295,0.00557311,0
0.4,1.3,0,0.296997,0.00144508,0
0.4,1.4,0,0.300454,-0.00695985,0
0.4,1.5,0,0.296677,0.00117855,0
0.4,1.6,0,0.294773,0.00531769,0
0.4,1.7,0,0.298444,-0.00234508,0
0.4,1.8,0,0.298311,-0.00268153,0
0.4,1.9,0,0.294376,0.00430837,0
0.4,2,0,0.296276,0.00111141,0
0.4,2.1,0,0.300105,-0.00541796,0
0.4,2.2,0,0.296033,0.00077128,0
0.4,2.3,0,0.293987,0.00392602,0
0.4,2.4,0,0.297988,-0.00185441,0
0.4,2.5,0,0.297886,-0.00205356,0
0.4,2.6,0,0.293682,0.00332856,0
0.4,2.7,0,0.295746,0.000875089,0
0.4,2.8,0,0.299892,-0.00413985,0
0.4,2.9,0,0.295589,0.000532689,0
0.4,3,0,0.293432,0.00291996,0
0.4,3.1,0,0.29769,-0.00140573,0
0.4,3.2,0,0.297625,-0.00155954,0
0.4,3.3,0,0.293238,0.00245853,0
0.4,3.4,0,0.295409,0.000651819,0
0.4,3.5,0,0.299762,-0.00305357,0
0.4,3.6,0,0.295308,0.00036311,0
0.4,3.7,0,0.293077,0.00211378,0
0.4,3.8,0,0.297506,-0.00101502,0
0.4,3.9,0,0.297467,-0.00115105,0
0.4,4,0,0.292959,0.00170568,0
0.4,4.1,0,0.295201,0.000448945,0
0.4,4.2,0,0.299691,-0.00214254,0
0.4,4.3,0,0.295141,0.000187002,0
0.4,4.4,0,0.292864,0.00138807,0
0.4,4.5,0,0.297403,-0.00069464,0
0.4,4.6,0,0.297382,-0.000822657,0
0.4,4.7,0,0.2928,0.00100402,0
0.4,4.8,0,0.295087,0.000240936,0
0.4,4.9,0,0.299662,-0.00135353,0
0.4,5,0,0.295058,-1.36688e-05,0
0.4,5.1,0,0.292756,0.000688849,0
0.4,5.2,0,0.297359,-0.000429417,0
0.4,5.3,0,0.297351,-0.000557445,0
0.4,5.4,0,0.292734,0.000304765,0
0.4,5.5,0,0.295044,1.31777e-05,0
0.4,5.6,0,0.299663,-0.000633414,0
0.4,5.7,0,0.295041,-0.000246219,0
0.4,5.8,0,0.292731,-2.14138e-05,0
0.4,5.9,0,0.297357,-0.000196397,0
0.4,6,0,0.297362,-0.000333277,0
0.4,6.1,0,0.292746,-0.000432051,0
0.4,6.2,0,0.295057,-0.00024427,0
0.4,6.3,0,0.299678,6.8386e-05,0
0.4,6.4,0,0.295078,-0.000490158,0
0.4,6.5,0,0.292777,-0.000735813,0
0.4,6.6,0,0.297373,5.1324e-05,0
0.4,6.7,0,0.297373,-0.000124927,0
0.4,6.8,0,0.292777,-0.00126457,0
0.4,6.9,0,0.295074,-0.00057741,0
0.4,7,0,0.299668,0.000743568,0
0.4,7.1,0,0.299677,0.000875558,0
0.4,7.2,0,0.299679,0.000940894,0
0.4,7.3,0,0.299679,0.00100437,0
0.4,7.4,0,0.299679,0.00106973,0
0.4,7.5,0,0.29968,0.00113666,0
0.4,7.6,0,0.299683,0.00120472,0
0.4,7.7,0,0.299688,0.00127373,0
0.4,7.8,0,0.299695,0.00134366,0
0.4,7.9,0,0.299701,0.00141654,0
0.4,8,0,0.299709,0.00152798,0
0.4,8.1,0,0.292942,-0.00100695,0
0.4,8.2,0,0.297357,0.000784543,0
0.4,8.3,0,0.295374,-0.000179825,0
0.4,8.4,0,0.295053,-0.000223278,0
0.4,8.5,0,0.297779,0.000989868,0
0.4,8.6,0,0.292799,-0.00157524,0
0.4,8.7,0,0.29948,0.00213637,0
0.4,8.8,0,0.293557,-0.00143815,0
0.4,8.9,0,0.297204,0.000936491,0
0.4,9,0,0.295938,-7.13287e-05,0
0.4,9.1,0,0.294971,-0.000642649,0
0.4,9.2,0,0.298276,0.00168513,0
0.4,9.3,0,0.292794,-0.00263507,0
0.4,9.4,0,0.299278,0.00276046,0
0.4,9.5,0,0.294199,-0.00182903,0
0.4,9.6,0,0.297087,0.000951756,0
0.4,9.7,0,0.296522,0.000172131,0
0.4,9.8,0,0.294969,-0.00130836,0
0.4,9.9,0,0.298785,0.0026434,0
0.4,10,0,0.293214,-0.00373483,0
0.4,10.1,0,0.29914,0.00335063,0
0.4,10.2,0,0.294952,-0.00214654,0
0.4,10.3,0,0.297095,0.000814119,0
0.4,10.4,0,0.297197,0.000619553,0
0.4,10.5,0,0.295159,-0.0022691,0
0.4,10.6,0,0.299354,0.00395283,0
0.4,10.7,0,0.293896,-0.00502922,0
0.4,10.8,0,0.299143,0.00388587,0
0.4,10.9,0,0.295879,-0.00238391,0
0.4,11,0,0.297316,0.000450182,0
0.4,11.1,0,0.298011,0.00130329,0
0.4,11.2,0,0.295636,-0.00366238,0
0.4,11.3,0,0.300028,0.00568788,0
0.4,11.4,0,0.294917,-0.00661126,0
0.4,11.5,0,0.299382,0.00428032,0
0.4,11.6,0,0.297038,-0.00258098,0
0.4,11.7,0,0.297855,-0.000294714,0
0.4,11.8,0,0.299012,0.00223488,0
0.4,11.9,0,0.296474,-0.00572033,0
0.4,12,0,0.300893,0.0078722,0
0.4,12.1,0,0.296497,-0.00805167,0
0.4,12.2,0,0.299986,0.00433009,0
0.4,12.3,0,0.29841,-0.00279037,0
0.4,12.4,0,0.298735,-0.00165406,0
0.4,12.5,0,0.300189,0.00324414,0
0.4,12.6,0,0.297346,-0.00969711,0
0.4,12.7,0,0.301061,0.00750363,0
0.5,0,0,0.301529,-0.0105717,0
0.5,0.1,0,0.298969,0.00119252,0
0.5,0.2,0,0.297741,0.00657191,0
0.5,0.3,0,0.300381,-0.00565519,0
0.5,0.4,0,0.300046,-0.0064441,0
0.5,0.5,0,0.29675,0.00435464,0
0.5,0.6,0,0.298062,-6.56382e-05,0
0.5,0.7,0,0.301322,-0.0108759,0
0.5,0.8,0,0.29832,-0.000365804,0
0.5,0.9,0,0.29689,0.00457878,0
0.5,1,0,0.299526,-0.00476225,0
0.5,1.1,0,0.299115,-0.00528634,0
0.5,1.2,0,0.295685,0.00313033,0
0.5,1.3,0,0.297111,-0.000294883,0
0.5,1.4,0,0.300567,-0.00869982,0
0.5,1.5,0,0.296791,-0.000561414,0
0.5,1.6,0,0.295065,0.00329485,0
0.5,1.7,0,0.298513,-0.0038892,0
0.5,1.8,0,0.298381,-0.00422565,0
0.5,1.9,0,0.294671,0.00238017,0
0.5,2,0,0.296302,-0.000243086,0
0.5,2.1,0,0.300131,-0.00677246,0
0.5,2.2,0,0.296059,-0.000583212,0
0.5,2.3,0,0.294224,0.00237579,0
0.5,2.4,0,0.297985,-0.00304056,0
0.5,2.5,0,0.297884,-0.00323971,0
0.5,2.6,0,0.293923,0.00184741,0
0.5,2.7,0,0.295719,-0.000159873,0
0.5,2.8,0,0.299865,-0.00517481,0
0.5,2.9,0,0.295562,-0.000502273,0
0.5,3,0,0.29364,0.00175297,0
0.5,3.1,0,0.297644,-0.00229787,0
0.5,3.2,0,0.29758,-0.00245168,0
0.5,3.3,0,0.293449,0.00134842,0
0.5,3.4,0,0.29535,-0.000111573,0
0.5,3.5,0,0.299703,-0.00381696,0
0.5,3.6,0,0.295248,-0.000400282,0
0.5,3.7,0,0.293269,0.00126795,0
0.5,3.8,0,0.297436,-0.00165988,0
0.5,3.9,0,0.297397,-0.00179591,0
0.5,4,0,0.293153,0.000908385,0
0.5,4.1,0,0.295124,-8.66908e-05,0
0.5,4.2,0,0.299614,-0.00267818,0
0.5,4.3,0,0.295064,-0.000348634,0
0.5,4.4,0,0.29305,0.000817041,0
0.5,4.5,0,0.297321,-0.00112864,0
0.5,4.6,0,0.2973,-0.00125666,0
0.5,4.7,0,0.292987,0.00047623,0
0.5,4.8,0,0.295002,-9.7446e-05,0
0.5,4.9,0,0.299578,-0.00169191,0
0.5,5,0,0.294974,-0.000352051,0
0.5,5.1,0,0.292942,0.000362896,0
0.5,5.2,0,0.297274,-0.000676555,0
0.5,5.3,0,0.297266,-0.000804583,0
0.5,5.4,0,0.29292,1.95926e-05,0
0.5,5.5,0,0.29496,-0.000145176,0
0.5,5.6,0,0.299579,-0.000791767,0
0.5,5.7,0,0.294957,-0.000404572,0
0.5,5.8,0,0.29292,-0.000115162,0
0.5,5.9,0,0.297275,-0.00026737,0
0.5,6,0,0.297279,-0.000404249,0
0.5,6.1,0,0.292935,-0.000484632,0
0.5,6.2,0,0.294977,-0.000227174,0
0.5,6.3,0,0.299598,8.54824e-05,0
0.5,6.4,0,0.294997,-0.000473062,0
0.5,6.5,0,0.292965,-0.000591735,0
0.5,6.6,0,0.297291,0.000162547,0
0.5,6.7,0,0.297291,-1.37037e-05,0
0.5,6.8,0,0.292966,-0.00107564,0
0.5,6.9,0,0.294991,-0.000391518,0
0.5,7,0,0.299585,0.00092946,0
0.5,7.1,0,0.299597,0.00109445,0
0.5,7.2,0,0.299599,0.00117612,0
0.5,7.3,0,0.299599,0.00125546,0
0.5,7.4,0,0.299599,0.00133716,0
0.5,7.5,0,0.2996,0.00142082,0
0.5,7.6,0,0.299604,0.0015059,0
0.5,7.7,0,0.29961,0.00159217,0
0.5,7.8,0,0.299618,0.00167958,0
0.5,7.9,0,0.299627,0.00177068,0
0.5,8,0,0.299636,0.00190997,0
0.5,8.1,0,0.293089,-0.000536786,0
0.5,8.2,0,0.29729,0.00121913,0
0.5,8.3,0,0.295307,0.000254762,0
0.5,8.4,0,0.294997,0.000282215,0
0.5,8.5,0,0.297723,0.00149536,0
0.5,8.6,0,0.293299,-0.000711431,0
0.5,8.7,0,0.299433,0.00271685,0
0.5,8.8,0,0.293511,-0.000857665,0
0.5,8.9,0,0.297167,0.00159443,0
0.5,9,0,0.295901,0.000586607,0
0.5,9.1,0,0.294943,9.6428e-05,0
0.5,9.2,0,0.298248,0.0024242,0
0.5,9.3,0,0.293629,-0.00113708,0
0.5,9.4,0,0.299259,0.00358547,0
0.5,9.5,0,0.29418,-0.00100403,0
0.5,9.6,0,0.297079,0.00186792,0
0.5,9.7,0,0.296514,0.0010883,0
0.5,9.8,0,0.294973,-0.000295466,0
0.5,9.9,0,0.298789,0.00365629,0
0.5,10,0,0.294079,-0.0016623,0
0.5,10.1,0,0.299157,0.00446626,0
0.5,10.2,0,0.29497,-0.00103091,0
0.5,10.3,0,0.297128,0.00203893,0
0.5,10.4,0,0.297231,0.00184437,0
0.5,10.5,0,0.295212,-0.00092852,0
0.5,10.6,0,0.299407,0.00529341,0
0.5,10.7,0,0.294753,-0.0023086,0
0.5,10.8,0,0.299218,0.0053494,0
0.5,10.9,0,0.295954,-0.000920377,0
0.5,11,0,0.297419,0.00204288,0
0.5,11.1,0,0.298114,0.00289599,0
0.5,11.2,0,0.29577,-0.00193293,0
0.5,11.3,0,0.300163,0.00741732,0
0.5,11.4,0,0.295746,-0.00318636,0
0.5,11.5,0,0.299555,0.00615103,0
0.5,11.6,0,0.297212,-0.000710268,0
0.5,11.7,0,0.298076,0.00172547,0
0.5,11.8,0,0.299233,0.00425506,0
0.5,11.9,0,0.296752,-0.00355323,0
0.5,12,0,0.301171,0.0100393,0
0.5,12.1,0,0.297157,-0.00452835,0
0.5,12.2,0,0.30033,0.00664775,0
0.5,12.3,0,0.298754,-0.000472712,0
0.5,12.4,0,0.299147,0.000830247,0
0.5,12.5,0,0.300602,0.00572845,0
0.5,12.6,0,0.298073,-0.00596708,0
0.5,12.7,0,0.301672,0.010687,0
0.6,0,0,0.302139,-0.0137969,0
0.6,0.1,0,0.299579,-0.00203267,0
0.6,0.2,0,0.299332,-0.00135792,0
0.6,0.3,0,0.300739,-0.00808748,0
0.6,0.4,0,0.300404,-0.00887639,0
0.6,0.5,0,0.298451,-0.00252891,0
0.6,0.6,0,0.298326,-0.00224081,0
0.6,0.7,0,0.301586,-0.013051,0
0.6,0.8,0,0.298584,-0.00254098,0
0.6,0.9,0,0.298312,-0.00169727,0
0.6,1,0,0.299712,-0.00671062,0
0.6,1.1,0,0.299302,-0.00723472,0
0.6,1.2,0,0.297295,-0.0022789,0
0.6,1.3,0,0.297224,-0.00203485,0
0.6,1.4,0,0.300681,-0.0104398,0
0.6,1.5,0,0.296904,-0.00230138,0
0.6,1.6,0,0.29669,-0.00160038,0
0.6,1.7,0,0.298583,-0.00543332,0
0.6,1.8,0,0.298451,-0.00576976,0
0.6,1.9,0,0.296318,-0.00185252,0
0.6,2,0,0.296328,-0.00159758,0
0.6,2.1,0,0.300157,-0.00812695,0
0.6,2.2,0,0.296086,-0.0019377,0
0.6,2.3,0,0.295897,-0.00135887,0
0.6,2.4,0,0.297982,-0.00422671,0
0.6,2.5,0,0.297881,-0.00442587,0
0.6,2.6,0,0.295627,-0.00140372,0
0.6,2.7,0,0.295692,-0.00119483,0
0.6,2.8,0,0.299837,-0.00620977,0
0.6,2.9,0,0.295535,-0.00153723,0
0.6,3,0,0.295366,-0.00106316,0
0.6,3.1,0,0.297599,-0.00319001,0
0.6,3.2,0,0.297534,-0.00334382,0
0.6,3.3,0,0.295196,-0.00106947,0
0.6,3.4,0,0.295291,-0.000874965,0
0.6,3.5,0,0.299644,-0.00458035,0
0.6,3.6,0,0.295189,-0.00116367,0
0.6,3.7,0,0.295033,-0.000783776,0
0.6,3.8,0,0.297367,-0.00230473,0
0.6,3.9,0,0.297327,-0.00244076,0
0.6,4,0,0.294932,-0.000803553,0
0.6,4.1,0,0.295047,-0.000622326,0
0.6,4.2,0,0.299537,-0.00321381,0
0.6,4.3,0,0.294987,-0.000884269,0
0.6,4.4,0,0.294842,-0.000576181,0
0.6,4.5,0,0.297239,-0.00156264,0
0.6,4.6,0,0.297218,-0.00169065,0
0.6,4.7,0,0.294789,-0.000614314,0
0.6,4.8,0,0.294918,-0.000435828,0
0.6,4.9,0,0.299494,-0.00203029,0
0.6,5,0,0.294889,-0.000690433,0
0.6,5.1,0,0.294753,-0.000435949,0
0.6,5.2,0,0.297189,-0.000923692,0
0.6,5.3,0,0.297181,-0.00105172,0
0.6,5.4,0,0.294738,-0.000493789,0
0.6,5.5,0,0.294875,-0.000303529,0
0.6,5.6,0,0.299495,-0.000950121,0
0.6,5.7,0,0.294873,-0.000562926,0
0.6,5.8,0,0.294741,-0.000345568,0
0.6,5.9,0,0.297192,-0.000338342,0
0.6,6,0,0.297197,-0.000475221,0
0.6,6.1,0,0.294755,-0.000426864,0
0.6,6.2,0,0.294896,-0.000210077,0
0.6,6.3,0,0.299518,0.000102579,0
0.6,6.4,0,0.294917,-0.000455965,0
0.6,6.5,0,0.294777,-0.000250523,0
0.6,6.6,0,0.297209,0.00027377,0
0.6,6.7,0,0.297209,9.75195e-05,0
0.6,6.8,0,0.294775,-0.000420483,0
0.6,6.9,0,0.294908,-0.000205626,0
0.6,7,0,0.299501,0.00111535,0
0.6,7.1,0,0.299516,0.00131334,0
0.6,7.2,0,0.299519,0.00141134,0
0.6,7.3,0,0.299519,0.00150655,0
0.6,7.4,0,0.299519,0.00160459,0
0.6,7.5,0,0.29952,0.00170499,0
0.6,7.6,0,0.299525,0.00180708,0
0.6,7.7,0,0.299532,0.0019106,0
0.6,7.8,0,0.299542,0.00201549,0
0.6,7.9,0,0.299552,0.00212481,0
0.6,8,0,0.299564,0.00229197,0
0.6,8.1,0,0.294893,0.000598632,0
0.6,8.2,0,0.297223,0.00165372,0
0.6,8.3,0,0.29524,0.000689348,0
0.6,8.4,0,0.294999,0.000813748,0
0.6,8.5,0,0.297666,0.00200086,0
0.6,8.6,0,0.29509,0.000820214,0
0.6,8.7,0,0.299387,0.00329734,0
0.6,8.8,0,0.295178,0.000819751,0
0.6,8.9,0,0.29713,0.00225236,0
0.6,9,0,0.295864,0.00124454,0
0.6,9.1,0,0.295299,0.00110051,0
0.6,9.2,0,0.29822,0.00316328,0
0.6,9.3,0,0.295394,0.0010937,0
0.6,9.4,0,0.299241,0.00441047,0
0.6,9.5,0,0.295498,0.0010799,0
0.6,9.6,0,0.297071,0.00278409,0
0.6,9.7,0,0.296506,0.00200446,0
0.6,9.8,0,0.295658,0.00140846,0
0.6,9.9,0,0.298792,0.00466919,0
0.6,10,0,0.295797,0.00139993,0
0.6,10.1,0,0.299175,0.00558189,0
0.6,10.2,0,0.295953,0.00138235,0
0.6,10.3,0,0.297162,0.00326375,0
0.6,10.4,0,0.297264,0.00306918,0
0.6,10.5,0,0.296198,0.0017715,0
0.6,10.6,0,0.29946,0.00663399,0
0.6,10.7,0,0.296407,0.00175281,0
0.6,10.8,0,0.299293,0.00681293,0
0.6,10.9,0,0.296642,0.00171461,0
0.6,11,0,0.297522,0.00363558,0
0.6,11.1,0,0.298217,0.00448868,0
0.6,11.2,0,0.297019,0.0021481,0
0.6,11.3,0,0.300297,0.00914677,0
0.6,11.4,0,0.297333,0.0020847,0
0.6,11.5,0,0.299729,0.00802174,0
0.6,11.6,0,0.297682,0.00198156,0
0.6,11.7,0,0.298296,0.00374565,0
0.6,11.8,0,0.299453,0.00627524,0
0.6,11.9,0,0.29824,0.00239647,0
0.6,12,0,0.301449,0.0122064,0
0.6,12.1,0,0.298716,0.00219179,0
0.6,12.2,0,0.300675,0.00896541,0
0.6,12.3,0,0.299138,0.00200229,0
0.6,12.4,0,0.29956,0.00331456,0
0.6,12.5,0,0.301014,0.00821276,0
0.6,12.6,0,0.299675,0.00188799,0
0.6,12.7,0,0.302283,0.0138703,0
0.7,0,0,0.302749,-0.0170221,0
0.7,0.1,0,0.3011,-0.00962645,0
0.7,0.2,0,0.300923,-0.00928775,0
0.7,0.3,0,0.301097,-0.0105198,0
0.7,0.4,0,0.300762,-0.0113087,0
0.7,0.5,0,0.300151,-0.00941247,0
0.7,0.6,0,0.299924,-0.00878805,0
0.7,0.7,0,0.301851,-0.0152262,0
0.7,0.8,0,0.299924,-0.0085241,0
0.7,0.9,0,0.299735,-0.00797331,0
0.7,1,0,0.299899,-0.008659,0
0.7,1.1,0,0.299488,-0.00918309,0
0.7,1.2,0,0.298904,-0.00768813,0
0.7,1.3,0,0.298727,-0.00718199,0
0.7,1.4,0,0.300794,-0.0121797,0
0.7,1.5,0,0.298421,-0.00697123,0
0.7,1.6,0,0.298315,-0.0064956,0
0.7,1.7,0,0.298653,-0.00697744,0
0.7,1.8,0,0.29852,-0.00731388,0
0.7,1.9,0,0.297964,-0.0060852,0
0.7,2,0,0.297859,-0.00562467,0
0.7,2.1,0,0.300184,-0.00948144,0
0.7,2.2,0,0.297642,-0.00550236,0
0.7,2.3,0,0.297571,-0.00509354,0
0.7,2.4,0,0.29798,-0.00541287,0
0.7,2.5,0,0.297878,-0.00561202,0
0.7,2.6,0,0.297331,-0.00465485,0
0.7,2.7,0,0.297272,-0.00428767,0
0.7,2.8,0,0.29981,-0.00724473,0
0.7,2.9,0,0.297136,-0.00422614,0
0.7,3,0,0.297092,-0.00387929,0
0.7,3.1,0,0.297554,-0.00408215,0
0.7,3.2,0,0.297489,-0.00423596,0
0.7,3.3,0,0.296943,-0.00348736,0
0.7,3.4,0,0.296909,-0.00317468,0
0.7,3.5,0,0.299584,-0.00534374,0
0.7,3.6,0,0.296823,-0.00312337,0
0.7,3.7,0,0.296798,-0.0028355,0
0.7,3.8,0,0.297297,-0.00294959,0
0.7,3.9,0,0.297257,-0.00308562,0
0.7,4,0,0.296711,-0.00251549,0
0.7,4.1,0,0.296693,-0.00225024,0
0.7,4.2,0,0.29946,-0.00374945,0
0.7,4.3,0,0.296645,-0.00221624,0
0.7,4.4,0,0.296634,-0.0019694,0
0.7,4.5,0,0.297157,-0.00199664,0
0.7,4.6,0,0.297136,-0.00212465,0
0.7,4.7,0,0.296592,-0.00170486,0
0.7,4.8,0,0.296586,-0.00147265,0
0.7,4.9,0,0.299409,-0.00236868,0
0.7,5,0,0.296565,-0.00145639,0
0.7,5.1,0,0.296563,-0.00123479,0
0.7,5.2,0,0.297104,-0.00117083,0
0.7,5.3,0,0.297096,-0.00129886,0
0.7,5.4,0,0.296555,-0.00100717,0
0.7,5.5,0,0.296557,-0.000791551,0
0.7,5.6,0,0.299411,-0.00110847,0
0.7,5.7,0,0.296558,-0.000788185,0
0.7,5.8,0,0.296562,-0.000575973,0
0.7,5.9,0,0.29711,-0.000409314,0
0.7,6,0,0.297114,-0.000546193,0
0.7,6.1,0,0.296576,-0.000369095,0
0.7,6.2,0,0.296581,-0.000155214,0
0.7,6.3,0,0.299437,0.000119675,0
0.7,6.4,0,0.296594,-0.000137904,0
0.7,6.5,0,0.296589,9.06891e-05,0
0.7,6.6,0,0.297126,0.000384994,0
0.7,6.7,0,0.297127,0.000208743,0
0.7,6.8,0,0.296584,0.000234672,0
0.7,6.9,0,0.296582,0.000416011,0
0.7,7,0,0.299418,0.00130124,0
0.7,7.1,0,0.299435,0.00153223,0
0.7,7.2,0,0.299439,0.00164656,0
0.7,7.3,0,0.299439,0.00175764,0
0.7,7.4,0,0.299439,0.00187203,0
0.7,7.5,0,0.29944,0.00198915,0
0.7,7.6,0,0.299446,0.00210826,0
0.7,7.7,0,0.299454,0.00222903,0
0.7,7.8,0,0.299466,0.0023514,0
0.7,7.9,0,0.299477,0.00247895,0
0.7,8,0,0.299491,0.00267396,0
0.7,8.1,0,0.296697,0.00173405,0
0.7,8.2,0,0.297156,0.0020883,0
0.7,8.3,0,0.296759,0.00187864,0