/*--------------------------------*- C++ -*----------------------------------*\
| =========                 |                                                 |
| \\      /  F ield         | OpenFOAM: The Open Source CFD Toolbox           |
|  \\    /   O peration     | Version:  v1806                                 |
|   \\  /    A nd           | Web:      www.OpenFOAM.com                      |
|    \\/     M anipulation  |                                                 |
\*---------------------------------------------------------------------------*/
FoamFile
{
    version     2.0;
    format      ascii;
    class       volVectorField;
    location    "13";
    object      U;
}
// * * * * * * * * * * * * * * * * * * * * * * * * * * * * * * * * * * * * * //

dimensions      [0 1 -1 0 0 0 0];


internalField   nonuniform List<vector> 
24000
(
(2.71532 0.021067 0.087431)
(2.44045 0.0326396 0.0933407)
(2.0997 0.0321115 0.074564)
(1.77556 0.0290909 0.0583528)
(1.52233 0.0249333 0.0406599)
(1.3409 0.0208811 0.0237908)
(1.21468 0.0179652 0.012257)
(1.12437 0.0161417 0.00604894)
(1.05725 0.0150311 0.00290102)
(1.00517 0.0140245 0.00131687)
(0.963977 0.0131574 0.000558795)
(0.929896 0.0120174 0.000305464)
(0.90152 0.0110977 0.000289018)
(0.876498 0.009854 0.000423573)
(0.854909 0.00914997 0.000471264)
(0.835126 0.00798514 0.000652753)
(0.817567 0.00764938 0.000495969)
(0.801631 0.0066595 0.000774313)
(0.785791 0.00655849 0.000421476)
(0.774156 0.00637889 0.00114281)
(2.74641 0.0257326 0.0880143)
(2.49471 0.0412998 0.096034)
(2.20036 0.0419907 0.0755258)
(1.92134 0.0392958 0.060092)
(1.69644 0.0349939 0.0443136)
(1.52968 0.0303103 0.0283993)
(1.40959 0.0265263 0.0163882)
(1.32479 0.0237513 0.00923416)
(1.26179 0.0218686 0.00522643)
(1.21706 0.0201882 0.00293657)
(1.18118 0.0187849 0.0016961)
(1.15661 0.0171187 0.00109828)
(1.13327 0.0157095 0.000907089)
(1.11901 0.014013 0.000818835)
(1.10045 0.0128692 0.000919824)
(1.09229 0.0114323 0.000812613)
(1.0749 0.0107758 0.000874039)
(1.0714 0.00981486 0.00074498)
(1.05457 0.00956819 0.00148109)
(1.05239 0.00967547 0.00286608)
(2.74602 0.00951799 0.088034)
(2.48761 0.0201996 0.0961655)
(2.19223 0.0246036 0.0751971)
(1.917 0.0257517 0.0593948)
(1.69673 0.0250286 0.0437275)
(1.53473 0.0232625 0.0280402)
(1.41801 0.0210987 0.0161799)
(1.33676 0.0188948 0.0090889)
(1.27609 0.0169024 0.00515366)
(1.23436 0.015076 0.00288397)
(1.20029 0.0134362 0.00164906)
(1.17874 0.0118538 0.0010068)
(1.1572 0.0104075 0.000806736)
(1.14631 0.00904776 0.000659289)
(1.12953 0.00791622 0.000768072)
(1.12496 0.00699124 0.000595449)
(1.10931 0.00636768 0.000666975)
(1.10939 0.00608991 0.000541362)
(1.09469 0.00608763 0.00134896)
(1.09535 0.00667555 0.00291884)
(2.74579 0.00755817 0.088126)
(2.48223 0.0180083 0.0965157)
(2.18228 0.023423 0.0756177)
(1.90478 0.0252398 0.0596315)
(1.68421 0.0248137 0.0438496)
(1.523 0.02322 0.0281341)
(1.40758 0.0210151 0.0162534)
(1.32773 0.0186152 0.0091281)
(1.26849 0.0162021 0.00515111)
(1.22802 0.0139346 0.00287535)
(1.19504 0.0118002 0.00162878)
(1.17448 0.00985527 0.000993388)
(1.1538 0.00805831 0.000783696)
(1.14391 0.00651038 0.000632349)
(1.12797 0.0052072 0.000727887)
(1.12452 0.00428872 0.000551888)
(1.10971 0.00368562 0.000613387)
(1.11098 0.00359951 0.000500948)
(1.09722 0.00387341 0.00131601)
(1.09899 0.00476748 0.00293199)
(2.74567 0.00467317 0.0881662)
(2.47946 0.0117649 0.0966426)
(2.17691 0.016129 0.0757607)
(1.89784 0.0181246 0.0596335)
(1.67683 0.0183582 0.0437123)
(1.51587 0.0174832 0.0279036)
(1.40104 0.0158663 0.0160091)
(1.32179 0.0138628 0.00890128)
(1.26321 0.0116346 0.00494826)
(1.22327 0.00942022 0.00270228)
(1.19081 0.007239 0.00149266)
(1.17062 0.00524433 0.00088892)
(1.15037 0.00337358 0.000703385)
(1.14084 0.00181494 0.000577657)
(1.12543 0.000497133 0.000667315)
(1.12246 -0.000354791 0.000492085)
(1.10829 -0.00079522 0.000553999)
(1.11011 -0.000669953 0.000449167)
(1.09706 1.60759e-05 0.00127511)
(1.09929 0.00124972 0.00293008)
(2.74564 0.00333052 0.0881883)
(2.47821 0.00895399 0.0967169)
(2.1741 0.012829 0.0758954)
(1.89355 0.0149342 0.0597764)
(1.6716 0.015404 0.0438228)
(1.5101 0.0147973 0.0279752)
(1.39519 0.0132971 0.0160639)
(1.31593 0.0113922 0.00895054)
(1.25762 0.00906825 0.00499025)
(1.21786 0.00674297 0.0027347)
(1.18583 0.00429968 0.00152011)
(1.16587 0.00208809 0.000904979)
(1.14616 -5.56741e-05 0.000721153)
(1.13689 -0.00179782 0.000583847)
(1.12214 -0.00330334 0.000697731)
(1.1195 -0.00424021 0.000558434)
(1.10612 -0.00467569 0.000603474)
(1.10844 -0.00446043 0.000507739)
(1.09617 -0.00348809 0.00127592)
(1.09918 -0.00194109 0.00296645)
(2.74569 0.00236222 0.0881985)
(2.47743 0.00656088 0.0967678)
(2.17234 0.00947497 0.07599)
(1.89037 0.0111577 0.0598847)
(1.66781 0.0114114 0.0438773)
(1.50546 0.0108379 0.0279851)
(1.39073 0.00927473 0.0160296)
(1.31097 0.00744559 0.00892336)
(1.25321 0.00494783 0.00494779)
(1.21303 0.00260118 0.00272492)
(1.18178 -0.00018995 0.00149687)
(1.16146 -0.00251786 0.000918283)
(1.14275 -0.00509832 0.000679127)
(1.13332 -0.00694215 0.000576595)
(1.11971 -0.00877824 0.000632582)
(1.11726 -0.00970788 0.000521085)
(1.105 -0.0101163 0.000508292)
(1.10793 -0.0100333 0.000460693)
(1.09643 -0.00819617 0.00118477)
(1.10045 -0.00752639 0.0031928)
(2.74586 0.00166082 0.0882082)
(2.47671 0.00473658 0.096797)
(2.17141 0.0067739 0.0760521)
(1.8878 0.0080951 0.0599538)
(1.66541 0.00808403 0.0439203)
(1.50129 0.0075494 0.027997)
(1.38775 0.00582808 0.0160176)
(1.30589 0.00408339 0.00892087)
(1.25032 0.0013041 0.00491112)
(1.20744 -0.00104455 0.00273102)
(1.17946 -0.0042957 0.00144079)
(1.1556 -0.00673392 0.00100004)
(1.14141 -0.00993405 0.000610791)
(1.12753 -0.0119184 0.000823784)
(1.11972 -0.0143685 0.000435064)
(1.11239 -0.0152927 0.00105722)
(1.10589 -0.0160297 -1.77963e-05)
(1.10613 -0.0156291 0.00100867)
(1.0948 -0.0135851 -0.000292053)
(1.10821 -0.0123518 0.00114376)
(2.74608 0.00116844 0.0882107)
(2.47607 0.00328489 0.096825)
(2.17088 0.00461798 0.0760892)
(1.88569 0.00545975 0.0600266)
(1.66368 0.0052063 0.0439502)
(1.49759 0.0044668 0.0280466)
(1.38521 0.00263077 0.0160011)
(1.3011 0.000647726 0.00896578)
(1.24747 -0.00230929 0.00486107)
(1.20202 -0.00506173 0.00280604)
(1.17669 -0.00862547 0.00136445)
(1.15004 -0.0116591 0.00111198)
(1.13914 -0.0152915 0.000478564)
(1.12256 -0.0179804 0.000973534)
(1.1185 -0.0208822 0.000265322)
(1.10904 -0.0223386 0.00131981)
(1.10606 -0.0233831 -0.000163881)
(1.10518 -0.02276 0.00134705)
(1.09564 -0.0210288 -1.19913e-05)
(1.10909 -0.0183969 0.00257393)
(2.74616 0.000880066 0.0882221)
(2.4756 0.00207568 0.0968482)
(2.17027 0.00288488 0.0761211)
(1.88416 0.00320146 0.0600732)
(1.66191 0.0027449 0.0439913)
(1.49467 0.00169809 0.02808)
(1.38235 -0.000256091 0.0160101)
(1.29711 -0.00256213 0.00897794)
(1.24391 -0.005738 0.00484853)
(1.19739 -0.0089176 0.00281082)
(1.1728 -0.0129755 0.00135381)
(1.14521 -0.0165701 0.00111897)
(1.13546 -0.0210517 0.00047287)
(1.11826 -0.0243043 0.0009885)
(1.11583 -0.0284544 0.00030713)
(1.10635 -0.0300464 0.00139863)
(1.10515 -0.0326747 3.87004e-05)
(1.10492 -0.0307947 0.00152205)
(1.09649 -0.0305177 -0.000305955)
(1.11293 -0.0246839 0.00148867)
(2.74616 0.000720552 0.088248)
(2.47509 0.0010886 0.0968594)
(2.16965 0.00150564 0.0761531)
(1.88284 0.00130073 0.0600832)
(1.66032 0.000734411 0.0440525)
(1.49189 -0.000716635 0.0280954)
(1.37967 -0.00269467 0.0160487)
(1.29292 -0.00550017 0.00895309)
(1.24061 -0.00877548 0.004874)
(1.19191 -0.0126587 0.00277725)
(1.16938 -0.0170689 0.0013869)
(1.13855 -0.0216977 0.00108331)
(1.13286 -0.0268582 0.000523202)
(1.11065 -0.0315072 0.000916669)
(1.11582 -0.0366252 0.000464182)
(1.09811 -0.0397893 0.00122831)
(1.11078 -0.0433728 0.000716418)
(1.0957 -0.0424805 0.00148385)
(1.11031 -0.0423364 -8.22349e-07)
(1.09862 -0.035444 -0.00419298)
(2.74604 0.000705 0.0882879)
(2.47456 0.000293736 0.0968767)
(2.16884 0.000467975 0.0761704)
(1.88183 -0.000208595 0.0600825)
(1.65849 -0.000752502 0.0441206)
(1.48957 -0.00268414 0.0281117)
(1.37642 -0.00458623 0.0160821)
(1.28933 -0.00804477 0.00893515)
(1.23614 -0.0112792 0.00490241)
(1.18721 -0.0161229 0.00274998)
(1.16381 -0.0207219 0.00141346)
(1.13305 -0.0268287 0.00104755)
(1.12664 -0.0325225 0.000552737)
(1.10515 -0.0393696 0.000883611)
(1.10998 -0.0453308 0.000524588)
(1.09423 -0.0515319 0.00124746)
(1.10722 -0.0557613 0.000866554)
(1.09589 -0.0583359 0.00151488)
(1.11139 -0.0572244 -0.000278331)
(1.10727 -0.0520408 -0.00534103)
(2.74588 0.000935802 0.0883553)
(2.47373 -0.000521579 0.0968842)
(2.16806 -0.000162771 0.0761772)
(1.88078 -0.00147015 0.0600695)
(1.65681 -0.00161531 0.0441928)
(1.48699 -0.00433778 0.0281333)
(1.37331 -0.00575674 0.0161105)
(1.28521 -0.0102697 0.00892426)
(1.23174 -0.0130009 0.00491437)
(1.18148 -0.0192641 0.00273849)
(1.15811 -0.0236525 0.00140883)
(1.1258 -0.0317594 0.00104198)
(1.11994 -0.0378068 0.00054223)
(1.09691 -0.0475155 0.000898288)
(1.10328 -0.0546857 0.000512721)
(1.08675 -0.0647249 0.00126904)
(1.10333 -0.0708119 0.000785165)
(1.09348 -0.0774376 0.00150099)
(1.11552 -0.0772191 -4.11495e-05)
(1.11286 -0.0717302 -0.00424723)
(2.74536 0.00156538 0.0884867)
(2.47297 -0.00138535 0.0968177)
(2.1669 -0.000143373 0.0761971)
(1.88036 -0.00251597 0.0599871)
(1.65451 -0.00166017 0.0443372)
(1.48512 -0.00573398 0.0280423)
(1.36934 -0.00585654 0.0162136)
(1.2819 -0.0120825 0.00877726)
(1.2262 -0.0134277 0.00505079)
(1.17629 -0.0219217 0.00254576)
(1.15076 -0.0251184 0.00155019)
(1.11852 -0.0362619 0.000809088)
(1.1108 -0.0416708 0.000714068)
(1.08754 -0.0557936 0.000631541)
(1.09324 -0.0633836 0.00068028)
(1.07689 -0.0797409 0.00108469)
(1.09533 -0.0870683 0.00087906)
(1.08835 -0.101233 0.00151627)
(1.11765 -0.101954 -0.00104028)
(1.13178 -0.104372 -0.00686842)
(2.74459 0.00171718 0.0887327)
(2.47175 -0.00213632 0.0966108)
(2.16568 0.000413245 0.0762782)
(1.87976 -0.00324925 0.0598408)
(1.6522 -0.000937342 0.0446129)
(1.48278 -0.00697377 0.0277572)
(1.36608 -0.00491242 0.0164528)
(1.27737 -0.0137527 0.00854022)
(1.22176 -0.0123754 0.00528992)
(1.16877 -0.0245887 0.00225077)
(1.14493 -0.0245344 0.00170154)
(1.10736 -0.0410159 0.000519213)
(1.10317 -0.0429557 0.000824959)
(1.07193 -0.0650984 0.000352501)
(1.08406 -0.0695573 0.000624733)
(1.05829 -0.0985316 0.000941735)
(1.08816 -0.103078 0.000474181)
(1.0732 -0.135512 0.00325984)
(1.11362 -0.128256 1.92002e-05)
(1.11731 -0.138752 -0.000255675)
(2.74389 0.00286583 0.0888671)
(2.47197 -0.00357343 0.0963762)
(2.16503 0.00264822 0.0763586)
(1.87991 -0.00487359 0.0597557)
(1.64978 0.00204835 0.0448478)
(1.48133 -0.00953068 0.0274399)
(1.36269 -0.000426456 0.0166911)
(1.27385 -0.0168512 0.00819799)
(1.21708 -0.00633427 0.00543863)
(1.16228 -0.0286701 0.00167894)
(1.13886 -0.0171095 0.00184756)
(1.09637 -0.0469434 -0.000216327)
(1.09501 -0.0352098 0.0010846)
(1.05366 -0.0756251 -0.000685782)
(1.0737 -0.0643502 0.00102617)
(1.03009 -0.120793 -0.000610505)
(1.08106 -0.107324 -0.000106599)
(1.04394 -0.187938 0.00197463)
(1.14075 -0.166815 -0.00661827)
(1.14651 -0.247543 0.0115505)
(2.74101 0.000614503 0.0891921)
(2.47389 -0.00219439 0.0958145)
(2.16107 0.00392271 0.0768224)
(1.88326 -0.00362478 0.0594277)
(1.64255 0.00365936 0.0455363)
(1.48529 -0.00868499 0.0265537)
(1.35387 0.00219033 0.0175938)
(1.2768 -0.0159738 0.00731826)
(1.20563 -0.00217854 0.00667815)
(1.16238 -0.0281761 0.000488714)
(1.12497 -0.0114418 0.00342046)
(1.09088 -0.0485144 -0.00161425)
(1.07781 -0.0284152 0.0031357)
(1.03785 -0.0838403 -0.0023941)
(1.05267 -0.0581679 0.00356786)
(0.997336 -0.147242 -0.00220589)
(1.05561 -0.101547 0.00167558)
(0.982532 -0.25227 0.00472925)
(1.10017 -0.129386 -0.00647673)
(1.03594 -0.351711 0.0296733)
(2.74169 -0.000302919 0.0885395)
(2.47951 -0.00308127 0.0964075)
(2.16164 0.00756716 0.0765227)
(1.88472 -0.00580603 0.0600484)
(1.64038 0.00829445 0.0451163)
(1.4869 -0.0130055 0.0274876)
(1.34855 0.0102157 0.0171875)
(1.27897 -0.0221218 0.00820861)
(1.19635 0.0103028 0.00645198)
(1.16484 -0.036852 0.00151618)
(1.11046 0.0074926 0.00336153)
(1.09373 -0.0613495 -0.000735363)
(1.0565 -0.000358711 0.00302033)
(1.04093 -0.106255 -0.00249508)
(1.02397 -0.0178707 0.00347401)
(1.00314 -0.199573 -0.00713749)
(1.0459 -0.0504246 0.00436257)
(1.01171 -0.414598 -0.0156484)
(1.23902 -0.143786 -0.0210967)
(1.12474 -0.79418 0.0444826)
(2.73078 -0.00582755 0.0880027)
(2.50133 0.00384686 0.0962911)
(2.14182 0.00317228 0.0771712)
(1.91296 0.00214169 0.059766)
(1.60504 0.0014413 0.0458559)
(1.53352 -0.00210294 0.0259758)
(1.2961 0.00207243 0.018966)
(1.34324 -0.00731359 0.00591991)
(1.12263 0.000483453 0.00937337)
(1.24838 -0.0170285 -0.00233891)
(1.01235 -0.00374877 0.00774202)
(1.19776 -0.0338277 -0.005935)
(0.925033 -0.0137279 0.0101445)
(1.16274 -0.0669454 -0.00942337)
(0.83366 -0.0351096 0.0164069)
(1.1268 -0.14775 -0.0145161)
(0.704191 -0.0615427 0.0304129)
(1.06441 -0.39172 -0.0295073)
(0.61071 0.129684 0.0779555)
(0.886291 -1.11453 -0.0873213)
(2.75063 -0.0203273 0.086959)
(2.48731 0.0239504 0.0966965)
(2.17297 -0.0133818 0.0781868)
(1.87554 0.0231747 0.0622759)
(1.65022 -0.0226632 0.0435072)
(1.4832 0.0283245 0.0284122)
(1.35827 -0.0287639 0.0166782)
(1.27575 0.0315243 0.00960168)
(1.19837 -0.0389059 0.00613264)
(1.16334 0.0333677 0.00241175)
(1.10024 -0.0540649 0.00396599)
(1.08974 0.0332416 -6.49158e-05)
(1.02114 -0.0782485 0.00477841)
(1.02213 0.024974 -0.000861472)
(0.931789 -0.123673 0.00387631)
(0.950557 -0.0146896 0.00247054)
(0.824218 -0.213505 -0.0103155)
(1.01761 -0.308876 0.0563322)
(0.802496 -0.295681 0.0632269)
(1.46146 -2.58882 -0.300028)
(2.96454 0.0219117 0.127707)
(3.04251 0.0372115 0.148859)
(3.03457 0.0402908 0.128882)
(2.9588 0.041305 0.114477)
(2.85995 0.0409686 0.0954378)
(2.75707 0.0393834 0.0725856)
(2.65805 0.0375644 0.0521916)
(2.56253 0.0356465 0.0375239)
(2.47228 0.0341991 0.0275022)
(2.38701 0.0324951 0.0204335)
(2.30944 0.0312108 0.0153169)
(2.23769 0.029365 0.0119123)
(2.17376 0.0280536 0.00942075)
(2.11436 0.0259767 0.0079617)
(2.06185 0.0247452 0.0065797)
(2.01253 0.0226485 0.00597097)
(1.96883 0.021575 0.00502589)
(1.9279 0.0198409 0.00469157)
(1.8903 0.0188318 0.00394783)
(1.85652 0.0185823 0.0017456)
(2.99883 0.0267447 0.128205)
(3.1069 0.0467718 0.15131)
(3.15216 0.052106 0.130798)
(3.1418 0.0545078 0.116388)
(3.10099 0.0553222 0.0997338)
(3.05374 0.0544135 0.0796999)
(3.00035 0.0530411 0.060431)
(2.95212 0.0511739 0.0458477)
(2.89873 0.0496963 0.0351059)
(2.85536 0.0477652 0.0275858)
(2.80652 0.0461942 0.021499)
(2.77288 0.0440054 0.0174501)
(2.72991 0.042187 0.0140695)
(2.70677 0.0397697 0.0121111)
(2.66766 0.0378175 0.0103343)
(2.65389 0.0355428 0.00904393)
(2.61683 0.0335843 0.00851274)
(2.61081 0.0319879 0.00583102)
(2.57753 0.030125 0.00694315)
(2.57155 0.0301741 0.000469404)
(2.99859 0.00977123 0.128152)
(3.10093 0.0220423 0.151383)
(3.1439 0.0290021 0.130493)
(3.13692 0.0332566 0.115262)
(3.09972 0.035963 0.0985099)
(3.05894 0.037393 0.0786838)
(3.01056 0.0379177 0.0596151)
(2.97028 0.0376741 0.0451422)
(2.92266 0.0370022 0.034582)
(2.888 0.0359387 0.0272384)
(2.84486 0.0346379 0.0213222)
(2.82025 0.0331086 0.0173205)
(2.78278 0.0314027 0.0139851)
(2.76887 0.0296607 0.0119952)
(2.73512 0.0278014 0.0102728)
(2.73054 0.0262055 0.00887386)
(2.69887 0.0245071 0.00841153)
(2.70166 0.0234543 0.00534526)
(2.67445 0.0222767 0.00670943)
(2.67612 0.0221038 -0.00021005)
(2.99855 0.00770204 0.128239)
(3.09633 0.0193216 0.151946)
(3.13501 0.0269154 0.131228)
(3.12511 0.0316847 0.115801)
(3.08626 0.0345234 0.0988758)
(3.04451 0.0360836 0.079009)
(2.99579 0.0365681 0.0598267)
(2.95561 0.0362703 0.0452782)
(2.90862 0.0352777 0.0345427)
(2.87495 0.0338762 0.0271651)
(2.83296 0.0320574 0.0211556)
(2.80981 0.0300855 0.0171791)
(2.77369 0.0278502 0.013769)
(2.76163 0.0256975 0.0118101)
(2.72935 0.0234231 0.010043)
(2.72693 0.0215298 0.00866047)
(2.69686 0.0196439 0.00820476)
(2.70197 0.0184439 0.00510762)
(2.67662 0.0173848 0.00657781)
(2.6805 0.0172339 -0.000479087)
(2.99854 0.00474072 0.128278)
(3.09393 0.0124781 0.152192)
(3.13027 0.0181486 0.131531)
(3.11851 0.0221106 0.115932)
(3.07855 0.0246732 0.098824)
(3.03601 0.0262235 0.0787921)
(2.98693 0.0268242 0.0595152)
(2.94642 0.0266881 0.044918)
(2.89946 0.0258141 0.034156)
(2.86579 0.0244675 0.0267802)
(2.82411 0.022639 0.0207907)
(2.80111 0.0206054 0.0168588)
(2.76545 0.0182991 0.0134786)
(2.75368 0.0160406 0.0115682)
(2.72203 0.0137302 0.00980659)
(2.72011 0.0117463 0.00844154)
(2.69091 0.00996633 0.00798702)
(2.69671 0.00878006 0.00491685)
(2.67242 0.00805619 0.00639167)
(2.67707 0.00812248 -0.000634483)
(2.9986 0.00334517 0.128309)
(3.09283 0.00941701 0.152345)
(3.12795 0.0141785 0.131788)
(3.11464 0.0178273 0.116238)
(3.07358 0.0201738 0.0991416)
(3.02976 0.0216773 0.0790574)
(2.98 0.0221315 0.0597577)
(2.9385 0.0219418 0.0451167)
(2.89125 0.0208733 0.0343414)
(2.85688 0.019351 0.0269161)
(2.81533 0.0172111 0.0209098)
(2.79188 0.0148527 0.0169371)
(2.75674 0.0121658 0.0135499)
(2.74471 0.00951201 0.0116204)
(2.71394 0.00685705 0.00985035)
(2.71196 0.00449821 0.0085471)
(2.68385 0.00251161 0.00804988)
(2.68991 0.00110626 0.00507736)
(2.66679 0.000409209 0.00646232)
(2.6722 0.00061678 -0.000646078)
(2.99893 0.00233411 0.128315)
(3.09188 0.00690822 0.152466)
(3.12681 0.0103837 0.131956)
(3.11153 0.0132708 0.116476)
(3.07039 0.0148841 0.0993342)
(3.02461 0.0160222 0.0792131)
(2.97521 0.0159635 0.0598192)
(2.93184 0.0155588 0.0451749)
(2.88535 0.0140298 0.0343332)
(2.84922 0.0122832 0.0269523)
(2.80877 0.00964505 0.0208825)
(2.78377 0.00694152 0.0169806)
(2.74999 0.00374296 0.0135101)
(2.73687 0.000590231 0.011638)
(2.7076 -0.00241573 0.00976761)
(2.70523 -0.00543589 0.00850584)
(2.67857 -0.00726839 0.00797274)
(2.68504 -0.00972819 0.0050644)
(2.66319 -0.00940092 0.00633786)
(2.66964 -0.0111823 -0.000956563)
(3.00012 0.00156666 0.12835)
(3.09005 0.00506423 0.152501)
(3.12739 0.00733123 0.132107)
(3.10778 0.00969582 0.116593)
(3.06989 0.0105232 0.0995193)
(3.01858 0.0114966 0.0792892)
(2.97394 0.0107794 0.0599313)
(2.92358 0.0103461 0.045207)
(2.88373 0.00813199 0.0343783)
(2.83887 0.00635736 0.026985)
(2.80742 0.00292253 0.0208408)
(2.77166 9.35556e-05 0.0170949)
(2.74947 -0.00404356 0.0133759)
(2.72362 -0.00745044 0.0119706)
(2.70819 -0.0114326 0.0095101)
(2.6922 -0.0147424 0.00921509)
(2.67961 -0.0173262 0.00772176)
(2.67452 -0.0199436 0.00673462)
(2.66147 -0.0198035 0.0063574)
(2.66789 -0.0213064 -0.00376469)
(3.00132 0.00108204 0.12835)
(3.08833 0.00355372 0.152566)
(3.12823 0.00499417 0.132163)
(3.10456 0.00663556 0.116764)
(3.06986 0.00695205 0.0995943)
(3.01342 0.00739968 0.0794856)
(2.97289 0.00629543 0.0599308)
(2.91647 0.00535004 0.0454103)
(2.88175 0.00273888 0.0342815)
(2.83007 0.000358633 0.0272464)
(2.80468 -0.00359912 0.0206348)
(2.76172 -0.00719913 0.0174317)
(2.74629 -0.0120716 0.0130668)
(2.71356 -0.0163788 0.0124049)
(2.70503 -0.0213135 0.0090936)
(2.68353 -0.0254068 0.00979656)
(2.67683 -0.0290853 0.00741704)
(2.6685 -0.0317418 0.00769218)
(2.6591 -0.0328669 0.00637377)
(2.66442 -0.0330409 -0.00437129)
(3.00182 0.000832831 0.128375)
(3.08744 0.00231985 0.152604)
(3.12822 0.00312859 0.132226)
(3.10268 0.00409183 0.116874)
(3.06887 0.00392208 0.0997003)
(3.01005 0.00390847 0.0796144)
(2.97059 0.0022955 0.0600031)
(2.91146 0.000992333 0.045508)
(2.87807 -0.00230562 0.0343073)
(2.82354 -0.00498205 0.0273248)
(2.79977 -0.00999877 0.020627)
(2.75407 -0.0138964 0.0174988)
(2.74055 -0.0203511 0.0130449)
(2.7056 -0.0249607 0.0124952)
(2.69918 -0.0320304 0.00910576)
(2.6766 -0.0363569 0.0100027)
(2.67169 -0.0423491 0.00768438)
(2.6637 -0.0449188 0.0081858)
(2.65492 -0.0476125 0.00700004)
(2.66317 -0.048579 -0.00598093)
(3.00236 0.000822477 0.128485)
(3.08632 0.00120768 0.152516)
(3.12837 0.00179295 0.132368)
(3.10061 0.00183005 0.116841)
(3.06849 0.00164279 0.0999184)
(3.00618 0.000751266 0.0796016)
(2.96938 -0.000811002 0.0602246)
(2.90522 -0.00306975 0.0454341)
(2.87623 -0.00636598 0.0345016)
(2.81447 -0.0101682 0.0272267)
(2.79783 -0.0154073 0.0207857)
(2.74175 -0.0207617 0.0174149)
(2.73959 -0.027824 0.0131217)
(2.6899 -0.0343277 0.0126032)
(2.70094 -0.0425047 0.00884269)
(2.65811 -0.049096 0.0108645)
(2.67842 -0.0565962 0.0063296)
(2.64418 -0.061319 0.0126198)
(2.66294 -0.0651991 0.00587722)
(2.64419 -0.0671075 0.0177761)
(3.0022 0.00107026 0.128599)
(3.08591 0.000197519 0.152469)
(3.12747 0.000957144 0.132446)
(3.09979 -0.000117693 0.116853)
(3.06669 0.000142782 0.100077)
(3.00415 -0.00196542 0.0796646)
(2.966 -0.00295802 0.060353)
(2.90159 -0.00666981 0.0454517)
(2.87099 -0.00933783 0.0346139)
(2.80908 -0.0149577 0.0272159)
(2.79051 -0.0196804 0.0208793)
(2.73466 -0.0274511 0.0173765)
(2.73032 -0.034314 0.0132178)
(2.6817 -0.044055 0.0125402)
(2.69051 -0.0525976 0.0090083)
(2.65018 -0.0632898 0.0107794)
(2.66863 -0.0719363 0.00680255)
(2.63864 -0.0809997 0.0125829)
(2.65651 -0.0863015 0.00688081)
(2.64436 -0.0893033 0.0156748)
(3.0022 0.00182027 0.128796)
(3.08492 -0.00104261 0.152345)
(3.1268 0.000750398 0.13252)
(3.09848 -0.00200981 0.116849)
(3.06543 -0.000453209 0.100241)
(3.00131 -0.00445767 0.0797401)
(2.96335 -0.00402145 0.0604413)
(2.89675 -0.0099055 0.0455241)
(2.86666 -0.0111032 0.0346498)
(2.8018 -0.0192356 0.0273066)
(2.78413 -0.0227301 0.020832)
(2.72472 -0.0335717 0.0175045)
(2.72182 -0.0397942 0.0130968)
(2.66934 -0.053476 0.0127614)
(2.68037 -0.0624514 0.0087979)
(2.63676 -0.0782032 0.011108)
(2.65886 -0.0886395 0.00633579)
(2.62822 -0.103508 0.0128784)
(2.65219 -0.111252 0.00624699)
(2.64267 -0.118268 0.0179051)
(3.00123 0.00347503 0.129234)
(3.08469 -0.0027909 0.151927)
(3.12487 0.00168248 0.132729)
(3.09858 -0.00410274 0.116613)
(3.06263 0.000388716 0.100667)
(3.00005 -0.00706733 0.0795001)
(2.95893 -0.00332952 0.060716)
(2.89368 -0.0130262 0.0452336)
(2.86029 -0.0107555 0.0349607)
(2.79617 -0.0232138 0.0269684)
(2.77524 -0.0233516 0.0210901)
(2.71594 -0.0392625 0.0171465)
(2.71004 -0.0427044 0.0133213)
(2.65703 -0.0626312 0.0124764)
(2.66576 -0.0702931 0.00889332)
(2.62191 -0.0938159 0.0110368)
(2.64314 -0.105297 0.00629288)
(2.61464 -0.128524 0.0130269)
(2.64126 -0.139671 0.00553999)
(2.64443 -0.154442 0.0160267)
(3.00093 0.0052099 0.130102)
(3.08276 -0.00543895 0.151012)
(3.1241 0.00392175 0.133193)
(3.09667 -0.0069969 0.116059)
(3.06175 0.00312585 0.101504)
(2.99559 -0.0107577 0.0788502)
(2.95801 -0.000124374 0.0612061)
(2.8859 -0.0175039 0.0447678)
(2.8588 -0.0071197 0.0353812)
(2.78379 -0.0289678 0.0266007)
(2.77263 -0.0197435 0.0211659)
(2.69808 -0.0471786 0.0169916)
(2.70529 -0.0404287 0.0130324)
(2.6329 -0.0747024 0.0127594)
(2.65739 -0.0725641 0.00796671)
(2.59313 -0.114003 0.0118982)
(2.63118 -0.118787 0.00462925)
(2.58883 -0.162198 0.0155649)
(2.62582 -0.171707 0.0070883)
(2.62111 -0.193632 0.023119)
(3.00033 0.0104391 0.130706)
(3.0826 -0.0116003 0.150161)
(3.1239 0.0108516 0.133649)
(3.09609 -0.0139976 0.115504)
(3.06105 0.0117361 0.10229)
(2.99239 -0.0195021 0.0779363)
(2.95762 0.0106602 0.0618069)
(2.87909 -0.0276484 0.0438632)
(2.85849 0.00614917 0.0359057)
(2.77163 -0.0408011 0.0254698)
(2.77267 -0.00401897 0.0214078)
(2.67826 -0.0612392 0.0157963)
(2.70531 -0.0231485 0.0129812)
(2.60192 -0.0927445 0.0119061)
(2.65609 -0.0570971 0.00705427)
(2.54814 -0.140044 0.012259)
(2.6274 -0.114953 0.000631905)
(2.53893 -0.205557 0.0176665)
(2.63376 -0.206818 -0.00633254)
(2.6244 -0.277061 0.0237085)
(2.99288 0.0100431 0.132332)
(3.08955 -0.0138304 0.148059)
(3.11473 0.0152079 0.13548)
(3.10472 -0.0170976 0.113774)
(3.04934 0.0179369 0.104881)
(3.00034 -0.0241868 0.0752931)
(2.9458 0.0193931 0.0644705)
(2.88446 -0.0343363 0.0411397)
(2.84643 0.0183845 0.0391804)
(2.77085 -0.0503925 0.0224324)
(2.76159 0.0126391 0.0249876)
(2.66681 -0.0761489 0.0126512)
(2.69597 -0.00159911 0.0167697)
(2.57264 -0.117737 0.00936209)
(2.64871 -0.0324808 0.00982823)
(2.49304 -0.183907 0.0124837)
(2.61794 -0.0943525 -0.000898431)
(2.4547 -0.274324 0.0266721)
(2.59572 -0.196569 -0.00910797)
(2.51057 -0.329161 0.0484422)
(2.98775 0.0167468 0.130465)
(3.10163 -0.0254094 0.150158)
(3.11087 0.0297418 0.13442)
(3.11509 -0.0323429 0.115266)
(3.04277 0.0375577 0.103708)
(3.01258 -0.0451861 0.0772862)
(2.9362 0.0467345 0.0638451)
(2.89895 -0.0617527 0.042574)
(2.83429 0.0557683 0.0387585)
(2.78753 -0.0860032 0.0233036)
(2.74772 0.0635698 0.0248424)
(2.68478 -0.122597 0.0121729)
(2.68382 0.0673343 0.016223)
(2.58874 -0.1799 0.00552812)
(2.64753 0.0571429 0.00748839)
(2.49979 -0.271474 0.0013541)
(2.65853 0.000247715 -0.00979485)
(2.45243 -0.411656 0.00758884)
(2.76067 -0.21547 -0.0605948)
(2.60599 -0.572002 0.0775427)
(2.92796 0.00265505 0.13184)
(3.18406 -0.0106614 0.146901)
(3.02742 0.0175873 0.138872)
(3.22078 -0.0148727 0.109719)
(2.92571 0.0229116 0.110427)
(3.1519 -0.0251855 0.0682275)
(2.78301 0.0316288 0.074184)
(3.07367 -0.0381682 0.0299136)
(2.63846 0.0411657 0.0541633)
(2.99902 -0.059237 0.00519401)
(2.504 0.0524397 0.0470613)
(2.93265 -0.0937347 -0.0132038)
(2.38533 0.0657406 0.0499542)
(2.86305 -0.154541 -0.0298009)
(2.28359 0.0784889 0.061292)
(2.76188 -0.271499 -0.0463861)
(2.203 0.0710145 0.0806201)
(2.55075 -0.496853 -0.0603436)
(2.20314 -0.0352778 0.0833303)
(2.13247 -0.55021 -0.0349035)
(3.00955 -0.0305315 0.126013)
(3.10117 0.0289578 0.151194)
(3.13806 -0.0164944 0.134257)
(3.1049 0.0258977 0.119097)
(3.05943 -0.0172152 0.100897)
(3.0141 0.0205242 0.0780395)
(2.9423 -0.0114003 0.0630889)
(2.9108 0.0116944 0.0439426)
(2.8154 -0.0044183 0.0404715)
(2.81091 -0.00508143 0.0238236)
(2.68812 0.00779996 0.0304863)
(2.71747 -0.0375303 0.0127242)
(2.55193 0.0328347 0.0299722)
(2.6208 -0.107228 0.00622182)
(2.38295 0.0869844 0.0377141)
(2.50363 -0.272742 -0.00300325)
(2.16574 0.214187 0.0696601)
(2.41646 -0.751098 -0.0489659)
(2.21879 0.402769 0.293684)
(2.81902 -2.11042 -0.32037)
(2.96755 0.0217872 0.0681428)
(3.07997 0.0368533 0.0956719)
(3.16044 0.0405022 0.088046)
(3.195 0.0419634 0.0849123)
(3.20199 0.0428717 0.0773939)
(3.19128 0.0427036 0.0646407)
(3.16863 0.0420358 0.0514435)
(3.13389 0.040935 0.0414134)
(3.09138 0.0400973 0.0344116)
(3.04188 0.0390168 0.0290831)
(2.99117 0.0381395 0.0246016)
(2.93788 0.0367981 0.0211256)
(2.88681 0.0357427 0.0181055)
(2.83446 0.0341664 0.0159955)
(2.78596 0.0330723 0.0137345)
(2.73649 0.0313021 0.0125558)
(2.69161 0.0303639 0.0104539)
(2.64591 0.028115 0.0106859)
(2.60403 0.0275841 0.00820983)
(2.56453 0.0248305 0.0112056)
(3.00105 0.0266067 0.0679898)
(3.1459 0.0464081 0.0960785)
(3.27748 0.0524376 0.0900293)
(3.377 0.0552644 0.085729)
(3.4434 0.0575554 0.0792753)
(3.49544 0.0583577 0.069009)
(3.5271 0.0585815 0.0568252)
(3.55272 0.057957 0.047387)
(3.56053 0.0576223 0.0400101)
(3.56908 0.0567639 0.0350106)
(3.56296 0.0561362 0.0301948)
(3.56483 0.0548229 0.026768)
(3.55201 0.0537679 0.0235554)
(3.55246 0.0521013 0.0210578)
(3.53545 0.0508267 0.0194425)
(3.53665 0.0489575 0.0166177)
(3.51644 0.0477088 0.0173035)
(3.51926 0.0454877 0.0117582)
(3.49781 0.0446095 0.015119)
(3.50752 0.0422078 -0.00234833)
(3.00063 0.00973835 0.0678442)
(3.14033 0.0221244 0.0960255)
(3.26946 0.02929 0.0899409)
(3.37207 0.0337648 0.0847794)
(3.44113 0.0371323 0.0781399)
(3.49902 0.0394977 0.067951)
(3.53499 0.0410809 0.0558632)
(3.56838 0.0419346 0.0463582)
(3.5822 0.0423619 0.0391008)
(3.60004 0.0423993 0.0341993)
(3.60096 0.0421315 0.0296404)
(3.61304 0.0415714 0.0262399)
(3.60804 0.0407352 0.0232424)
(3.61931 0.0397681 0.0206752)
(3.6108 0.0386159 0.0193467)
(3.62298 0.0374994 0.0163352)
(3.61182 0.0363147 0.0173491)
(3.62545 0.0352654 0.0112016)
(3.61381 0.034419 0.014665)
(3.6346 0.0337314 -0.00354822)
(3.00059 0.00768758 0.0678183)
(3.13591 0.0194525 0.0964214)
(3.26129 0.0271433 0.0904222)
(3.36158 0.0321581 0.0851707)
(3.42941 0.0355343 0.0783434)
(3.48642 0.0378961 0.0682069)
(3.52192 0.039342 0.0559843)
(3.555 0.0401157 0.0464817)
(3.56898 0.0402286 0.0389795)
(3.58717 0.0399451 0.0340801)
(3.58877 0.0392085 0.0293332)
(3.6017 0.0382428 0.025984)
(3.59776 0.0369317 0.0228435)
(3.61037 0.0355537 0.0203207)
(3.60328 0.0339675 0.0189369)
(3.61726 0.0325161 0.0159145)
(3.60782 0.0310208 0.0170188)
(3.6236 0.029863 0.0107149)
(3.61399 0.0288551 0.0145296)
(3.63718 0.0283179 -0.00401086)
(3.00061 0.00473749 0.0678125)
(3.13357 0.0125453 0.0966302)
(3.25691 0.0182416 0.0906664)
(3.35561 0.0223113 0.0853026)
(3.42256 0.0251959 0.0783446)
(3.47874 0.0272328 0.0680964)
(3.51375 0.0285303 0.0557945)
(3.54622 0.0291927 0.0462408)
(3.55995 0.0292584 0.0386867)
(3.57776 0.028847 0.033767)
(3.57935 0.0280118 0.0290007)
(3.59209 0.0268654 0.0256754)
(3.58833 0.0254417 0.022529)
(3.60094 0.0238722 0.0200399)
(3.59422 0.0221961 0.0186382)
(3.60844 0.0205895 0.0156409)
(3.59961 0.0190833 0.0167246)
(3.61587 0.0178882 0.010459)
(3.60706 0.0170055 0.0142629)
(3.63088 0.0165898 -0.00430157)
(3.00071 0.00333943 0.0678307)
(3.13246 0.00946283 0.0967624)
(3.25485 0.0142124 0.0908853)
(3.35221 0.017929 0.0855639)
(3.41844 0.0205065 0.0786572)
(3.47349 0.0223707 0.0683759)
(3.50803 0.0234073 0.0560845)
(3.53947 0.0238864 0.0464988)
(3.5529 0.0236814 0.0389425)
(3.5698 0.0230036 0.0339895)
(3.57136 0.021825 0.0291834)
(3.58334 0.0202956 0.025856)
(3.57983 0.0184798 0.0226294)
(3.59186 0.0164599 0.0202093)
(3.58568 0.0144049 0.018653)
(3.59956 0.0123505 0.0158646)
(3.5915 0.0105668 0.0166745)
(3.60771 0.00903127 0.0107989)
(3.59978 0.00801499 0.0142326)
(3.62387 0.0074047 -0.00362012)
(3.00124 0.00232619 0.0678285)
(3.13134 0.00693121 0.0968826)
(3.25403 0.0104077 0.0910153)
(3.3493 0.0133052 0.0857847)
(3.41596 0.015131 0.0788453)
(3.46898 0.0164862 0.0685817)
(3.50417 0.0169814 0.0561912)
(3.53363 0.017049 0.0466506)
(3.54786 0.0163879 0.0389864)
(3.56286 0.0152766 0.0341353)
(3.56537 0.0136569 0.029183)
(3.57567 0.0115869 0.0260165)
(3.57322 0.0093397 0.0225872)
(3.58396 0.00666247 0.020377)
(3.57891 0.00426751 0.0185219)
(3.5921 0.00149616 0.0159921)
(3.58516 -0.000364009 0.0165064)
(3.60136 -0.00250395 0.0110263)
(3.59428 -0.00335617 0.0143046)
(3.61911 -0.00569239 -0.00386769)
(3.00342 0.00151088 0.0679149)
(3.12841 0.00512603 0.0968354)
(3.25574 0.00730123 0.0912273)
(3.34468 0.00976082 0.0858027)