/*--------------------------------*- C++ -*----------------------------------*\
| =========                 |                                                 |
| \\      /  F ield         | OpenFOAM: The Open Source CFD Toolbox           |
|  \\    /   O peration     | Version:  v1806                                 |
|   \\  /    A nd           | Web:      www.OpenFOAM.com                      |
|    \\/     M anipulation  |                                                 |
\*---------------------------------------------------------------------------*/
FoamFile
{
    version     2.0;
    format      ascii;
    class       surfaceScalarField;
    location    "250";
    object      phi;
}
// * * * * * * * * * * * * * * * * * * * * * * * * * * * * * * * * * * * * * //

dimensions      [0 3 -1 0 0 0 0];
oriented        oriented;


internalField   nonuniform List<scalar> 
8600
(
0.0505257
-0.0648184
-0.0450695
0.0593621
0.0443742
-0.0775506
0.0837021
0.0355812
-0.0832792
0.0920722
0.0285476
-0.0872204
0.0942541
0.0234905
-0.0896001
0.0946572
0.0198769
-0.0908711
0.0944846
0.017251
-0.091404
0.0940299
0.0152889
-0.0914769
0.093439
0.0137841
-0.091285
0.0927898
0.0126065
-0.0909442
0.0921218
0.0116707
-0.0905194
0.0914553
0.0109185
-0.0900478
0.0908
0.0103096
-0.0895517
0.0901606
0.0098154
-0.0890446
0.0895388
0.00941557
-0.0885343
0.0889341
0.0090954
-0.0880252
0.0883453
0.00884428
-0.0875191
0.0877703
0.00865411
-0.0870179
0.0872081
0.00851796
-0.0865317
0.0866679
-0.0861252
0.0862144
0.0300007
-0.0625165
-0.0323026
0.0254246
-0.0729744
0.0222488
-0.0801034
0.0200388
-0.0850104
0.018206
-0.0877674
0.0165456
-0.0892107
0.0150679
-0.0899263
0.0138004
-0.0902095
0.0127344
-0.090219
0.0118427
-0.0900525
0.0110966
-0.0897733
0.0104719
-0.0894231
0.0099492
-0.089029
0.0095136
-0.088609
0.00915369
-0.0881744
0.00886088
-0.0877323
0.00862864
-0.0872869
0.00845222
-0.0868415
0.00832746
-0.086407
-0.0860386
0.0249368
-0.0652534
-0.0221999
0.0252551
-0.0732927
0.0239827
-0.078831
0.0216556
-0.0826833
0.0192077
-0.0853194
0.017066
-0.087069
0.0153039
-0.0881641
0.013872
-0.0887776
0.0127042
-0.0890511
0.0117452
-0.0890935
0.0109534
-0.0889816
0.0102976
-0.0887674
0.00975447
-0.0884859
0.00930605
-0.0881606
0.00893893
-0.0878073
0.00864295
-0.0874364
0.00841055
-0.0870545
0.00823617
-0.0866671
0.00811434
-0.0862851
-0.0859586
0.0178597
-0.0681143
-0.0149989
0.0181677
-0.0736006
0.0174802
-0.0781435
0.0165113
-0.0817144
0.0155079
-0.084316
0.0145025
-0.0860635
0.0135157
-0.0871774
0.0125882
-0.0878501
0.0117488
-0.0882117
0.0110078
-0.0883525
0.0103636
-0.0883373
0.00980936
-0.0882131
0.00933686
-0.0880134
0.00893823
-0.087762
0.00860655
-0.0874756
0.00833609
-0.0871659
0.00812229
-0.0868407
0.00796147
-0.0865063
0.00784978
-0.0861734
-0.0858869
0.0142213
-0.0712197
-0.0111159
0.0156824
-0.0750617
0.0160625
-0.0785237
0.0156808
-0.0813326
0.0148591
-0.0834943
0.0138836
-0.085088
0.012918
-0.0862118
0.0120285
-0.0869605
0.0112344
-0.0874176
0.0105368
-0.0876549
0.00993025
-0.0877308
0.00940735
-0.0876902
0.00896056
-0.0875666
0.00858296
-0.0873844
0.00826852
-0.0871612
0.00801224
-0.0869096
0.00781008
-0.0866385
0.0076588
-0.086355
0.00755497
-0.0860696
-0.0858221
0.0109451
-0.073751
-0.00841381
0.0122872
-0.0764038
0.0127772
-0.0790136
0.0127541
-0.0813096
0.012449
-0.0831892
0.0119891
-0.0846282
0.0114472
-0.08567
0.0108746
-0.0863879
0.0103094
-0.0868524
0.00977627
-0.0871218
0.00928864
-0.0872432
0.00885256
-0.0872541
0.00846973
-0.0871837
0.00813962
-0.0870542
0.00786066
-0.0868822
0.00763096
-0.0866799
0.00744867
-0.0864563
0.00731209
-0.0862184
0.00721893
-0.0859765
-0.085765
0.00881705
-0.0759848
-0.00658328
0.0102813
-0.077868
0.0110829
-0.0798153
0.0113673
-0.0815939
0.0112806
-0.0831024
0.0109666
-0.0843142
0.0105366
-0.08524
0.010062
-0.0859133
0.00958428
-0.0863747
0.00912706
-0.0866645
0.00870332
-0.0868194
0.00831983
-0.0868706
0.00797973
-0.0868436
0.00768401
-0.0867585
0.00743255
-0.0866308
0.00722462
-0.086472
0.00705934
-0.086291
0.00693573
-0.0860948
0.00685211
-0.0858928
-0.0857148
0.00710935
-0.0777928
-0.00530136
0.0083795
-0.0791382
0.0091528
-0.0805886
0.00953492
-0.0819761
0.00963499
-0.0832025
0.00954199
-0.0842212
0.00932419
-0.0850222
0.00903153
-0.0856207
0.00870127
-0.0860445
0.00836055
-0.0863238
0.00802802
-0.0864869
0.00771579
-0.0865584
0.00743136
-0.0865592
0.00717911
-0.0865063
0.00696148
-0.0864131
0.00677971
-0.0862902
0.00663434
-0.0861456
0.00652547
-0.085986
0.00645223
-0.0858196
-0.0856717
0.00584008
-0.0793395
-0.00429332
0.00701437
-0.0803125
0.00781424
-0.0813884
0.00828541
-0.0824472
0.00849131
-0.0834084
0.00850031
-0.0842302
0.00837604
-0.0848979
0.0081698
-0.0854144
0.0079186
-0.0857933
0.00764837
-0.0860536
0.00737704
-0.0862156
0.00711679
-0.0862982
0.00687575
-0.0863182
0.00665922
-0.0862898
0.00647059
-0.0862245
0.00631196
-0.0861316
0.00618462
-0.0860183
0.00608925
-0.0858906
0.0060255
-0.0857558
-0.085635
0.00482779
-0.0806082
-0.00355907
0.00583114
-0.0813158
0.00655629
-0.0821136
0.00702815
-0.0829191
0.00728975
-0.08367
0.00738744
-0.0843278
0.0073638
-0.0848743
0.00725572
-0.0853063
0.00709333
-0.0856309
0.00690015
-0.0858604
0.00669408
-0.0860095
0.00648829
-0.0860924
0.00629221
-0.0861221
0.00611242
-0.08611
0.00595346
-0.0860655
0.0058184
-0.0859965
0.00570931
-0.0859092
0.00562745
-0.0858087
0.00557302
-0.0857014
-0.0856042
0.00401081
-0.0816855
-0.00293351
0.00489298
-0.082198
0.00556308
-0.0827837
0.00602994
-0.083386
0.00631802
-0.0839581
0.00645938
-0.0844692
0.0064879
-0.0849028
0.00643496
-0.0852534
0.00632721
-0.0855231
0.00618582
-0.085719
0.00602707
-0.0858507
0.00586329
-0.0859286
0.00570364
-0.0859624
0.0055548
-0.0859611
0.0054216
-0.0859323
0.00530745
-0.0858824
0.00521478
-0.0858165
0.00514518
-0.0857391
0.00509915
-0.0856554
-0.0855787
0.00334076
-0.0825752
-0.00245109
0.00408749
-0.0829447
0.004675
-0.0833712
0.00510507
-0.083816
0.00539255
-0.0842456
0.00555907
-0.0846357
0.00562833
-0.0849721
0.00562329
-0.0852484
0.00556471
-0.0854645
0.00547041
-0.0856247
0.00535489
-0.0857352
0.00522966
-0.0858034
0.00510362
-0.0858364
0.0049835
-0.085841
0.00487433
-0.0858232
0.00477977
-0.0857878
0.00470251
-0.0857392
0.00464436
-0.085681
0.00460612
-0.0856171
-0.085558
0.0027695
-0.0833222
-0.00202248
0.00340783
-0.0835831
0.0039232
-0.0838866
0.00431395
-0.0842068
0.00458825
-0.0845199
0.00476054
-0.084808
0.00484837
-0.0850599
0.00486992
-0.0852699
0.00484223
-0.0854368
0.00478023
-0.0855627
0.00469649
-0.0856515
0.00460117
-0.085708
0.00450234
-0.0857375
0.00440624
-0.0857449
0.00431767
-0.0857346
0.00424023
-0.0857104
0.00417659
-0.0856756
0.00412862
-0.085633
0.00409724
-0.0855857
-0.0855414
0.00228226
-0.0839335
-0.00167097
0.00281263
-0.0841134
0.00325
-0.084324
0.00359102
-0.0845478
0.00383996
-0.0847688
0.00400635
-0.0849744
0.00410253
-0.0851561
0.00414186
-0.0853092
0.0041374
-0.0854324
0.00410116
-0.0855265
0.00404359
-0.0855939
0.00397349
-0.085638
0.00389803
-0.0856621
0.0038229
-0.0856698
0.00375255
-0.0856642
0.00369038
-0.0856482
0.00363895
-0.0856242
0.00360011
-0.0855942
0.00357484
-0.0855605
-0.0855284
0.00184916
-0.0844328
-0.00134993
0.00228657
-0.0845508
0.00265247
-0.0846899
0.0029434
-0.0848387
0.00316147
-0.0849869
0.0033129
-0.0851258
0.00340655
-0.0852497
0.00345249
-0.0853552
0.00346094
-0.0854408
0.00344147
-0.085507
0.00340264
-0.0855551
0.00335177
-0.0855871
0.00329496
-0.0856053
0.00323712
-0.085612
0.00318217
-0.0856093
0.00313314
-0.0855992
0.00309235
-0.0855834
0.00306149
-0.0855633
0.00304153
-0.0855405
-0.0855184
0.00146367
-0.0848257
-0.0010707
0.00181121
-0.0848984
0.00210565
-0.0849843
0.00234357
-0.0850766
0.0025257
-0.085169
0.00265603
-0.0852562
0.0027407
-0.0853344
0.00278695
-0.0854014
0.0028024
-0.0854563
0.00279439
-0.085499
0.00276962
-0.0855303
0.002734
-0.0855515
0.0026925
-0.0855638
0.00264925
-0.0855687
0.00260753
-0.0855676
0.00256995
-0.0855616
0.00253851
-0.0855519
0.00251467
-0.0855395
0.00249934
-0.0855252
-0.0855111
0.00110784
-0.0851248
-0.000808757
0.00137386
-0.0851644
0.00160094
-0.0852114
0.00178631
-0.085262
0.00193021
-0.0853129
0.00203517
-0.0853611
0.00210542
-0.0854047
0.00214613
-0.0854421
0.00216283
-0.085473
0.002161
-0.0854972
0.00214571
-0.085515
0.00212144
-0.0855272
0.00209208
-0.0855344
0.00206083
-0.0855374
0.00203032
-0.085537
0.00200261
-0.0855339
0.00197932
-0.0855286
0.00196163
-0.0855218
0.00195032
-0.0855139
-0.0855058
0.0007772
-0.0853338
-0.000568178
0.000964308
-0.0853515
0.00112496
-0.085372
0.00125715
-0.0853942
0.00136082
-0.0854166
0.0014375
-0.0854378
0.00148991
-0.0854571
0.00152145
-0.0854737
0.00153586
-0.0854874
0.00153689
-0.0854982
0.00152805
-0.0855062
0.00151253
-0.0855117
0.00149307
-0.085515
0.00147199
-0.0855164
0.00145119
-0.0855162
0.00143219
-0.0855149
0.00141614
-0.0855126
0.00140394
-0.0855096
0.00139617
-0.0855061
-0.0855025
0.000461172
-0.0854596
-0.00033545
0.00057294
-0.0854633
0.000669081
-0.0854682
0.000748475
-0.0854736
0.00081106
-0.0854791
0.000857672
-0.0854844
0.000889839
-0.0854892
0.000909531
-0.0854934
0.000918929
-0.0854968
0.00092024
-0.0854995
0.000915552
-0.0855015
0.000906759
-0.0855029
0.00089551
-0.0855037
0.000883205
-0.0855041
0.000871
-0.085504
0.000859817
-0.0855037
0.000850363
-0.0855031
0.000843163
-0.0855024
0.000838578
-0.0855015
-0.0855006
0.000154041
-0.000113597
0.000190771
0.000222611
0.000249008
0.000269866
0.000285435
0.00029621
0.000302837
0.000306037
0.000306538
0.000305033
0.000302153
0.000298447
0.000294383
0.000290343
0.000286635
0.000283498
0.000281107
0.000279596
-0.0394189
-0.00700926
0.0464282
-0.0333316
-0.00608728
-0.0279044
-0.00542728
-0.0229866
-0.00491776
-0.0184712
-0.00451541
-0.0142724
-0.00419878
-0.0103175
-0.00395492
-0.00654327
-0.00377423
-0.00289325
-0.00365002
0.000684638
-0.00357789
0.00423997
-0.00355533
0.00782153
-0.00358157
0.0114791
-0.00365757
0.0152653
-0.00378622
0.0192381
-0.00397279
0.023464
-0.00422591
0.0280235
-0.00455952
0.0330209
-0.00499732
0.0386086
-0.00558777
-0.00646083
-0.0251273
-0.00905647
0.0271745
-0.0226283
-0.0085863
-0.0198861
-0.00816943
-0.0169918
-0.00781208
-0.0139948
-0.00751243
-0.0109265
-0.00726714
-0.00780843
-0.00707294
-0.00465565
-0.006927
-0.00147852
-0.00682715
0.00171548
-0.00677189
0.00492055
-0.00676039
0.0081315
-0.00679252
0.0113428
-0.00686883
0.0145472
-0.00699069
0.0177348
-0.0071604
0.0208905
-0.00738153
0.0239904
-0.00765942
0.0269952
-0.00800215
0.0298311
-0.00842368
-0.00893235
-0.0162817
-0.0102948
0.01752
-0.0148024
-0.0100655
-0.0131176
-0.00985426
-0.0112658
-0.00966389
-0.00928152
-0.00949669
-0.00719418
-0.00935448
-0.00502839
-0.00923872
-0.00280488
-0.00915051
-0.000541413
-0.00909063
0.00174633
-0.00905964
0.00404387
-0.00905793
0.00633714
-0.00908579
0.00861171
-0.0091434
0.0108519
-0.00923085
0.0130397
-0.00934818
0.0151535
-0.00949537
0.0171664
-0.00967235
0.0190436
-0.00987936
0.0207376
-0.0101176
-0.0103947
-0.00991393
-0.0112798
0.0108989
-0.00884173
-0.0111377
-0.0076895
-0.0110065
-0.00646511
-0.0108883
-0.00517699
-0.0107848
-0.0038341
-0.0106974
-0.00244587
-0.010627
-0.00102209
-0.0105743
0.000427193
-0.0105399
0.00189174
-0.0105242
0.00336119
-0.0105274
0.00482503
-0.0105496
0.00627261
-0.010591
0.00769313
-0.0106514
0.00907559
-0.0107306
0.0104088
-0.0108286
0.0116813
-0.0109449
0.0128812
-0.0110792
0.0139951
-0.0112316
-0.0113984
-0.00707183
-0.0120177
0.00780977
-0.00627392
-0.0119356
-0.00541987
-0.0118605
-0.00451487
-0.0117933
-0.00356505
-0.0117346
-0.00257711
-0.0116853
-0.00155807
-0.011646
-0.000515172
-0.0116172
0.000544246
-0.0115993
0.00161278
-0.0115927
0.00268295
-0.0115976
0.00374726
-0.0116139
0.0047981
-0.0116418
0.0058278
-0.0116811
0.00682853
-0.0117314
0.00779235
-0.0117924
0.00871112
-0.0118636
0.00957647
-0.0119446
0.0103794
-0.0120346
-0.0121349
-0.00481769
-0.0126171
0.00541705
-0.00419026
-0.0125631
-0.00353688
-0.0125139
-0.00285996
-0.0124702
-0.0021622
-0.0124324
-0.00144656
-0.012401
-0.000716281
-0.0123763
2.51688e-05
-0.0123586
0.000774139
-0.0123483
0.00152683
-0.0123454
0.00227936
-0.0123501
0.00302777
-0.0123623
0.00376812
-0.0123822
0.00449651
-0.0124095
0.00520917
-0.012444
0.00590246
-0.0124857
0.00657295
-0.0125341
0.00721741
-0.012589
0.00783288
-0.01265
-0.0127158
-0.00360354
-0.0130862
0.00407263
-0.00311465
-0.013052
-0.00260738
-0.0130212
-0.00208341
-0.0129942
-0.00154471
-0.0129711
-0.00099346
-0.0129522
-0.000432031
-0.0129377
0.000137062
-0.0129277
0.00071119
-0.0129224
0.00128764
-0.0129219
0.00186366
-0.0129261
0.00243645
-0.0129351
0.00300324
-0.012949
0.00356128
-0.0129675
0.00410786
-0.0129906
0.00464037
-0.0130182
0.0051563
-0.0130501
0.00565328
-0.013086
0.00612903
-0.0131258
-0.0131701
-0.00265493
-0.0134721
0.00304088
-0.00225814
-0.0134488
-0.0018515
-0.0134278
-0.00143611
-0.0134096
-0.00101312
-0.0133941
-0.000583799
-0.0133815
-0.000149452
-0.013372
0.000288537
-0.0133657
0.000728738
-0.0133626
0.00116969
-0.0133628
0.00160989
-0.0133663
0.00204786
-0.0133731
0.00248212
-0.0133832
0.0029112
-0.0133966
0.0033337
-0.0134131
0.00374826
-0.0134328
0.00415359
-0.0134554
0.00454848
-0.0134809
0.00493179
-0.0135091
-0.0135396
-0.00205831
-0.0137834
0.00236955
-0.00173935
-0.0137677
-0.00141335
-0.0137538
-0.00108107
-0.0137418
-0.000743338
-0.0137318
-0.000401057
-0.0137238
-5.51828e-05
-0.0137179
0.00029328
-0.0137142
0.00064329
-0.0137126
0.00099378
-0.0137133
0.00134367
-0.0137162
0.00169186
-0.0137213
0.00203728
-0.0137286
0.00237887
-0.0137382
0.00271557
-0.0137498
0.00304639
-0.0137636
0.00337038
-0.0137794
0.00368663
-0.0137971
0.00399431
-0.0138168
-0.0138387
-0.0015939
-0.0140422
0.00185274
-0.00133031
-0.0140313
-0.00106247
-0.0140217
-0.000790917
-0.0140134
-0.000516214
-0.0140065
-0.000238945
-0.0140011
4.02831e-05
-0.0139972
0.000320847
-0.0139947
0.000602107
-0.0139939
0.000883418
-0.0139946
0.00116413
-0.0139969
0.00144358
-0.0140008
0.00172114
-0.0140062
0.00199616
-0.0140132
0.00226802
-0.0140217
0.00253612
-0.0140317
0.00279987
-0.0140431
0.00305871
-0.014056
0.0033121
-0.0140702
-0.0140856
-0.0012663
-0.0142546
0.00147869
-0.00105049
-0.0142471
-0.000831623
-0.0142405
-0.000610068
-0.0142349
-0.000386233
-0.0142303
-0.000160543
-0.0142268
6.65556e-05
-0.0142243
0.000294605
-0.0142228
0.000523135
-0.0142224
0.000751667
-0.0142231
0.000979717
-0.0142249
0.0012068
-0.0142278
0.00143244
-0.0142318
0.00165616
-0.0142369
0.00187749
-0.014243
0.00209599
-0.0142502
0.00231121
-0.0142584
0.00252276
-0.0142675
0.00273023
-0.0142776
-0.0142889
-0.00100701
-0.0144317
0.00118407
-0.00082766
-0.0144265
-0.000646296
-0.0144219
-0.000463194
-0.014418
-0.000278645
-0.0144149
-9.29493e-05
-0.0144125
9.35874e-05
-0.0144108
0.000280652
-0.0144099
0.000467926
-0.0144097
0.00065509
-0.0144103
0.000841822
-0.0144117
0.0010278
-0.0144138
0.00121271
-0.0144167
0.00139622
-0.0144204
0.00157804
-0.0144248
0.00175786
-0.01443
0.00193538
-0.0144359
0.00211031
-0.0144424
0.00228237
-0.0144497
-0.0144576
-0.000807921
-0.0145772
0.000953481
-0.000660695
-0.0145737
-0.000512
-0.0145706
-0.00036204
-0.014568
-0.000211031
-0.0145659
-5.91916e-05
-0.0145643
9.32492e-05
-0.0145632
0.000246059
-0.0145627
0.000399001
-0.0145626
0.000551836
-0.0145631
0.000704323
-0.0145642
0.000856222
-0.0145657
0.00100729
-0.0145678
0.0011573
-0.0145704
0.00130601
-0.0145735
0.00145319
-0.0145772
0.00159863
-0.0145813
0.00174211
-0.0145859
0.00188342
-0.014591
-0.0145967
-0.000644971
-0.0146971
0.000764857
-0.000523916
-0.0146947
-0.00040184
-0.0146927
-0.000278899
-0.0146909
-0.000155249
-0.0146896
-3.10529e-05
-0.0146885
9.35242e-05
-0.0146878
0.000218315
-0.0146875
0.00034315
-0.0146875
0.000467859
-0.0146878
0.000592272
-0.0146886
0.000716217
-0.0146897
0.000839525
-0.0146911
0.000962029
-0.0146929
0.00108356
-0.0146951
0.00120396
-0.0146976
0.00132306
-0.0147004
0.00144071
-0.0147036
0.00155676
-0.0147071
-0.0147109
-0.000511028
-0.0147937
0.000607618
-0.000413585
-0.0147922
-0.000315398
-0.0147909
-0.000216582
-0.0147898
-0.000117253
-0.0147889
-1.75316e-05
-0.0147882
8.24603e-05
-0.0147878
0.000182598
-0.0147876
0.000282756
-0.0147876
0.000382807
-0.0147879
0.000482624
-0.0147884
0.000582079
-0.0147891
0.000681046
-0.0147901
0.0007794
-0.0147913
0.000877016
-0.0147927
0.000973773
-0.0147943
0.00106955
-0.0147962
0.00116424
-0.0147983
0.00125772
-0.0148006
-0.0148031
-0.00039628
-0.0148701
0.000472688
-0.000319266
-0.0148692
-0.000241729
-0.0148684
-0.000163753
-0.0148677
-8.54242e-05
-0.0148672
-6.83023e-06
-0.0148668
7.19396e-05
-0.0148666
0.000150795
-0.0148665
0.000229645
-0.0148665
0.000308399
-0.0148667
0.000386964
-0.014867
0.00046525
-0.0148674
0.000543164
-0.014868
0.000620618
-0.0148687
0.000697521
-0.0148696
0.000773785
-0.0148706
0.000849324
-0.0148717
0.000924051
-0.014873
0.000997886
-0.0148744
-0.0148759
-0.000295947
-0.0149277
0.000353564
-0.000237904
-0.0149272
-0.000179492
-0.0149268
-0.000120772
-0.0149265
-6.18057e-05
-0.0149262
-2.65482e-06
-0.014926
5.66168e-05
-0.0149258
0.000115945
-0.0149258
0.000175264
-0.0149258
0.000234511
-0.0149259
0.000293618
-0.0149261
0.000352521
-0.0149263
0.000411155
-0.0149266
0.000469455
-0.014927
0.000527358
-0.0149275
0.0005848
-0.014928
0.00064172
-0.0149286
0.000698055
-0.0149293
0.000753746
-0.0149301
-0.0149309
-0.000205231
-0.0149682
0.000245652
-0.00016453
-0.0149679
-0.000123587
-0.0149678
-8.24443e-05
-0.0149676
-4.11423e-05
-0.0149675
2.76608e-07
-0.0149674
4.17698e-05
-0.0149673
8.3294e-05
-0.0149673
0.000124806
-0.0149673
0.000166262
-0.0149674
0.000207619
-0.0149674
0.000248834
-0.0149675
0.000289862
-0.0149677
0.00033066
-0.0149678
0.000371186
-0.014968
0.000411397
-0.0149682
0.000451249
-0.0149685
0.000490698
-0.0149688
0.000529701
-0.0149691
-0.0149694
-0.000120914
-0.014992
0.000144784
-9.68834e-05
-0.014992
-7.27154e-05
-0.0149919
-4.84332e-05
-0.0149919
-2.40608e-05
-0.0149919
3.77364e-07
-0.0149918
2.48565e-05
-0.0149918
4.93516e-05
-0.0149918
7.38374e-05
-0.0149918
9.82887e-05
-0.0149918
0.00012268
-0.0149918
0.000146986
-0.0149918
0.000171182
-0.0149919
0.000195243
-0.0149919
0.000219144
-0.0149919
0.000242861
-0.014992
0.000266368
-0.014992
0.000289642
-0.0149921
0.000312655
-0.0149921
-0.0149922
-4.00867e-05
4.80645e-05
-3.20566e-05
-2.39788e-05
-1.5862e-05
-7.71358e-06
4.5898e-07
8.64822e-06
1.68467e-05
2.50471e-05
3.32423e-05
4.14253e-05
4.95896e-05
5.77289e-05
6.58378e-05
7.39113e-05
8.19455e-05
8.99377e-05
9.78865e-05
0.000105793
-0.0256314
-0.0144896
0.01541
0.0247111
-0.0266554
-0.014406
0.01543
-0.027834
-0.0143057
0.0154843
-0.0291857
-0.014203
0.0155546
-0.0307245
-0.0141008
0.0156395
-0.0324569
-0.0140018
0.0157342
-0.0343786
-0.0139081
0.0158298
-0.0364715
-0.0138197
0.0159126
-0.0387004
-0.0137343
0.0159633
-0.0410121
-0.0136458
0.0159576
-0.0433349
-0.0135439
0.0158666
-0.0455801
-0.0134131
0.0156583
-0.0476453
-0.0132332
0.0152985
-0.0494187
-0.0129793
0.0147527
-0.0507823
-0.0126225
0.0139861
-0.0516135
-0.0121318
0.0129629
-0.0517786
-0.0114772
0.0116423
-0.0511211
-0.0106309
0.00997342
-0.0494476
-0.00956091
0.00788736
-0.00822532
0.00520595
-0.0185661
-0.0142849
0.0183614
-0.018785
-0.0141872
-0.0190096
-0.0140811
-0.0192533
-0.0139593
-0.019533
-0.0138211
-0.0198692
-0.0136656
-0.0202847
-0.0134926
-0.0208019
-0.0133025
-0.0214397
-0.0130966
-0.0222093
-0.0128763
-0.0231102
-0.012643
-0.0241257
-0.0123975
-0.0252195
-0.0121394
-0.0263329
-0.011866
-0.027383
-0.0115723
-0.0282633
-0.0112515
-0.0288453
-0.0108951
-0.028982
-0.0104943
-0.0284998
-0.010043
-0.00955062
-0.0198096
-0.013971
0.0194957
-0.0201094
-0.0138874
-0.0203956
-0.0137949
-0.0206589
-0.013696
-0.0208903
-0.0135897
-0.0210814
-0.0134744
-0.0212254
-0.0133486
-0.0213173
-0.0132106
-0.0213552
-0.0130587
-0.0213398
-0.0128917
-0.0212741
-0.0127086
-0.0211622
-0.0125094
-0.0210071
-0.0122945
-0.0208079
-0.0120653
-0.0205565
-0.0118237
-0.0202356
-0.0115724
-0.0198164
-0.0113144
-0.0192576
-0.0110531
-0.0185078
-0.0107928
-0.0105384
-0.0146986
-0.01387
0.0145975
-0.0148062
-0.0137797
-0.0149161
-0.013685
-0.0150266
-0.0135856
-0.0151347
-0.0134815
-0.015236
-0.0133732
-0.0153239
-0.0132607
-0.0153903
-0.0131442
-0.0154252
-0.0130237
-0.0154176
-0.0128993
-0.0153556
-0.0127706
-0.0152276
-0.0126375
-0.0150225
-0.0124996
-0.0147309
-0.0123568
-0.0143454
-0.0122092
-0.0138607
-0.0120571
-0.0132737
-0.0119014
-0.0125833
-0.0117435
-0.0117905
-0.0115856
-0.01143
-0.0134629
-0.0138985
0.0134915
-0.0134139
-0.0138288
-0.0133443
-0.0137546
-0.013253
-0.0136768
-0.0131394
-0.0135952
-0.0130028
-0.0135098
-0.0128429
-0.0134206
-0.0126593
-0.0133278
-0.0124515
-0.0132315
-0.0122187
-0.0131321
-0.0119593
-0.0130301
-0.0116709
-0.0129259
-0.0113502
-0.0128202
-0.0109932
-0.0127139
-0.0105948
-0.0126075
-0.0101499
-0.0125021
-0.00965297
-0.0123983
-0.00909942
-0.0122971
-0.00848565
-0.0121993
-0.0121059
-0.0108091
-0.0139496
0.0108602
-0.0107477
-0.0138902
-0.0106734
-0.0138289
-0.0105842
-0.0137661
-0.0104775
-0.0137019
-0.0103508
-0.0136364
-0.0102016
-0.0135698
-0.0100274
-0.013502
-0.00982566
-0.0134332
-0.0095942
-0.0133636
-0.00933109
-0.0132932
-0.00903474
-0.0132222
-0.00870403
-0.013151
-0.00833823
-0.0130797
-0.00793707
-0.0130087
-0.00750067
-0.0129384
-0.00702953
-0.0128694
-0.00652444
-0.0128022
-0.0059865
-0.0127373
-0.0126754
-0.00925576
-0.0140643
0.00937047
-0.0091283
-0.0140177
-0.00898744
-0.0139697
-0.00883291
-0.0139206
-0.00866438
-0.0138704
-0.00848151
-0.0138193
-0.00828388
-0.0137674
-0.008071
-0.0137149
-0.0078423
-0.0136619
-0.00759713
-0.0136087
-0.00733472
-0.0135556
-0.00705425
-0.0135027
-0.00675487
-0.0134503
-0.00643571
-0.0133988
-0.00609598
-0.0133484
-0.005735
-0.0132994
-0.00535227
-0.0132522
-0.00494755
-0.0132069
-0.00452088
-0.0131639
-0.0131236
-0.00770051
-0.0141765
0.00781267
-0.00757812
-0.0141401
-0.00744494
-0.0141029
-0.00730019
-0.0140653
-0.00714311
-0.0140275
-0.006973
-0.0139894
-0.00678921
-0.0139512
-0.00659116
-0.0139129
-0.00637838
-0.0138747
-0.0061505
-0.0138366
-0.00590723
-0.0137988
-0.00564845
-0.0137615
-0.00537412
-0.0137247
-0.00508434
-0.0136886
-0.00477933
-0.0136534
-0.00445941
-0.0136193
-0.00412502
-0.0135865
-0.0037767
-0.0135552
-0.00341507
-0.0135256
-0.0134978
-0.00649308
-0.0143017
0.00661829
-0.00635978
-0.0142734
-0.00621788
-0.0142448
-0.00606726
-0.014216
-0.00590775
-0.014187
-0.00573921
-0.014158
-0.00556149
-0.0141289
-0.00537443
-0.0141
-0.00517787
-0.0140712
-0.00497169
-0.0140428
-0.00475574
-0.0140148
-0.00452991
-0.0139873
-0.00429413
-0.0139605
-0.00404836
-0.0139344
-0.00379261
-0.0139092
-0.00352696
-0.013885
-0.00325155
-0.0138619
-0.00296663
-0.0138401
-0.00267249
-0.0138197
-0.0138007
-0.00546926
-0.0144179
0.00558546
-0.0053461
-0.0143965
-0.00521592
-0.014375
-0.00507852
-0.0143534
-0.00493371
-0.0143318
-0.00478132
-0.0143103
-0.00462123
-0.014289
-0.00445334
-0.0142679
-0.0042776
-0.014247
-0.00409398
-0.0142264
-0.00390253
-0.0142062
-0.0037033
-0.0141865
-0.00349642
-0.0141673
-0.00328205
-0.0141487
-0.00306038
-0.0141308
-0.00283167
-0.0141137
-0.00259621
-0.0140974
-0.00235432
-0.014082
-0.00210636
-0.0140677
-0.0140544
-0.00459628
-0.0145287
0.00470705
-0.00448038
-0.0145124
-0.0043591
-0.0144962
-0.0042324
-0.0144801
-0.00410025
-0.014464
-0.00396261
-0.014448
-0.00381948
-0.0144321
-0.00367084
-0.0144165
-0.00351671
-0.0144011
-0.0033571
-0.014386
-0.00319205
-0.0143713
-0.00302162
-0.014357
-0.00284588
-0.0143431
-0.00266493
-0.0143297
-0.0024789
-0.0143169
-0.00228793
-0.0143047
-0.0020922
-0.0142931
-0.00189192
-0.0142823
-0.00168732
-0.0142723
-0.014263
-0.00386858
-0.0146278
0.00396768
-0.00376511
-0.0146159
-0.00365732
-0.014604
-0.00354515
-0.0145922
-0.0034286
-0.0145805
-0.00330764
-0.0145689
-0.00318227
-0.0145575
-0.00305252
-0.0145463
-0.00291842
-0.0145352
-0.00278002
-0.0145244
-0.00263738
-0.0145139
-0.00249061
-0.0145037
-0.00233981
-0.0144939
-0.00218509
-0.0144844
-0.00202662
-0.0144754
-0.00186454
-0.0144668
-0.00169904
-0.0144586
-0.00153032
-0.014451
-0.00135859
-0.014444
-0.0144375
-0.00322394
-0.014716
0.00331222
-0.00313244
-0.0147074
-0.00303762
-0.0146988
-0.0029395
-0.0146904
-0.00283807
-0.0146819
-0.00273336
-0.0146736
-0.00262539
-0.0146655
-0.00251419
-0.0146575
-0.00239981
-0.0146496
-0.0022823
-0.014642
-0.00216171
-0.0146345
-0.00203812
-0.0146273
-0.00191161
-0.0146204
-0.00178227
-0.0146137
-0.0016502
-0.0146074
-0.00151553
-0.0146014
-0.00137837
-0.0145958
-0.00123888
-0.0145905
-0.00109719
-0.0145857
-0.0145812
-0.00267197
-0.014792
0.00274796
-0.0025933
-0.0147861
-0.00251202
-0.0147801
-0.00242812
-0.0147743
-0.00234162
-0.0147684
-0.00225254
-0.0147627
-0.0021609
-0.0147571
-0.00206675
-0.0147516
-0.00197013
-0.0147462
-0.00187108
-0.014741
-0.00176967
-0.0147359
-0.00166597
-0.014731
-0.00156006
-0.0147263
-0.00145202
-0.0147218
-0.00134194
-0.0147175
-0.00122993
-0.0147134
-0.00111609
-0.0147096
-0.00100055
-0.0147061
-0.00088343
-0.0147028
-0.0146998
-0.00217009
-0.0148561
0.0022342
-0.00210403
-0.0148521
-0.00203597
-0.0148482
-0.00196595
-0.0148443
-0.00189396
-0.0148404
-0.00182005
-0.0148366
-0.00174423
-0.0148329
-0.00166654
-0.0148293
-0.00158702
-0.0148258
-0.00150571
-0.0148223
-0.00142266
-0.014819
-0.00133793
-0.0148158
-0.00125157
-0.0148127
-0.00116364
-0.0148097
-0.00107423
-0.0148069
-0.000983398
-0.0148043
-0.000891233
-0.0148018
-0.000797819
-0.0147995
-0.000703249
-0.0147974
-0.0147954
-0.00172305
-0.0149082
0.00177511
-0.00166944
-0.0149057
-0.00161431
-0.0149033
-0.00155767
-0.0149009
-0.00149954
-0.0148986
-0.00143994
-0.0148962
-0.0013789
-0.014894
-0.00131645
-0.0148918
-0.00125261
-0.0148896
-0.00118743
-0.0148875
-0.00112095
-0.0148855
-0.00105321
-0.0148835
-0.000984266
-0.0148816
-0.000914161
-0.0148798
-0.000842958
-0.0148781
-0.000770715
-0.0148765
-0.000697497
-0.014875
-0.000623372
-0.0148736
-0.000548411
-0.0148723
-0.0148712
-0.00130539
-0.0149485
0.00134567
-0.00126401
-0.0149471
-0.00122154
-0.0149458
-0.00117798
-0.0149445
-0.00113335
-0.0149432
-0.00108767
-0.0149419
-0.00104095
-0.0149407
-0.000993228
-0.0149395
-0.000944519
-0.0149383
-0.000894854
-0.0149372
-0.000844263
-0.014936
-0.000792779
-0.014935
-0.000740437
-0.014934
-0.000687276
-0.014933
-0.000633337
-0.0149321
-0.000578662
-0.0149312
-0.000523298
-0.0149304
-0.000467293
-0.0149296
-0.000410698
-0.0149289
-0.0149283
-0.000917186
-0.0149771
0.000945758
-0.000887816
-0.0149765
-0.000857682
-0.0149759
-0.000826795
-0.0149754
-0.000795169
-0.0149748
-0.00076282
-0.0149743
-0.000729764
-0.0149737
-0.000696017
-0.0149732
-0.000661597
-0.0149727
-0.000626527
-0.0149722
-0.000590826
-0.0149717
-0.00055452
-0.0149713
-0.000517633
-0.0149708
-0.000480192
-0.0149704
-0.000442227
-0.01497
-0.000403767
-0.0149696
-0.000364846
-0.0149693
-0.000325496
-0.014969
-0.000285752
-0.0149687
-0.0149684
-0.000542842
-0.0149941
0.000559936
-0.000525346
-0.014994
-0.000507402
-0.0149939
-0.000489021
-0.0149937
-0.000470213
-0.0149936
-0.000450986
-0.0149935
-0.000431351
-0.0149934
-0.000411317
-0.0149933
-0.000390895
-0.0149931
-0.000370098
-0.014993
-0.000348938
-0.0149929
-0.00032743
-0.0149928
-0.000305587
-0.0149927
-0.000283427
-0.0149926
-0.000260965
-0.0149925
-0.000238219
-0.0149924
-0.000215209
-0.0149923
-0.000191952
-0.0149922
-0.00016847
-0.0149922
-0.0149921
-0.000181941
0.000187796
-0.000175929
-0.000169799
-0.000163549
-0.000157175
-0.000150678
-0.000144057
-0.000137314
-0.000130451
-0.000123469
-0.000116372
-0.000109163
-0.000101847
-9.44286e-05
-8.69123e-05
-7.93037e-05
-7.16085e-05
-6.38329e-05
-5.59831e-05
-0.0167781
-0.00423399
0.0210121
-0.0133706
-0.00340747
-0.0105897
-0.00278091
-0.00830747
-0.00228226
-0.00643321
-0.00187426
-0.00489842
-0.00153478
-0.00364926
-0.00124916
-0.0026422
-0.00100706
-0.00184125
-0.000800952
-0.00121606
-0.000625184
-0.00074062
-0.000475441
-0.000392222
-0.000348398
-0.0001507
-0.000241522
2.26832e-06
-0.000152969
8.38403e-05
-8.1572e-05
0.000110852
-2.7012e-05
9.91669e-05
1.16856e-05
6.3573e-05
3.5594e-05
2.32599e-05
4.03131e-05
2.326e-05
-0.014379
-0.00572491
0.0158699
-0.0127694
-0.00501701
-0.0111667
-0.00438365
-0.00963322
-0.00381574
-0.00820278
-0.00330471
-0.00689328
-0.00284428
-0.00571301
-0.00242944
-0.00466401
-0.00205606
-0.00374427
-0.00172069
-0.00294899
-0.00142046
-0.00227147
-0.00115296
-0.00170368
-0.000916182
-0.00123675
-0.000708455
-0.00086126
-0.000528458
-0.000567638
-0.000375194
-0.00034665
-0.000248
-0.000188444
-0.000146521
-8.21168e-05
-7.07334e-05
-2.09133e-05
-2.08904e-05
2.34661e-06
-0.011528
-0.00670311
0.0125062
-0.0104747
-0.00607025
-0.00939104
-0.00546735
-0.00831202
-0.00489476
-0.00726365
-0.00435308
-0.00626503
-0.00384289
-0.0053298
-0.00336467
-0.00446719
-0.00291866
-0.00368297
-0.00250492
-0.00298007
-0.00212336
-0.00235924
-0.00177379
-0.00181947
-0.00145595
-0.00135839
-0.00116954
-0.000972615
-0.00091423
-0.000658095
-0.000689714
-0.000410385
-0.00049571
-0.000224928
-0.000331977
-9.73296e-05
-0.000198332
-2.3578e-05
-9.46419e-05
-2.12314e-05
-0.00935386
-0.00754037
0.0101911
-0.00850285
-0.00692127
-0.00765375
-0.00631644
-0.00681914
-0.00572937
-0.00600977
-0.00516245
-0.00523474
-0.00461792
-0.00450165
-0.00409777
-0.0038166
-0.00360372
-0.00318429
-0.00313723
-0.00260811
-0.00269953
-0.00209027
-0.00229164
-0.00163188
-0.00191434
-0.00123315
-0.00156827
-0.000893495
-0.00125389
-0.000611679
-0.000971531
-0.00038597
-0.000721419
-0.000214268
-0.000503679
-9.42385e-05
-0.000318361
-2.34273e-05
-0.000165453
-4.46586e-05
-0.00849297
-0.00831894
0.00927155
-0.00771555
-0.00769868
-0.00694707
-0.00708493
-0.00619567
-0.00648076
-0.00546881
-0.00588931
-0.00477313
-0.0053136
-0.00411438
-0.00475651
-0.00349742
-0.00422068
-0.00292614
-0.00370851
-0.00240355
-0.00322213
-0.00193177
-0.00276342
-0.00151215
-0.00233396
-0.00114532
-0.0019351
-0.000831287
-0.00156792
-0.000569509
-0.00123331
-0.000359017
-0.000931911
-0.000198492
-0.000664204
-8.63634e-05
-0.000430489
-2.0901e-05
-0.000230915
-6.55597e-05
-0.00806378
-0.00907777
0.0088226
-0.00731197
-0.00845049
-0.00657408
-0.00782282
-0.00585647
-0.00719838
-0.00516505
-0.00658072
-0.00450523