/*--------------------------------*- C++ -*----------------------------------*\
| =========                 |                                                 |
| \\      /  F ield         | OpenFOAM: The Open Source CFD Toolbox           |
|  \\    /   O peration     | Version:  v1806                                 |
|   \\  /    A nd           | Web:      www.OpenFOAM.com                      |
|    \\/     M anipulation  |                                                 |
\*---------------------------------------------------------------------------*/
FoamFile
{
    version     2.0;
    format      ascii;
    class       surfaceScalarField;
    location    "4";
    object      phi;
}
// * * * * * * * * * * * * * * * * * * * * * * * * * * * * * * * * * * * * * //

dimensions      [0 3 -1 0 0 0 0];
oriented        oriented;


internalField   nonuniform List<scalar> 
4680
(
0.750306
0.000959824
0.748664
-0.0425484
0.747927
-0.0659989
0.752432
-0.0308783
0.753916
-0.042653
0.747049
-0.146679
0.741995
-0.220308
0.744297
-0.183309
0.75153
-0.126952
0.752352
-0.201104
0.742512
-0.351287
0.730118
-0.484075
0.719331
-0.487676
0.709869
-0.499457
0.688286
-0.534342
0.657899
-0.712966
0.608532
-0.85692
0.551719
-1.00326
0.492434
-1.06668
-1.0804
0.430788
0.750561
0.000398994
0.74893
-0.0409172
0.747774
-0.0648434
0.751442
-0.0345458
0.751577
-0.0427887
0.74654
-0.141642
0.74142
-0.215188
0.740086
-0.181975
0.7445
-0.131366
0.74458
-0.201184
0.734755
-0.341463
0.721256
-0.470575
0.701846
-0.468266
0.687892
-0.485503
0.664419
-0.510868
0.640152
-0.6887
0.594431
-0.811199
0.547759
-0.956585
0.497083
-1.016
-1.02915
0.44584
0.750925
-0.000526143
0.748668
-0.03866
0.747727
-0.0639027
0.749694
-0.0365122
0.749596
-0.0426907
0.746145
-0.138191
0.739515
-0.208558
0.737985
-0.180445
0.741126
-0.134506
0.738882
-0.198941
0.729711
-0.332292
0.716727
-0.457591
0.698894
-0.450433
0.690603
-0.477212
0.668347
-0.488612
0.642925
-0.663278
0.59518
-0.763454
0.549049
-0.910454
0.497295
-0.964246
-0.976931
0.445074
0.750475
-0.00100074
0.747957
-0.0361428
0.747389
-0.0633346
0.748365
-0.0374883
0.749453
-0.0437785
0.745121
-0.133859
0.737901
-0.201337
0.73608
-0.178624
0.735929
-0.134355
0.733617
-0.196629
0.726097
-0.324772
0.711194
-0.442688
0.690568
-0.429807
0.677048
-0.463692
0.647568
-0.459132
0.626
-0.641709
0.585507
-0.722962
0.549818
-0.874765
0.506883
-0.921311
-0.932599
0.462551
0.749529
-0.000529789
0.748292
-0.034906
0.747446
-0.0624881
0.748154
-0.0381966
0.749356
-0.0449807
0.743475
-0.127978
0.736408
-0.194271
0.732712
-0.174928
0.731788
-0.133431
0.730453
-0.195294
0.720311
-0.31463
0.703265
-0.425642
0.684589
-0.411131
0.674747
-0.453851
0.649352
-0.433737
0.6339
-0.626257
0.592025
-0.681088
0.554014
-0.836754
0.506832
-0.874128
-0.885983
0.460215
0.749753
-0.000282707
0.749435
-0.0345883
0.747123
-0.060176
0.747989
-0.0390625
0.748068
-0.04506
0.741588
-0.121497
0.735237
-0.18792
0.730355
-0.170046
0.729418
-0.132494
0.726021
-0.191897
0.714877
-0.303485
0.7002
-0.410965
0.681649
-0.39258
0.667208
-0.439409
0.636858
-0.403387
0.622781
-0.61218
0.582284
-0.64059
0.553047
-0.807517
0.51483
-0.835911
-0.848909
0.477757
0.750884
-0.00116708
0.7491
-0.0328042
0.745973
-0.0570487
0.747134
-0.0402236
0.746209
-0.0441344
0.741013
-0.116302
0.734496
-0.181402
0.728017
-0.163567
0.72731
-0.131787
0.722309
-0.186897
0.710605
-0.29178
0.694624
-0.394984
0.674415
-0.372371
0.662369
-0.427364
0.638461
-0.379479
0.629446
-0.603165
0.585456
-0.5966
0.554792
-0.776853
0.511603
-0.792723
-0.810159
0.472853
0.750703
-0.00186966
0.74762
-0.0297211
0.745907
-0.0553358
0.74603
-0.0403471
0.745368
-0.0434728
0.741171
-0.112105
0.732655
-0.172885
0.725797
-0.15671
0.724604
-0.130594
0.717031
-0.179323
0.706538
-0.281287
0.69108
-0.379526
0.670648
-0.351939
0.656923
-0.41364
0.629985
-0.352541
0.617969
-0.591149
0.573215
-0.551846
0.553589
-0.757226
0.51873
-0.757865
-0.782518
0.49109
0.749585
-0.00145461
0.748193
-0.0283295
0.746753
-0.0538953
0.745136
-0.0387298
0.745611
-0.0439479
0.739741
-0.106235
0.730177
-0.163321
0.724522
-0.151054
0.722052
-0.128124
0.713883
-0.171155
0.703833
-0.271238
0.684845
-0.360538
0.664677
-0.331771
0.653019
-0.401981
0.629873
-0.329395
0.618295
-0.579571
0.572426
-0.505978
0.556125
-0.740925
0.513129
-0.714868
-0.753291
0.483902
0.749894
-0.0013489
0.749425
-0.0278603
0.745957
-0.0504271
0.744635
-0.0374079
0.744658
-0.0439707
0.737609
-0.0991872
0.730121
-0.155832
0.723216
-0.14415
0.718511
-0.123419
0.711261
-0.163905
0.700415
-0.260391
0.680134
-0.340256
0.663265
-0.314903
0.647854
-0.386569
0.622016
-0.303557
0.607755
-0.56531
0.566735
-0.464958
0.563789
-0.737978
0.523012
-0.674092
-0.734147
0.503869
0.750549
-0.0018983
0.7485
-0.0258112
0.745264
-0.0471911
0.744613
-0.0367566
0.74273
-0.0420882
0.737206
-0.0936628
0.729736
-0.148362
0.720274
-0.134688
0.71686
-0.120006
0.709458
-0.156503
0.694758
-0.245691
0.674125
-0.319624
0.659397
-0.300174
0.641368
-0.368541
0.62346
-0.285649
0.610481
-0.552331
0.57074
-0.425217
0.567777
-0.735016
0.510823
-0.617138
-0.716054
0.49273
0.749925
-0.00182308
0.747742
-0.0236282
0.745983
-0.0454327
0.744069
-0.0348422
0.742226
-0.0402454
0.737423
-0.0888595
0.727337
-0.138276
0.71866
-0.12601
0.715186
-0.116531
0.70553
-0.146847
0.691614
-0.231776
0.673831
-0.301841
0.656547
-0.28289
0.631691
-0.343685
0.618018
-0.271977
0.600116
-0.534429
0.566239
-0.39134
0.572213
-0.74099
0.514329
-0.559254
-0.713344
0.51162
0.749742
-0.00156537
0.748652
-0.0225382
0.745738
-0.0425185
0.743315
-0.0324188
0.7419
-0.0388307
0.735604
-0.0825632
0.72599
-0.128663
0.719177
-0.119197
0.712017
-0.109371
0.702934
-0.137764
0.689427
-0.218268
0.668406
-0.28082
0.650962
-0.265445
0.628624
-0.321347
0.62294
-0.266292
0.59298
-0.50447
0.559853
-0.358212
0.56016
-0.741297
0.489404
-0.488498
-0.728557
0.504616
0.750169
-0.00173454
0.748322
-0.020691
0.744809
-0.0390056
0.743462
-0.0310713
0.741114
-0.0364834
0.734844
-0.0762927
0.725625
-0.119445
0.717111
-0.110683
0.708738
-0.100997
0.702781
-0.131808
0.686305
-0.201792
0.664321
-0.258836
0.648238
-0.249363
0.622596
-0.295705
0.612223
-0.25592
0.573289
-0.465536
0.559033
-0.343956
0.562642
-0.744906
0.498589
-0.424445
-0.771338
0.541371
0.749869
-0.00160331
0.748001
-0.0188232
0.745265
-0.0362698
0.743216
-0.0290223
0.739993
-0.0332603
0.734618
-0.0709178
0.724206
-0.109033
0.716262
-0.102739
0.708014
-0.0927493
0.699575
-0.123369
0.680344
-0.182561
0.662379
-0.240871
0.646654
-0.233637
0.620191
-0.269242
0.611251
-0.24698
0.571797
-0.426081
0.563693
-0.335853
0.541777
-0.722989
0.480233
-0.362902
-0.850499
0.559394
0.749861
-0.00146386
0.748349
-0.017312
0.744864
-0.032785
0.742485
-0.026643
0.739925
-0.0307003
0.734091
-0.0650832
0.722699
-0.0976413
0.715214
-0.0952542
0.705716
-0.0832514
0.697627
-0.11528
0.680095
-0.165029
0.66072
-0.221496
0.635386
-0.208303
0.612768
-0.246624
0.603229
-0.237441
0.571052
-0.393904
0.572591
-0.337391
0.532875
-0.683273
0.498565
-0.328592
-0.955479
0.603545
0.7499
-0.00136389
0.748077
-0.015489
0.744655
-0.0293628
0.742644
-0.0246319
0.739296
-0.0273526
0.73291
-0.0586971
0.722538
-0.0872695
0.714432
-0.0871476
0.704308
-0.0731274
0.695177
-0.106149
0.676219
-0.14607
0.657148
-0.202425
0.635128
-0.186283
0.616582
-0.228078
0.589983
-0.210842
0.546895
-0.350817
0.53473
-0.325226
0.477354
-0.625896
0.490777
-0.342016
-1.07667
0.611972
0.74982
-0.00118383
0.748121
-0.0137902
0.744701
-0.0259425
0.74208
-0.0220113
0.738844
-0.0241161
0.732765
-0.052618
0.721841
-0.0763462
0.712391
-0.0776974
0.703612
-0.0643487
0.693647
-0.0961836
0.674849
-0.127272
0.653794
-0.181371
0.628862
-0.161351
0.608929
-0.208144
0.586056
-0.187969
0.564799
-0.32956
0.551694
-0.312121
0.49616
-0.570363
0.532242
-0.378097
-1.15662
0.612187
0.749861
-0.0010446
0.748046
-0.0119758
0.744506
-0.0224019
0.741888
-0.0193939
0.738758
-0.0209858
0.731749
-0.0456084
0.721354
-0.0659521
0.711744
-0.0680874
0.703015
-0.0556195
0.690392
-0.0835605
0.673271
-0.110151
0.651477
-0.159577
0.628023
-0.137897
0.604971
-0.185093
0.575286
-0.158284
0.542674
-0.296948
0.501721
-0.271168
0.456304
-0.524946
0.515709
-0.437502
-1.16042
0.519506
0.749833
-0.000877616
0.747984
-0.0101266
0.744526
-0.0189442
0.741622
-0.0164898
0.738391
-0.0177548
0.731348
-0.0385658
0.721193
-0.0557967
0.710425
-0.057319
0.70203
-0.047225
0.68927
-0.0708003
0.672453
-0.0933336
0.646896
-0.134021
0.625397
-0.116397
0.598267
-0.157963
0.575404
-0.13542
0.536711
-0.258256
0.499742
-0.234199
0.44891
-0.474114
0.455507
-0.444099
0.38755
-1.09246
0.376591
-0.960233
0.325514
-0.924576
0.277687
-0.878782
0.232428
-0.820736
0.189894
-0.754204
0.151302
-0.683587
0.117821
-0.61194
0.0899868
-0.541863
0.0676889
-0.475404
-0.414136
0.0503775
0.397316
-0.911709
0.351491
-0.878752
0.308551
-0.835842
0.266821
-0.779006
0.226166
-0.713549
0.187682
-0.645103
0.152747
-0.577006
0.12229
-0.511406
0.0965641
-0.449678
-0.392987
0.0754153
0.394906
-0.861541
0.348489
-0.832335
0.305967
-0.79332
0.264691
-0.73773
0.224578
-0.673436
0.186988
-0.607512
0.15332
-0.543338
0.124446
-0.482532
0.100406
-0.425638
-0.373317
0.0807353
0.417435
-0.816425
0.375861
-0.790761
0.337755
-0.755214
0.298979
-0.698954
0.258901
-0.633358
0.219302
-0.567913
0.182111
-0.506147
0.148842
-0.449263
0.120327
-0.397123
-0.349724
0.0967341
0.412751
-0.76896
0.371068
-0.749078
0.33425
-0.718397
0.296753
-0.661457
0.257893
-0.594498
0.220148
-0.530168
0.185563
-0.471562
0.154937
-0.418636
0.128287
-0.370474
-0.32695
0.105513
0.435738
-0.726942
0.399457
-0.712796
0.36675
-0.685689
0.330357
-0.625064
0.289187
-0.553328
0.246633
-0.487615
0.206527
-0.431456
0.171189
-0.383297
0.141164
-0.34045
-0.301932
0.116146
0.429366
-0.683455
0.394833
-0.678263
0.364773
-0.65563
0.330426
-0.590716
0.291325
-0.514227
0.251364
-0.447653
0.213625
-0.393718
0.179671
-0.349343
0.149968
-0.310747
-0.276563
0.124599
0.454281
-0.646647
0.425687
-0.649669
0.398266
-0.628208
0.362244
-0.554695
0.317528
-0.469511
0.270791
-0.400916
0.227716
-0.350643
0.190499
-0.312126
0.158952
-0.2792
-0.25007
0.132459
0.449455
-0.6122
0.426104
-0.626318
0.401324
-0.603428
0.367153
-0.520524
0.324101
-0.426459
0.278441
-0.355257
0.235659
-0.30786
0.198206
-0.274673
0.166157
-0.247151
-0.223022
0.139109
0.479029
-0.587361
0.462995
-0.610284
0.435932
-0.576365
0.395075
-0.479668
0.343838
-0.375222
0.291468
-0.302886
0.244683
-0.261076
0.205319
-0.23531
0.172341
-0.214172
-0.19544
0.144759
0.478852
-0.573483
0.472973
-0.604405
0.446147
-0.549539
0.403982
-0.437503
0.351391
-0.322631
0.29779
-0.249285
0.250127
-0.213413
0.210326
-0.195508
0.177086
-0.180932
-0.16768
0.149326
0.512481
-0.574344
0.513386
-0.60531
0.477934
-0.514086
0.424279
-0.383848
0.362356
-0.260708
0.303527
-0.190455
0.25386
-0.163746
0.213689
-0.155338
0.180511
-0.147754
-0.140045
0.152876
0.522185
-0.591913
0.528496
-0.611621
0.486727
-0.472317
0.42816
-0.325281
0.362405
-0.194954
0.302864
-0.130914
0.253918
-0.1148
0.214853
-0.116273
0.18253
-0.115431
-0.112958
0.155442
0.564383
-0.614925
0.56046
-0.607698
0.499797
-0.411654
0.429852
-0.255336
0.356746
-0.121848
0.297288
-0.0714563
0.250566
-0.068078
0.213883
-0.0795902
0.183252
-0.0847997
-0.0868609
0.157155
0.583475
-0.639006
0.561174
-0.585397
0.482896
-0.333375
0.409302
-0.181743
0.33611
-0.0486552
0.283624
-0.0189703
0.242899
-0.0273533
0.210646
-0.0473368
0.182838
-0.0569918
-0.0622143
0.158191
0.606146
-0.641607
0.550162
-0.529413
0.448348
-0.231561
0.371865
-0.10526
0.303323
0.0198861
0.262434
0.0219188
0.231065
0.00401586
0.205206
-0.0214775
0.181533
-0.0333188
-0.0394728
0.158791
0.573734
-0.603369
0.479157
-0.434835
0.367254
-0.119658
0.303326
-0.0413321
0.255326
0.0678864
0.234017
0.0432274
0.215803
0.0222297
0.198049
-0.00372365
0.179183
-0.0144528
-0.0195585
0.159269
0.500593
-0.491775
0.360535
-0.294777
0.248514
-0.00763692
0.206611
0.000570239
0.194509
0.0799885
0.197716
0.0400206
0.19549
0.0244557
0.186766
0.00500026
0.175221
-0.00290718
-0.00168156
0.157344
0.335989
-0.308258
0.180325
-0.139113
0.115572
0.0571168
0.108184
0.00795807
0.137082
0.0510906
0.156751
0.0203514
0.166018
0.0151891
0.164825
0.00619298
0.159426
0.00249159
0.00666251
0.151082
0.0792913
-0.0598217
-0.00270493
0.00525314
0.0563437
0.0766951
0.0918842
0.0980772
0.100569
0.107231
0.0378588
-0.342184
0.0284601
-0.297682
0.0214921
-0.2585
0.0163646
-0.224319
0.0125996
-0.194667
0.00982911
-0.169008
0.00777908
-0.146789
0.00624991
-0.127488
0.00509828
-0.110635
0.00422205
-0.0958206
0.00354859
-0.0826968
0.00302629
-0.0709704
0.00261831
-0.060395
0.00229832
-0.0507621
0.00204747
-0.0418924
0.00185243
-0.0336285
0.00170428
-0.0258275
0.00159859
-0.0183533
0.00153512
-0.0110878
-0.00422383
0.0591889
-0.325957
0.0462954
-0.284788
0.0362239
-0.248428
0.028456
-0.216551
0.022512
-0.188724
0.0179789
-0.164475
0.0145199
-0.14333
0.0118708
-0.124839
0.00983063
-0.108595
0.00824848
-0.0942384
0.0070128
-0.0814611
0.00604153
-0.0699991
0.00527453
-0.059628
0.00466787
-0.0501554
0.00418964
-0.0414141
0.00381712
-0.0332559
0.00353522
-0.0255456
0.00333686
-0.018155
0.00322277
-0.0109737
-0.00418579
0.0654728
-0.310695
0.053037
-0.272352
0.0429848
-0.238376
0.0349281
-0.208494
0.0285181
-0.182314
0.0234442
-0.159401
0.0194376
-0.139323
0.016273
-0.121675
0.0137679
-0.10609
0.0117777
-0.0922483
0.0101904
-0.0798738
0.0089202
-0.0687289
0.00790233
-0.0586102
0.00708821
-0.0493413
0.00644202
-0.0407679
0.0059381
-0.032752
0.00555963
-0.0251672
0.00529902
-0.0178944
0.005157
-0.0108317
-0.00414102
0.0784836
-0.292444
0.0637507
-0.257619
0.051945
-0.22657
0.0425298
-0.199079
0.0350434
-0.174827
0.029099
-0.153457
0.0243777
-0.134602
0.020621
-0.117918
0.0176228
-0.103091
0.0152209
-0.0898464
0.0132898
-0.0779427
0.0117334
-0.0671725
0.0104784
-0.0573552
0.00947026
-0.0483331
0.00866833
-0.039966
0.0080437
-0.0321274
0.00757742
-0.0247009
0.00726035
-0.0175773
0.00709145
-0.0106628
-0.00408844
0.0872223
-0.274153
0.0719637
-0.242361
0.0594147
-0.214021
0.0492057
-0.18887
0.0409624
-0.166584
0.0343352
-0.146829
0.0290161
-0.129283
0.0247442
-0.113646
0.0213061
-0.0996533
0.0185307
-0.087071
0.0162839
-0.075696
0.0144621
-0.0653506
0.0129858
-0.0558789
0.0117953
-0.0471426
0.0108462
-0.039017
0.0101069
-0.0313881
0.00955624
-0.0241502
0.00918312
-0.0172042
0.00898419
-0.0104638
-0.00402533
0.0963563
-0.254363
0.0799468
-0.225951
0.0664444
-0.200519
0.0554158
-0.177841
0.0464609
-0.157629
0.0392168
-0.139585
0.0333651
-0.123431
0.0286351
-0.108916
0.024804
-0.0958221
0.0216924
-0.0839595
0.019159
-0.0731625
0.0170939
-0.0632855
0.015413
-0.0541981
0.0140527
-0.0457823
0.0129656
-0.0379298
0.0121175
-0.03054
0.0114856
-0.0235183
0.0110568
-0.0167754
0.0108255
-0.0102325
-0.00394971
0.104147
-0.233911
0.0869833
-0.208787
0.0727421
-0.186278
0.0610358
-0.166135
0.0514793
-0.148072
0.0437092
-0.131815
0.0374005
-0.117122
0.0322744
-0.10379
0.0281003
-0.091648
0.0246921
-0.0805512
0.0219028
-0.0703732
0.0196182
-0.0610009
0.0177506
-0.0523305
0.0162337
-0.0442654
0.015018
-0.0367142
0.0140677
-0.0295897
0.0133582
-0.0228088
0.0128749
-0.016292
0.01261
-0.0099676
-0.00386058
0.111153
-0.212605
0.0932483
-0.190883
0.0783489
-0.171378
0.0660628
-0.153849
0.056002
-0.138012
0.0477946
-0.123608
0.0411056
-0.110433
0.0356476
-0.0983319
0.0311823
-0.0871827
0.0275184
-0.0768874
0.0245052
-0.06736
0.0220256
-0.0585213
0.0199901
-0.0502949
0.0183306
-0.0426059
0.0169964
-0.03538
0.0159507
-0.028544
0.0151678
-0.0220259
0.0146316
-0.0157558
0.014333
-0.00966903
-0.00375758
0.117178
-0.190674
0.0986741
-0.172379
0.0832314
-0.155936
0.0704732
-0.141091
0.0600098
-0.127548
0.0514568
-0.115055
0.044467
-0.103444
0.0387429
-0.0926078
0.0340398
-0.0824797
0.0301625
-0.0730101
0.0269582
-0.0641557
0.0243089
-0.055872
0.0221243
-0.0481104
0.0203365
-0.040818
0.0188942
-0.0339378
0.0177603
-0.0274101
0.0169085
-0.0211742
0.0163219
-0.0151691
0.0159901
-0.0093373
-0.00364067
0.122269
-0.168185
0.10326
-0.153369
0.0873746
-0.14005
0.0742494
-0.127966
0.063487
-0.116786
0.0546834
-0.106251
0.0474747
-0.0962349
0.0415524
-0.0866854
0.036666
-0.0775933
0.0326181
-0.0689622
0.0292558
-0.0607934
0.026462
-0.0530782
0.0241478
-0.0457962
0.0222458
-0.0389161
0.020706
-0.0323979
0.0194913
-0.0261954
0.0185755
-0.0202584
0.017941
-0.0145346
0.0175771
-0.00897341
-0.00351002
0.126398
-0.145256
0.106989
-0.133961
0.0907588
-0.12382
0.0773732
-0.11458
0.0664201
-0.105833
0.0574651
-0.0972963
0.0501225
-0.0888924
0.0440717
-0.0806346
0.0390572
-0.0725788
0.0348816
-0.0647866
0.0313942
-0.057306
0.028481
-0.050165
0.0260559
-0.0433711
0.0240541
-0.0369142
0.0224271
-0.0307709
0.021139
-0.0249073
0.0201641
-0.0192834
0.0194847
-0.0138553
0.01909
-0.00857869
-0.00336597
0.129569
-0.12195
0.109856
-0.114247
0.093364
-0.107328
0.0798265
-0.101043
0.0687978
-0.0948039
0.0597961
-0.0882946
0.0524084
-0.0815047
0.0463002
-0.0745263
0.041213
-0.0674916
0.0369521
-0.0605257
0.0333719
-0.0537258
0.0303636
-0.0471567
0.0278459
-0.0408534
0.0257579
-0.0348262
0.0240537
-0.0290667
0.0226994
-0.0235531
0.0216704
-0.0182544
0.0209493
-0.0131342
0.0205253
-0.00815468
-0.003209
0.131785
-0.0982924
0.11185
-0.0943115
0.095163
-0.0906416
0.0815891
-0.0874687
0.0706106
-0.0838254
0.061675
-0.079359
0.0543349
-0.0741646
0.0482418
-0.0684332
0.0431369
-0.0623867
0.0388319
-0.0562206
0.0351895
-0.0500834
0.032109
-0.0440763
0.029516
-0.0382604
0.0273546
-0.0326648
0.0255828
-0.0272949
0.0241694
-0.0221396
0.023091
-0.0171761
0.0223314
-0.0123746
0.0218798
-0.00770307
-0.00303965
0.133066
-0.074204
0.112942
-0.0741871
0.0961167
-0.0738163
0.0826387
-0.0739906
0.0718519
-0.0730386
0.0631051
-0.0706122
0.0559099
-0.0669695
0.049905
-0.0624282
0.0448359
-0.0573177
0.0405258
-0.0519105
0.0368498
-0.0464074
0.0337183
-0.0409449
0.0310657
-0.0356078
0.0288428
-0.0304418
0.0270123
-0.0254645
0.0255461
-0.0206734
0.0244231
-0.0160531
0.023628
-0.0115795
0.0231505
-0.0072256
-0.00285856
0.133433
-0.0494454
0.113076
-0.0538301
0.0961689
-0.0569094
0.082951
-0.0607727
0.0725185
-0.0626061
0.064096
-0.0621897
0.0571477
-0.0600213
0.0513036
-0.056584
0.0463213
-0.0523354
0.0420418
-0.047631
0.0383578
-0.0427234
0.035194
-0.0377811
0.0324957
-0.0329094
0.0302217
-0.0281678
0.0283404
-0.0235832
0.0268274
-0.0191604
0.0256641
-0.0148897
0.0248364
-0.0107518
0.0243348
-0.00672404
-0.00266638
0.132908
-0.0235617
0.112148
-0.0330702
0.0952171
-0.0399787
0.0824923
-0.0480479
0.0726092
-0.052723
0.0646649
-0.0542455
0.0580703
-0.0534266
0.0524575
-0.0509713
0.0476084
-0.0474863
0.0433908
-0.0434134
0.0397205
-0.039053
0.03654
-0.0346006
0.0338076
-0.0301771
0.0314914
-0.0258516
0.0295662
-0.0216579
0.0280116
-0.0176059
0.0268118
-0.0136899
0.0259543
-0.00989428
0.0254304
-0.00620011
-0.00246378
0.131468
0.00423871
0.109903
-0.0115051
0.0930796
-0.0231549
0.0812065
-0.0361748
0.07213
-0.0436465
0.0648415
-0.0469569
0.0587099
-0.047295
0.0533937
-0.0456551
0.0487173
-0.0428098
0.0445865
-0.0392827
0.0409465
-0.035413
0.0377612
-0.0314153
0.0350038
-0.0274197
0.0326525
-0.0235004
0.030689
-0.0196944
0.0290974
-0.0160143
0.0278646
-0.0124571
0.0269798
-0.00900951
0.0264352
-0.00565549
-0.00225147
0.127687
0.0338959
0.105874
0.0103077
0.0898421
-0.00712326
0.0791512
-0.0254838
0.0711425
-0.0356377
0.0646818
-0.0404963
0.0591126
-0.0417257
0.0541468
-0.0406893
0.0496722
-0.0383352
0.0456449
-0.0352554
0.042046
-0.0318141
0.0388636
-0.0282329
0.0360873
-0.0246434
0.0337061
-0.0211192
0.0317086
-0.0176969
0.0300836
-0.0143893
0.0288207
-0.0111942
0.027911
-0.00809976
0.0273473
-0.00509178
-0.00203011
0.121481
0.0634969
0.0985226
0.0332661
0.0840948
0.00730456
0.0757524
-0.0171415
0.0695397
-0.029425
0.0642185
-0.035175
0.0593301
-0.0368374
0.054758
-0.0361173
0.0505014
-0.0340786
0.0465843
-0.0313383
0.04303
-0.0282598
0.0398536
-0.0250565
0.0370614
-0.0218513
0.0346534
-0.0187111
0.032625
-0.0156685
0.0309694
-0.0127337
0.029679
-0.00990376
0.0287462
-0.00716703
0.0281649
-0.00451047
-0.00180037
0.0985256
0.0722027
0.0842232
0.0475685
0.0766768
0.0148509
0.0719944
-0.0124591
0.0677936
-0.0252243
0.0636634
-0.0310447
0.0594648
-0.0326388
0.0552834
-0.0319359
0.0512378
-0.030033
0.0474244
-0.0275248
0.0439104
-0.0247458
0.0407379
-0.021884
0.0379298
-0.0190431
0.035496
-0.0162774
0.0334385
-0.013611
0.0317544
-0.0110496
0.0304384
-0.00858773
0.0294844
-0.00621308
0.0288869
-0.00391296
-0.00156292
0.0365268
0.0356759
0.0455248
0.0385705
0.0521467
0.00822904
0.0535549
-0.0138673
0.0526502
-0.0243195
0.0504719
-0.0288664
0.0476526
-0.0298196
0.0445783
-0.0288616
0.0414767
-0.0269314
0.0384871
-0.0245351
0.0356963
-0.0219551
0.0331563
-0.019344
0.0308961
-0.0167829
0.02893
-0.0143114
0.0272635
-0.0119445
0.0258966
-0.00968267
0.0248265
-0.00751763
0.0240492
-0.00543579
0.0235603
-0.00342405
-0.00136814
0.0199199
0.0157559
0.0376609
0.0208295
0.0476488
-0.0017588
0.0513966
-0.0176152
0.0517317
-0.0246546
0.0502355
-0.0273703
0.047786
-0.02737
0.0449017
-0.0259773
0.0418912
-0.0239209
0.038939
-0.021583
0.0361564
-0.0191725
0.0336091
-0.0167967
0.0313339
-0.0145077
0.0293499
-0.0123273
0.0276651
-0.0102597
0.0262813
-0.00829882
0.0251965
-0.00643286
0.0244073
-0.00464665
0.0239096
-0.00292626
-0.00116922
0.0113655
0.00439045
0.0324527
-0.000257765
0.0444529
-0.013759
0.049783
-0.0229453
0.0511295
-0.0260011
0.050173
-0.0264137
0.048002
-0.025199
0.0452522
-0.0232275
0.0422982
-0.0209668
0.0393625
-0.0186473
0.0365758
-0.0163858
0.0340142
-0.0142351
0.0317204
-0.0122139
0.0297167
-0.0103237
0.0280132
-0.00855621
0.0266127
-0.00689826
0.0255138
-0.00533399
0.0247135
-0.00384631
0.0242075
-0.00242028
-0.000966484
0.009845
-0.00545455
0.0307893
-0.0212021
0.0430639
-0.0260336
0.0491484
-0.0290298
0.0510139
-0.0278667
0.0503552
-0.025755
0.0483332
-0.0231769
0.0456448
-0.0205391
0.0427054
-0.0180275
0.0397616
-0.0157034
0.0369565
-0.0135807
0.0343725
-0.0116511
0.0320558
-0.00989721
0.0300306
-0.00829841
0.0283078
-0.00683339
0.0268906
-0.00548113
0.0257782
-0.00422153
0.0249673
-0.00303544
0.0244538
-0.00190673
-0.000760299
0.00809101
-0.0135456
0.0294388
-0.0425498
0.042586
-0.0391807
0.0492001
-0.035644
0.0513507
-0.0300172
0.0507959
-0.0252003
0.0487936
-0.0211746
0.046088
-0.0178335
0.0431172
-0.0150567
0.0401383
-0.0127245
0.0372993
-0.0107417
0.0346843
-0.00903615
0.0323401
-0.00755304
0.0302911
-0.00624943
0.0285483
-0.00509054
0.0271147
-0.00404753
0.0259891
-0.00309599
0.0251684
-0.00221467
0.0246479
-0.00138627
-0.000551049
0.00697629
-0.0205219
0.0292017
-0.0647753
0.043298
-0.053277
0.0500847
-0.0424307
0.0521926
-0.0321251
0.0515157
-0.0245233
0.0493915
-0.0190505
0.0465849
-0.0150268
0.0435343
-0.0120061
0.0404926
-0.00968287
0.0376038
-0.00785285
0.0349489
-0.00638126
0.0325726
-0.00517674
0.0304977
-0.00417454
0.0287341
-0.00332698
0.0272842
-0.00259759
0.0261461
-0.0019579
0.0253161
-0.00138471
0.0247895
-0.000859599
-0.000339128
0.00743092
-0.0279528
0.0304569
-0.0878013
0.0453174
-0.0681375
0.0518483
-0.0489615
0.0535548
-0.0338317
0.0525163
-0.0234848
0.0501243
-0.0166585
0.0471321
-0.0120346
0.0439539
-0.00882786
0.0408223
-0.00655121
0.0378682
-0.0048988
0.0351649
-0.00367799
0.0327521
-0.00276391
0.0306494
-0.00207179
0.0288645
-0.00154216
0.0273985
-0.00113154
0.0262484
-0.000807856
0.02541
-0.000546285
0.0248779
-0.000327439
-0.000124954
0.010947
-0.0388997
0.0341475
-0.111002
0.0491684
-0.0831584
0.0546503
-0.0544434
0.0554602
-0.0346416
0.0537877
-0.0218123
0.0509784
-0.0138492
0.0477195
-0.00877573
0.0443693
-0.00547774
0.0411227
-0.00330457
0.0380895
-0.00186562
0.0353303
-0.000918768
0.0328771
-0.000310695
0.0307449
6.04012e-05
0.0289386
0.000264167
0.0274568
0.000350196
0.0262956
0.000353397
0.0254495
0.00029977
0.0249127
0.000209426
9.10275e-05
0.0308032
-0.0697029
0.0461983
-0.126397
0.0562347
-0.0931948
0.0588041
-0.0570128
0.0579293
-0.0337668
0.0553011
-0.0191841
0.051928
-0.010476
0.0483303
-0.00517809
0.0447701
-0.00191752
0.0413872
7.83724e-05
0.0382634
0.00125818
0.035442
0.00190257
0.0329457
0.00218562
0.0307832
0.00222289
0.0289553
0.0020921
0.0274585
0.00184705
0.0262869
0.00152499
0.0254341
0.00115253
0.0248934
0.000750154
0.000308336
0.0631203
-0.132823
0.06458
-0.127857
0.0666492
-0.095264
0.0642965
-0.0546601
0.0608847
-0.0303549
0.0569902
-0.0152897
0.0529317
-0.00641746
0.0489393
-0.00118571
0.0451414
0.00188035
0.0416084
0.00361138
0.0383846
0.00448199
0.0354965
0.00479067
0.0329549
0.00472718
0.0307617
0.00441617
0.0289128
0.00394093
0.0274019
0.00335798
0.0262211
0.0027058
0.0253627
0.00201093
0.0248191
0.00129375
0.00052655
0.177812
-0.121906
-0.188729
0.14625
-0.0962943
0.119715
-0.068729
0.103556
-0.0385014
0.0926489
-0.0194476
0.0843325
-0.00697319
0.0771908
0.000724249
0.0707601
0.00524492
0.0648973
0.00774321
0.0595796
0.00892908
0.054804
0.00925757
0.0505691
0.00902557
0.0468683
0.00842794
0.0436905
0.00759394
0.0410216
0.00660983
0.0388465
0.00553313
0.0371502
0.00440206
0.0359193
0.00324188
0.0351418
0.00207125
0.0008386
0.191014
-0.0757174
-0.237203
0.152327
-0.0576075
0.125579
-0.0419811
0.108758
-0.0216797
0.0965962
-0.00728611
0.0869897
0.00263327
0.0788547
0.00885932
0.0717089
0.0123906
0.065364
0.0140881
0.0597253
0.0145678
0.0547384
0.0142445
0.0503654
0.0133985
0.0465754
0.012218
0.0433408
0.0108285
0.0406368
0.00931383
0.038441
0.00772901
0.0367335
0.00610952
0.0354977
0.00447767
0.0347197
0.00284924
0.00114966
0.191588
-0.0324783
-0.234827
0.158702
-0.024721
0.133259
-0.0165387
0.114958
-0.00337871
0.100782
0.00688986
0.0895352
0.0138805
0.0802744
0.0181201
0.0723995
0.0202656
0.0655819
0.0209057
0.0596367
0.020513
0.0544516
0.0194296
0.0499519
0.0178983
0.0460826
0.0160873
0.0428003
0.0141108
0.0400693
0.0120448
0.0378598
0.00993852
0.0361471
0.00782218
0.0349113
0.00571347
0.0341366
0.00362399
0.00145799
0.19446
0.0041713
-0.231109
0.16355
0.00618873
0.137646
0.00936538
0.118189
0.0160787
0.103096
0.0219827
0.0910314
0.025945
0.0810731
0.0280783
0.0726675
0.0286713
0.0654716
0.0281016
0.0592691
0.0267155
0.0539156
0.0247831
0.04931
0.0225039
0.0453776
0.0200197
0.0420607
0.0174277
0.0393135
0.014792
0.0370993
0.0121527
0.0353887
0.00953281
0.0341585
0.00694364
0.0333912
0.00439133
0.00176172
0.192635
0.0377208
-0.226185
0.164176
0.0346483
0.1398
0.0337409
0.120282
0.0355969
0.104604
0.0376605
0.0918586
0.0386906
0.0813303
0.0386067
0.0724964
0.0375051
0.064998
0.0356
0.0585916
0.0331219
0.0531077
0.030267
0.0484241
0.0271874
0.0444499
0.0239939
0.0411151
0.0207625
0.0383652
0.017542
0.036157
0.0143609
0.0344568
0.011233
0.0332386
0.00816185
0.0324832
0.00514677
0.00205884
0.190904
0.0687373
-0.221921
0.163844
0.0617083
0.140286
0.0572992
0.120829
0.0550538
0.104922
0.0535676
0.0918234
0.0517893
0.0809478
0.0494823
0.0718295
0.0466235
0.0641228
0.0433067
0.0575769
0.0396677
0.0520084
0.0358355
0.0472808
0.031915
0.0432906
0.0279841
0.0399581
0.024095
0.0372211
0.0202789
0.0350313
0.0165508
0.0333509
0.0129134
0.0321516
0.00936114
0.0314129
0.0058855
0.00234729
0.188093
0.0981732
-0.217529
0.162072
0.0877299
0.139339
0.0800323
0.120164
0.074228
0.104231
0.0695012
0.0909801
0.06504
0.0799221
0.0605403
0.070645
0.0559005
0.0628229
0.0511288
0.0562058
0.0462848
0.0506034
0.0414379
0.0458699
0.0366485
0.041893
0.031961
0.0385855
0.0274025
0.0358792
0.0229852
0.0337213
0.0187087
0.0320712
0.0145635
0.0308983
0.010534
0.0301813
0.00660251
0.00262492
0.184268
0.126424
-0.212519
0.159119
0.112879
0.137145
0.102006
0.118372
0.0930015
0.102578
0.0852942
0.0893418
0.0782767
0.0782476
0.0716344
0.0689298
0.0652183
0.0610838
0.0589749
0.0544654
0.0529031
0.0488826
0.0470207
0.0441845
0.0413466
0.040253
0.0358926
0.0369952
0.0306602
0.0343389
0.0256415
0.0322278
0.0208198
0.0306189
0.0161724
0.0294804
0.0116725
0.0287903
0.00729264
0.00288961
0.179417
0.153701
-0.206694
0.155092
0.137204
0.13382
0.123278
0.115525
0.111296
0.100009
0.100811
0.0869284
0.0913569
0.0759282
0.0826347
0.0666794
0.0744671
0.058898
0.0667563
0.0523487
0.0594525
0.0468406
0.0525288
0.0422211
0.0459661
0.0383686
0.039745
0.0351871
0.0338417
0.0326013
0.0282273
0.0305526
0.0228685
0.0289965
0.0177285
0.0279006
0.0127684
0.0272425
0.00795073
0.0031393
0.173517
0.180085
-0.199902
0.150011
0.16071
0.129442
0.143848
0.111694
0.129044
0.096566
0.115938
0.0837648
0.104158
0.0729746
0.0934249
0.0638965
0.0835452
0.0562648
0.0743879
0.0498537
0.0658635
0.044476
0.0579064
0.0399793
0.0504628
0.036241
0.0434834
0.0331632
0.0369195
0.0306691
0.0307214
0.028699
0.0248386
0.0272077
0.0192197
0.0261626
0.0138136
0.0255415
0.00857176
0.00337204
0.166576
0.205617
-0.192108
0.143899
0.183387
0.124064
0.163683
0.10693
0.146178
0.0922904
0.130578
0.079877
0.116572
0.0694021
0.1039
0.0605895
0.0923579
0.0531889
0.0817885
0.0469838
0.0720687
0.0417918
0.0630985
0.0374625
0.0547921
0.0338738
0.0470721
0.0309277
0.0398655
0.0285471
0.0331021
0.026672
0.0267137
0.0252575
0.0206343
0.0242713
0.0147998
0.0236921
0.00915093
0.00358605
0.158586
0.230253
-0.183221
0.136774
0.2052
0.117724
0.182733
0.101276
0.162626
0.0872169
0.144637
0.0752913
0.128497
0.0652295
0.113961
0.0567715
0.100816
0.0496798
0.0888802
0.0437464
0.078002
0.0387946
0.0680503
0.034677
0.0589097
0.0312735
0.0504756
0.0284873
0.0426517
0.0262419
0.0353475
0.0244783
0.0284774
0.0231522
0.0219603
0.0222327
0.0157193
0.0216997
0.0096839
0.00377983
0.149598
0.254033
-0.173378
0.128669
0.226128
0.110456
0.200946
0.094768
0.178315
0.0813783
0.158026
0.0700348
0.139841
0.0604781
0.123518
0.0524594
0.108835
0.0457512
0.0955884
0.0401533
0.0835999
0.0354948
0.0727089
0.0316326
0.0627719
0.0284494
0.0536588
0.0258508
0.0452503
0.0237621
0.0374361
0.0221259
0.0301136
0.0208997
0.0231865
0.0200542
0.0165648
0.0195712
0.0101669
0.00395217
0.139498
0.276721
-0.162187
0.119568
0.246058
0.102278
0.218235
0.0874347
0.193158
0.0748045
0.170657
0.0641349
0.15051
0.0551718
0.132481
0.0476735
0.116333
0.0414206
0.101841
0.0362198
0.0888006
0.0319063
0.0770225
0.0283418
0.0663364
0.0254132
0.0565873
0.0230294
0.0476341
0.0211183
0.0393472
0.0196249
0.031607
0.0185092
0.0243023
0.0177443
0.0173297
0.0173142
0.010597
0.00410233
0.128649
0.298748
-0.150676