/*--------------------------------*- C++ -*----------------------------------*\
| =========                 |                                                 |
| \\      /  F ield         | OpenFOAM: The Open Source CFD Toolbox           |
|  \\    /   O peration     | Version:  v1806                                 |
|   \\  /    A nd           | Web:      www.OpenFOAM.com                      |
|    \\/     M anipulation  |                                                 |
\*---------------------------------------------------------------------------*/
FoamFile
{
    version     2.0;
    format      ascii;
    class       surfaceScalarField;
    location    "390";
    object      phi;
}
// * * * * * * * * * * * * * * * * * * * * * * * * * * * * * * * * * * * * * //

dimensions      [0 3 -1 0 0 0 0];
oriented        oriented;


internalField   nonuniform List<scalar> 
12993
(
2.64252e-07
-0.0285966
-0.0677197
0.0996977
-0.00338167
-4.73322e-13
-0.0285999
-0.0677132
0.0996973
-0.00338388
-2.64252e-07
-0.0285999
-0.0677132
0.0996973
-0.00338388
-0.0285966
-0.0677197
0.0996977
-0.00338167
4.96563e-07
-0.0604912
-0.0384594
0.0703535
-9.55133e-14
-0.0604894
-0.0384618
0.0703517
-4.96563e-07
-0.0604894
-0.0384618
0.0703517
-0.0604912
-0.0384594
0.0703535
-3.50746e-08
-0.00210383
-0.0197404
-0.038647
-1.52499e-13
-0.00210203
-0.0197362
-0.0386512
3.50747e-08
-0.00210203
-0.0197362
-0.0386512
-0.00210383
-0.0197404
-0.038647
-3.1406e-09
-0.0238633
-0.0459602
-2.57398e-13
-0.0238518
-0.0459634
3.14081e-09
-0.0238518
-0.0459634
-0.0238633
-0.0459602
-2.39518e-08
-0.0321295
-0.00133292
0.0181592
0.0153033
-2.04299e-13
-0.0321293
-0.00133933
0.0181658
0.0153028
2.39521e-08
-0.0321293
-0.00133933
0.0181658
0.0153028
-0.0321295
-0.00133292
0.0181592
0.0153033
-2.56825e-08
-0.00188159
0.0100794
-0.0403273
-1.43894e-13
-0.00187916
0.0100791
-0.0403292
2.56827e-08
-0.00187916
0.0100791
-0.0403292
-0.00188159
0.0100794
-0.0403273
-7.48735e-08
-0.0404524
0.0309815
0.00758937
-7.32319e-14
-0.0404531
0.0309788
0.00759508
7.48737e-08
-0.0404531
0.0309788
0.00759508
-0.0404524
0.0309815
0.00758937
1.19129e-08
0.00158577
-0.0472832
0.00524502
-1.04945e-13
0.00159309
-0.0472842
0.00523803
-1.19127e-08
0.00159309
-0.0472842
0.00523803
0.00158577
-0.0472832
0.00524502
-1.50318e-07
-0.0388543
0.0304003
0.0185335
-3.02294e-13
-0.0388524
0.0303855
0.0185458
1.50318e-07
-0.0388524
0.0303855
0.0185458
-0.0388543
0.0304003
0.0185335
-8.96498e-08
-0.0204878
0.00654118
0.0193772
-0.00543047
2.99859e-13
-0.0204898
0.00654575
0.0193755
-0.00543147
8.96474e-08
-0.0204898
0.00654575
0.0193755
-0.00543147
-0.0204878
0.00654118
0.0193772
-0.00543047
1.00674e-07
-0.00218082
-0.00135697
-0.0169501
6.20518e-12
-0.00217758
-0.00136043
-0.0169517
-1.00697e-07
-0.00217758
-0.00136043
-0.0169517
-0.00218082
-0.00135697
-0.0169501
1.81533e-07
-0.042125
-0.0285148
0.0501103
0.0205293
-1.28167e-13
-0.0421249
-0.0285204
0.050106
0.0205395
-1.81532e-07
-0.0421249
-0.0285204
0.050106
0.0205395
-0.042125
-0.0285148
0.0501103
0.0205293
-8.3372e-08
0.0204493
-0.0728692
0.0102951
-1.21039e-13
0.0204532
-0.0728777
0.0102995
8.33721e-08
0.0204532
-0.0728777
0.0102995
0.0204493
-0.0728692
0.0102951
-5.05368e-08
0.0309171
-0.0389825
-1.31277e-13
0.0309137
-0.038981
5.0537e-08
0.0309137
-0.038981
0.0309171
-0.0389825
1.76394e-09
0.0034337
-8.66392e-05
-0.00374134
0.000394277
-1.45637e-13
0.00343318
-8.59132e-05
-0.00374091
0.000393643
-1.76394e-09
0.00343318
-8.59132e-05
-0.00374091
0.000393643
0.0034337
-8.66391e-05
-0.00374134
0.000394277
1.14345e-08
-0.000103581
0.00284365
0.000693622
-2.91545e-13
-0.000103065
0.00284337
0.000692886
-1.14345e-08
-0.000103065
0.00284337
0.000692886
-0.000103581
0.00284365
0.000693622
2.58966e-08
-0.00186438
0.00122871
0.00124522
-0.000609575
-1.3955e-13
-0.0018625
0.001229
0.00124412
-0.000610601
-2.58964e-08
-0.0018625
0.001229
0.00124412
-0.000610601
-0.00186438
0.00122871
0.00124522
-0.000609575
-1.01745e-08
-0.0012956
-0.00101212
0.000443341
1.03557e-13
-0.00129467
-0.00101155
0.000443709
1.01739e-08
-0.00129467
-0.00101155
0.000443709
-0.0012956
-0.00101212
0.000443341
1.7273e-08
0.00253007
-0.00145161
-0.000809642
-0.000268826
-2.40124e-13
0.00252999
-0.00145302
-0.000810068
-0.000266884
-1.72743e-08
0.00252999
-0.00145302
-0.000810068
-0.000266884
0.00253007
-0.00145161
-0.000809642
-0.000268826
-1.0955e-08
-0.00100522
0.00259634
0.000938953
2.29869e-12
-0.00100458
0.00259688
0.000937685
1.09553e-08
-0.00100458
0.00259688
0.000937685
-0.00100522
0.00259634
0.000938953
-8.5623e-09
-0.000382638
-0.00096788
-0.000101088
-4.69409e-12
-0.000381178
-0.000970864
-0.00010099
8.5703e-09
-0.000381178
-0.000970864
-0.00010099
-0.000382638
-0.00096788
-0.000101088
-2.88336e-08
0.0331355
-0.0219588
-1.3709e-13
0.0331392
-0.0219617
2.88337e-08
0.0331392
-0.0219617
0.0331355
-0.0219588
2.25677e-07
0.0447862
-1.90843e-13
0.0447836
-2.25677e-07
0.0447836
0.0447862
5.23572e-08
0.00853184
-0.0472734
-1.34112e-13
0.00853693
-0.047273
-5.23571e-08
0.00853693
-0.047273
0.00853184
-0.0472734
-1.08944e-07
0.0148357
0.0148131
-6.88721e-14
0.0148312
0.0148081
1.08944e-07
0.0148312
0.0148081
0.0148357
0.0148131
-2.87116e-09
-0.000690509
-0.000889094
0.000574391
1.61603e-12
-0.000689977
-0.00088803
0.00057342
2.86997e-09
-0.000689977
-0.00088803
0.00057342
-0.000690509
-0.000889094
0.000574391
-5.50516e-09
-0.00267611
0.0016755
0.000310107
-6.24467e-13
-0.00267545
0.00167496
0.000310507
5.50598e-09
-0.00267545
0.00167496
0.000310507
-0.00267611
0.0016755
0.000310107
8.88567e-09
-0.00337389
0.000594192
-4.7646e-13
-0.00337298
0.000594473
-8.88512e-09
-0.00337298
0.000594473
-0.00337389
0.000594192
9.98921e-09
9.85065e-05
0.000617894
0.000959092
-1.77689e-13
9.78903e-05
0.00061782
0.00095926
-9.98953e-09
9.78903e-05
0.00061782
0.00095926
9.85065e-05
0.000617894
0.000959092
2.84858e-10
0.00203139
0.00112236
2.06364e-13
0.00203101
0.00112286
-2.85077e-10
0.00203101
0.00112286
0.00203139
0.00112236
1.28855e-08
0.000834289
1.05098e-12
0.000834247
-1.28866e-08
0.000834247
0.000834289
-1.24034e-10
-0.00138242
0.00149267
-1.47869e-13
-0.00138112
0.00149243
1.24119e-10
-0.00138112
0.00149243
-0.00138242
0.00149267
3.13321e-09
-0.00161912
0.000930315
-6.56376e-14
-0.00161816
0.000929926
-3.13318e-09
-0.00161816
0.000929926
-0.00161912
0.000930315
2.14945e-08
-0.0470524
0.0167299
-1.61887e-13
-0.0470408
0.0167254
-2.14943e-08
-0.0470408
0.0167254
-0.0470524
0.0167299
-1.20017e-08
-0.00712732
0.0130093
-0.0529344
-1.10845e-13
-0.00712201
0.0130064
-0.0529252
1.20019e-08
-0.00712201
0.0130064
-0.0529252
-0.00712732
0.0130093
-0.0529344
1.2644e-08
-0.000939441
-0.0534613
-1.01184e-13
-0.000939281
-0.0534557
-1.26438e-08
-0.000939281
-0.0534557
-0.000939441
-0.0534613
-4.12886e-09
0.00466343
-0.0528861
-9.18131e-14
0.00465825
-0.0528817
4.12902e-09
0.00465825
-0.0528817
0.00466343
-0.0528861
-5.35938e-08
0.051557
0.00940056
-0.0562941
-1.02223e-13
0.0515467
0.00939982
-0.0562883
5.35939e-08
0.0515467
0.00939982
-0.0562883
0.051557
0.00940056
-0.0562941
-2.41678e-08
0.0442097
0.0125924
-1.23788e-13
0.0441987
0.012586
2.4168e-08
0.0441987
0.012586
0.0442097
0.0125924
-9.82092e-09
0.0329324
0.0188666
-8.17574e-14
0.0329353
0.0188585
9.82116e-09
0.0329353
0.0188585
0.0329324
0.0188666
-1.65304e-07
0.0356797
0.0120885
-1.48543e-13
0.0356678
0.0120986
1.65304e-07
0.0356678
0.0120986
0.0356797
0.0120885
4.21008e-09
0.000362138
-0.00382268
-1.84865e-13
0.000362831
-0.00382172
-4.21016e-09
0.000362831
-0.00382172
0.000362138
-0.00382268
9.06647e-09
-0.00119583
0.000900919
-6.48909e-13
-0.00119494
0.000901392
-9.0652e-09
-0.00119494
0.000901392
-0.00119583
0.000900919
4.64347e-09
-0.00148332
0.000649623
-3.7051e-13
-0.0014828
0.0006507
-4.64334e-09
-0.0014828
0.0006507
-0.00148332
0.000649624
4.98404e-09
3.89569e-12
-4.99111e-09
-1.19597e-07
-0.0436977
0.0456723
0.0337052
-3.90787e-13
-0.0437068
0.045676
0.0336985
1.19598e-07
-0.0437068
0.045676
0.0336985
-0.0436977
0.0456723
0.0337052
-2.10493e-08
-0.0481762
0.0233451
-1.85885e-13
-0.0481766
0.0233283
2.10498e-08
-0.0481766
0.0233283
-0.0481762
0.0233451
-6.50065e-08
-0.0555938
0.02001
-2.13827e-13
-0.0556037
0.0200129
6.50068e-08
-0.0556037
0.0200129
-0.0555938
0.02001
-3.88837e-08
-0.0604414
0.0142482
-1.4478e-13
-0.0604481
0.0142442
3.8884e-08
-0.0604481
0.0142442
-0.0604414
0.0142482
4.53381e-08
-0.0560053
0.0502558
0.0187587
-1.40386e-13
-0.0559983
0.0502518
0.0187529
-4.53379e-08
-0.0559983
0.0502518
0.0187529
-0.0560053
0.0502558
0.0187587
-1.37403e-09
-0.00917555
-0.0589571
0.0121274
-1.22e-13
-0.00917274
-0.0589455
0.01212
1.37419e-09
-0.00917274
-0.0589455
0.01212
-0.00917555
-0.0589571
0.0121274
2.7905e-08
-0.0038168
-0.0582932
-1.02975e-13
-0.00381596
-0.058282
-2.79049e-08
-0.00381596
-0.058282
-0.0038168
-0.0582932
2.51184e-08
0.00121206
-0.0584902
-8.67631e-14
0.00121037
-0.058482
-2.51183e-08
0.00121037
-0.058482
0.00121206
-0.0584902
1.96795e-09
0.00543921
-0.0571132
-7.90732e-14
0.00543519
-0.0571066
-1.96783e-09
0.00543519
-0.0571066
0.00543921
-0.0571132
-4.53074e-08
0.0106174
-0.0614722
-8.63791e-14
0.0106162
-0.0614693
4.53075e-08
0.0106162
-0.0614693
0.0106174
-0.0614722
-2.98765e-08
0.0125551
-0.062379
-9.40266e-14
0.0125542
-0.0623862
2.98767e-08
0.0125542
-0.0623862
0.0125551
-0.062379
5.79484e-09
0.000289221
-7.26781e-05
-0.00403922
-1.92786e-13
0.000289667
-7.25474e-05
-0.00403883
-5.79468e-09
0.000289667
-7.25474e-05
-0.00403883
0.000289221
-7.26781e-05
-0.00403922
6.6432e-09
0.000292842
-0.00148695
-2.55164e-13
0.000294213
-0.00148734
-6.64296e-09
0.000294213
-0.00148734
0.000292842
-0.00148695
1.00249e-08
-0.00329988
-0.000171576
0.00376428
-2.93048e-13
-0.00330042
-0.000169417
0.00376406
-1.00245e-08
-0.00330042
-0.000169417
0.00376406
-0.00329988
-0.000171576
0.00376428
7.85551e-09
-0.00296854
0.000318283
-1.79657e-13
-0.00296943
0.00031971
-7.85484e-09
-0.00296943
0.00031971
-0.00296854
0.000318283
1.43663e-08
0.000528702
3.07982e-13
0.000528862
-1.43651e-08
0.000528862
0.000528702
-1.07855e-09
0.00189723
0.000824147
1.23759e-13
0.00189734
0.000824098
1.07857e-09
0.00189734
0.000824098
0.00189723
0.000824147
9.26264e-09
0.000195998
-0.00401003
-1.71915e-13
0.000196317
-0.00400976
-9.26246e-09
0.000196317
-0.00400976
0.000195998
-0.00401003
-1.02108e-09
-0.00160858
0.000383742
-8.57361e-14
-0.0016079
0.000383386
1.02116e-09
-0.0016079
0.000383386
-0.00160858
0.000383742
7.76877e-09
0.000147703
-0.00156029
-2.33251e-13
0.000148146
-0.00155972
-7.76857e-09
0.000148146
-0.00155972
0.000147703
-0.00156029
1.1949e-08
0.00256546
0.000262071
-3.97546e-14
0.00256629
0.000260987
-1.19487e-08
0.00256629
0.000260987
0.00256546
0.000262071
6.37442e-08
0.0434403
0.0235454
-1.6787e-13
0.0434461
0.0235311
-6.3744e-08
0.0434461
0.0235311
0.0434403
0.0235454
-1.9658e-09
0.00326478
-0.000315569
-6.66686e-14
0.00326543
-0.000315754
1.96605e-09
0.00326543
-0.000315754
0.00326478
-0.000315569
1.48469e-08
0.00370271
-0.000290247
-1.9669e-13
0.0037038
-0.000290209
-1.48465e-08
0.0037038
-0.000290209
0.00370271
-0.000290247
-3.12699e-08
0.0246963
-5.06587e-13
0.0246994
3.12707e-08
0.0246994
0.0246963
2.94763e-07
-0.0586103
0.0774746
0.0268077
-4.78534e-13
-0.0586102
0.0774824
0.0268041
-2.94761e-07
-0.0586102
0.0774824
0.0268041
-0.0586103
0.0774746
0.0268077
-3.74466e-08
0.0160137
-1.6083e-13
0.0160286
3.74468e-08
0.0160286
0.0160137
-9.71589e-08
-0.05787
0.022605
-2.77189e-13
-0.0578843
0.0226023
9.71596e-08
-0.0578843
0.0226023
-0.05787
0.022605
2.46487e-08
-0.0603968
0.0225367
-2.61986e-13
-0.0604089
0.0225376
-2.46484e-08
-0.0604089
0.0225376
-0.0603968
0.0225367
-3.3069e-08
-0.0624633
0.0163147
-1.66367e-13
-0.062478
0.0163132
3.30692e-08
-0.062478
0.0163132
-0.0624633
0.0163147
-1.78707e-08
-0.0649967
0.0150885
-1.01704e-13
-0.065009
0.0150852
1.78708e-08
-0.065009
0.0150852
-0.0649967
0.0150885
-3.91597e-09
0.00684761
-0.0012743
-7.80008e-12
0.00684743
-0.00127255
3.9279e-09
0.00684743
-0.00127255
0.00684761
-0.0012743
1.65832e-08
0.00867665
-0.00209789
-1.92649e-12
0.00867832
-0.00209776
-1.66028e-08
0.00867832
-0.00209776
0.00867665
-0.00209789
-1.33218e-08
0.0100618
-0.000446229
-9.68175e-13
0.0100625
-0.000446526
1.33184e-08
0.0100625
-0.000446526
0.0100618
-0.000446229
1.05103e-08
0.010428
0.000162511
-8.18294e-14
0.0104274
0.000163939
-1.05101e-08
0.0104274
0.000163939
0.010428
0.000162511
1.19605e-08
0.0112096
-0.00046328
-3.3468e-13
0.0112095
-0.000462349
-1.19605e-08
0.0112095
-0.000462349
0.0112096
-0.00046328
1.53185e-08
0.0124124
-0.0013744
-3.02454e-13
0.012412
-0.00137186
-1.53181e-08
0.012412
-0.00137186
0.0124124
-0.0013744
3.4619e-09
0.000117009
-0.000801984
0.00438768
-2.54913e-13
0.000116902
-0.000799811
0.00438671
-3.46157e-09
0.000116902
-0.000799811
0.00438671
0.000117009
-0.000801984
0.00438768
2.26003e-10
-4.42569e-05
-0.00139903
-3.24027e-13
-4.38747e-05
-0.00139894
-2.25817e-10
-4.38747e-05
-0.00139894
-4.42569e-05
-0.00139903
6.92161e-09
4.92392e-05
-0.00410353
-2.59795e-13
4.96244e-05
-0.00410325
-6.92139e-09
4.96244e-05
-0.00410325
4.92392e-05
-0.00410353
5.59538e-09
0.000118896
-0.00410889
-2.78295e-13
0.000119272
-0.00410847
-5.59506e-09
0.000119272
-0.00410847
0.000118896
-0.00410889
8.333e-09
-8.97473e-05
-0.00127831
-3.07283e-13
-8.95881e-05
-0.00127847
-8.3326e-09
-8.95881e-05
-0.00127847
-8.97472e-05
-0.00127831
5.25107e-09
-0.000896333
0.00457086
-3.31119e-13
-0.000895834
0.00457031
-5.25058e-09
-0.000895834
0.00457031
-0.000896333
0.00457086
4.17104e-09
-0.00196122
0.0134773
-4.02401e-13
-0.0019606
0.0134767
-4.17039e-09
-0.0019606
0.0134767
-0.00196122
0.0134773
-6.60455e-08
-0.00672367
0.0104028
-0.0626362
-9.4697e-14
-0.00672321
0.0104055
-0.0626279
6.60455e-08
-0.00672321
0.0104055
-0.0626279
-0.00672367
0.0104028
-0.0626362
-1.7752e-08
-0.00144835
-0.0635685
-7.48361e-14
-0.00144536
-0.0635598
1.7752e-08
-0.00144536
-0.0635598
-0.00144835
-0.0635685
-2.94379e-09
0.00244942
-0.0623879
-6.09156e-14
0.00245194
-0.0623793
2.94388e-09
0.00245194
-0.0623793
0.00244942
-0.0623879
-6.26392e-09
0.00758964
-0.0622535
-5.96901e-14
0.00759011
-0.0622447
6.26402e-09
0.00759011
-0.0622447
0.00758964
-0.0622535
-2.06601e-08
0.00959562
-0.0634782
-6.24889e-14
0.00959527
-0.0634745
2.06602e-08
0.00959527
-0.0634745
0.00959562
-0.0634782
-2.03564e-08
0.0126654
-0.0654488
-6.85072e-14
0.0126628
-0.0654538
2.03566e-08
0.0126628
-0.0654538
0.0126654
-0.0654488
-1.71134e-08
0.012439
-0.0647703
-6.99053e-14
0.0124374
-0.0647835
1.71136e-08
0.0124374
-0.0647835
0.012439
-0.0647703
1.11107e-07
-0.0600295
0.0445922
-1.24871e-13
-0.0600341
0.0445842
-1.11106e-07
-0.0600341
0.0445842
-0.0600295
0.0445922
4.63914e-08
-0.059469
0.0181983
-1.17e-13
-0.0594724
0.0181913
-4.63911e-08
-0.0594724
0.0181913
-0.059469
0.0181983
-3.99472e-08
-0.060072
0.0127304
-1.10242e-13
-0.0600822
0.0127298
3.99474e-08
-0.0600822
0.0127298
-0.060072
0.0127304
-5.23549e-08
0.0143771
-0.0640462
-9.14248e-14
0.0143756
-0.0640523
5.2355e-08
0.0143756
-0.0640523
0.0143771
-0.0640462
7.07676e-08
-1.10913e-13
-7.07674e-08
1.33857e-08
0.0088465
-0.00738322
-0.000639137
9.08762e-14
0.00884942
-0.00738424
-0.000641063
-1.3386e-08
0.00884942
-0.00738424
-0.000641063
0.0088465
-0.00738322
-0.000639137
2.08805e-09
0.0103425
-0.00123396
5.25088e-14
0.0103443
-0.0012339
-2.08817e-09
0.0103443
-0.0012339
0.0103425
-0.00123396
-6.39331e-09
0.0115713
-0.00154431
-3.7542e-14
0.0115719
-0.0015434
6.39354e-09
0.0115719
-0.0015434
0.0115713
-0.00154431
1.12615e-08
0.0123587
-0.00107767
-1.64168e-13
0.0123599
-0.00107818
-1.12612e-08
0.0123599
-0.00107818
0.0123587
-0.00107767
-4.83967e-09
0.0127827
-0.00122601
-2.05158e-13
0.0127813
-0.00122116
4.8401e-09
0.0127813
-0.00122116
0.0127827
-0.00122601
-3.1093e-07
0.0218762
0.0686786
-0.0130799
-1.08224e-12
0.0218624
0.0686711
-0.0130514
3.10931e-07
0.0218624
0.0686711
-0.0130514
0.0218762
0.0686786
-0.0130799
3.79262e-07
0.0860645
0.0197956
-0.00616284
9.27795e-14
0.086087
0.0197732
-0.00616254
-3.79263e-07
0.086087
0.0197732
-0.00616254
0.0860645
0.0197956
-0.00616284
-2.83174e-07
0.0747957
0.0173982
-0.0061291
3.90851e-13
0.0748183
0.0173992
-0.00613085
2.83174e-07
0.0748183
0.0173992
-0.00613085
0.0747957
0.0173982
-0.0061291
-1.03093e-07
0.0654372
0.0173941
-0.00803554
1.63739e-13
0.0654532
0.0174011
-0.00803607
1.03094e-07
0.0654532
0.0174011
-0.00803607
0.0654372
0.0173941
-0.00803554
1.08973e-07
0.0561117
0.0165468
-0.00722141
8.95177e-14
0.0561312
0.0165455
-0.00722334
-1.08973e-07
0.0561312
0.0165455
-0.00722334
0.0561117
0.0165468
-0.00722141
-7.91769e-08
0.0467715
0.0126499
-0.00330964
1.72411e-13
0.0467873
0.0126527
-0.00330889
7.91767e-08
0.0467873
0.0126527
-0.00330889
0.0467715
0.0126499
-0.00330964
-9.50628e-08
0.0397458
0.00885444
-0.00182865
2.74001e-13
0.0397606
0.00885322
-0.0018266
9.50625e-08
0.0397606
0.00885322
-0.0018266
0.0397458
0.00885444
-0.00182865
-8.70777e-08
0.0338421
0.00629592
-0.000392165
3.03309e-13
0.0338564
0.00629527
-0.000391122
8.70775e-08
0.0338564
0.00629527
-0.000391122
0.0338421
0.00629592
-0.000392165
-8.58751e-08
0.0295335
0.00401649
0.000292186
2.73103e-13
0.029547
0.00401619
0.00029308
8.58748e-08
0.029547
0.00401619
0.00029308
0.0295335
0.00401649
0.000292186
-7.50901e-08
0.0265001
0.00264767
0.000385876
2.44876e-13
0.0265131
0.00264743
0.000386421
7.50898e-08
0.0265131
0.00264743
0.000386421
0.0265001
0.00264767
0.000385876
-6.49991e-08
0.0243978
0.00177916
0.00032315
2.46279e-13
0.0244096
0.00178032
0.000323131
6.49988e-08
0.0244096
0.00178032
0.000323131
0.0243978
0.00177916
0.00032315
-5.49189e-08
0.0229464
0.00119494
0.000256528
2.64261e-13
0.0229567
0.00119649
0.000256373
5.49186e-08
0.0229567
0.00119649
0.000256373
0.0229464
0.00119494
0.000256528
-4.52576e-08
0.0219718
0.000763674
0.000210949
2.78743e-13
0.0219805
0.000765267
0.000210818
4.52572e-08
0.0219805
0.000765267
0.000210818
0.0219718
0.000763674
0.000210949
-4.28776e-08
0.0213264
0.000437291
0.000208136
2.57766e-13
0.0213334
0.000439443
0.000207627
4.28773e-08
0.0213334
0.000439443
0.000207627
0.0213264
0.000437291
0.000208136
-3.16131e-08
0.0209773
0.000120458
0.000228714
1.18026e-13
0.020983
0.000121115
0.000229319
3.1613e-08
0.020983
0.000121115
0.000229319
0.0209773
0.000120458
0.000228714
-5.43042e-08
0.0205883
-0.000100174
0.000489261
-3.82564e-13
0.0205909
-9.74289e-05
0.000489382
5.43045e-08
0.0205909
-9.74289e-05
0.000489382
0.0205883
-0.000100174
0.000489261
1.81278e-08
0.02039
2.07527e-05
0.0001775
-8.74642e-13
0.0203938
1.972e-05
0.000177434
-1.81275e-08
0.0203938
1.972e-05
0.000177434
0.02039
2.07527e-05
0.0001775
-6.00553e-08
0.019455
0.000913808
2.12439e-05
1.33589e-12
0.0194578
0.00091256
2.33859e-05
6.00531e-08
0.0194578
0.00091256
2.33858e-05
0.019455
0.000913808
2.12439e-05
3.06308e-08
0.00606295
-0.00221134
0.0156034
7.15074e-12
0.00606702
-0.00221472
0.0156055
-3.06594e-08
0.00606702
-0.00221472
0.0156055
0.00606295
-0.00221134
0.0156034
-3.8772e-08
0.00147129
-0.00760926
-2.23234e-15
0.00147194
-0.00761209
3.87722e-08
0.00147194
-0.00761209
0.00147129
-0.00760926
8.28156e-08
0.0213502
-0.00407097
-1.29833e-12
0.0213531
-0.00407528
-8.28184e-08
0.0213531
-0.00407528
0.0213502
-0.00407097
-3.66241e-08
0.022296
-0.001392
-3.21626e-13
0.0222946
-0.00138808
3.66229e-08
0.0222946
-0.00138808
0.022296
-0.001392
1.46192e-08
0.0235584
-0.00109993
-3.1509e-14
0.023556
-0.00109741
-1.4619e-08
0.023556
-0.00109741
0.0235584
-0.00109993
1.96946e-08
0.0243202
-0.00122501
-2.11887e-13
0.024319
-0.00122535
-1.96942e-08
0.024319
-0.00122535
0.0243202
-0.00122501
2.14563e-08
0.0246014
-0.00165571
-3.28927e-13
0.0246015
-0.00165432
-2.14557e-08
0.0246015
-0.00165432
0.0246014
-0.00165571
-2.49422e-09
0.0260997
-0.00345949
-4.71781e-13
0.026099
-0.00345819
2.49502e-09
0.026099
-0.00345819
0.0260997
-0.00345949
2.46981e-08
0.000908028
-0.00202021
0.0138949
-2.0311e-13
0.000906984
-0.0020208
0.0138951
-2.46976e-08
0.000906984
-0.0020208
0.0138951
0.000908028
-0.00202021
0.0138949
1.49039e-08
0.000261633
0.00503406
-2.0787e-13
0.000260299
0.00503341
-1.49035e-08
0.000260299
0.00503341
0.000261633
0.00503406
1.27583e-08
-1.75614e-05
-0.00111985
-2.50803e-13
-1.83261e-05
-0.00112031
-1.2758e-08
-1.83261e-05
-0.00112031
-1.75614e-05
-0.00111985
6.83989e-09
5.16443e-05
-0.00417274
-2.83811e-13
5.15878e-05
-0.00417316
-6.83945e-09
5.15878e-05
-0.00417316
5.16443e-05
-0.00417274
9.06079e-09
-3.61209e-05
-0.00402113
-3.50396e-13
-3.56049e-05
-0.00402127
-9.06031e-09
-3.56049e-05
-0.00402127
-3.61209e-05
-0.00402113
7.4801e-09
-0.000409703
-0.00090474
-4.15972e-13
-0.000408818
-0.000905254
-7.47954e-09
-0.000408818
-0.000905254
-0.000409703
-0.00090474
1.5029e-08
-0.00101372
0.00517486
-4.77107e-13
-0.0010131
0.00517461
-1.50284e-08
-0.0010131
0.00517461
-0.00101372
0.00517486
1.37492e-08
-0.00211903
0.0145826
-5.72655e-13
-0.00211877
0.0145824
-1.37485e-08
-0.00211877
0.0145824
-0.00211903
0.0145826
1.48028e-08
-0.00301219
0.0269929
-6.91905e-13
-0.00301175
0.026992
-1.4802e-08
-0.00301175
0.026992
-0.00301219
0.0269929
-1.0028e-09
0.0652355
-0.0663748
0.0135784
-6.39548e-14
0.0652484
-0.0663871
0.013576
1.00294e-09
0.0652484
-0.0663871
0.013576
0.0652355
-0.0663748
0.0135784
-1.83196e-08
0.0660742
0.0142499
-9.35183e-14
0.0660882
0.0142455
1.83197e-08
0.0660882
0.0142455
0.0660742
0.0142499
-8.13937e-09
0.0651472
0.0172417
-1.26906e-13
0.0651599
0.0172415
8.13962e-09
0.0651599
0.0172415
0.0651472
0.0172417
-7.4288e-08
0.0674542
0.0202298
-1.66272e-13
0.0674668
0.0202306
7.42884e-08
0.0674668
0.0202306
0.0674542
0.0202298
-4.7148e-08
0.0680483
0.0220109
-2.09643e-13
0.068053
0.022016
4.71484e-08
0.068053
0.022016
0.0680483
0.0220109
-2.75936e-07
0.0712236
0.0236327
-3.25091e-13
0.0712306
0.0236262
2.75936e-07
0.0712306
0.0236262
0.0712236
0.0236327
4.72153e-07
0.068607
0.0244923
-4.0787e-13
0.0686119
0.0244815
-4.72151e-07
0.0686119
0.0244815
0.068607
0.0244923
1.71334e-07
0.0105306
0.0623759
-0.00422808
-7.69669e-13
0.0105388
0.0623694
-0.00423696
-1.71333e-07
0.0105388
0.0623694
-0.00423696
0.0105306
0.0623759
-0.00422808
4.34308e-07
0.0438833
0.0352539
-5.18153e-13
0.0438965
0.0352547
-4.34308e-07
0.0438965
0.0352547
0.0438833
0.0352539
6.20087e-08
0.0726443
0.0336148
-6.77818e-13
0.0726451
0.0336208
-6.2008e-08
0.0726451
0.0336208
0.0726443
0.0336148
-2.53272e-07
0.0617383
0.0310227
-0.0201165
-1.071e-12
0.0617497
0.0310201
-0.0201249
2.53273e-07
0.0617497
0.0310201
-0.0201249
0.0617383
0.0310227
-0.0201165
-3.05191e-08
0.0574683
0.0158722
-0.0116021
-1.81127e-13
0.0574821
0.0158793
-0.0116117
3.0519e-08
0.0574821
0.0158793
-0.0116117
0.0574683
0.0158722
-0.0116021
2.17605e-08
0.0489523
0.0139104
-0.00539444
1.63843e-13
0.0489631
0.0139147
-0.00539564
-2.17609e-08
0.0489631
0.0139147
-0.00539564
0.0489523
0.0139104
-0.00539444
-4.85323e-08
0.0426075
0.00856466
-0.00221978
3.18954e-13
0.0426163
0.00856713
-0.00222041
4.85319e-08
0.0426163
0.00856713
-0.00222041
0.0426075
0.00856466
-0.00221978
-5.44394e-08
0.0366476
0.006882
-0.000922
2.84949e-13
0.0366568
0.00688023
-0.00092076
5.44391e-08
0.0366568
0.00688023
-0.00092076
0.0366476
0.006882
-0.000922
-5.50669e-08
0.0320033
0.00484474
-0.000200413
2.25935e-13
0.0320127
0.00484397
-0.000199905
5.50667e-08
0.0320127
0.00484397
-0.000199905
0.0320033
0.00484474
-0.000200413
-5.14332e-08
0.0285784
0.00333035
9.46106e-05
2.06787e-13
0.0285878
0.00332956
9.5261e-05
5.1433e-08
0.0285878
0.00332956
9.5261e-05
0.0285784
0.00333035
9.46106e-05
-4.67511e-08
0.0261711
0.00224849
0.000158858
2.11335e-13
0.0261792
0.00224961
0.000158894
4.67509e-08
0.0261792
0.00224961
0.000158894
0.0261711
0.00224849
0.000158858
-3.80648e-08
0.0248648
0.00114452
0.000161762
2.24263e-13
0.024873
0.00114397
0.000162267
3.80646e-08
0.024873
0.00114397
0.000162267
0.0248648
0.00114452
0.000161762
-4.1222e-08
0.0239807
0.000350748
0.000533464
2.12595e-13
0.0239887
0.000350804
0.000533463
4.12218e-08
0.0239887
0.000350804
0.000533463
0.0239807
0.000350748
0.000533464
-5.02097e-08
0.0232727
0.000374778
0.000333238
2.19641e-13
0.0232807
0.000372146
0.000335787
5.02095e-08
0.0232807
0.000372146
0.000335787
0.0232727
0.000374778
0.000333238
-2.53304e-08
0.0213789
0.00188205
1.17387e-05
1.96336e-13
0.021386
0.00188498
9.64434e-06
2.53302e-08
0.021386
0.00188498
9.64435e-06
0.0213789
0.00188205
1.17387e-05
-3.0625e-08
0.0205125
0.00112818
-0.000261705
1.8021e-13
0.0205192
0.00112716
-0.000260364
3.06248e-08
0.0205192
0.00112716
-0.000260364
0.0205125
0.00112818
-0.000261705
-1.87859e-08
0.0187798
0.0018731
-0.000140377
1.42061e-13
0.0187847
0.00187469
-0.000140227
1.87856e-08
0.0187847
0.00187469
-0.000140227
0.0187798
0.0018731
-0.000140377
-2.88451e-08
0.018449
0.000125259
0.000205548
9.72432e-14
0.0184521
0.000127795
0.000204793
2.88449e-08
0.0184521
0.000127795
0.000204793
0.018449
0.000125259
0.000205548
-3.81249e-09
0.0197275
-0.000600081
-0.000678377
3.0682e-14
0.0197291
-0.000599582
-0.000677432
3.8124e-09
0.0197291
-0.000599582
-0.000677432
0.0197275
-0.000600081
-0.000678377
4.61905e-08
0.0205142
0.000396474
-0.00118328
-2.45217e-15
0.0205189
0.000397999
-0.00118774
-4.61906e-08
0.0205189
0.000397999
-0.00118774
0.0205142
0.000396474
-0.00118328
-4.36233e-08
0.0178973
-0.00144438
0.00406131
-1.59024e-13
0.0178962
-0.0014441
0.00406675
4.36237e-08
0.0178962
-0.0014441
0.00406675
0.0178973
-0.00144438
0.00406131
6.23592e-08
0.0206423
-0.00127372
-3.29705e-13
0.0206444
-0.00127619
-6.23582e-08
0.0206444
-0.00127619
0.0206423
-0.00127372
-2.29857e-08
0.0211788
-0.00117566
-1.56852e-13
0.0211771
-0.0011738
2.29854e-08
0.0211771
-0.0011738
0.0211788
-0.00117566
9.36642e-09
0.0226521
-0.00270724
1.92278e-15
0.0226499
-0.00270667
-9.36662e-09
0.0226499
-0.00270667
0.0226521
-0.00270724
8.17491e-09
0.0238006
-0.00269286
-4.25517e-14
0.0238013
-0.00269475
-8.17457e-09
0.0238013
-0.00269475
0.0238006
-0.00269286
8.04649e-09
0.0240837
-0.00136075
-1.8428e-13
0.0240828
-0.00135976
-8.04611e-09
0.0240828
-0.00135976
0.0240837
-0.00136075
3.00785e-08
0.0234832
-0.000625544
-1.96316e-13
0.0234834
-0.000621681
-3.00781e-08
0.0234834
-0.000621681
0.0234832
-0.000625544
5.5966e-09
-0.00422441
0.0256874
-2.01592e-13
-0.00422514
0.0256877
-5.59615e-09
-0.00422514
0.0256877
-0.00422441
0.0256874
-9.59188e-08
-0.0622193
0.00754847
-1.23674e-13
-0.0622295
0.00754303
9.5919e-08
-0.0622295
0.00754303
-0.0622193
0.00754847
-5.82778e-08
-0.0652627
0.0157738
-1.16704e-13
-0.0652746
0.0157748
5.8278e-08
-0.0652746
0.0157748
-0.0652627
0.0157738
-4.87461e-08
-0.0650209
0.0141353
-9.39745e-14
-0.0650292
0.0141301
4.87462e-08
-0.0650292
0.0141301
-0.0650209
0.0141353
-2.4569e-08
-0.0117457
0.0127102
-0.0659853
-4.56809e-14
-0.0117454
0.0127086
-0.0659925
2.45691e-08
-0.0117454
0.0127086
-0.0659925
-0.0117457
0.0127102
-0.0659853
-2.9697e-08
-0.00960697
-0.066185
-4.26461e-14
-0.00960614
-0.0661916
2.96971e-08
-0.00960614
-0.0661916
-0.00960697
-0.066185
-3.28915e-08
-0.00427015
-0.0679729
-4.47857e-14
-0.00426887
-0.0679652
3.28916e-08
-0.00426887
-0.0679652
-0.00427015
-0.0679729
-1.13604e-08
-0.00182689
-0.0660117
-3.86388e-14
-0.00182662
-0.0660021
1.13604e-08
-0.00182662
-0.0660021
-0.00182689
-0.0660117
1.2563e-09
0.0016829
-0.0658977
-3.44344e-14
0.00168379
-0.0658897
-1.25623e-09
0.00168379
-0.0658897
0.0016829
-0.0658977
2.20996e-09
0.0052019
-0.0657725
-3.81575e-14
0.00520342
-0.0657644
-2.20988e-09
0.00520342
-0.0657644
0.0052019
-0.0657725
3.93663e-09
0.00745958
-0.0657359
-4.13444e-14
0.00745978
-0.0657308
-3.93655e-09
0.00745978
-0.0657308
0.00745958
-0.0657359
-1.05087e-08
0.00774276
-0.0657319
-4.4932e-14
0.00774337
-0.0657374
1.05088e-08
0.00774337
-0.0657374
0.00774276
-0.0657319
-4.23365e-09
0.0104051
-0.0674326
-4.46522e-14
0.0104025
-0.0674427
4.23377e-09
0.0104025
-0.0674427
0.0104051
-0.0674326
-6.96199e-09
-0.0671771
0.0112073
-4.15093e-14
-0.0671886
0.011204
6.9621e-09
-0.0671886
0.011204
-0.0671771
0.0112073
1.4049e-08
-0.0407182
0.0404844
-0.00277834
-8.43072e-13
-0.0407172
0.0404827
-0.00277722
-1.40481e-08
-0.0407172
0.0404827
-0.00277722
-0.0407182
0.0404844
-0.00277834
-1.07155e-08
-0.0406953
-0.00348239
-5.77454e-13
-0.0406956
-0.0034798
1.07163e-08
-0.0406956
-0.0034798
-0.0406953
-0.00348239
2.72763e-08
-0.0407153
-0.0016357
-4.22767e-13
-0.0407138
-0.00163606
-2.72758e-08
-0.0407138
-0.00163606
-0.0407153
-0.0016357
3.75955e-10
-0.0407063
-0.00123402
-2.4024e-13
-0.0407063
-0.00123284
-3.75549e-10
-0.0407063
-0.00123284
-0.0407063
-0.00123402
1.95949e-08
-0.0415747
-0.000231616
-1.46002e-13
-0.0415731
-0.000230633
-1.95947e-08
-0.0415731
-0.000230633
-0.0415747
-0.000231616
2.65039e-08
-0.0420374
-0.000929347
-3.57958e-13
-0.0420313
-0.000929817
-2.65038e-08
-0.0420313
-0.000929817
-0.0420374
-0.000929347
3.15165e-08
-0.0421194
-0.00398897
-9.01179e-13
-0.0421123
-0.00399428
-3.15156e-08
-0.0421123
-0.00399428
-0.0421194
-0.00398897
-8.78503e-08
-0.0425345
-0.00501527
-1.55417e-12
-0.0425348
-0.00500904
8.78557e-08
-0.0425348
-0.00500904
-0.0425345
-0.00501527
4.78816e-08
-0.0428569
-0.00185848
1.42378e-12
-0.0428548
-0.00185759
-4.78644e-08
-0.0428548
-0.00185759
-0.0428569
-0.00185848
7.09036e-08
-0.039794
0.00299999
9.66847e-12
-0.0397923
0.00300465
-7.08758e-08
-0.0397923
0.00300465
-0.039794
0.00299999
-7.16018e-08
-0.0403884
0.00150832
-1.47421e-13
-0.040394
0.0015142
7.16037e-08
-0.040394
0.0015142
-0.0403884
0.00150832
-1.11084e-08
-0.0410672
0.000699518
5.855e-13
-0.0410742
0.000699851
1.11075e-08
-0.0410742
0.00069985
-0.0410672
0.000699518
-4.37515e-08
-0.042343
0.0011757
8.82662e-13
-0.0423524
0.00118079
4.37506e-08
-0.0423524
0.00118079
-0.042343
0.0011757
-2.81956e-08
-0.0438888
0.0016663
5.66515e-13
-0.0438997
0.00166838
2.8195e-08
-0.0438997
0.00166838
-0.0438888
0.0016663
-3.83959e-08
-0.0457819
0.0023304
3.01474e-13
-0.045795
0.00233463
3.83954e-08
-0.045795
0.00233463
-0.0457819
0.0023304
-3.89541e-08
-0.0480932
0.00307503
2.00338e-13
-0.0481081
0.00307835
3.89537e-08
-0.0481081
0.00307835
-0.0480932
0.00307503
-4.70404e-08
-0.0509116
0.00401337
1.65044e-13
-0.0509283
0.0040167
4.70401e-08
-0.0509283
0.0040167
-0.0509116
0.00401337
-5.49733e-08