/*--------------------------------*- C++ -*----------------------------------*\
| =========                 |                                                 |
| \\      /  F ield         | OpenFOAM: The Open Source CFD Toolbox           |
|  \\    /   O peration     | Version:  v1806                                 |
|   \\  /    A nd           | Web:      www.OpenFOAM.com                      |
|    \\/     M anipulation  |                                                 |
\*---------------------------------------------------------------------------*/
FoamFile
{
    version     2.0;
    format      ascii;
    class       surfaceScalarField;
    location    "320";
    object      phi;
}
// * * * * * * * * * * * * * * * * * * * * * * * * * * * * * * * * * * * * * //

dimensions      [0 3 -1 0 0 0 0];
oriented        oriented;


internalField   nonuniform List<scalar> 
4680
(
0.104999
-0.000172106
0.104997
-0.000529567
0.104993
-0.000887951
0.104988
-0.00127424
0.104979
-0.00167496
0.104969
-0.00211932
0.104955
-0.00259188
0.10494
-0.0031212
0.104921
-0.00368984
0.104901
-0.00432217
0.104879
-0.00499782
0.104858
-0.00573156
0.104839
-0.00649612
0.104824
-0.00729007
0.104816
-0.00807265
0.10482
-0.00882248
0.104838
-0.00947965
0.104871
-0.0100077
0.104916
-0.010331
-0.0104336
0.104998
0.104998
-0.000169739
0.104994
-0.000525497
0.104984
-0.000878737
0.104974
-0.00126353
0.104957
-0.00165838
0.104939
-0.00210164
0.104916
-0.00256802
0.104891
-0.00309705
0.104862
-0.00366018
0.104834
-0.00429409
0.104803
-0.0049672
0.104778
-0.00570648
0.104757
-0.00647508
0.104749
-0.00728174
0.104755
-0.00807895
0.104784
-0.00885117
0.104837
-0.00953349
0.104921
-0.0100909
0.105033
-0.0104431
-0.0105644
0.105164
0.104996
-0.000165753
0.104989
-0.000518957
0.104974
-0.000863533
0.104957
-0.00124654
0.104931
-0.00163166
0.104903
-0.00207431
0.104866
-0.00253049
0.104829
-0.00306083
0.104784
-0.00361486
0.104744
-0.00425365
0.104699
-0.00492233
0.104666
-0.00567318
0.104638
-0.00644788
0.104634
-0.00727721
0.104652
-0.0080973
0.104707
-0.00890634
0.104802
-0.00962826
0.104943
-0.0102317
0.105124
-0.0106241
-0.0107721
0.105332
0.104994
-0.000160073
0.104985
-0.000510088
0.104964
-0.000842032
0.104941
-0.00122325
0.104903
-0.001594
0.104866
-0.00203703
0.104813
-0.00247771
0.104764
-0.00301178
0.1047
-0.00355119
0.104646
-0.00419946
0.104583
-0.0048593
0.104539
-0.00562955
0.104501
-0.00640962
0.104498
-0.00727388
0.104524
-0.0081233
0.104604
-0.00898624
0.104738
-0.00976302
0.104938
-0.0104311
0.105194
-0.0108799
-0.0110699
0.105491
0.104993
-0.000152607
0.104982
-0.000499101
0.104953
-0.000813953
0.104924
-0.00119393
0.104875
-0.00154478
0.104828
-0.00199012
0.104759
-0.00240841
0.104697
-0.00295011
0.104613
-0.00346675
0.104545
-0.00413139
0.104459
-0.00477404
0.104405
-0.00557482
0.104349
-0.00635447
0.104346
-0.00727019
0.104373
-0.00815077
0.104476
-0.00908951
0.104649
-0.00993512
0.104909
-0.0106913
0.105246
-0.011217
-0.0114651
0.105641
0.104991
-0.000143287
0.104978
-0.000486211
0.104943
-0.000779021
0.104908
-0.00115894
0.104846
-0.0014834
0.10479
-0.00193408
0.104703
-0.00232123
0.10463
-0.0028764
0.104522
-0.0033588
0.10444
-0.00404992
0.104328
-0.00466156
0.104262
-0.00550909
0.104182
-0.00627464
0.104178
-0.00726572
0.104197
-0.0081705
0.104324
-0.00921616
0.104528
-0.0101396
0.104853
-0.0110163
0.105279
-0.0116427
-0.0119685
0.105783
0.104989
-0.000132105
0.104974
-0.000471577
0.104932
-0.000737023
0.104892
-0.00111855
0.104818
-0.00140929
0.104753
-0.00186943
0.104647
-0.00221478
0.104562
-0.00279132
0.104427
-0.00322426
0.104333
-0.00395583
0.104187
-0.00451575
0.104111
-0.00543321
0.103996
-0.00615973
0.103992
-0.00726162
0.10399
-0.00816847
0.104143
-0.00936869
0.10437
-0.0103666
0.104766
-0.011413
0.105289
-0.0121651
-0.0125957
0.105916
0.104987
-0.00011916
0.104971
-0.000455233
0.104922
-0.00068791
0.104876
-0.00107294
0.104789
-0.00132211
0.104716
-0.00179649
0.104589
-0.00208786
0.104493
-0.0026954
0.104329
-0.00306
0.104223
-0.00384987
0.104037
-0.00432979
0.103952
-0.00534838
0.103789
-0.00599676
0.103788
-0.0072606
0.103744
-0.0081246
0.103929
-0.00955353
0.104159
-0.0105969
0.104641
-0.0118949
0.105266
-0.0127903
-0.0133681
0.106039
0.104986
-0.000104711
0.104967
-0.000436997
0.104911
-0.000631917
0.10486
-0.00102196
0.10476
-0.00122192
0.104679
-0.00171521
0.104531
-0.00193977
0.104424
-0.00258863
0.104227
-0.00286343
0.10411
-0.00373214
0.103877
-0.00409692
0.103784
-0.00525523
0.103558
-0.00577109
0.103563
-0.0072659
0.103451
-0.00801266
0.103679
-0.00978139
0.10388
-0.0107976
0.104472
-0.0124866
0.105197
-0.0135154
-0.0143178
0.106147
0.104985
-8.923e-05
0.104964
-0.00041638
0.104902
-0.000569697
0.104845
-0.000965089
0.104732
-0.00110947
0.104642
-0.00162489
0.104473
-0.0017708
0.104354
-0.00247002
0.104124
-0.00263325
0.103993
-0.00360129
0.103708
-0.00381176
0.103605
-0.00515243
0.103303
-0.00546848
0.103316
-0.00727858
0.103105
-0.0078025
0.103389
-0.0100648
0.103512
-0.0109207
0.104251
-0.0132262
0.105048
-0.0143123
-0.015502
0.106233
0.104984
-7.34362e-05
0.10496
-0.000392502
0.104893
-0.000502451
0.104829
-0.000901207
0.104706
-0.000986371
0.104605
-0.0015239
0.104417
-0.00158265
0.104284
-0.00233707
0.104021
-0.00237026
0.103873
-0.00345358
0.103533
-0.0034718
0.103416
-0.00503483
0.103025
-0.0050778
0.10304
-0.00729397
0.102702
-0.00746421
0.103049
-0.0104115
0.103035
-0.0109071
0.103971
-0.0141617
0.104779
-0.0151206
-0.0170136
0.106291
0.104985
-5.83125e-05
0.104956
-0.000364033
0.104886
-0.000432035
0.104813
-0.000828502
0.104682
-0.00085541
0.104568
-0.00140938
0.104364
-0.00137893
0.104212
-0.0021853
0.10392
-0.00207833
0.103749
-0.00328196
0.103356
-0.00307908
0.103213
-0.00489171
0.102729
-0.00459377
0.102733
-0.00729815
0.102242
-0.00697318
0.102646
-0.0108153
0.102433
-0.0106942
0.103613
-0.0153419
0.104348
-0.0158555
-0.0189859
0.10632
0.104987
-4.50486e-05
0.104952
-0.000329216
0.104881
-0.00036099
0.104797
-0.000744416
0.104662
-0.000720671
0.10453
-0.001277
0.104316
-0.00116563
0.104139
-0.00200759
0.103826
-0.00176544
0.103619
-0.00307487
0.103182
-0.00264216
0.102995
-0.00470477
0.102421
-0.00402032
0.102387
-0.00726425
0.10173
-0.00631533
0.102163
-0.0112488
0.10169
-0.0102214
0.10315
-0.0168017
0.103705
-0.0164106
-0.0216151
0.106334
0.10499
-3.4852e-05
0.104947
-0.000286074
0.104878
-0.000292366
0.104779
-0.000645824
0.104646
-0.000587468
0.10449
-0.00112097
0.104276
-0.000951472
0.104062
-0.00179369
0.103742
-0.00144487
0.103481
-0.00281469
0.103018
-0.00217885
0.102758
-0.00444493
0.102114
-0.00337574
0.101996
-0.00714698
0.101175
-0.00549416
0.101582
-0.0116552
0.100797
-0.0094363
0.102542
-0.0185475
0.102773
-0.0166408
-0.0252082
0.106366
0.104994
-2.85604e-05
0.104941
-0.000233001
0.104877
-0.000229041
0.104761
-0.000529803
0.104635
-0.000461485
0.104449
-0.000934868
0.104245
-0.00074736
0.103982
-0.0015305
0.103673
-0.00113593
0.103335
-0.00247631
0.102875
-0.00171969
0.102498
-0.00406715
0.101823
-0.00270118
0.101547
-0.00687122
0.1006
-0.00454659
0.100875
-0.0119305
0.0997525
-0.00831375
0.101751
-0.020546
0.101433
-0.0163231
-0.0302359
0.106461
0.104998
-2.61387e-05
0.104934
-0.000169688
0.104878
-0.000172513
0.104743
-0.000395338
0.104628
-0.00034632
0.104408
-0.000714886
0.104223
-0.000562005
0.103899
-0.00120696
0.103623
-0.000859428
0.103177
-0.00203068
0.102767
-0.00130993
0.102204
-0.0035039
0.101576
-0.00207261
0.101016
-0.00631161
0.100041
-0.00357131
0.0999859
-0.0118758
0.0985849
-0.00691279
0.100698
-0.0226595
0.0995693
-0.0151941
-0.0374315
0.106765
0.105
-2.62466e-05
0.104928
-9.78493e-05
0.104878
-0.000121922
0.104727
-0.000244903
0.104622
-0.000241269
0.104371
-0.000463666
0.104205
-0.000396291
0.103822
-0.00082364
0.103584
-0.000621704
0.103022
-0.00146824
0.102688
-0.000976328
0.10189
-0.00270608
0.101404
-0.00158629
0.100365
-0.00527267
0.0995653
-0.00277155
0.0987753
-0.0110857
0.0973873
-0.00552485
0.0990638
-0.024336
0.0970366
-0.0131668
-0.048487
0.108092
0.105
-2.62852e-05
0.104923
-2.11767e-05
0.104876
-7.40962e-05
0.104715
-8.45852e-05
0.104615
-0.000140772
0.104343
-0.000191506
0.104187
-0.000241087
0.103761
-0.000397007
0.103547
-0.000408271
0.102892
-0.000813104
0.102615
-0.000699411
0.101608
-0.0016988
0.101257
-0.00123536
0.0997136
-0.0037292
0.0992496
-0.00230759
0.0971174
-0.00895348
0.0963063
-0.00471375
0.0961154
-0.0241452
0.0937963
-0.0108477
-0.0660482
0.111358
0.104997
-2.3228e-05
0.10492
5.59767e-05
0.104871
-2.51819e-05
0.104708
7.827e-05
0.104605
-3.74742e-05
0.104325
8.79355e-05
0.104167
-8.25577e-05
0.103722
4.73641e-05
0.103505
-0.000191194
0.102808
-0.000115591
0.102528
-0.000419231
0.101418
-0.0005892
0.101068
-0.000885158
0.0992261
-0.0018875
0.0988081
-0.00188962
0.0956463
-0.00579162
0.0953585
-0.00442594
0.0913781
-0.0201648
0.090975
-0.0104447
-0.0866613
0.111588
0.104987
-1.03652e-05
0.104925
0.000117978
0.104857
4.27882e-05
0.104715
0.000220533
0.104581
9.63149e-05
0.104334
0.000335534
0.104125
0.000125611
0.10373
0.000442799
0.103431
0.000107481
0.102808
0.000507328
0.102389
3.87227e-07
0.101374
0.000425466
0.100785
-0.000295937
0.0990346
-0.000137276
0.0981302
-0.000985225
0.0947828
-0.00244426
0.0932829
-0.00292605
0.0866034
-0.0134853
0.0914948
-0.015336
0.0997091
-0.0948757
0.105016
-0.00158972
0.105027
-0.00158118
0.105039
-0.00157446
0.105052
-0.00156663
0.105064
-0.00155781
0.105077
-0.00154802
0.105089
-0.00153728
0.105102
-0.00152559
0.105115
-0.00151294
-0.00149926
0.105127
0.105181
-0.00160768
0.105203
-0.00160232
0.105224
-0.0015956
0.105245
-0.00158785
0.105266
-0.00157908
0.105288
-0.00156929
0.105309
-0.00155848
0.10533
-0.00154669
0.105351
-0.00153393
-0.00152031
0.105372
0.105365
-0.00164137
0.105399
-0.00163587
0.105432
-0.00162908
0.105466
-0.00162117
0.105499
-0.00161216
0.105531
-0.00160205
0.105564
-0.00159085
0.105596
-0.00157858
0.105627
-0.00156526
-0.00155093
0.105658
0.105538
-0.00168844
0.105585
-0.00168276
0.105632
-0.00167585
0.105679
-0.0016677
0.105725
-0.00165833
0.105771
-0.00164774
0.105816
-0.00163595
0.10586
-0.00162298
0.105904
-0.00160883
-0.00159361
0.105946
0.105703
-0.00175032
0.105765
-0.00174468
0.105827
-0.00173763
0.105888
-0.00172915
0.105949
-0.00171928
0.106009
-0.00170802
0.106069
-0.00169537
0.106127
-0.00168137
0.106184
-0.00166603
-0.00164947
0.10624
0.105862
-0.00182928
0.105941
-0.00182379
0.10602
-0.00181655
0.106098
-0.00180765
0.106176
-0.00179709
0.106253
-0.00178489
0.106328
-0.00177107
0.106403
-0.00175567
0.106475
-0.0017387
-0.00172032
0.106546
0.106015
-0.00192821
0.106114
-0.001923
0.106213
-0.00191558
0.106312
-0.00190612
0.106409
-0.00189466
0.106505
-0.0018812
0.1066
-0.0018658
0.106693
-0.0018485
0.106784
-0.00182932
-0.00180848
0.106872
0.106162
-0.00205126
0.106285
-0.00204647
0.106409
-0.00203887
0.106531
-0.00202871
0.106653
-0.00201602
0.106772
-0.00200086
0.10689
-0.00198329
0.107005
-0.0019634
0.107116
-0.0019412
-0.00191703
0.107225
0.1063
-0.00220463
0.106454
-0.00220033
0.106607
-0.0021925
0.10676
-0.0021813
0.106911
-0.00216687
0.107059
-0.0021493
0.107205
-0.00212868
0.107346
-0.00210517
0.107484
-0.0020788
-0.00205003
0.107617
0.106426
-0.00239788
0.106619
-0.00239373
0.106812
-0.0023853
0.107003
-0.00237235
0.107191
-0.0023552
0.107376
-0.00233402
0.107556
-0.00230897
0.107731
-0.00228024
0.107901
-0.00224793
-0.00221273
0.108063
0.106538
-0.00264541
0.106785
-0.00264006
0.107029
-0.00262987
0.10727
-0.00261365
0.107507
-0.002592
0.107738
-0.00256519
0.107963
-0.00253341
0.10818
-0.00249698
0.108388
-0.00245603
-0.00241164
0.108587
0.106642
-0.00296713
0.10696
-0.0029581
0.107274
-0.00294359
0.107581
-0.00292117
0.107881
-0.00289189
0.108172
-0.00285605
0.108453
-0.00281389
0.108721
-0.00276589
0.108978
-0.00271223
-0.00265463
0.109221
0.106755
-0.00338827
0.10717
-0.00337241
0.107575
-0.00334911
0.10797
-0.00331576
0.108352
-0.00327386
0.108719
-0.00322364
0.109071
-0.00316537
0.109405
-0.00309988
0.10972
-0.00302736
-0.00295075
0.110016
0.106922
-0.00394466
0.107463
-0.00391371
0.107989
-0.00387474
0.108497
-0.00382346
0.108985
-0.0037617
0.10945
-0.00368942
0.109892
-0.00360691
0.110307
-0.00351546
0.110695
-0.00341519
-0.0033107
0.111055
0.107221
-0.00470432
0.107941
-0.00463441
0.108633
-0.00456586
0.109292
-0.0044828
0.109918
-0.00438775
0.110509
-0.00428025
0.111062
-0.0041605
0.111577
-0.00403045
0.112052
-0.00388982
-0.00374953
0.112491
0.107817
-0.00575656
0.108806
-0.00562372
0.109742
-0.00550182
0.110621
-0.00536173
0.11144
-0.00520678
0.112197
-0.0050364
0.112887
-0.00485114
0.113511
-0.00465413
0.114065
-0.0044443
-0.00423291
0.114549
0.109332
-0.00699682
0.110589
-0.00688082
0.111744
-0.00665619
0.112803
-0.00642112
0.113765
-0.00616847
0.114623
-0.00589423
0.115372
-0.00560078
0.116013
-0.00529454
0.116544
-0.00497524
-0.00467375
0.116985
0.113088
-0.00872719
0.114307
-0.00809952
0.11527
-0.0076195
0.116012
-0.00716342
0.116552
-0.00670786
0.116902
-0.00624453
0.117077
-0.00577624
0.11709
-0.00530739
0.116952
-0.0048366
-0.00437292
0.116651
0.112042
-0.00918099
0.112162
-0.00821936
0.111862
-0.00731944
0.111211
-0.00651281
0.110256
-0.00575286
0.109051
-0.00503924
0.107651
-0.00437613
0.106104
-0.00376022
0.104449
-0.00318181
-0.0026259
0.102702
0.0905281
0.0823088
0.0749894
0.0684765
0.0627237
0.0576844
0.0533083
0.0495481
0.0463663
0.0437404
0.105206
-0.00834457
0.10528
-0.00771712
0.105348
-0.00697399
0.105408
-0.00615789
0.105456
-0.0053135
0.105494
-0.00447945
0.105522
-0.00368541
0.105541
-0.00295245
0.105553
-0.00228956
0.105559
-0.00170787
0.10556
-0.00120115
0.105557
-0.00077828
0.105553
-0.000421395
0.105547
-0.000139798
0.10554
9.00965e-05
0.105534
0.000262621
0.105527
0.000394449
0.105521
0.000489359
0.105514
0.000547587
0.000585496
0.105483
-0.00845615
0.105578
-0.00781171
0.10565
-0.00704566
0.105698
-0.00620606
0.105725
-0.0053404
0.105734
-0.0044887
0.10573
-0.00368103
0.105716
-0.00293839
0.105695
-0.00226889
0.105671
-0.00168363
0.105645
-0.0011752
0.105619
-0.000752708
0.105595
-0.000397265
0.105573
-0.000117987
0.105554
0.000109216
0.105538
0.000279161
0.105524
0.00040785
0.105512
0.000501869
0.105501
0.000558036
0.000597845
0.105821
-0.00861996
0.105951
-0.00794128
0.10604
-0.00713511
0.106089
-0.0062549
0.106103
-0.00535358
0.106087
-0.0044735
0.106051
-0.00364506
0.106002
-0.00288865
0.105944
-0.00221086
0.105882
-0.00162242
0.105821
-0.00111407
0.105763
-0.000694861
0.10571
-0.000344279
0.105664
-7.11831e-05
0.105623
0.000149383
0.105589
0.000313156
0.105562
0.000435191
0.105538
0.000526165
0.105518
0.000578204
0.000619895
0.106171
-0.00884458
0.106344
-0.00811412
0.106457
-0.00724807
0.106511
-0.00630893
0.106514
-0.00535701
0.106478
-0.00443746
0.106414
-0.00358065
0.106331
-0.00280591
0.106238
-0.00211752
0.106141
-0.00152572
0.106045
-0.00101837
0.105955
-0.000604651
0.105872
-0.000261514
0.105799
1.76019e-06
0.105736
0.000212307
0.105683
0.000366395
0.10564
0.000478418
0.105602
0.000564181
0.10557
0.000610085
0.000653356
0.106532
-0.0091367
0.106752
-0.00833359
0.106889
-0.00738535
0.106947
-0.00636732
0.10694
-0.00534934
0.106882
-0.00437938
0.106788
-0.00348711
0.106672
-0.00269008
0.106544
-0.00198935
0.106413
-0.00139449
0.106284
-0.000889221
0.106163
-0.000483454
0.106052
-0.000150625
0.105953
0.000100213
0.105869
0.000296429
0.105798
0.000437681
0.10574
0.000536258
0.105689
0.000614844
0.105647
0.000652499
0.000697641
0.106914
-0.00950401
0.107183
-0.00860258
0.107343
-0.00754568
0.107402
-0.00642637
0.107379
-0.00532612
0.107294
-0.0042949
0.107168
-0.00336069
0.107016
-0.0025383
0.106851
-0.00182449
0.106684
-0.00122771
0.106522
-0.000726296
0.106369
-0.000331353
0.106231
-1.1999e-05
0.106108
0.000222642
0.106004
0.0004005
0.105917
0.000525323
0.105846
0.00060652
0.105785
0.00067602
0.105735
0.000702966
0.000750823
0.107324
-0.0099564
0.107645
-0.00892386
0.107826
-0.00772624
0.10788
-0.00648038
0.107835
-0.00528076
0.107717
-0.00417756
0.107552
-0.00319575
0.10736
-0.00234603
0.107155
-0.00161959
0.10695
-0.00102301
0.106752
-0.000528064
0.106569
-0.000147725
0.106401
0.000155276
0.106255
0.000368555
0.106132
0.0005236
0.10603
0.00062798
0.105949
0.000687
0.10588
0.000745443
0.105824
0.000758663
0.000810536
0.107775
-0.0105062
0.108151
-0.0092997
0.108347
-0.00792227
0.108388
-0.00652138
0.108311
-0.00520451
0.108153
-0.00401898
0.107942
-0.00298509
0.107704
-0.00210769
0.107455
-0.00137048
0.107209
-0.00077743
0.106973
-0.00029228
0.106756
6.92776e-05
0.10656
0.000351597
0.10639
0.000538476
0.106248
0.000665239
0.106132
0.00074465
0.106043
0.000775627
0.105968
0.000820938
0.10591
0.000816662
0.000874421
0.108279
-0.0111684
0.10871
-0.00973096
0.108914
-0.00812617
0.108932
-0.0065386
0.108813
-0.00508601
0.108603
-0.0038086
0.108338
-0.00272008
0.108047
-0.0018168
0.107749
-0.00107245
0.107459
-0.000487454
0.107183
-1.66544e-05
0.10693
0.000321972
0.106704
0.000578057
0.106509
0.000733183
0.106349
0.000825419
0.106219
0.000874628
0.106124
0.000870464
0.106045
0.000900548
0.105987
0.000874061
0.000940497
0.108855
-0.0119598
0.109339
-0.0102156
0.10954
-0.00832642
0.109519
-0.00651762
0.109343
-0.00491052
0.109068
-0.00353335
0.108738
-0.00239069
0.108388
-0.00146592
0.108036
-0.000720376
0.107698
-0.000149859
0.107378
0.000303354
0.107088
0.000611495
0.106829
0.000837303
0.106608
0.000954133
0.106429
0.00100506
0.106285
0.00101801
0.106185
0.000970354
0.106103
0.000983215
0.106048
0.00092868
0.00100805
0.109525
-0.0128977
0.110055
-0.0107464
0.110235
-0.0085064
0.110157
-0.00643926
0.109906
-0.00465909
0.109549
-0.00317718
0.109144
-0.00198512
0.108724
-0.00104653
0.108312
-0.000308338
0.107921
0.000241432
0.107554
0.000670458
0.107223
0.000942421
0.106927
0.0011338
0.106676
0.00120496
0.106473
0.00120789
0.106314
0.00117728
0.106207
0.00107687
0.10612
0.00107054
0.106067
0.000981038
0.00107954
0.110319
-0.0139965
0.110882
-0.0113089
0.111018
-0.00864279
0.110857
-0.00627769
0.110505
-0.00430691
0.110047
-0.00271974
0.10955
-0.00148788
0.109051
-0.000547259
0.108569
0.000173679
0.108116
0.000694201
0.107693
0.00109326
0.107312
0.00132365
0.106968
0.00147767
0.106678
0.00149488
0.106442
0.00144426
0.106258
0.00136072
0.106137
0.00119844
0.106037
0.00117015
0.10598
0.00103817
0.0011636
0.111282
-0.0152627
0.111852
-0.0118789
0.111911
-0.00870142
0.111628
-0.00599468
0.111139
-0.00381825
0.11055
-0.00213073
0.109935
-0.000872349
0.109335
5.28064e-05
0.108763
0.00074578
0.10823
0.00122655
0.107732
0.00159151
0.10728
0.00177557
0.106867
0.00189084
0.106517
0.00184488
0.106224
0.00173729
0.105997
0.00158788
0.105839
0.00135641
0.105709
0.00130011
0.105628
0.00111845
0.00127748
0.112481
-0.0166879
0.113016
-0.0124145
0.112935
-0.00861988
0.112459
-0.00551875
0.111766
-0.00312538
0.110987
-0.00135227
0.110201
-8.62348e-05
0.109448
0.000806122
0.108745
0.00144821
0.108091
0.00188084
0.107477
0.0022057
0.106914
0.00233861
0.106391
0.00241379
0.105942
0.00229388
0.105551
0.00212774
0.105246
0.00189377
0.105013
0.00158894
0.104823
0.00149028
0.104689
0.00125273
0.00144404
0.114007
-0.0182046
0.114397
-0.0128042
0.114021
-0.00824365
0.113191
-0.00468901
0.112145
-0.00207872
0.111049
-0.000256974
0.109981
0.000982084
0.108986
0.00180062
0.10807
0.00236504
0.107222
0.00272897
0.106428
0.00299926
0.105695
0.00307164
0.105008
0.00310034
0.104409
0.00289284
0.103871
0.00266569
0.103444
0.00232099
0.103092
0.00194082
0.102812
0.00177032
0.102595
0.00147053
0.00167458
0.115831
-0.0194869
0.115691
-0.0126641
0.114625
-0.00717807
0.113102
-0.00316615
0.111417
-0.000393365
0.109767
0.00139279
0.108252
0.00249785
0.106886
0.00316663
0.105659
0.00359183
0.104549
0.00383854
0.103531
0.00401787
0.102594
0.00400793
0.101722
0.00397256
0.100954
0.00366139
0.100252
0.00336682
0.0996927
0.00288069
0.0992122
0.00242138
0.0988511
0.00213138
0.098563
0.00175861
0.00193174
0.116909
-0.0194117
0.115268
-0.011023
0.112675
-0.00458498
0.109932
-0.000422618
0.107255
0.00228361
0.104862
0.00378521
0.102794
0.00456591
0.101032
0.00492843
0.0995322
0.00509201
0.0982374
0.00513333
0.0970954
0.00515985
0.0960696
0.00503367
0.0951303
0.00491191
0.094302
0.0044897
0.0935454
0.00412343
0.0929526
0.00347344
0.0924451
0.00292892
0.0921129
0.00246351
0.0918713
0.00200029
0.00208737
0.112465
-0.0152256
0.107861
-0.00641933
0.102893
0.000382526
0.0986983
0.00377259
0.095208
0.00577389
0.0924197
0.00657352
0.0902344
0.00675114
0.088559
0.00660383
0.087279
0.0063721
0.0862792
0.00613304
0.0854686
0.00597045
0.0847705
0.0057318
0.0841417
0.00554072
0.0835892
0.00504221
0.0830849
0.0046277
0.0827345
0.00382386
0.0824651
0.0031983
0.082406
0.00252266
0.0824486
0.00195767
0.00192534
0.0914846
-0.00400844
0.0839467
0.00111864
0.0777928
0.00653636
0.0740162
0.00754926
0.0713831
0.00840695
0.0698268
0.00812981
0.0689528
0.00762518
0.0685884
0.0069682
0.0685633
0.00639719
0.0687285
0.00596781
0.0689806
0.00571843
0.0692293
0.00548304
0.0694438
0.00532623
0.0696335
0.0048525
0.0698028
0.0044584
0.0700653
0.00356141
0.0703773
0.00288626
0.0708763
0.00202368
0.0714569
0.00137704
0.00124048
0.0393229
0.000409016
0.0378567
0.00258488
0.0378002
0.00659288
0.0389328
0.00641661
0.0402882
0.00705156
0.0420525
0.00636549
0.0439057
0.00577198
0.0458481
0.00502585
0.0477863
0.00445891
0.0496428
0.0041114
0.0513686
0.0039926
0.0529098
0.00394179
0.0542773
0.00395879
0.0554955
0.00363426
0.0566119
0.00334198
0.0577114
0.00246192
0.0588184
0.00177931
0.0599913
0.000850704
0.0612102
0.000158157
-2.49573e-06
0.00395986
-0.00355085
0.00453084
0.0020139
0.00536513
0.0057586
0.00618985
0.00559189
0.00713494
0.00610646
0.00806339
0.00543705
0.00898665
0.00484872
0.00987531
0.00413719
0.01072
0.00361422
0.0115051
0.0033263
0.0122239
0.00327383
0.0128698
0.00329589
0.0134491
0.00337943
0.0139675
0.00311591
0.0144532
0.00285625
0.014895
0.00202008
0.015357
0.00131732
0.0157671
0.000440666
0.0162344
-0.000309175
-0.000400952
0.00159977
-0.00515062
0.00221545
0.00139822
0.00331878
0.00465526
0.00433343
0.00457724
0.00548208
0.00495781
0.00657431
0.00434482
0.00764748
0.00377554
0.00866251
0.00312217
0.00961715
0.00265958
0.0104982
0.00244522
0.0113035
0.00246856
0.0120284
0.00257101
0.0126829
0.00272486
0.0132699
0.00252897
0.0138217
0.00230442
0.014319
0.00152282
0.014833
0.000803249
0.0152794
-5.73222e-06
0.0157842
-0.000813891
-0.000818026
-6.37751e-05
-0.00508685
0.000441447
0.000893003
0.00169876
0.00339795
0.00286584
0.00341016
0.00417019
0.00365346
0.0053966
0.00311842
0.00658885
0.00258329
0.00770504
0.00200597
0.00874687
0.00161775
0.00970424
0.00148785
0.0105792
0.00159357
0.0113689
0.00178134
0.0120869
0.00200688
0.0127329
0.00188299
0.0133415
0.00169575
0.0138879
0.000976476
0.0144442
0.000246919
0.0149231
-0.000484651
0.0154524
-0.00134318
-0.00125319
-0.00123185
-0.00385499
-0.000768744
0.000429894
0.000556577
0.00207263
0.00182453
0.0021422
0.00324168
0.00223631
0.00456561
0.00179449
0.00584391
0.00130499
0.00703238
0.000817503
0.00813585
0.000514285
0.00914731
0.000476395
0.0100728
0.000668118
0.0109109
0.000943211
0.0116783
0.00123943
0.0123715
0.00118984
0.0130263
0.0010409
0.0136125
0.000390324
0.0142017
-0.000342252
0.0147052
-0.000988151
0.0152501
-0.00188809
-0.00169916
-0.00182895
-0.00202604
-0.00143921
4.01561e-05
-8.13118e-05
0.000714729
0.00123927
0.000821621
0.00272485
0.000750727
0.00410756
0.000411781
0.00543645
-2.3904e-05
0.00666605
-0.000412093
0.00780354
-0.000623203
0.00884497
-0.000565035
0.00979985
-0.000286765
0.0106683
7.47279e-05
0.0114695
0.000438292
0.0121962
0.0004631
0.0128849
0.0003522
0.0135002
-0.000224969
0.0141116
-0.000953682
0.014631
-0.00150747
0.0151821
-0.00243926
-0.00214834
-0.001932
-9.40471e-05
-0.0015765
-0.000315338
-0.000220381
-0.000641392
0.00112736
-0.000526122
0.00263572
-0.000757633
0.00403713
-0.000989627
0.00537979
-0.00136656
0.00661811
-0.00165042
0.0077609
-0.00176599
0.00880716
-0.00161129
0.00976937
-0.00124898
0.010649
-0.000804888
0.0114668
-0.000379538
0.0122123
-0.000282423
0.0129213
-0.000356761
0.0135541
-0.000857723
0.0141764
-0.00157606
0.0147023
-0.00203334
0.0152503
-0.00298724
-0.00259301
-0.00155702
0.00146297
-0.00117932
-0.000693033
0.000167648
-0.00198836
0.00149342
-0.0018519
0.00297776
-0.00224197
0.00435716
-0.00236902
0.00567632
-0.00268572
0.00689072
-0.00286482
0.00800997
-0.00288524
0.00903576
-0.00263708
0.00998295
-0.00219618
0.010854
-0.00167598
0.0116709
-0.00119641
0.0124197
-0.00103123
0.0131347
-0.00107168
0.0137726
-0.00149568
0.0143943
-0.00219772
0.0149173
-0.00255636
0.0154528
-0.00352279
-0.00302569
-0.00068124
0.00214421
-0.000257248
-0.00111703
0.00105483
-0.00330044
0.00232834
-0.00312541
0.00374192
-0.00365556
0.00505853
-0.00368563
0.00631739
-0.00394458
0.00747597
-0.00402341
0.00854367
-0.00395294
0.00952445
-0.00361786
0.0104348
-0.00310657
0.0112781
-0.00251921
0.0120764
-0.00199472
0.0128129
-0.00176774
0.0135193
-0.00177806
0.01415
-0.00212646
0.0147594
-0.00280709
0.0152704
-0.00306734
0.0157847
-0.00403714
-0.00343938
0.00070424
0.00143997
0.00123256
-0.00164535
0.00244477
-0.00451264
0.00361079
-0.00429142
0.00490671
-0.00495148
0.00612034
-0.00489926
0.00728355
-0.00510779
0.00835609
-0.00509595
0.00934602
-0.00494286
0.0102589
-0.00453071
0.0111121
-0.00395976
0.0119091
-0.00331627
0.012672
-0.00275759
0.0133811
-0.00247683
0.0140648
-0.00246177
0.0146763
-0.002738
0.0152623
-0.00339308
0.0157526
-0.00355757
0.0162378
-0.00452239
-0.00382766
0.00263577
-0.0011958
0.00325966
-0.00226924
0.00429869
-0.00555167
0.00531061
-0.00530335
0.00643688
-0.00607774
0.00751145
-0.00597383
0.0085451
-0.00614145
0.00950434
-0.00605519
0.0103928
-0.00583137
0.0112174
-0.00535527
0.0119951
-0.00473745
0.0127296
-0.00405078
0.0134414
-0.00346935
0.0141092
-0.00314468
0.0147567
-0.00310929
0.0153381
-0.00331934
0.0158896
-0.00394465
0.0163529
-0.0040208
0.0167987
-0.00496823
-0.00419034
0.0166419
-0.00234225
-0.0154954
0.0177405
-0.00336788
0.0190254
-0.00683652
0.0206589
-0.00693686
0.0223986
-0.00781748
0.0242658
-0.00784099
0.0260591
-0.00793483
0.0277751
-0.00777114
0.0293846
-0.00744087
0.0309082
-0.00687891
0.0323763
-0.00620549
0.0338042
-0.00547873
0.035217
-0.00488212
0.0365798
-0.00450752
0.0379057
-0.00443519
0.0391184
-0.00453195
0.0402307
-0.005057
0.0412103
-0.0050004
0.0420349
-0.00579281
-0.00499247
0.0411685
0.0058657
-0.0493764
0.0376952
0.000105437
0.0358952
-0.00503656
0.0355032
-0.00654483
0.0355798
-0.00789413
0.036095
-0.00835611
0.0367548
-0.00859464
0.0374989
-0.00851529
0.0382729
-0.00821487
0.0390726
-0.00767857
0.0399112
-0.00704411
0.0407959
-0.0063634
0.0417316
-0.00581784
0.0426844
-0.00546038
0.0436377
-0.00538843
0.044528
-0.00542226
0.045329
-0.005858
0.0460439
-0.00571533
0.0465983
-0.00634718
-0.00556526
0.0628282
0.0144527
-0.0714151
0.0572008
0.00573277
0.0531506
-0.00098629
0.0508168
-0.00421109
0.0492982
-0.00637547
0.0484511
-0.00750902
0.0479763
-0.0081199
0.0477524
-0.0082913
0.0476988
-0.00816134
0.0477829
-0.00776269
0.0479949
-0.00725605
0.0483282
-0.00669667
0.048768
-0.00625766
0.0492806
-0.00597298
0.0498286
-0.00593643
0.0503613
-0.005955
0.0508287
-0.00632534
0.0512553
-0.00614195
0.0515425
-0.00663442
-0.00589951
0.0750124
0.0195019
-0.0800616
0.0704462
0.010299
0.0663033
0.00315658
0.0632357
-0.00114342
0.0608922
-0.004032
0.0591779
-0.00579469
0.0579087
-0.0068507
0.0569713
-0.0073539
0.0562892
-0.00747923
0.0558191
-0.00729263
0.0555344
-0.00697137
0.055419
-0.00658126
0.0554413
-0.00627995
0.0555702
-0.0061019
0.0557557
-0.00612195
0.0559617
-0.00616101
0.0561259
-0.00648954
0.0562897
-0.00630569
0.0563433
-0.00668802
-0.00602484
0.0794298
0.0212934
-0.0812213
0.0768198
0.0129089
0.0738031
0.00617328
0.0711188
0.00154094
0.0687992
-0.00171241
0.0668885
-0.00388402
0.0653303
-0.00529248
0.0640728
-0.00609636
0.0630722
-0.00647872
0.0622989
-0.00651929
0.0617235
-0.00639597
0.0613294
-0.00618712
0.061076
-0.00602654
0.0609369
-0.00596282
0.0608584
-0.00604346
0.060818
-0.00612058
0.0607518
-0.0064234
0.0607127
-0.00626659
0.0605923
-0.00656762
-0.00599147
0.0797622
0.0212347
-0.0797035
0.0786898
0.0139813
0.0768999
0.00796324
0.074988
0.00345283
0.073136
0.000139562
0.0714677
-0.00221572
0.0700085
-0.00383327
0.0687631
-0.00485099
0.0677234
-0.00543902
0.0668818
-0.00567769
0.0662156
-0.00572978
0.0657138
-0.00568525
0.0653349
-0.00564764
0.0650575
-0.00568543
0.0648313
-0.00581732
0.0646441
-0.00593339
0.0644383
-0.00621761
0.0642719
-0.00610013
0.0640472
-0.00634294
-0.00585757
0.0786656
0.0204489
-0.0778799
0.0784395
0.0142075
0.0775088
0.00889394
0.0762768
0.00468481
0.0749557
0.00146066
0.0736622
-0.000922242
0.0724688
-0.00263986
0.0714064
-0.00378861
0.0704888
-0.00452143
0.0697259
-0.00491471
0.0691026
-0.00510654
0.0686139
-0.00519655
0.0682227
-0.00525644
0.0679108
-0.00537353
0.0676355
-0.00554199
0.0673902
-0.00568806
0.0671274
-0.00595482
0.0669039
-0.0058767
0.0666386
-0.00607757
-0.00567655
0.0773947
0.019503
-0.0764488
0.0775222
0.01408
0.0770647
0.00935138
0.076287
0.00546253
0.0753655
0.00238215
0.0744071
3.62151e-05
0.0734842
-0.00171703
0.0726385
-0.00294284
0.0718912
-0.00377418
0.0712606
-0.00428408
0.0707374
-0.00458337
0.0703196
-0.00477872
0.0699764
-0.00491329
0.0696908
-0.00508793
0.0694287
-0.00527989
0.0691853
-0.00544463
0.0689237
-0.00569325
0.0686949
-0.00564785
0.068435
-0.0058177
-0.00548845
0.0763219
0.0185878
-0.0754066
0.0765631
0.0138387
0.0763323
0.00958224
0.0758139
0.00598087
0.075148
0.00304807
0.0744294
0.000754823
0.0737152
-0.00100286
0.073051
-0.0022786
0.0724571
-0.00318024
0.0719532
-0.00378025
0.0715339
-0.00416405
0.0711973
-0.00444211
0.0709193
-0.0046353
0.0706826
-0.0048512
0.070461
-0.00505833
0.0702492
-0.00523279
0.0700195
-0.0054636
0.0698144
-0.00544267
0.0695858
-0.00558913
-0.00531734
0.0754582
0.0177415
-0.074612
0.0757297
0.0135673
0.0756066
0.00970527
0.0752331
0.00635437
0.0747239
0.00355732
0.0741595
0.00131914
0.0735906
-0.000433905
0.0730577
-0.00174572
0.0725796
-0.00270218
0.0721745
-0.00337513
0.0718391
-0.00382865
0.0715706
-0.00417357
0.0713508
-0.00441554
0.071162
-0.00466238
0.0709847
-0.00488102
0.070812
-0.00506012
0.0706236
-0.00527524