x,y,z,U_0,U_1,U_2
0,0,0,3.00159,-0.00423115,-4.179e-11
0,0.1,0,3.00127,-0.00336493,-3.32346e-11
0,0.2,0,3.00094,-0.00249871,-2.46792e-11
0,0.3,0,3.00061,-0.00163249,-1.61237e-11
0,0.4,0,3.00029,-0.00076627,-7.56827e-12
0,0.5,0,3,-8.83343e-19,-4.46101e-27
0,0.6,0,3,-1.06001e-18,-5.35322e-27
0,0.7,0,3,-1.23668e-18,-6.24542e-27
0,0.8,0,3,-1.41335e-18,-7.13762e-27
0,0.9,0,3,-1.59002e-18,-8.02982e-27
0,1,0,3,-1.64243e-18,-1.03417e-26
0,1.1,0,3,-1.80667e-18,-1.13759e-26
0,1.2,0,3,-1.97092e-18,-1.24101e-26
0,1.3,0,3,-2.13516e-18,-1.34442e-26
0,1.4,0,3,-2.2994e-18,-1.44784e-26
0,1.5,0,3,-2.11691e-18,-1.49588e-26
0,1.6,0,3,-2.25804e-18,-1.5956e-26
0,1.7,0,3,-2.39916e-18,-1.69533e-26
0,1.8,0,3,-2.54029e-18,-1.79505e-26
0,1.9,0,3,-2.68142e-18,-1.89478e-26
0,2,0,3,-2.82425e-18,-1.50375e-26
0,2.1,0,3,-2.96546e-18,-1.57894e-26
0,2.2,0,3,-3.10667e-18,-1.65413e-26
0,2.3,0,3,-3.24788e-18,-1.72931e-26
0,2.4,0,3,-3.3891e-18,-1.8045e-26
0,2.5,0,3,-4.0654e-18,-2.03502e-26
0,2.6,0,3,-4.22802e-18,-2.11642e-26
0,2.7,0,3,-4.39063e-18,-2.19782e-26
0,2.8,0,3,-4.55325e-18,-2.27923e-26
0,2.9,0,3,-4.71587e-18,-2.36063e-26
0,3,0,3,-5.07292e-18,-4.556e-26
0,3.1,0,3,-5.24202e-18,-4.70787e-26
0,3.2,0,3,-5.41112e-18,-4.85974e-26
0,3.3,0,3,-5.58022e-18,-5.0116e-26
0,3.4,0,3,-5.74931e-18,-5.16347e-26
0,3.5,0,3,-4.91369e-18,-6.69429e-26
0,3.6,0,3,-5.05408e-18,-6.88556e-26
0,3.7,0,3,-5.19447e-18,-7.07682e-26
0,3.8,0,3,-5.33486e-18,-7.26809e-26
0,3.9,0,3,-5.47525e-18,-7.45935e-26
0,4,0,3,-4.56906e-18,-6.25224e-26
0,4.1,0,3,-4.68329e-18,-6.40854e-26
0,4.2,0,3,-4.79752e-18,-6.56485e-26
0,4.3,0,3,-4.91174e-18,-6.72115e-26
0,4.4,0,3,-4.17407e-18,-4.68311e-26
0,4.5,0,3,-4.26893e-18,-4.78955e-26
0,4.6,0,3,-4.3638e-18,-4.89598e-26
0,4.7,0,3,-4.45866e-18,-5.00241e-26
0,4.8,0,3,-4.55353e-18,-5.10885e-26
0,4.9,0,3,-4.17842e-18,-2.83249e-26
0,5,0,3,-4.26369e-18,-2.8903e-26
0,5.1,0,3,-4.34897e-18,-2.94811e-26
0,5.2,0,3,-4.43424e-18,-3.00591e-26
0,5.3,0,3,-4.51951e-18,-3.06372e-26
0,5.4,0,3,-4.07647e-18,-1.35321e-26
0,5.5,0,3,-4.15196e-18,-1.37827e-26
0,5.6,0,3,-4.22745e-18,-1.40333e-26
0,5.7,0,3,-4.30294e-18,-1.42839e-26
0,5.8,0,3,-4.37843e-18,-1.45345e-26
0,5.9,0,3,-1.54827e-18,-8.60223e-27
0,6,0,3,-1.57452e-18,-8.74803e-27
0,6.1,0,3,-1.60076e-18,-8.89383e-27
0,6.2,0,3,-1.627e-18,-9.03963e-27
0,6.3,0,3,-1.65324e-18,-9.18543e-27
0,6.4,0,3,2.54039e-18,-8.20648e-27
0,6.5,0,3,2.58008e-18,-8.33471e-27
0,6.6,0,3,2.61978e-18,-8.46294e-27
0,6.7,0,3,2.65947e-18,-8.59116e-27
0,6.8,0,3,2.69916e-18,-8.71939e-27
0,6.9,0,3,3.08749e-18,-1.35184e-26
0,7,0,3,3.13224e-18,-1.37144e-26
0,7.1,0,3,3.17698e-18,-1.39103e-26
0,7.2,0,3,3.22173e-18,-1.41062e-26
0,7.3,0,3,3.26647e-18,-1.43021e-26
0,7.4,0,3,3.53611e-18,-2.43721e-26
0,7.5,0,3,3.58389e-18,-2.47015e-26
0,7.6,0,3,3.63168e-18,-2.50308e-26
0,7.7,0,3,3.67946e-18,-2.53602e-26
0,7.8,0,3,3.72725e-18,-2.56895e-26
0,7.9,0,3,6.03976e-18,-3.77428e-26
0,8,0,3,6.11621e-18,-3.82206e-26
0,8.1,0,3,6.19266e-18,-3.86983e-26
0,8.2,0,3,6.26911e-18,-3.91761e-26
0,8.3,0,3,6.34557e-18,-3.96538e-26
0,8.4,0,3,7.37187e-18,-7.10777e-26
0,8.5,0,3,7.45963e-18,-7.19239e-26
0,8.6,0,3,7.54739e-18,-7.27701e-26
0,8.7,0,3,7.63515e-18,-7.36162e-26
0,8.8,0,3,1.17345e-17,-1.14844e-25
0,8.9,0,3,1.18678e-17,-1.16149e-25
0,9,0,3,1.20011e-17,-1.17454e-25
0,9.1,0,3,1.21345e-17,-1.18759e-25
0,9.2,0,3,1.22678e-17,-1.20064e-25
0,9.3,0,3,1.61518e-17,-1.33597e-25
0,9.4,0,3,1.63255e-17,-1.35033e-25
0,9.5,0,3,1.64992e-17,-1.3647e-25
0,9.6,0,3,1.66728e-17,-1.37906e-25
0,9.7,0,3,1.68465e-17,-1.39343e-25
0,9.8,0,3,1.82996e-17,-2.06672e-26
0,9.9,0,3,1.84864e-17,-2.08781e-26
0,10,0,3,1.86731e-17,-2.1089e-26
0,10.1,0,3,1.88598e-17,-2.12999e-26
0,10.2,0,3,1.90466e-17,-2.15108e-26
0,10.3,0,3,1.99393e-17,2.34875e-25
0,10.4,0,3,2.01328e-17,2.37156e-25
0,10.5,0,3,2.03264e-17,2.39436e-25
0,10.6,0,3,2.052e-17,2.41716e-25
0,10.7,0,3,2.07136e-17,2.43997e-25
0,10.8,0,3,2.1908e-17,5.96517e-25
0,10.9,0,3,2.21109e-17,6.02041e-25
0,11,0,3,2.23137e-17,6.07564e-25
0,11.1,0,3,2.25166e-17,6.13087e-25
0,11.2,0,3,2.27194e-17,6.18611e-25
0,11.3,0,3,2.29973e-17,1.48009e-24
0,11.4,0,3,2.32008e-17,1.49319e-24
0,11.5,0,3,2.34043e-17,1.50628e-24
0,11.6,0,3,2.36079e-17,1.51938e-24
0,11.7,0,3,2.38114e-17,1.53248e-24
0,11.8,0,3,2.40149e-17,1.54558e-24
0,11.9,0,3,2.42184e-17,1.55868e-24
0,12,0,3,2.44219e-17,1.57177e-24
0,12.1,0,3,2.46254e-17,1.58487e-24
0,12.2,0,3,2.48289e-17,1.59797e-24
0,12.3,0,3.00018,0.0016665,-2.99526e-10
0,12.4,0,3.00038,0.00355036,-6.3812e-10
0,12.5,0,3.00058,0.00543423,-9.76715e-10
0,12.6,0,3.00079,0.00731809,-1.31531e-09
0,12.7,0,3.00099,0.00920196,-1.6539e-09
0.1,0,0,3.00148,-0.0100858,-5.07635e-11
0.1,0.1,0,3.00135,-0.0101476,-5.78062e-11
0.1,0.2,0,3.00102,-0.00928142,-4.92507e-11
0.1,0.3,0,3.0007,-0.0084152,-4.06953e-11
0.1,0.4,0,3.00037,-0.00754898,-3.21399e-11
0.1,0.5,0,3.00005,-0.00677353,-2.55046e-11
0.1,0.6,0,2.99978,-0.00678561,-3.42683e-11
0.1,0.7,0,2.99978,-0.00678561,-3.42683e-11
0.1,0.8,0,2.99978,-0.00678561,-3.42683e-11
0.1,0.9,0,2.99978,-0.00678561,-3.42683e-11
0.1,1,0,2.99966,-0.00667812,-3.54964e-11
0.1,1.1,0,2.99922,-0.00630836,-3.97212e-11
0.1,1.2,0,2.99922,-0.00630836,-3.97212e-11
0.1,1.3,0,2.99922,-0.00630836,-3.97212e-11
0.1,1.4,0,2.99922,-0.00630836,-3.97212e-11
0.1,1.5,0,2.99908,-0.00599761,-3.92249e-11
0.1,1.6,0,2.99881,-0.00542051,-3.83031e-11
0.1,1.7,0,2.99881,-0.00542051,-3.83031e-11
0.1,1.8,0,2.99881,-0.00542051,-3.83031e-11
0.1,1.9,0,2.99881,-0.00542051,-3.83031e-11
0.1,2,0,2.99927,-0.00542205,-3.38505e-11
0.1,2.1,0,2.99978,-0.00542378,-2.88785e-11
0.1,2.2,0,2.99978,-0.00542378,-2.88785e-11
0.1,2.3,0,2.99978,-0.00542378,-2.88785e-11
0.1,2.4,0,2.99978,-0.00542378,-2.88785e-11
0.1,2.5,0,3.00068,-0.00590926,-3.02879e-11
0.1,2.6,0,3.0013,-0.00624587,-3.1265e-11
0.1,2.7,0,3.0013,-0.00624587,-3.1265e-11
0.1,2.8,0,3.0013,-0.00624587,-3.1265e-11
0.1,2.9,0,3.0013,-0.00624587,-3.1265e-11
0.1,3,0,3.0015,-0.00642228,-5.04449e-11
0.1,3.1,0,3.00159,-0.00649481,-5.833e-11
0.1,3.2,0,3.00159,-0.00649481,-5.833e-11
0.1,3.3,0,3.00159,-0.00649481,-5.833e-11
0.1,3.4,0,3.00159,-0.00649481,-5.833e-11
0.1,3.5,0,3.00117,-0.00558323,-7.08411e-11
0.1,3.6,0,3.00108,-0.00539223,-7.34625e-11
0.1,3.7,0,3.00108,-0.00539223,-7.34625e-11
0.1,3.8,0,3.00108,-0.00539223,-7.34625e-11
0.1,3.9,0,3.00108,-0.00539223,-7.34625e-11
0.1,4,0,2.99922,-0.00444268,-6.07751e-11
0.1,4.1,0,2.99911,-0.00438729,-6.0035e-11
0.1,4.2,0,2.99911,-0.00438729,-6.0035e-11
0.1,4.3,0,2.99911,-0.00438729,-6.0035e-11
0.1,4.4,0,2.99906,-0.00435801,-5.92809e-11
0.1,4.5,0,2.9978,-0.00364364,-4.088e-11
0.1,4.6,0,2.9978,-0.00364364,-4.088e-11
0.1,4.7,0,2.9978,-0.00364364,-4.088e-11
0.1,4.8,0,2.9978,-0.00364364,-4.088e-11
0.1,4.9,0,2.99794,-0.00358563,-3.79387e-11
0.1,5,0,2.99869,-0.00327525,-2.22025e-11
0.1,5.1,0,2.99869,-0.00327525,-2.22025e-11
0.1,5.2,0,2.99869,-0.00327525,-2.22025e-11
0.1,5.3,0,2.99869,-0.00327525,-2.22025e-11
0.1,5.4,0,2.99857,-0.00317169,-1.87363e-11
0.1,5.5,0,2.99827,-0.00289948,-9.625e-12
0.1,5.6,0,2.99827,-0.00289948,-9.625e-12
0.1,5.7,0,2.99827,-0.00289948,-9.625e-12
0.1,5.8,0,2.99827,-0.00289948,-9.625e-12
0.1,5.9,0,2.99839,-0.00215477,-8.04035e-12
0.1,6,0,2.99859,-0.00100792,-5.6e-12
0.1,6.1,0,2.99859,-0.00100792,-5.6e-12
0.1,6.2,0,2.99859,-0.00100792,-5.6e-12
0.1,6.3,0,2.99859,-0.00100792,-5.6e-12
0.1,6.4,0,2.9987,0.000288241,-5.25453e-12
0.1,6.5,0,2.9988,0.00152458,-4.925e-12
0.1,6.6,0,2.9988,0.00152458,-4.925e-12
0.1,6.7,0,2.9988,0.00152458,-4.925e-12
0.1,6.8,0,2.9988,0.00152458,-4.925e-12
0.1,6.9,0,2.99912,0.00164682,-6.5628e-12
0.1,7,0,2.99931,0.00171864,-7.525e-12
0.1,7.1,0,2.99931,0.00171864,-7.525e-12
0.1,7.2,0,2.99931,0.00171864,-7.525e-12
0.1,7.3,0,2.99931,0.00171864,-7.525e-12
0.1,7.4,0,3.00111,0.00180596,-1.13587e-11
0.1,7.5,0,3.00172,0.00183537,-1.265e-11
0.1,7.6,0,3.00172,0.00183537,-1.265e-11
0.1,7.7,0,3.00172,0.00183537,-1.265e-11
0.1,7.8,0,3.00172,0.00183537,-1.265e-11
0.1,7.9,0,3.00159,0.00278905,-1.7587e-11
0.1,8,0,3.00157,0.00293644,-1.835e-11
0.1,8.1,0,3.00157,0.00293644,-1.835e-11
0.1,8.2,0,3.00157,0.00293644,-1.835e-11
0.1,8.3,0,3.00157,0.00293644,-1.835e-11
0.1,8.4,0,3.0004,0.00336392,-3.22772e-11
0.1,8.5,0,3.00038,0.00337076,-3.25e-11
0.1,8.6,0,3.00038,0.00337076,-3.25e-11
0.1,8.7,0,3.00038,0.00337076,-3.25e-11
0.1,8.8,0,3.00038,0.00350862,-3.38878e-11
0.1,8.9,0,3.00032,0.00512164,-5.0125e-11
0.1,9,0,3.00032,0.00512164,-5.0125e-11
0.1,9.1,0,3.00032,0.00512164,-5.0125e-11
0.1,9.2,0,3.00032,0.00512164,-5.0125e-11
0.1,9.3,0,3.00033,0.00542656,-5.11191e-11
0.1,9.4,0,3.00034,0.00667063,-5.5175e-11
0.1,9.5,0,3.00034,0.00667063,-5.5175e-11
0.1,9.6,0,3.00034,0.00667063,-5.5175e-11
0.1,9.7,0,3.00034,0.00667063,-5.5175e-11
0.1,9.8,0,3.00009,0.00682857,-4.03482e-11
0.1,9.9,0,2.99955,0.00717208,-8.1e-12
0.1,10,0,2.99955,0.00717208,-8.1e-12
0.1,10.1,0,2.99955,0.00717208,-8.1e-12
0.1,10.2,0,2.99955,0.00717208,-8.1e-12
0.1,10.3,0,2.99924,0.00728609,3.33383e-11
0.1,10.4,0,2.99883,0.00743534,8.75849e-11
0.1,10.5,0,2.99883,0.00743534,8.75849e-11
0.1,10.6,0,2.99883,0.00743534,8.75849e-11
0.1,10.7,0,2.99883,0.00743534,8.75849e-11
0.1,10.8,0,2.999,0.00763152,1.56239e-10
0.1,10.9,0,2.99914,0.00779127,2.12143e-10
0.1,11,0,2.99914,0.00779127,2.12143e-10
0.1,11.1,0,2.99914,0.00779127,2.12143e-10
0.1,11.2,0,2.99914,0.00779127,2.12143e-10
0.1,11.3,0,2.99941,0.00780834,4.06865e-10
0.1,11.4,0,2.99954,0.00781678,5.03081e-10
0.1,11.5,0,2.99954,0.00781678,5.03081e-10
0.1,11.6,0,2.99954,0.00781678,5.03081e-10
0.1,11.7,0,2.99954,0.00781678,5.03081e-10
0.1,11.8,0,2.99954,0.00781678,5.03081e-10
0.1,11.9,0,2.99954,0.00781678,5.03081e-10
0.1,12,0,2.99954,0.00781678,5.03081e-10
0.1,12.1,0,2.99954,0.00781678,5.03081e-10
0.1,12.2,0,2.99971,0.00778803,2.19052e-10
0.1,12.3,0,2.99991,0.00943937,-1.18461e-10
0.1,12.4,0,3.00012,0.0113232,-4.57056e-10
0.1,12.5,0,3.00032,0.0132071,-7.9565e-10
0.1,12.6,0,3.00052,0.015091,-1.13424e-09
0.1,12.7,0,3.00065,0.01524,-1.68277e-09
0.2,0,0,3.00136,-0.0159405,-5.9737e-11
0.2,0.1,0,3.00124,-0.0160092,-6.68947e-11
0.2,0.2,0,3.00111,-0.0160641,-7.38223e-11
0.2,0.3,0,3.00078,-0.0151979,-6.52669e-11
0.2,0.4,0,3.00046,-0.0143317,-5.67115e-11
0.2,0.5,0,3.00013,-0.0135455,-4.9848e-11
0.2,0.6,0,2.99983,-0.0135593,-5.99113e-11
0.2,0.7,0,2.99957,-0.0135712,-6.85366e-11
0.2,0.8,0,2.99957,-0.0135712,-6.85366e-11
0.2,0.9,0,2.99957,-0.0135712,-6.85366e-11
0.2,1,0,2.99945,-0.0134699,-6.9694e-11
0.2,1.1,0,2.99887,-0.0129773,-7.53227e-11
0.2,1.2,0,2.99844,-0.0126167,-7.94424e-11
0.2,1.3,0,2.99844,-0.0126167,-7.94424e-11
0.2,1.4,0,2.99844,-0.0126167,-7.94424e-11
0.2,1.5,0,2.9983,-0.0123119,-7.89556e-11
0.2,1.6,0,2.99788,-0.011397,-7.74942e-11
0.2,1.7,0,2.99762,-0.010841,-7.66062e-11
0.2,1.8,0,2.99762,-0.010841,-7.66062e-11
0.2,1.9,0,2.99762,-0.010841,-7.66062e-11
0.2,2,0,2.99808,-0.0108426,-7.21536e-11
0.2,2.1,0,2.99908,-0.0108459,-6.25064e-11
0.2,2.2,0,2.99957,-0.0108476,-5.7757e-11
0.2,2.3,0,2.99957,-0.0108476,-5.7757e-11
0.2,2.4,0,2.99957,-0.0108476,-5.7757e-11
0.2,2.5,0,3.00046,-0.011333,-5.91664e-11
0.2,2.6,0,3.00201,-0.0121745,-6.16092e-11
0.2,2.7,0,3.0026,-0.0124917,-6.253e-11
0.2,2.8,0,3.0026,-0.0124917,-6.253e-11
0.2,2.9,0,3.0026,-0.0124917,-6.253e-11
0.2,3,0,3.0028,-0.0126681,-8.17099e-11
0.2,3.1,0,3.0031,-0.012923,-1.09414e-10
0.2,3.2,0,3.00318,-0.0129896,-1.1666e-10
0.2,3.3,0,3.00318,-0.0129896,-1.1666e-10
0.2,3.4,0,3.00318,-0.0129896,-1.1666e-10
0.2,3.5,0,3.00276,-0.012078,-1.29171e-10
0.2,3.6,0,3.00224,-0.0109494,-1.44661e-10
0.2,3.7,0,3.00217,-0.0107845,-1.46925e-10
0.2,3.8,0,3.00217,-0.0107845,-1.46925e-10
0.2,3.9,0,3.00217,-0.0107845,-1.46925e-10
0.2,4,0,3.00031,-0.00983491,-1.34238e-10
0.2,4.1,0,2.99829,-0.00880623,-1.20493e-10
0.2,4.2,0,2.99823,-0.00877458,-1.2007e-10
0.2,4.3,0,2.99823,-0.00877458,-1.2007e-10
0.2,4.4,0,2.99817,-0.0087453,-1.19316e-10
0.2,4.5,0,2.99683,-0.00798409,-9.97084e-11
0.2,4.6,0,2.9956,-0.00728728,-8.176e-11
0.2,4.7,0,2.9956,-0.00728728,-8.176e-11
0.2,4.8,0,2.9956,-0.00728728,-8.176e-11
0.2,4.9,0,2.99574,-0.00722927,-7.88187e-11
0.2,5,0,2.99665,-0.00685218,-5.97e-11
0.2,5.1,0,2.99737,-0.00655051,-4.4405e-11
0.2,5.2,0,2.99737,-0.00655051,-4.4405e-11
0.2,5.3,0,2.99737,-0.00655051,-4.4405e-11
0.2,5.4,0,2.99726,-0.00644695,-4.09388e-11
0.2,5.5,0,2.99683,-0.00606229,-2.80642e-11
0.2,5.6,0,2.99653,-0.00579896,-1.925e-11
0.2,5.7,0,2.99653,-0.00579896,-1.925e-11
0.2,5.8,0,2.99653,-0.00579896,-1.925e-11
0.2,5.9,0,2.99666,-0.00505425,-1.76654e-11
0.2,6,0,2.99699,-0.003118,-1.35453e-11
0.2,6.1,0,2.99718,-0.00201584,-1.12e-11
0.2,6.2,0,2.99718,-0.00201584,-1.12e-11
0.2,6.3,0,2.99718,-0.00201584,-1.12e-11
0.2,6.4,0,2.99729,-0.000719676,-1.08545e-11
0.2,6.5,0,2.99751,0.00187264,-1.01636e-11
0.2,6.6,0,2.9976,0.00304915,-9.85e-12
0.2,6.7,0,2.9976,0.00304915,-9.85e-12
0.2,6.8,0,2.9976,0.00304915,-9.85e-12
0.2,6.9,0,2.99792,0.0031714,-1.14878e-11
0.2,7,0,2.99844,0.00337005,-1.41492e-11
0.2,7.1,0,2.99862,0.00343728,-1.505e-11
0.2,7.2,0,2.99862,0.00343728,-1.505e-11
0.2,7.3,0,2.99862,0.00343728,-1.505e-11
0.2,7.4,0,3.00042,0.0035246,-1.88837e-11
0.2,7.5,0,3.00289,0.00364408,-2.41297e-11
0.2,7.6,0,3.00344,0.00367073,-2.53e-11
0.2,7.7,0,3.00344,0.00367073,-2.53e-11
0.2,7.8,0,3.00344,0.00367073,-2.53e-11
0.2,7.9,0,3.00331,0.00462442,-3.0237e-11
0.2,8,0,3.00316,0.00575151,-3.60717e-11
0.2,8.1,0,3.00314,0.00587288,-3.67e-11
0.2,8.2,0,3.00314,0.00587288,-3.67e-11
0.2,8.3,0,3.00314,0.00587288,-3.67e-11
0.2,8.4,0,3.00197,0.00630036,-5.06272e-11
0.2,8.5,0,3.00076,0.00674151,-6.5e-11
0.2,8.6,0,3.00076,0.00674151,-6.5e-11
0.2,8.7,0,3.00076,0.00674151,-6.5e-11
0.2,8.8,0,3.00076,0.00687938,-6.63878e-11
0.2,8.9,0,3.0007,0.00867162,-8.44291e-11
0.2,9,0,3.00064,0.0102433,-1.0025e-10
0.2,9.1,0,3.00064,0.0102433,-1.0025e-10
0.2,9.2,0,3.00064,0.0102433,-1.0025e-10
0.2,9.3,0,3.00065,0.0105482,-1.01244e-10
0.2,9.4,0,3.00067,0.0121338,-1.06413e-10
0.2,9.5,0,3.00069,0.0133413,-1.1035e-10
0.2,9.6,0,3.00069,0.0133413,-1.1035e-10
0.2,9.7,0,3.00069,0.0133413,-1.1035e-10
0.2,9.8,0,3.00044,0.0134992,-9.55232e-11
0.2,9.9,0,2.99963,0.0140125,-4.73362e-11
0.2,10,0,2.9991,0.0143442,-1.62e-11
0.2,10.1,0,2.9991,0.0143442,-1.62e-11
0.2,10.2,0,2.9991,0.0143442,-1.62e-11
0.2,10.3,0,2.99879,0.0144582,2.52383e-11
0.2,10.4,0,2.99805,0.0147277,1.23184e-10
0.2,10.5,0,2.99766,0.0148707,1.7517e-10
0.2,10.6,0,2.99766,0.0148707,1.7517e-10
0.2,10.7,0,2.99766,0.0148707,1.7517e-10
0.2,10.8,0,2.99783,0.0150669,2.43824e-10
0.2,10.9,0,2.99815,0.0154312,3.71324e-10
0.2,11,0,2.99829,0.0155825,4.24286e-10
0.2,11.1,0,2.99829,0.0155825,4.24286e-10
0.2,11.2,0,2.99829,0.0155825,4.24286e-10
0.2,11.3,0,2.99855,0.0155996,6.19008e-10
0.2,11.4,0,2.99895,0.0156257,9.16819e-10
0.2,11.5,0,2.99907,0.0156336,1.00616e-09
0.2,11.6,0,2.99907,0.0156336,1.00616e-09
0.2,11.7,0,2.99907,0.0156336,1.00616e-09
0.2,11.8,0,2.99907,0.0156336,1.00616e-09
0.2,11.9,0,2.99907,0.0156336,1.00616e-09
0.2,12,0,2.99907,0.0156336,1.00616e-09
0.2,12.1,0,2.99924,0.0156056,7.29741e-10
0.2,12.2,0,2.99945,0.0155722,4.00064e-10
0.2,12.3,0,2.99965,0.0172123,6.26036e-11
0.2,12.4,0,2.99985,0.0190961,-2.75991e-10
0.2,12.5,0,3.00005,0.02098,-6.14585e-10
0.2,12.6,0,3.00019,0.0211756,-1.15748e-09
0.2,12.7,0,3.00032,0.021278,-1.71164e-09
0.3,0,0,3.00125,-0.0217952,-6.87105e-11
0.3,0.1,0,3.00112,-0.0218638,-7.58682e-11
0.3,0.2,0,3.00099,-0.0219325,-8.30258e-11
0.3,0.3,0,3.00086,-0.0219806,-8.98385e-11
0.3,0.4,0,3.00054,-0.0211144,-8.12831e-11
0.3,0.5,0,3.00022,-0.0203174,-7.41914e-11
0.3,0.6,0,2.99991,-0.0203313,-8.42547e-11
0.3,0.7,0,2.99961,-0.0203451,-9.43181e-11
0.3,0.8,0,2.99935,-0.0203568,-1.02805e-10
0.3,0.9,0,2.99935,-0.0203568,-1.02805e-10
0.3,1,0,2.99924,-0.0202617,-1.03891e-10
0.3,1.1,0,2.99866,-0.0197691,-1.0952e-10
0.3,1.2,0,2.99808,-0.0192764,-1.15149e-10
0.3,1.3,0,2.99766,-0.0189251,-1.19164e-10
0.3,1.4,0,2.99766,-0.0189251,-1.19164e-10
0.3,1.5,0,2.99752,-0.0186263,-1.18686e-10
0.3,1.6,0,2.9971,-0.0177113,-1.17225e-10
0.3,1.7,0,2.99667,-0.0167964,-1.15764e-10
0.3,1.8,0,2.99643,-0.0162615,-1.14909e-10
0.3,1.9,0,2.99643,-0.0162615,-1.14909e-10
0.3,2,0,2.99689,-0.0162631,-1.10457e-10
0.3,2.1,0,2.99789,-0.0162664,-1.0081e-10
0.3,2.2,0,2.99888,-0.0162698,-9.11623e-11
0.3,2.3,0,2.99935,-0.0162713,-8.66355e-11
0.3,2.4,0,2.99935,-0.0162713,-8.66355e-11
0.3,2.5,0,3.00025,-0.0167568,-8.80449e-11
0.3,2.6,0,3.0018,-0.0175983,-9.04877e-11
0.3,2.7,0,3.00334,-0.0184398,-9.29306e-11
0.3,2.8,0,3.00389,-0.0187376,-9.3795e-11
0.3,2.9,0,3.00389,-0.0187376,-9.3795e-11
0.3,3,0,3.0041,-0.018914,-1.12975e-10
0.3,3.1,0,3.0044,-0.0191688,-1.40679e-10
0.3,3.2,0,3.0047,-0.0194237,-1.68384e-10
0.3,3.3,0,3.00477,-0.0194844,-1.7499e-10
0.3,3.4,0,3.00477,-0.0194844,-1.7499e-10
0.3,3.5,0,3.00435,-0.0185728,-1.87501e-10
0.3,3.6,0,3.00383,-0.0174442,-2.02991e-10
0.3,3.7,0,3.00332,-0.0163156,-2.18481e-10
0.3,3.8,0,3.00325,-0.0161767,-2.20387e-10
0.3,3.9,0,3.00325,-0.0161767,-2.20387e-10
0.3,4,0,3.00139,-0.0152271,-2.077e-10
0.3,4.1,0,2.99937,-0.0141985,-1.93955e-10
0.3,4.2,0,2.99735,-0.0131698,-1.80211e-10
0.3,4.3,0,2.99734,-0.0131619,-1.80105e-10
0.3,4.4,0,2.99729,-0.0131326,-1.79351e-10
0.3,4.5,0,2.99594,-0.0123714,-1.59743e-10
0.3,4.6,0,2.9946,-0.0116102,-1.40136e-10
0.3,4.7,0,2.9934,-0.0109309,-1.2264e-10
0.3,4.8,0,2.9934,-0.0109309,-1.2264e-10
0.3,4.9,0,2.99354,-0.0108729,-1.19699e-10
0.3,5,0,2.99445,-0.0104958,-1.0058e-10
0.3,5.1,0,2.99536,-0.0101187,-8.14613e-11
0.3,5.2,0,2.99606,-0.00982576,-6.66075e-11
0.3,5.3,0,2.99606,-0.00982576,-6.66075e-11
0.3,5.4,0,2.99595,-0.0097222,-6.31413e-11
0.3,5.5,0,2.99551,-0.00933755,-5.02667e-11
0.3,5.6,0,2.99508,-0.0089529,-3.7392e-11
0.3,5.7,0,2.9948,-0.00869843,-2.8875e-11
0.3,5.8,0,2.9948,-0.00869843,-2.8875e-11
0.3,5.9,0,2.99493,-0.00795373,-2.72904e-11
0.3,6,0,2.99526,-0.00601748,-2.31703e-11
0.3,6.1,0,2.99559,-0.00408124,-1.90502e-11
0.3,6.2,0,2.99577,-0.00302375,-1.68e-11
0.3,6.3,0,2.99577,-0.00302375,-1.68e-11
0.3,6.4,0,2.99588,-0.00172759,-1.64545e-11
0.3,6.5,0,2.9961,0.000864724,-1.57636e-11
0.3,6.6,0,2.99631,0.00345704,-1.50726e-11
0.3,6.7,0,2.99641,0.00457373,-1.4775e-11
0.3,6.8,0,2.99641,0.00457373,-1.4775e-11
0.3,6.9,0,2.99673,0.00469598,-1.64128e-11
0.3,7,0,2.99724,0.00489463,-1.90742e-11
0.3,7.1,0,2.99776,0.00509328,-2.17356e-11
0.3,7.2,0,2.99793,0.00515593,-2.2575e-11
0.3,7.3,0,2.99793,0.00515593,-2.2575e-11
0.3,7.4,0,2.99973,0.00524324,-2.64087e-11
0.3,7.5,0,3.0022,0.00536272,-3.16547e-11
0.3,7.6,0,3.00466,0.0054822,-3.69008e-11
0.3,7.7,0,3.00516,0.0055061,-3.795e-11
0.3,7.8,0,3.00516,0.0055061,-3.795e-11
0.3,7.9,0,3.00503,0.00645979,-4.2887e-11
0.3,8,0,3.00488,0.00758687,-4.87217e-11
0.3,8.1,0,3.00472,0.00871396,-5.45563e-11
0.3,8.2,0,3.00471,0.00880933,-5.505e-11
0.3,8.3,0,3.00471,0.00880933,-5.505e-11
0.3,8.4,0,3.00354,0.0092368,-6.89772e-11
0.3,8.5,0,3.00232,0.00968137,-8.34614e-11
0.3,8.6,0,3.00115,0.0101123,-9.75e-11
0.3,8.7,0,3.00115,0.0101123,-9.75e-11
0.3,8.8,0,3.00114,0.0102501,-9.88878e-11
0.3,8.9,0,3.00108,0.0120424,-1.16929e-10
0.3,9,0,3.00102,0.0138346,-1.3497e-10
0.3,9.1,0,3.00096,0.0153649,-1.50375e-10
0.3,9.2,0,3.00096,0.0153649,-1.50375e-10
0.3,9.3,0,3.00097,0.0156698,-1.51369e-10
0.3,9.4,0,3.00099,0.0172554,-1.56538e-10
0.3,9.5,0,3.00101,0.018841,-1.61708e-10
0.3,9.6,0,3.00103,0.0200119,-1.65525e-10
0.3,9.7,0,3.00103,0.0200119,-1.65525e-10
0.3,9.8,0,3.00078,0.0201698,-1.50698e-10
0.3,9.9,0,2.99997,0.0206831,-1.02511e-10
0.3,10,0,2.99916,0.0211964,-5.43242e-11
0.3,10.1,0,2.99865,0.0215163,-2.43e-11
0.3,10.2,0,2.99865,0.0215163,-2.43e-11
0.3,10.3,0,2.99834,0.0216303,1.71383e-11
0.3,10.4,0,2.9976,0.0218997,1.15084e-10
0.3,10.5,0,2.99686,0.0221692,2.13029e-10
0.3,10.6,0,2.99648,0.022306,2.62755e-10
0.3,10.7,0,2.99648,0.022306,2.62755e-10
0.3,10.8,0,2.99666,0.0225022,3.31409e-10
0.3,10.9,0,2.99698,0.0228665,4.58909e-10
0.3,11,0,2.99731,0.0232309,5.86409e-10
0.3,11.1,0,2.99743,0.0233738,6.36429e-10
0.3,11.2,0,2.99743,0.0233738,6.36429e-10
0.3,11.3,0,2.99769,0.0233909,8.31151e-10
0.3,11.4,0,2.9981,0.023417,1.12896e-09
0.3,11.5,0,2.9985,0.0234431,1.42677e-09
0.3,11.6,0,2.99861,0.0234503,1.50924e-09
0.3,11.7,0,2.99861,0.0234503,1.50924e-09
0.3,11.8,0,2.99861,0.0234503,1.50924e-09
0.3,11.9,0,2.99861,0.0234503,1.50924e-09
0.3,12,0,2.99877,0.0234231,1.24043e-09
0.3,12.1,0,2.99898,0.0233898,9.10753e-10
0.3,12.2,0,2.99918,0.0233564,5.81076e-10
0.3,12.3,0,2.99938,0.0249851,2.43668e-10
0.3,12.4,0,2.99958,0.026869,-9.49262e-11
0.3,12.5,0,2.99972,0.0271112,-6.32182e-10
0.3,12.6,0,2.99985,0.0272136,-1.18635e-09
0.3,12.7,0,2.99998,0.0273161,-1.74051e-09
0.4,0,0,3.00113,-0.0276498,-7.7684e-11
0.4,0.1,0,3.001,-0.0277185,-8.48417e-11
0.4,0.2,0,3.00088,-0.0277872,-9.19993e-11
0.4,0.3,0,3.00075,-0.0278558,-9.91569e-11
0.4,0.4,0,3.00062,-0.0278971,-1.05855e-10
0.4,0.5,0,3.0003,-0.0270893,-9.85348e-11
0.4,0.6,0,3,-0.0271032,-1.08598e-10
0.4,0.7,0,2.99969,-0.0271171,-1.18661e-10
0.4,0.8,0,2.99939,-0.0271309,-1.28725e-10
0.4,0.9,0,2.99914,-0.0271424,-1.37073e-10
0.4,1,0,2.99903,-0.0270535,-1.38089e-10
0.4,1.1,0,2.99845,-0.0265609,-1.43718e-10
0.4,1.2,0,2.99787,-0.0260682,-1.49346e-10
0.4,1.3,0,2.99729,-0.0255756,-1.54975e-10
0.4,1.4,0,2.99688,-0.0252334,-1.58885e-10
0.4,1.5,0,2.99675,-0.0249406,-1.58417e-10
0.4,1.6,0,2.99632,-0.0240256,-1.56956e-10
0.4,1.7,0,2.9959,-0.0231107,-1.55494e-10
0.4,1.8,0,2.99547,-0.0221958,-1.54033e-10
0.4,1.9,0,2.99524,-0.021682,-1.53212e-10
0.4,2,0,2.9957,-0.0216836,-1.4876e-10
0.4,2.1,0,2.99669,-0.0216869,-1.39113e-10
0.4,2.2,0,2.99769,-0.0216903,-1.29465e-10
0.4,2.3,0,2.99869,-0.0216936,-1.19818e-10
0.4,2.4,0,2.99914,-0.0216951,-1.15514e-10
0.4,2.5,0,3.00003,-0.0221806,-1.16923e-10
0.4,2.6,0,3.00158,-0.0230221,-1.19366e-10
0.4,2.7,0,3.00313,-0.0238636,-1.21809e-10
0.4,2.8,0,3.00468,-0.0247051,-1.24252e-10
0.4,2.9,0,3.00519,-0.0249835,-1.2506e-10
0.4,3,0,3.0054,-0.0251599,-1.4424e-10
0.4,3.1,0,3.0057,-0.0254147,-1.71944e-10
0.4,3.2,0,3.00599,-0.0256695,-1.99649e-10
0.4,3.3,0,3.00629,-0.0259243,-2.27353e-10
0.4,3.4,0,3.00636,-0.0259792,-2.3332e-10
0.4,3.5,0,3.00594,-0.0250676,-2.45831e-10
0.4,3.6,0,3.00542,-0.023939,-2.61321e-10
0.4,3.7,0,3.00491,-0.0228104,-2.76811e-10
0.4,3.8,0,3.00439,-0.0216818,-2.92301e-10
0.4,3.9,0,3.00434,-0.0215689,-2.9385e-10
0.4,4,0,3.00248,-0.0206194,-2.81163e-10
0.4,4.1,0,3.00046,-0.0195907,-2.67418e-10
0.4,4.2,0,2.99844,-0.018562,-2.53673e-10
0.4,4.3,0,2.99645,-0.0175492,-2.4014e-10
0.4,4.4,0,2.9964,-0.0175199,-2.39386e-10
0.4,4.5,0,2.99506,-0.0167587,-2.19778e-10
0.4,4.6,0,2.99372,-0.0159975,-2.00171e-10
0.4,4.7,0,2.99237,-0.0152362,-1.80563e-10
0.4,4.8,0,2.99121,-0.0145746,-1.6352e-10
0.4,4.9,0,2.99135,-0.0145166,-1.60579e-10
0.4,5,0,2.99225,-0.0141395,-1.4146e-10
0.4,5.1,0,2.99316,-0.0137624,-1.22341e-10
0.4,5.2,0,2.99406,-0.0133853,-1.03223e-10
0.4,5.3,0,2.99475,-0.013101,-8.881e-11
0.4,5.4,0,2.99463,-0.0129975,-8.53438e-11
0.4,5.5,0,2.9942,-0.0126128,-7.24692e-11
0.4,5.6,0,2.99377,-0.0122281,-5.95945e-11
0.4,5.7,0,2.99334,-0.0118435,-4.67199e-11
0.4,5.8,0,2.99307,-0.0115979,-3.85e-11
0.4,5.9,0,2.99319,-0.0108532,-3.69154e-11
0.4,6,0,2.99353,-0.00891696,-3.27953e-11
0.4,6.1,0,2.99386,-0.00698072,-2.86752e-11
0.4,6.2,0,2.99419,-0.00504447,-2.45551e-11
0.4,6.3,0,2.99436,-0.00403167,-2.24e-11
0.4,6.4,0,2.99447,-0.00273551,-2.20545e-11
0.4,6.5,0,2.99469,-0.000143193,-2.13636e-11
0.4,6.6,0,2.9949,0.00244912,-2.06726e-11
0.4,6.7,0,2.99512,0.00504144,-1.99817e-11
0.4,6.8,0,2.99521,0.00609831,-1.97e-11
0.4,6.9,0,2.99553,0.00622056,-2.13378e-11
0.4,7,0,2.99605,0.0064192,-2.39992e-11
0.4,7.1,0,2.99657,0.00661785,-2.66606e-11
0.4,7.2,0,2.99708,0.0068165,-2.9322e-11
0.4,7.3,0,2.99724,0.00687457,-3.01e-11
0.4,7.4,0,2.99904,0.00696188,-3.39337e-11
0.4,7.5,0,3.00151,0.00708136,-3.91797e-11
0.4,7.6,0,3.00397,0.00720085,-4.44258e-11
0.4,7.7,0,3.00644,0.00732033,-4.96719e-11
0.4,7.8,0,3.00688,0.00734146,-5.06e-11
0.4,7.9,0,3.00675,0.00829515,-5.5537e-11
0.4,8,0,3.00659,0.00942224,-6.13717e-11
0.4,8.1,0,3.00644,0.0105493,-6.72063e-11
0.4,8.2,0,3.00629,0.0116764,-7.30409e-11
0.4,8.3,0,3.00628,0.0117458,-7.34e-11
0.4,8.4,0,3.00511,0.0121732,-8.73272e-11
0.4,8.5,0,3.00389,0.0126178,-1.01811e-10
0.4,8.6,0,3.00268,0.0130624,-1.16296e-10
0.4,8.7,0,3.00153,0.013483,-1.3e-10
0.4,8.8,0,3.00152,0.0136209,-1.31388e-10
0.4,8.9,0,3.00146,0.0154131,-1.49429e-10
0.4,9,0,3.0014,0.0172054,-1.6747e-10
0.4,9.1,0,3.00133,0.0189976,-1.85512e-10
0.4,9.2,0,3.00128,0.0204866,-2.005e-10
0.4,9.3,0,3.00129,0.0207915,-2.01494e-10
0.4,9.4,0,3.00131,0.0223771,-2.06663e-10
0.4,9.5,0,3.00133,0.0239627,-2.11833e-10
0.4,9.6,0,3.00136,0.0255482,-2.17002e-10
0.4,9.7,0,3.00138,0.0266825,-2.207e-10
0.4,9.8,0,3.00113,0.0268405,-2.05873e-10
0.4,9.9,0,3.00032,0.0273538,-1.57686e-10
0.4,10,0,2.9995,0.0278671,-1.09499e-10
0.4,10.1,0,2.99869,0.0283804,-6.13122e-11
0.4,10.2,0,2.99821,0.0286883,-3.24e-11
0.4,10.3,0,2.99789,0.0288023,9.03834e-12
0.4,10.4,0,2.99715,0.0290718,1.06984e-10
0.4,10.5,0,2.99641,0.0293413,2.04929e-10
0.4,10.6,0,2.99567,0.0296108,3.02874e-10
0.4,10.7,0,2.99531,0.0297414,3.5034e-10
0.4,10.8,0,2.99549,0.0299376,4.18994e-10
0.4,10.9,0,2.99581,0.0303019,5.46494e-10
0.4,11,0,2.99613,0.0306662,6.73994e-10
0.4,11.1,0,2.99646,0.0310306,8.01495e-10
0.4,11.2,0,2.99658,0.0311651,8.48572e-10
0.4,11.3,0,2.99684,0.0311821,1.04329e-09
0.4,11.4,0,2.99724,0.0312083,1.34111e-09
0.4,11.5,0,2.99764,0.0312344,1.63892e-09
0.4,11.6,0,2.99804,0.0312605,1.93673e-09
0.4,11.7,0,2.99815,0.0312671,2.01232e-09
0.4,11.8,0,2.99815,0.0312671,2.01232e-09
0.4,11.9,0,2.99831,0.0312407,1.75112e-09
0.4,12,0,2.99851,0.0312073,1.42144e-09
0.4,12.1,0,2.99871,0.0311739,1.09177e-09
0.4,12.2,0,2.99891,0.0311406,7.62088e-10
0.4,12.3,0,2.99912,0.032758,4.24733e-10
0.4,12.4,0,2.99925,0.0330468,-1.06886e-10
0.4,12.5,0,2.99939,0.0331492,-6.61051e-10
0.4,12.6,0,2.99952,0.0332517,-1.21522e-09
0.4,12.7,0,2.99965,0.0333541,-1.76938e-09
0.5,0,0,3.00102,-0.0335045,-8.66575e-11
0.5,0.1,0,3.00089,-0.0335905,-9.37731e-11
0.5,0.2,0,3.00076,-0.0336764,-1.00889e-10
0.5,0.3,0,3.00063,-0.0337624,-1.08004e-10
0.5,0.4,0,3.0005,-0.0338484,-1.1512e-10
0.5,0.5,0,3.00034,-0.0339181,-1.22407e-10
0.5,0.6,0,3.00005,-0.0339089,-1.32661e-10
0.5,0.7,0,2.99977,-0.0338998,-1.42915e-10
0.5,0.8,0,2.99947,-0.0339028,-1.53068e-10
0.5,0.9,0,2.99917,-0.0339167,-1.63132e-10
0.5,1,0,2.99883,-0.0338453,-1.72287e-10
0.5,1.1,0,2.99824,-0.0333527,-1.77915e-10
0.5,1.2,0,2.99766,-0.03286,-1.83544e-10
0.5,1.3,0,2.99708,-0.0323674,-1.89173e-10
0.5,1.4,0,2.9965,-0.0318748,-1.94801e-10
0.5,1.5,0,2.99597,-0.0312549,-1.98148e-10
0.5,1.6,0,2.99554,-0.03034,-1.96686e-10
0.5,1.7,0,2.99512,-0.029425,-1.95225e-10
0.5,1.8,0,2.9947,-0.0285101,-1.93764e-10
0.5,1.9,0,2.99427,-0.0275952,-1.92302e-10
0.5,2,0,2.9945,-0.0271041,-1.87063e-10
0.5,2.1,0,2.9955,-0.0271074,-1.77416e-10
0.5,2.2,0,2.9965,-0.0271108,-1.67768e-10
0.5,2.3,0,2.9975,-0.0271141,-1.58121e-10
0.5,2.4,0,2.9985,-0.0271175,-1.48474e-10
0.5,2.5,0,2.99982,-0.0276044,-1.45802e-10
0.5,2.6,0,3.00136,-0.0284459,-1.48245e-10
0.5,2.7,0,3.00291,-0.0292874,-1.50688e-10
0.5,2.8,0,3.00446,-0.0301289,-1.5313e-10
0.5,2.9,0,3.00601,-0.0309704,-1.55573e-10
0.5,3,0,3.00669,-0.0314057,-1.75505e-10
0.5,3.1,0,3.00699,-0.0316606,-2.03209e-10
0.5,3.2,0,3.00729,-0.0319154,-2.30914e-10
0.5,3.3,0,3.00759,-0.0321702,-2.58618e-10
0.5,3.4,0,3.00789,-0.032425,-2.86322e-10
0.5,3.5,0,3.00753,-0.0315625,-3.04161e-10
0.5,3.6,0,3.00701,-0.0304338,-3.19651e-10
0.5,3.7,0,3.0065,-0.0293052,-3.35141e-10
0.5,3.8,0,3.00598,-0.0281766,-3.50631e-10
0.5,3.9,0,3.00546,-0.027048,-3.66121e-10
0.5,4,0,3.00356,-0.0260116,-3.54625e-10
0.5,4.1,0,3.00154,-0.0249829,-3.4088e-10
0.5,4.2,0,2.99952,-0.0239542,-3.27136e-10
0.5,4.3,0,2.99751,-0.0229256,-3.13391e-10
0.5,4.4,0,2.99551,-0.0219072,-2.99421e-10
0.5,4.5,0,2.99417,-0.021146,-2.79813e-10
0.5,4.6,0,2.99283,-0.0203847,-2.60206e-10
0.5,4.7,0,2.99149,-0.0196235,-2.40598e-10
0.5,4.8,0,2.99014,-0.0188623,-2.20991e-10
0.5,4.9,0,2.98915,-0.0181602,-2.01459e-10
0.5,5,0,2.99005,-0.0177831,-1.8234e-10
0.5,5.1,0,2.99096,-0.017406,-1.63221e-10
0.5,5.2,0,2.99187,-0.0170289,-1.44103e-10
0.5,5.3,0,2.99277,-0.0166518,-1.24984e-10
0.5,5.4,0,2.99332,-0.0162727,-1.07546e-10
0.5,5.5,0,2.99289,-0.0158881,-9.46717e-11
0.5,5.6,0,2.99246,-0.0155034,-8.1797e-11
0.5,5.7,0,2.99203,-0.0151188,-6.89224e-11
0.5,5.8,0,2.9916,-0.0147341,-5.60478e-11
0.5,5.9,0,2.99146,-0.0137527,-4.65404e-11
0.5,6,0,2.99179,-0.0118164,-4.24203e-11
0.5,6.1,0,2.99212,-0.0098802,-3.83002e-11
0.5,6.2,0,2.99246,-0.00794395,-3.41801e-11
0.5,6.3,0,2.99279,-0.00600771,-3.006e-11
0.5,6.4,0,2.99306,-0.00374343,-2.76545e-11
0.5,6.5,0,2.99328,-0.00115111,-2.69636e-11
0.5,6.6,0,2.99349,0.00144121,-2.62726e-11
0.5,6.7,0,2.99371,0.00403352,-2.55817e-11
0.5,6.8,0,2.99393,0.00662584,-2.48907e-11
0.5,6.9,0,2.99433,0.00774513,-2.62628e-11
0.5,7,0,2.99485,0.00794378,-2.89242e-11
0.5,7.1,0,2.99537,0.00814243,-3.15856e-11
0.5,7.2,0,2.99589,0.00834108,-3.4247e-11
0.5,7.3,0,2.99641,0.00853973,-3.69085e-11
0.5,7.4,0,2.99835,0.00868053,-4.14587e-11
0.5,7.5,0,3.00081,0.00880001,-4.67047e-11
0.5,7.6,0,3.00328,0.00891949,-5.19508e-11
0.5,7.7,0,3.00575,0.00903897,-5.71969e-11
0.5,7.8,0,3.00822,0.00915845,-6.24429e-11
0.5,7.9,0,3.00847,0.0101305,-6.8187e-11
0.5,8,0,3.00831,0.0112576,-7.40217e-11
0.5,8.1,0,3.00816,0.0123847,-7.98563e-11
0.5,8.2,0,3.00801,0.0135118,-8.56909e-11
0.5,8.3,0,3.00786,0.0146389,-9.15256e-11
0.5,8.4,0,3.00668,0.0151097,-1.05677e-10
0.5,8.5,0,3.00546,0.0155543,-1.20161e-10
0.5,8.6,0,3.00425,0.0159988,-1.34646e-10
0.5,8.7,0,3.00303,0.0164434,-1.4913e-10
0.5,8.8,0,3.00191,0.0169916,-1.63888e-10
0.5,8.9,0,3.00184,0.0187839,-1.81929e-10
0.5,9,0,3.00178,0.0205761,-1.9997e-10
0.5,9.1,0,3.00172,0.0223684,-2.18012e-10
0.5,9.2,0,3.00165,0.0241606,-2.36053e-10
0.5,9.3,0,3.00161,0.0259131,-2.51619e-10
0.5,9.4,0,3.00163,0.0274987,-2.56788e-10
0.5,9.5,0,3.00166,0.0290843,-2.61958e-10
0.5,9.6,0,3.00168,0.0306699,-2.67127e-10
0.5,9.7,0,3.0017,0.0322555,-2.72296e-10
0.5,9.8,0,3.00147,0.0335111,-2.61048e-10
0.5,9.9,0,3.00066,0.0340244,-2.12861e-10
0.5,10,0,2.99985,0.0345377,-1.64674e-10
0.5,10.1,0,2.99904,0.035051,-1.16487e-10
0.5,10.2,0,2.99823,0.0355643,-6.83002e-11
0.5,10.3,0,2.99744,0.0359744,9.38343e-13
0.5,10.4,0,2.9967,0.0362439,9.88835e-11
0.5,10.5,0,2.99596,0.0365134,1.96829e-10
0.5,10.6,0,2.99522,0.0367829,2.94774e-10