/*--------------------------------*- C++ -*----------------------------------*\
| =========                 |                                                 |
| \\      /  F ield         | OpenFOAM: The Open Source CFD Toolbox           |
|  \\    /   O peration     | Version:  v1806                                 |
|   \\  /    A nd           | Web:      www.OpenFOAM.com                      |
|    \\/     M anipulation  |                                                 |
\*---------------------------------------------------------------------------*/
FoamFile
{
    version     2.0;
    format      ascii;
    class       volScalarField;
    location    "460";
    object      p;
}
// * * * * * * * * * * * * * * * * * * * * * * * * * * * * * * * * * * * * * //

dimensions      [0 2 -2 0 0 0 0];


internalField   nonuniform List<scalar> 
2400
(
1.0029e-05
1.15105e-05
1.19354e-05
1.41582e-05
1.5849e-05
2.01494e-05
2.32045e-05
2.98685e-05
3.46166e-05
4.43539e-05
5.1005e-05
6.38919e-05
7.16508e-05
8.57128e-05
9.11414e-05
9.95978e-05
9.45779e-05
8.4476e-05
5.87939e-05
2.08404e-05
2.99188e-05
3.44616e-05
3.54343e-05
4.23457e-05
4.69967e-05
6.01521e-05
6.86797e-05
8.90475e-05
0.000102421
0.000132184
0.000151011
0.000190527
0.000212501
0.000256026
0.00027114
0.000298405
0.00028283
0.000254458
0.000177155
6.46701e-05
4.96859e-05
5.70049e-05
5.8685e-05
7.01162e-05
7.78567e-05
9.95606e-05
0.000113696
0.000147412
0.000169567
0.000219022
0.000250182
0.000316296
0.000352637
0.000426545
0.000451349
0.000500144
0.000473401
0.000430345
0.000299199
0.00011134
6.9186e-05
7.89671e-05
8.1549e-05
9.73064e-05
0.000108311
0.000138201
0.000158128
0.000204788
0.000235934
0.000304763
0.000348472
0.000441398
0.000492313
0.000598353
0.000632835
0.000707724
0.000668589
0.000616963
0.000427276
0.000161665
8.83147e-05
0.000100149
0.000103854
0.000123712
0.000138167
0.000175801
0.000201704
0.000260814
0.00030117
0.000388991
0.000445509
0.000565536
0.000631369
0.000771779
0.000816177
0.000923273
0.000870271
0.000819256
0.000563442
0.000218266
0.000106971
0.000120338
0.000125452
0.000149114
0.000167259
0.000212057
0.000244191
0.000315076
0.000364975
0.000471183
0.000540987
0.000688209
0.000769735
0.000946845
0.00100213
0.00114865
0.00108065
0.00104271
0.000710047
0.00028575
0.000125049
0.000139335
0.00014621
0.0001733
0.000195433
0.000246667
0.000285378
0.000367147
0.000427088
0.000550769
0.000634654
0.000808778
0.000907419
0.00112327
0.00119159
0.00138527
0.00130237
0.00129309
0.000869762
0.000371213
0.000142443
0.000156956
0.000165999
0.000196067
0.000222541
0.000279333
0.000325071
0.000416594
0.000487263
0.000627126
0.000726268
0.000926441
0.00104443
0.00130037
0.00138555
0.00163391
0.00153859
0.0015762
0.00104591
0.000485013
0.000159045
0.00017304
0.000184702
0.000217219
0.000248438
0.000309762
0.000363079
0.000462973
0.000545259
0.000699578
0.000815577
0.00104023
0.00118073
0.00147708
0.00158502
0.00189463
0.00179311
0.00189751
0.00124317
0.000641353
0.000174742
0.000187447
0.000202209
0.000236578
0.000272979
0.000337674
0.000399217
0.000505842
0.000600836
0.000767411
0.000902305
0.00114902
0.00131621
0.00165188
0.00179094
0.00216661
0.00207049
0.00226191
0.00146864
0.000858688
0.000189413
0.000200075
0.000218429
0.000253986
0.000296015
0.000362812
0.000433299
0.000544777
0.000653743
0.000829893
0.000986135
0.00125156
0.00145063
0.00182282
0.00200413
0.00244808
0.00237597
0.00267327
0.00173315
0.00115976
0.000202929
0.000210859
0.000233248
0.000269314
0.000317382
0.000384954
0.000465121
0.000579391
0.000703706
0.000886304
0.0010667
0.00134652
0.00158361
0.00198755
0.00222508
0.00273611
0.00271552
0.00313382
0.0020536
0.0015712
0.000215142
0.000219783
0.000246581
0.000282475
0.000336886
0.000403929
0.000494439
0.000609359
0.000750394
0.000935983
0.00114354
0.00143251
0.0017146
0.00214338
0.00245388
0.00302648
0.00309546
0.00364353
0.0024558
0.00212548
0.000225891
0.00022688
0.000258334
0.000293406
0.000354399
0.000419639
0.000521
0.000634446
0.00079338
0.000978373
0.00121602
0.00150822
0.00184277
0.0022875
0.00269029
0.00331367
0.00352178
0.00419884
0.00297478
0.00286426
0.000235011
0.000232232
0.000268387
0.000302068
0.000369529
0.000432077
0.000544555
0.000654563
0.000832289
0.00101304
0.00128349
0.00157243
0.00196669
0.00241711
0.00293363
0.00359183
0.00400025
0.00478971
0.00365412
0.00381302
0.000242336
0.000235949
0.00027661
0.00030846
0.000382056
0.000441276
0.000564463
0.00066978
0.000866445
0.00103995
0.00134514
0.00162421
0.00208546
0.00252843
0.00318249
0.00385609
0.00453977
0.00539946
0.00455746
0.00496244
0.000247691
0.000238177
0.000282869
0.000312589
0.000391668
0.000447285
0.000580277
0.000680152
0.000894432
0.00105927
0.00139883
0.00166353
0.00219878
0.00261802
0.00343744
0.00409779
0.00515901
0.00602349
0.00579121
0.00626944
0.000250876
0.00023909
0.00028702
0.0003145
0.000397864
0.000450156
0.000591238
0.000685748
0.000914971
0.001071
0.00144055
0.0016903
0.00229086
0.00268561
0.0036833
0.00429851
0.00586725
0.00668086
0.00757184
0.00775583
0.00025194
0.000238734
0.000289421
0.00031427
0.000401905
0.000450163
0.000598324
0.000686737
0.000929317
0.00107514
0.00147295
0.00170474
0.00237508
0.00273145
0.00391232
0.00446046
0.00663828
0.00736228
0.00988987
0.0092813
0.000249865
0.000238034
0.000287898
0.000311839
0.000399083
0.000447827
0.000596661
0.000684662
0.000929715
0.00107521
0.00148001
0.00171109
0.00240173
0.00276042
0.00403911
0.00457974
0.00733047
0.00795343
0.0140895
0.00428223
-8.07949e-06
-1.40363e-05
-1.89724e-05
-2.31085e-05
-2.70727e-05
-3.10587e-05
-3.49907e-05
-3.87596e-05
-4.22855e-05
-4.55125e-05
-1.23182e-05
-2.67315e-05
-4.01025e-05
-5.27887e-05
-6.53097e-05
-7.77985e-05
-9.01613e-05
-0.000102296
-0.000114162
-0.000125752
-1.87895e-05
-4.38172e-05
-6.73717e-05
-8.9699e-05
-0.000111582
-0.000133263
-0.000154614
-0.000175462
-0.000195696
-0.000215249
-2.6192e-05
-6.24014e-05
-9.66825e-05
-0.000129267
-0.000161183
-0.000192764
-0.000223842
-0.000254181
-0.000283633
-0.000312112
-3.41117e-05
-8.29434e-05
-0.000129598
-0.000174126
-0.000217689
-0.000260687
-0.000302917
-0.000344079
-0.000383968
-0.00042246
-4.28085e-05
-0.000106722
-0.000168199
-0.000226915
-0.000284185
-0.000340534
-0.000395742
-0.000449441
-0.000501365
-0.000551351
-5.3138e-05
-0.000136192
-0.000216014
-0.000291822
-0.00036542
-0.000437627
-0.000508212
-0.000576688
-0.000642705
-0.000706054
-6.68785e-05
-0.00017554
-0.00027868
-0.000375203
-0.000468305
-0.000559483
-0.000648454
-0.000734503
-0.000817144
-0.000896129
-8.73244e-05
-0.000231457
-0.000364765
-0.000486421
-0.000602783
-0.000716711
-0.000827769
-0.000934802
-0.00103711
-0.00113441
-0.000120199
-0.000314179
-0.000486874
-0.000638997
-0.000783022
-0.000924241
-0.00106187
-0.00119398
-0.00131953
-0.00143822
-0.000175249
-0.000439063
-0.000663129
-0.000852114
-0.00102899
-0.00120297
-0.00137259
-0.0015346
-0.00168749
-0.00183099
-0.000269829
-0.000630135
-0.000920285
-0.00115338
-0.00136907
-0.00158226
-0.00179021
-0.00198769
-0.00217247
-0.00234442
-0.000433808
-0.000925673
-0.00129913
-0.00158391
-0.00184496
-0.00210487
-0.0023585
-0.0025976
-0.00281901
-0.00302284
-0.000708358
-0.0013765
-0.00185338
-0.00219817
-0.00251199
-0.00282726
-0.003135
-0.00342272
-0.003686
-0.00392526
-0.00115291
-0.00205325
-0.00266094
-0.00307934
-0.00345693
-0.00383799
-0.00420846
-0.00455086
-0.00485983
-0.0051368
-0.00186878
-0.00305962
-0.00382405
-0.0043348
-0.00479818
-0.00526834
-0.00572196
-0.00613412
-0.00649745
-0.00681358
-0.0031569
-0.00466986
-0.00554811
-0.00609818
-0.00661212
-0.00715468
-0.00768606
-0.00816889
-0.00859275
-0.00895971
-0.00549131
-0.0076393
-0.00881176
-0.00944979
-0.0100087
-0.0106008
-0.0111757
-0.0116807
-0.0120975
-0.0124253
-0.00675788
-0.00914225
-0.0104773
-0.0114
-0.012327
-0.0132881
-0.0142006
-0.0150246
-0.0157628
-0.0164227
-0.0178759
-0.0190361
-0.0180731
-0.0174152
-0.0173927
-0.0176697
-0.0180218
-0.0183971
-0.0187964
-0.0191656
-5.08861e-05
-5.91591e-05
-6.68676e-05
-7.31895e-05
-7.78698e-05
-8.09036e-05
-8.23423e-05
-8.2264e-05
-8.07509e-05
-7.7919e-05
-7.38704e-05
-6.8758e-05
-6.26742e-05
-5.58101e-05
-4.82037e-05
-4.01137e-05
-3.14549e-05
-2.26524e-05
-1.34003e-05
-4.58545e-06
-0.000146949
-0.000174076
-0.000197164
-0.000215921
-0.000230008
-0.000239309
-0.000243896
-0.00024397
-0.000239778
-0.000231652
-0.000219903
-0.000204963
-0.00018713
-0.000166931
-0.000144527
-0.000120629
-9.50632e-05
-6.90174e-05
-4.15471e-05
-1.5021e-05
-0.000250459
-0.000296278
-0.000335435
-0.000367154
-0.000390891
-0.00040647
-0.000414015
-0.000413881
-0.000406509
-0.000392487
-0.000372369
-0.000346895
-0.00031659
-0.000282341
-0.000244443
-0.000204075
-0.000160946
-0.00011702
-7.0594e-05
-2.56391e-05
-0.000363476
-0.000429894
-0.000486359
-0.000531805
-0.000565494
-0.000587246
-0.000597312
-0.000596274
-0.000584836
-0.000563896
-0.000534302
-0.000497148
-0.000453218
-0.000403791
-0.0003493
-0.000291417
-0.000229711
-0.000166955
-0.000100669
-3.65736e-05
-0.000491709
-0.000580797
-0.00065601
-0.00071596
-0.000759769
-0.000787334
-0.000799139
-0.000796086
-0.000779233
-0.000749871
-0.000709208
-0.000658753
-0.000599591
-0.000533432
-0.000460858
-0.000384059
-0.000302454
-0.000219654
-0.000132366
-4.80932e-05
-0.000641055
-0.000755561
-0.000851293
-0.000926603
-0.000980565
-0.00101328
-0.00102561
-0.0010189
-0.00099471
-0.000954825
-0.000900908
-0.000834963
-0.000758428
-0.000673493
-0.000580909
-0.000483408
-0.000380238
-0.000275872
-0.000166128
-6.03453e-05
-0.000819365
-0.000962582
-0.00108082
-0.00117225
-0.00123604
-0.0012727
-0.00128364
-0.0012709
-0.00123666
-0.00118338
-0.00111329
-0.00102898
-0.000932327
-0.000826037
-0.00071105
-0.000590664
-0.000463924
-0.000336183
-0.000202271
-7.34396e-05
-0.00103683
-0.00121252
-0.00135529
-0.00146324
-0.00153588
-0.00157438
-0.00158105
-0.00155884
-0.00151083
-0.00144031
-0.00135024
-0.00124392
-0.0011237
-0.000992894
-0.000852631
-0.00070679
-0.000554167
-0.000401003
-0.000241021
-8.74567e-05
-0.0013069
-0.0015191
-0.00168812
-0.00181225
-0.00189164
-0.00192859
-0.00192669
-0.00189019
-0.00182335
-0.00173053
-0.00161558
-0.00148265
-0.00133465
-0.00117554
-0.00100664
-0.000832409
-0.00065133
-0.000470526
-0.000282466
-0.000102422
-0.00164739
-0.00190009
-0.00209635
-0.00223492
-0.00231723
-0.00234728
-0.00233054
-0.00227304
-0.00218058
-0.00205888
-0.00191285
-0.00174761
-0.00156675
-0.00137487
-0.0011735
-0.000967638
-0.000755359
-0.000544629
-0.000326498
-0.000118288
-0.00208209
-0.00237871
-0.00260164
-0.00275067
-0.00282929
-0.00284423
-0.00280364
-0.00271596
-0.00258892
-0.00242987
-0.002245
-0.00204053
-0.00182075
-0.00159098
-0.00135286
-0.00111189
-0.000865596
-0.000622741
-0.000372721
-0.000134928
-0.00264276
-0.00298532
-0.00323167
-0.00338352
-0.00344778
-0.00343529
-0.00335807
-0.00322771
-0.00305436
-0.00284725
-0.00261398
-0.00236199
-0.00209628
-0.00182285
-0.00154331
-0.00126365
-0.000980594
-0.000703702
-0.00042035
-0.000152123
-0.00337265
-0.00375998
-0.00402181
-0.00416311
-0.00419633
-0.00413848
-0.00400687
-0.00381708
-0.00358214
-0.00331347
-0.00302021
-0.00271098
-0.00239137
-0.00206796
-0.00174212
-0.00142026
-0.00109797
-0.000785704
-0.000468178
-0.000169673
-0.00432984
-0.00475526
-0.00501624
-0.00512419
-0.00510089
-0.00497241
-0.00476272
-0.00449182
-0.00417585
-0.0038288
-0.00346156
-0.00308382
-0.00270141
-0.00232128
-0.00194427
-0.00157715
-0.00121385
-0.000865918
-0.000514383
-0.00018751
-0.00559914
-0.00604704
-0.00627626
-0.0063116
-0.00619162
-0.00595619
-0.00563699
-0.00525774
-0.00483712
-0.0043914
-0.0039333
-0.00347376
-0.00301856
-0.00257445
-0.0021413
-0.00172625
-0.00132122
-0.000938909
-0.000555311
-0.000204774
-0.00731941
-0.00775473
-0.00789868
-0.00779647
-0.00751508
-0.0071158
-0.00664067
-0.00611726
-0.00556477
-0.00499824
-0.00443073
-0.00387498
-0.00333685
-0.00282197
-0.00232852
-0.00186294
-0.00141503
-0.000999893
-0.000587848
-0.000220417
-0.00954784
-0.00992947
-0.00991233
-0.00959203
-0.0090767
-0.00844703
-0.00775467
-0.00703482
-0.00631311
-0.00560349
-0.00491366
-0.00425212
-0.00362398
-0.0030346
-0.00248074
-0.00196675
-0.00148111
-0.00103798
-0.000605486
-0.000228906
-0.0128706
-0.0128251
-0.0123723
-0.0116884
-0.0108615
-0.00994508
-0.00898199
-0.00801536
-0.00707551
-0.00618391
-0.00535031
-0.00457636
-0.00385968
-0.00319952
-0.00259045
-0.00203291
-0.00151602
-0.00104841
-0.000605058
-0.000220449
-0.0173194
-0.0165288
-0.0151853
-0.0137846
-0.0124376
-0.0111373
-0.00988657
-0.00870075
-0.00759451
-0.00657413
-0.0056385
-0.00478352
-0.0040034
-0.00329328
-0.00264617
-0.00205823
-0.00152103
-0.00103416
-0.000588823
-0.000187967
-0.0190418
-0.0185099
-0.0172987
-0.0155603
-0.0138112
-0.012164
-0.010644
-0.00925637
-0.00799918
-0.0068651
-0.00584396
-0.00492511
-0.00409789
-0.00335278
-0.00268019
-0.00207246
-0.00152205
-0.00102025
-0.000573853
-0.00013612
-0.0252223
-0.0191561
-0.0174564
-0.0154446
-0.0137048
-0.0120803
-0.0105872
-0.00921967
-0.00797538
-0.0068481
-0.00582977
-0.00491153
-0.00408383
-0.00333772
-0.00266443
-0.0020545
-0.00150638
-0.000992132
-0.000571467
-4.84728e-05
-0.0230468
-0.0191381
-0.0175632
-0.0154974
-0.0137475
-0.0121036
-0.0106024
-0.00923022
-0.00798303
-0.0068535
-0.00583325
-0.00491333
-0.00408422
-0.00333682
-0.00266274
-0.00205135
-0.00150416
-0.000984355
-0.00057438
-1.89248e-05
-0.0218127
-0.0190692
-0.0175822
-0.0155389
-0.0137952
-0.0121374
-0.0106275
-0.00924842
-0.00799643
-0.0068633
-0.00584028
-0.00491814
-0.00408731
-0.00333846
-0.00266344
-0.00205072
-0.00150392
-0.000980461
-0.000576423
-1.40582e-06
-0.020977
-0.0189627
-0.0175137
-0.01555
-0.0138148
-0.0121536
-0.0106408
-0.00925833
-0.00800375
-0.0068686
-0.005844
-0.0049206
-0.00408877
-0.00333906
-0.00266352
-0.00204999
-0.0015035
-0.000977706
-0.000577587
1.03541e-05
-0.0204519
-0.0188575
-0.0174491
-0.0155425
-0.0138171
-0.0121589
-0.0106453
-0.00926154
-0.00800589
-0.00686993
-0.00584472
-0.00492082
-0.00408862
-0.00333858
-0.00266286
-0.00204898
-0.00150277
-0.000975771
-0.00057802
1.72589e-05
-0.0202867
-0.018814
-0.0174197
-0.0155348
-0.0138148
-0.012159
-0.0106452
-0.00926091
-0.00800492
-0.00686877
-0.00584349
-0.00491959
-0.00408741
-0.00333741
-0.00266175
-0.00204792
-0.00150184
-0.000974826
-0.000577579
1.87982e-05
-0.020485
-0.0188488
-0.0174259
-0.015533
-0.0138107
-0.0121551
-0.010641
-0.00925683
-0.00800107
-0.00686531
-0.00584047
-0.00491702
-0.00408523
-0.0033356
-0.00266021
-0.00204682
-0.0015007
-0.000974876
-0.000576212
1.48699e-05
-0.0210017
-0.0189264
-0.0174576
-0.0155308
-0.013801
-0.0121451
-0.0106311
-0.00924803
-0.00799344
-0.00685888
-0.00583517
-0.00491272
-0.00408178
-0.00333295
-0.00265808
-0.00204554
-0.0014993
-0.000975808
-0.000574063
5.79997e-06
-0.021858
-0.0189915
-0.0174712
-0.0155198
-0.0137785
-0.0121256
-0.0106134
-0.0092331
-0.00798107
-0.00684885
-0.00582716
-0.00490645
-0.00407693
-0.00332937
-0.00265536
-0.00204413
-0.00149766
-0.000977806
-0.000571011
-9.13087e-06
-0.0231754
-0.0190623
-0.0174381
-0.0155002
-0.013746
-0.0120982
-0.0105897
-0.00921379
-0.00796562
-0.00683676
-0.00581788
-0.00489953
-0.00407191
-0.00332601
-0.00265311
-0.00204364
-0.00149661
-0.000982471
-0.000566024
-3.53002e-05
-0.0219999
-0.0193981
-0.0174085
-0.0154699
-0.0136832
-0.0120415
-0.0105416
-0.00917587
-0.00793644
-0.00681494
-0.00580214
-0.00488876
-0.00406515
-0.00332265
-0.00265214
-0.00204604
-0.00149815
-0.00099549
-0.000558505
-9.72709e-05
-0.0200659
-0.0181733
-0.0165172
-0.0148869
-0.0132724
-0.0117357
-0.01031
-0.00900034
-0.00780359
-0.00671499
-0.00572778
-0.00483449
-0.00402654
-0.00329658
-0.00263568
-0.00203826
-0.00149596
-0.00100363
-0.000564236
-0.000145725
-0.0177929
-0.0166424
-0.0153259
-0.0139465
-0.0125524
-0.0111892
-0.00989376
-0.00868404
-0.00756436
-0.00653601
-0.00559574
-0.00473904
-0.00395938
-0.0032518
-0.00260792
-0.00202501
-0.00149252
-0.00101306
-0.000574251
-0.000183133
-0.0149905
-0.0144715
-0.0136122
-0.0125962
-0.0115036
-0.010386
-0.0092813
-0.00821531
-0.0072049
-0.00626313
-0.00539112
-0.00458858
-0.00385162
-0.00317817
-0.00256054
-0.00199955
-0.00148192
-0.00101869
-0.000581362
-0.000210173
-0.012417
-0.0122998
-0.0118137
-0.0111179
-0.0103028
-0.00942034
-0.00851067
-0.00760789
-0.00673612
-0.0059033
-0.00511602
-0.00438163
-0.00369932
-0.0030699
-0.00248701
-0.00195491
-0.00145774
-0.00101354
-0.000581963
-0.000224581
-0.0102476
-0.0103622
-0.0101364
-0.00968613
-0.00909599
-0.0084181
-0.0076903
-0.0069437
-0.00620067
-0.00547694
-0.00478379
-0.00412702
-0.00350744
-0.00292849
-0.00238655
-0.00188833
-0.00141675
-0.000993799
-0.000574062
-0.000226396
-0.00847958
-0.00871732
-0.00866241
-0.00839143
-0.00797445
-0.00746025
-0.0068834
-0.00627179
-0.00564733
-0.0050271
-0.00442167
-0.00383923
-0.00328262
-0.00275921
-0.00226235
-0.00180098
-0.00135905
-0.000959277
-0.000557333
-0.000218732
-0.00704594
-0.00734388
-0.00739518
-0.00725012
-0.00696306
-0.0065766
-0.0061217
-0.00562334
-0.00510173
-0.00457323
-0.00404856
-0.00353708
-0.00304241
-0.00257123
-0.00211931
-0.00169576
-0.00128627
-0.000911864
-0.000532705
-0.000205616
-0.00587098
-0.00619227
-0.00630705
-0.00624875
-0.00605817
-0.00577085
-0.00541401
-0.00500971
-0.00457587
-0.00412768
-0.00367563
-0.00322914
-0.00279206
-0.00237114
-0.00196368
-0.00157829
-0.0012026
-0.000854946
-0.000501758
-0.000190183
-0.00489562
-0.00521746
-0.00536717
-0.00536721
-0.00524774
-0.00503738
-0.00475939
-0.00443298
-0.00407386
-0.00369573
-0.0033084
-0.0029209
-0.00253725
-0.00216407
-0.00179968
-0.0014519
-0.00111048
-0.000791083
-0.000466008
-0.000174073
-0.00407728
-0.00438516
-0.00455027
-0.00458779
-0.00451973
-0.00436866
-0.00415392
-0.00389195
-0.00359637
-0.00327925
-0.00294954
-0.00261557
-0.00228142
-0.00195333
-0.00163031
-0.00131942
-0.00101232
-0.000722411
-0.000426789
-0.000157925
-0.00338431
-0.00366903
-0.00383604
-0.00389554
-0.00386353
-0.00375749
-0.00359317
-0.0033844
-0.00314278
-0.0028788
-0.00260038
-0.00231505
-0.00202672
-0.0017411
-0.00145775
-0.00118298
-0.000910006
-0.000650435
-0.00038511
-0.000141805
-0.00279208
-0.00304793
-0.00320749
-0.00327753
-0.00326964
-0.00319717
-0.00307274
-0.00290776
-0.00271197
-0.00249428
-0.00226157
-0.00202046
-0.00177455
-0.00152898
-0.00128364
-0.00104415
-0.000804968
-0.000576214
-0.000341725
-0.000125601
-0.00228068
-0.00250431
-0.00265003
-0.00272225
-0.00272931
-0.00268133
-0.00258824
-0.00245927
-0.00230242
-0.00212514
-0.00193324
-0.00173242
-0.00152587
-0.0013181
-0.0011092
-0.000904103
-0.000698271
-0.000500518
-0.000297202
-0.000109218
-0.00183372
-0.00202334
-0.00215093
-0.00221931
-0.00223442
-0.00220383
-0.00213521
-0.00203587
-0.00191224
-0.00177039
-0.0016151
-0.00145113
-0.00128122
-0.0011092
-0.00093527
-0.000763669
-0.000590701
-0.000423915
-0.000251955
-9.26214e-05
-0.00143754
-0.00159237
-0.00169903
-0.00175929
-0.00177732
-0.00175868
-0.00170914
-0.00163432
-0.00153924
-0.00142869
-0.00130646
-0.00117642
-0.00104077
-0.000902699
-0.000762401
-0.000623419
-0.000482808
-0.000346826
-0.000206286
-7.58317e-05
-0.00108068
-0.00120052
-0.00128446
-0.00133361
-0.00135083
-0.00134005
-0.00130545
-0.00125116
-0.00118092
-0.00109834
-0.00100629
-0.000907723
-0.000804353
-0.000698666
-0.000590834
-0.000483661
-0.000374911
-0.000269512
-0.000160401
-5.89251e-05
-0.000753432
-0.000838472
-0.000898641
-0.000934678
-0.000948431
-0.000942514
-0.000919745
-0.00088295
-0.000834693
-0.000777473
-0.000713298
-0.000644249
-0.000571527
-0.000496924
-0.000420553
-0.000344466
-0.00026708
-0.000192005
-0.000114283
-4.19734e-05
-0.000446394
-0.00049768
-0.000534017
-0.000555987
-0.000564637
-0.000561555
-0.000548416
-0.00052688
-0.000498437
-0.000464571
-0.000426453
-0.000385344
-0.000341931
-0.000297327
-0.000251545
-0.000205892
-0.000159347
-0.000114237
-6.76225e-05
-2.4702e-05
-0.000154374
-0.000169799
-0.000182003
-0.000189301
-0.000191922
-0.000190532
-0.000185749
-0.00017815
-0.000168238
-0.000156529
-0.000143409
-0.000129326
-0.000114484
-9.92991e-05
-8.37123e-05
-6.82206e-05
-5.23644e-05
-3.70556e-05
-2.11869e-05
-6.9812e-06
-0.0202471
-0.0222359
-0.0225207
-0.0228858
-0.0233518
-0.023673
-0.0237941
-0.0237677
-0.0236738
-0.0234858
-0.0147311
-0.0174991
-0.0187516
-0.0194776
-0.0200961
-0.0205863
-0.0208862
-0.0210009
-0.0209599
-0.0207811
-0.0108194
-0.0135576
-0.0150011
-0.0158021
-0.0164746
-0.0170934
-0.0175834
-0.0179034
-0.0180573
-0.0180621
-0.00787038
-0.0102013
-0.0114738
-0.0122106
-0.0128543
-0.0134811
-0.0140233
-0.0144343
-0.0147127
-0.0148735
-0.00575863
-0.00768765
-0.00875746
-0.00940568
-0.00999296
-0.010579
-0.0111076
-0.0115388
-0.0118698
-0.0121108
-0.00427709
-0.00586768
-0.00676671
-0.00732961
-0.00784955
-0.00837418
-0.00885773
-0.00926816
-0.00960224
-0.00986725
-0.00321166
-0.00452141
-0.00528225
-0.00577233
-0.00622861
-0.00669096
-0.00712309
-0.00749923
-0.00781626
-0.0080795
-0.00243155
-0.00350925
-0.00415654
-0.00458472
-0.00498411
-0.00538903
-0.0057713
-0.00611014
-0.00640261
-0.0066525
-0.00185447
-0.00273866
-0.0032891
-0.00366284
-0.00401132
-0.00436412
-0.00469973
-0.00500146
-0.00526657
-0.00549777
-0.00142413
-0.00214588
-0.00261178
-0.00293662
-0.00323937
-0.0035451
-0.00383759
-0.00410358
-0.00434059
-0.00455051
-0.00110122
-0.00168673
-0.00207834
-0.00235879
-0.00262023
-0.00288341
-0.00313623
-0.00336829
-0.0035774
-0.00376485
-0.000857086
-0.00132867
-0.001655
-0.00189496
-0.00211889
-0.00234353
-0.00255996
-0.00276011
-0.00294214
-0.00310687
-0.000670157
-0.00104667
-0.00131578
-0.0015188
-0.00170857
-0.00189828
-0.00208141
-0.00225182
-0.00240794
-0.00255033
-0.000524319
-0.000821557
-0.0010406
-0.00120992
-0.0013685
-0.00152648
-0.00167917
-0.00182195
-0.00195356
-0.00207433
-0.000407806
-0.000638842
-0.000814005
-0.00095247
-0.00108242
-0.00121144
-0.00133623
-0.00145336
-0.00156187
-0.00166192
-0.000312098
-0.000487559
-0.000624031
-0.000734061
-0.000837504
-0.00093989
-0.00103894
-0.0011322
-0.00121891
-0.00129918
-0.000230964
-0.000359264
-0.000461289
-0.000544909
-0.000623603
-0.000701254
-0.000776356
-0.000847217
-0.000913294
-0.000974629
-0.000160048
-0.000247173
-0.00031779
-0.000376568
-0.000431967
-0.000486479
-0.000539168
-0.000588956
-0.000635476
-0.000678728
-9.74782e-05
-0.000147537
-0.000188418
-0.000222717
-0.000255144
-0.000287102
-0.000318038
-0.000347328
-0.000374816
-0.00040063
-3.92159e-05
-5.93062e-05
-7.46703e-05
-8.63577e-05
-9.71506e-05
-0.000107873
-0.000118231
-0.000127844
-0.000136453
-0.000143829
0.000228217
0.000216348
0.000268419
0.000282488
0.000372215
0.000407748
0.00055944
0.000627757
0.000877589
0.000994989
0.00141108
0.00160295
0.00232272
0.00262425
0.00397221
0.00442042
0.00737287
0.00788367
0.0156502
0.00684209
0.000222129
0.000209544
0.000261062
0.000274596
0.000362151
0.000396619
0.000544617
0.000611476
0.000854841
0.000970769
0.001375
0.00156665
0.00226096
0.00256716
0.00384006
0.00430748
0.00689951
0.00741288
0.0119621
0.00645276
0.000215051
0.000202081
0.000252846
0.000265621
0.000350893
0.000383963
0.00052787
0.000592872
0.000828738
0.000942907
0.00133262
0.0015244
0.00218603
0.00249921
0.00367627
0.00416782
0.00634132
0.0068917
0.00920119
0.00712387
0.000207129
0.000194139
0.000243593
0.000255871
0.000338156
0.000370224
0.000508763
0.000572579
0.000798643
0.000912294
0.00128306
0.00147739
0.00209721
0.00242196
0.00348289
0.00400684
0.0057456
0.00637945
0.00726948
0.00713125
0.000198443
0.000185678
0.000233385
0.000245325
0.000324049
0.00035535
0.000487475
0.00055049
0.000764884
0.000878698
0.00122705
0.00142516
0.00199658
0.00233482
0.00326926
0.00382832
0.00516827
0.00590508
0.00588735
0.00654523
0.000189039
0.000176686
0.000222299
0.000233973
0.000308679
0.000339307
0.000464195
0.000526529
0.000727821
0.000841974
0.00116542
0.00136749
0.00188655
0.00223809
0.00304466
0.00363588
0.00463461
0.00547081
0.00482409
0.00571798
0.000178966
0.000167174
0.000210391
0.000221833
0.000292131
0.000322108
0.000439081
0.000500702
0.000687788
0.000802122
0.00109895
0.00130447
0.00176941
0.00213238
0.00281656
0.00343152
0.00414961
0.00504911
0.00397521
0.00485838
0.000168269
0.000157159
0.000197721
0.000208934
0.000274498
0.000303781
0.000412307
0.000473035
0.000645137
0.000759173
0.00102846
0.00123618
0.00164719
0.00201793
0.00258953
0.00321706
0.00370725
0.00462397
0.0032852
0.00405376
0.000156993
0.000146658
0.000184353
0.000195303
0.000255879
0.000284354
0.000384054
0.00044356
0.000600223
0.000713155
0.000954689
0.00116263
0.00152149
0.00189465
0.00236516
0.00299327
0.0032989
0.00419551
0.00272208
0.0033375
0.000145184
0.000135689
0.000170352
0.000180973
0.000236377
0.000263861
0.000354501
0.000412311
0.000553373
0.000664093
0.000878251
0.00108379
0.00139342
0.00176276
0.00214397
0.0027601
0.00291932
0.00377003
0.0022621
0.00271761
0.000132882
0.000124272
0.000155782
0.000165979
0.00021609
0.00024234
0.000323813
0.000379331
0.000504879
0.000612023
0.000799661
0.000999696
0.0012636
0.00162267
0.00192609
0.0025183
0.00256546
0.0033534
0.00188453
0.00219063
0.000120132
0.000112435
0.000140706
0.00015036
0.000195111
0.000219838
0.000292144
0.000344679
0.000454997
0.000557014
0.000719334
0.000910491
0.00113251
0.00147486
0.00171157
0.00226933
0.00223491
0.00294919
0.0015711
0.00174763
0.000106976
0.000100204
0.000125179
0.00013416
0.000173529
0.000196413
0.000259636
0.000308434
0.000403954
0.000499183
0.0006376
0.000816442
0.0010005
0.00131993
0.00150047
0.00201464
0.00192518
0.0025591
0.00130652
0.00137833
9.34592e-05
8.76148e-05
0.000109267
0.000117428
0.000151429
0.000172132
0.000226417
0.000270698
0.000351952
0.000438703
0.000554729
0.000717901
0.000867906
0.00115858
0.00129274
0.00175547
0.00163363
0.00218355
0.00107854
0.00107252
7.96263e-05
7.47046e-05
9.30251e-05
0.000100219
0.000128889
0.000147078
0.000192606
0.000231603
0.000299166
0.000375801
0.000470954
0.000615281
0.00073495
0.000991504
0.00108822
0.00149272
0.00135753
0.00182205
0.000877611
0.000820398
6.55243e-05
6.15147e-05
7.65051e-05
8.25964e-05
0.000105985
0.000121343
0.00015831
0.000191305
0.000245746
0.000310751
0.000386469
0.000509049
0.000601805
0.000819401
0.000886618
0.00122701
0.00109421
0.00147338
0.000696303
0.000612569
5.12005e-05
4.80905e-05
5.97599e-05
6.46272e-05
8.27892e-05
9.50361e-05
0.00012363
0.000149989
0.00019183
0.000243877
0.000301444
0.000399732
0.000468584
0.000642978
0.00068752
0.000958773
0.000841131
0.00113568
0.000528892
0.000440087
3.67029e-05
3.44804e-05
4.28432e-05
4.63863e-05
5.93779e-05
6.82821e-05
8.86739e-05
0.000107873
0.000137568
0.000175557
0.000216069
0.000287931
0.000335432
0.000463002
0.000490576
0.000688304
0.000596058
0.000806654
0.000371172
0.000294363
2.20774e-05
2.07384e-05
2.58077e-05
2.79501e-05
3.58106e-05
4.12025e-05
5.35262e-05
6.51647e-05
8.30809e-05
0.000106143
0.000130501
0.000174193
0.000202466
0.000280108
0.000295468
0.000415607
0.00035713
0.000483387
0.000220412
0.000167591
7.36574e-06
6.92773e-06
8.65324e-06
9.3694e-06
1.20389e-05
1.38406e-05
1.80522e-05
2.19144e-05
2.8094e-05
3.57118e-05
4.42247e-05
5.86163e-05
6.87171e-05
9.42345e-05
0.000100294
0.000139615
0.000120855
0.000161523
7.39136e-05
5.35017e-05
0.000247849
0.00023494
0.000289368
0.000306391
0.000400989
0.000440336
0.000599593
0.000673976
0.000935338
0.0010601
0.00149282
0.00169122
0.00243608
0.00273917
0.00413725
0.00456916
0.00770349
0.00822327
0.0184025
0.0153044
0.000246639
0.000233895
0.000288502
0.000304553
0.000399809
0.000437903
0.000598369
0.000670603
0.000934127
0.00105558
0.00149253
0.00168576
0.0024398
0.00273423
0.00415527
0.00457448
0.00781997
0.00836025
0.0193758
0.018868
0.000245235
0.000232891
0.000287295
0.000302921
0.000398075
0.000435793
0.000596135
0.000667724
0.000931269
0.00105181
0.00148947
0.00168143
0.00243861
0.00273063
0.00416517
0.00457923
0.00789896
0.00848255
0.0200275
0.0213249
0.000243733
0.000231665
0.000285951
0.0003011
0.000396183
0.000433391
0.000593609
0.000664399
0.000927894
0.00104734
0.00148546
0.00167588
0.00243543
0.00272489
0.00416956
0.00457876
0.00795093
0.00856434
0.0204635
0.0229001
0.000242128
0.000230209
0.000284433
0.000299067
0.000394082
0.000430664
0.000590757
0.000660575
0.000923971
0.00104206
0.00148043
0.00166901
0.00243009
0.00271677
0.0041677
0.00457257
0.00797452
0.00860122
0.0206756
0.023634
0.000240411
0.000228549
0.000282721
0.000296859
0.000391726
0.000427667
0.000587505
0.000656336
0.000919385
0.00103612
0.00147421
0.00166102
0.00242228
0.00270659
0.00415913
0.0045609
0.00796833
0.00859182
0.02066
0.0235355
0.000238579
0.00022669
0.000280821
0.000294479
0.000389118
0.000424406
0.000583854
0.000651692
0.000914134
0.00102952
0.00146678
0.00165192
0.00241198
0.00269433
0.0041439
0.00454371
0.00793244
0.00853654
0.0204191
0.0226051
0.000236639
0.000224617
0.000278757
0.000291907
0.00038629
0.00042085
0.000579852
0.000646592
0.000908287
0.00102219
0.00145826
0.00164158
0.00239938
0.0026798
0.00412238
0.00452072
0.00786791
0.00843732
0.0199543
0.0208277
0.000234601
0.00022234
0.000276516
0.000289163
0.000383219
0.000417031
0.00057546
0.000641089
0.000901786
0.00101421
0.00144855
0.00163015
0.00238432
0.00266327
0.00409425
0.00449266
0.00777474
0.00830032
0.0192556
0.0181425
0.000232414
0.000220025
0.000273872
0.000286498
0.0003796
0.00041332
0.000570219
0.000635748
0.000893917
0.00100648
0.0014365
0.00161912
0.00236483
0.00264734
0.00405604
0.00446448
0.00764689
0.0081452
0.0182225
0.0144026
)
;

boundaryField
{
    inlet
    {
        type            zeroGradient;
    }
    outlet
    {
        type            fixedValue;
        value           uniform 0;
    }
    upAndBottom
    {
        type            empty;
    }
    obstacle
    {
        type            zeroGradient;
    }
}


// ************************************************************************* //
