/*--------------------------------*- C++ -*----------------------------------*\
| =========                 |                                                 |
| \\      /  F ield         | OpenFOAM: The Open Source CFD Toolbox           |
|  \\    /   O peration     | Version:  v1806                                 |
|   \\  /    A nd           | Web:      www.OpenFOAM.com                      |
|    \\/     M anipulation  |                                                 |
\*---------------------------------------------------------------------------*/
FoamFile
{
    version     2.0;
    format      ascii;
    class       volVectorField;
    location    "200";
    object      U;
}
// * * * * * * * * * * * * * * * * * * * * * * * * * * * * * * * * * * * * * //

dimensions      [0 1 -1 0 0 0 0];


internalField   nonuniform List<vector> 
4400
(
(0.248383 0.173078 0)
(0.277852 0.152893 0)
(0.277198 0.128173 0)
(0.26926 0.106037 0)
(0.265177 0.0891512 0)
(0.266679 0.0772122 0)
(0.271154 0.0688304 0)
(0.276043 0.0626663 0)
(0.280225 0.0578796 0)
(0.283569 0.0540565 0)
(0.286257 0.0510157 0)
(0.288457 0.0486295 0)
(0.290276 0.046775 0)
(0.291783 0.0453456 0)
(0.293035 0.0442573 0)
(0.294082 0.0434454 0)
(0.294963 0.0428607 0)
(0.295698 0.0424667 0)
(0.296263 0.042242 0)
(0.296565 0.0421688 0)
(0.238738 0.0260317 0)
(0.232912 0.0217642 0)
(0.237058 0.0199606 0)
(0.250163 0.021647 0)
(0.263657 0.0254715 0)
(0.273233 0.0293202 0)
(0.278875 0.0324039 0)
(0.282088 0.0346233 0)
(0.284192 0.0361665 0)
(0.285876 0.0372416 0)
(0.287382 0.0379862 0)
(0.288768 0.0384832 0)
(0.290044 0.0387909 0)
(0.291227 0.0389574 0)
(0.292337 0.0390259 0)
(0.293389 0.0390352 0)
(0.294388 0.0390195 0)
(0.295319 0.0390078 0)
(0.296126 0.0390294 0)
(0.296656 0.0391026 0)
(0.240517 0.0310251 0)
(0.255173 0.0392325 0)
(0.267318 0.0458745 0)
(0.273139 0.0494429 0)
(0.274401 0.0498176 0)
(0.274186 0.0484795 0)
(0.274503 0.0466363 0)
(0.275864 0.0448334 0)
(0.27795 0.043206 0)
(0.280304 0.0417426 0)
(0.282632 0.0404274 0)
(0.284818 0.0392625 0)
(0.286838 0.0382572 0)
(0.288703 0.0374174 0)
(0.290426 0.0367423 0)
(0.29202 0.0362251 0)
(0.29349 0.0358547 0)
(0.294829 0.03562 0)
(0.29599 0.035519 0)
(0.296805 0.0355411 0)
(0.269192 0.011032 0)
(0.26569 0.01217 0)
(0.262656 0.0124406 0)
(0.263167 0.0127389 0)
(0.266815 0.0137676 0)
(0.271662 0.0154617 0)
(0.27615 0.017462 0)
(0.279681 0.0194758 0)
(0.282329 0.0213396 0)
(0.284393 0.022996 0)
(0.286139 0.0244416 0)
(0.287717 0.0256913 0)
(0.289194 0.0267622 0)
(0.290595 0.02767 0)
(0.291933 0.0284294 0)
(0.293213 0.0290556 0)
(0.29444 0.0295634 0)
(0.295599 0.0299678 0)
(0.296632 0.0302906 0)
(0.297368 0.030542 0)
(0.263568 0.0120354 0)
(0.268564 0.0157775 0)
(0.274197 0.0195248 0)
(0.278409 0.0229241 0)
(0.280653 0.0255242 0)
(0.281514 0.0271539 0)
(0.28187 0.0279751 0)
(0.28236 0.0283102 0)
(0.283225 0.0283952 0)
(0.284426 0.0283518 0)
(0.285825 0.0282349 0)
(0.287299 0.0280735 0)
(0.288777 0.0278895 0)
(0.29023 0.0277023 0)
(0.291647 0.0275286 0)
(0.293025 0.0273814 0)
(0.294358 0.02727 0)
(0.295623 0.0272031 0)
(0.296758 0.0271954 0)
(0.297581 0.0272429 0)
(0.282309 0.00566377 0)
(0.280662 0.00672975 0)
(0.278656 0.00751755 0)
(0.277619 0.00809246 0)
(0.278085 0.00870405 0)
(0.279737 0.00956206 0)
(0.281903 0.010689 0)
(0.284045 0.0119681 0)
(0.285912 0.0132824 0)
(0.287483 0.0145579 0)
(0.288837 0.0157556 0)
(0.290063 0.016857 0)
(0.291223 0.0178543 0)
(0.292349 0.0187439 0)
(0.293453 0.0195242 0)
(0.294537 0.0201941 0)
(0.295598 0.0207528 0)
(0.296615 0.0212015 0)
(0.297533 0.0215488 0)
(0.2982 0.0217959 0)
(0.277379 0.00629716 0)
(0.279619 0.00831208 0)
(0.282394 0.010351 0)
(0.284861 0.0123765 0)
(0.286541 0.0142333 0)
(0.287445 0.0157654 0)
(0.287888 0.0169131 0)
(0.288213 0.0177225 0)
(0.288645 0.0182877 0)
(0.289261 0.018689 0)
(0.290045 0.0189782 0)
(0.290944 0.0191862 0)
(0.291905 0.0193327 0)
(0.292895 0.0194324 0)
(0.293897 0.0194977 0)
(0.294899 0.0195397 0)
(0.295891 0.0195683 0)
(0.296851 0.0195946 0)
(0.297721 0.0196341 0)
(0.298353 0.0196875 0)
(0.2895 0.00321152 0)
(0.288647 0.00399681 0)
(0.287517 0.00467575 0)
(0.286672 0.00522917 0)
(0.286477 0.0057347 0)
(0.28696 0.00629405 0)
(0.287909 0.00696465 0)
(0.28905 0.00774396 0)
(0.290183 0.00858789 0)
(0.291219 0.00944787 0)
(0.292149 0.0102889 0)
(0.293001 0.0110884 0)
(0.29381 0.0118325 0)
(0.294601 0.0125117 0)
(0.295386 0.0131191 0)
(0.296169 0.0136485 0)
(0.296945 0.0140944 0)
(0.297699 0.0144532 0)
(0.298384 0.0147291 0)
(0.298884 0.01492 0)
(0.285963 0.00373409 0)
(0.287121 0.00492708 0)
(0.288611 0.0061369 0)
(0.290056 0.00736213 0)
(0.291176 0.00854886 0)
(0.291895 0.00962126 0)
(0.292304 0.0105273 0)
(0.292566 0.0112539 0)
(0.292825 0.0118215 0)
(0.293161 0.0122641 0)
(0.293598 0.0126116 0)
(0.294123 0.0128855 0)
(0.294711 0.0131003 0)
(0.295339 0.0132666 0)
(0.29599 0.0133928 0)
(0.296654 0.0134864 0)
(0.297319 0.0135545 0)
(0.297968 0.0136061 0)
(0.298559 0.0136528 0)
(0.298988 0.0136946 0)
(0.293929 0.00189522 0)
(0.293454 0.002448 0)
(0.292802 0.00294719 0)
(0.292238 0.00337721 0)
(0.291967 0.00376344 0)
(0.29206 0.00415254 0)
(0.292456 0.0045795 0)
(0.293036 0.00505771 0)
(0.293681 0.0055792 0)
(0.294316 0.00612303 0)
(0.294911 0.00666735 0)
(0.295465 0.00719492 0)
(0.295992 0.00769315 0)
(0.296507 0.00815275 0)
(0.29702 0.00856646 0)
(0.297534 0.00892806 0)
(0.298049 0.00923201 0)
(0.298553 0.00947472 0)
(0.299016 0.00965805 0)
(0.299354 0.00978053 0)
(0.291454 0.00233331 0)
(0.292094 0.00306814 0)
(0.292939 0.00381524 0)
(0.2938 0.00457446 0)
(0.29452 0.00532541 0)
(0.295031 0.00603148 0)
(0.295352 0.00666153 0)
(0.295555 0.00719928 0)
(0.295721 0.00764411 0)
(0.295908 0.00800662 0)
(0.296145 0.00830101 0)
(0.296437 0.00853973 0)
(0.296774 0.00873236 0)
(0.297146 0.00888613 0)
(0.29754 0.00900675 0)
(0.297947 0.00909912 0)
(0.298359 0.00916794 0)
(0.298764 0.00921896 0)
(0.299135 0.00925972 0)
(0.299405 0.0092913 0)
(0.296745 0.00114334 0)
(0.296466 0.00152317 0)
(0.296073 0.00187247 0)
(0.295704 0.00218244 0)
(0.295473 0.00246162 0)
(0.295436 0.00273203 0)
(0.295583 0.00301327 0)
(0.295863 0.00331608 0)
(0.296211 0.00364146 0)
(0.296578 0.00398233 0)
(0.296936 0.00432764 0)
(0.297275 0.00466658 0)
(0.297598 0.00499009 0)
(0.297913 0.0052909 0)
(0.298224 0.00556307 0)
(0.298537 0.00580152 0)
(0.298851 0.00600179 0)
(0.299161 0.00616108 0)
(0.299449 0.00628078 0)
(0.299661 0.00635983 0)
(0.295016 0.00149242 0)
(0.295383 0.00195209 0)
(0.295877 0.0024201 0)
(0.296396 0.00289562 0)
(0.296852 0.00337035 0)
(0.297195 0.00382591 0)
(0.297423 0.00424438 0)
(0.297567 0.00461395 0)
(0.297669 0.00493019 0)
(0.297768 0.00519508 0)
(0.297887 0.00541435 0)
(0.298036 0.00559454 0)
(0.298213 0.00574146 0)
(0.298413 0.00585986 0)
(0.29863 0.00595363 0)
(0.298856 0.00602606 0)
(0.299088 0.00608022 0)
(0.299318 0.00611985 0)
(0.299531 0.00614942 0)
(0.299688 0.00616936 0)
(0.298539 0.000670875 0)
(0.298367 0.000917492 0)
(0.298119 0.00114605 0)
(0.297872 0.00135133 0)
(0.29769 0.00153605 0)
(0.297613 0.00171106 0)
(0.297644 0.00188722 0)
(0.297761 0.00207168 0)
(0.297933 0.00226681 0)
(0.298127 0.00247064 0)
(0.298324 0.00267822 0)
(0.298514 0.00288351 0)
(0.298695 0.00308076 0)
(0.29887 0.00326502 0)
(0.299042 0.00343207 0)
(0.299214 0.00357831 0)
(0.299387 0.00370065 0)
(0.29956 0.00379713 0)
(0.299722 0.00386822 0)
(0.299844 0.00391348 0)
(0.297284 0.000940798 0)
(0.297497 0.0012215 0)
(0.297789 0.00150787 0)
(0.298104 0.00179909 0)
(0.298388 0.00209173 0)
(0.298608 0.00237617 0)
(0.298757 0.00264212 0)
(0.298848 0.00288189 0)
(0.298903 0.00309141 0)
(0.298946 0.00327013 0)
(0.298993 0.00342 0)
(0.299055 0.00354424 0)
(0.299132 0.00364616 0)
(0.299223 0.00372875 0)
(0.299325 0.00379452 0)
(0.299435 0.00384563 0)
(0.299548 0.00388402 0)
(0.299662 0.00391176 0)
(0.299769 0.00393122 0)
(0.299851 0.00394316 0)
(0.299621 0.000371729 0)
(0.29951 0.000522234 0)
(0.299348 0.000662427 0)
(0.299178 0.000788695 0)
(0.299039 0.000901726 0)
(0.298955 0.0010071 0)
(0.298933 0.00111091 0)
(0.298966 0.0012177 0)
(0.299035 0.00132962 0)
(0.299124 0.00144642 0)
(0.29922 0.001566 0)
(0.299313 0.00168522 0)
(0.299401 0.0018007 0)
(0.299485 0.00190928 0)
(0.299567 0.00200817 0)
(0.299647 0.00209498 0)
(0.299728 0.00216764 0)
(0.299809 0.00222476 0)
(0.299887 0.00226638 0)
(0.299947 0.0022922 0)
(0.298683 0.000565855 0)
(0.298807 0.000725346 0)
(0.298981 0.00088879 0)
(0.299172 0.00105564 0)
(0.299346 0.00122456 0)
(0.299483 0.00139042 0)
(0.299575 0.00154731 0)
(0.299626 0.00169041 0)
(0.299649 0.00181676 0)
(0.299658 0.00192533 0)
(0.299665 0.00201665 0)
(0.299676 0.00209223 0)
(0.299695 0.00215394 0)
(0.299721 0.00220361 0)
(0.299754 0.00224288 0)
(0.299791 0.00227316 0)
(0.299831 0.00229569 0)
(0.299871 0.00231163 0)
(0.299911 0.002322 0)
(0.299944 0.00232726 0)
(0.300199 0.000153019 0)
(0.300126 0.000223745 0)
(0.300019 0.000289223 0)
(0.299901 0.000346718 0)
(0.299796 0.000396458 0)
(0.299718 0.000441517 0)
(0.299676 0.000485403 0)
(0.299666 0.000530983 0)
(0.29968 0.000579923 0)
(0.299708 0.000632557 0)
(0.299743 0.000688086 0)
(0.299778 0.000744964 0)
(0.29981 0.000801315 0)
(0.29984 0.000855235 0)
(0.299867 0.000904991 0)
(0.299894 0.000949078 0)
(0.29992 0.000986201 0)
(0.299947 0.00101537 0)
(0.299973 0.0010362 0)
(0.299994 0.00104854 0)
(0.299447 0.000277619 0)
(0.299525 0.000346602 0)
(0.299633 0.000418758 0)
(0.29975 0.00049446 0)
(0.299858 0.000573209 0)
(0.299941 0.000652 0)
(0.299994 0.000727284 0)
(0.300018 0.000796081 0)
(0.300021 0.000856405 0)
(0.300012 0.000907374 0)
(0.299997 0.000949071 0)
(0.299983 0.000982258 0)
(0.299973 0.00100806 0)
(0.299967 0.00102765 0)
(0.299965 0.00104213 0)
(0.299966 0.00105251 0)
(0.299968 0.00105965 0)
(0.299973 0.00106422 0)
(0.299978 0.0010666 0)
(0.299983 0.00106716 0)
(0.300356 -4.92176e-05 0)
(0.300307 -3.46875e-05 0)
(0.300236 -2.42941e-05 0)
(0.300156 -1.98887e-05 0)
(0.300081 -2.06003e-05 0)
(0.300019 -2.44178e-05 0)
(0.299977 -2.91641e-05 0)
(0.299954 -3.2877e-05 0)
(0.299946 -3.41755e-05 0)
(0.299949 -3.24027e-05 0)
(0.299957 -2.75622e-05 0)
(0.299966 -2.01353e-05 0)
(0.299974 -1.08363e-05 0)
(0.299981 -5.45607e-07 0)
(0.299987 9.86327e-06 0)
(0.299992 1.97545e-05 0)
(0.299996 2.8574e-05 0)
(0.3 3.57973e-05 0)
(0.300004 4.10988e-05 0)
(0.300007 4.45264e-05 0)
(0.185191 -0.0750976 0)
(0.176491 -0.0637314 0)
(0.170832 -0.0524803 0)
(0.167037 -0.0414631 0)
(0.164458 -0.0305601 0)
(0.162725 -0.0197116 0)
(0.161618 -0.00889421 0)
(0.161004 0.00191129 0)
(0.160802 0.0127252 0)
(0.16096 0.0235675 0)
(0.161449 0.0344579 0)
(0.162252 0.0454156 0)
(0.163367 0.0564598 0)
(0.164806 0.0676094 0)
(0.166605 0.0788824 0)
(0.168842 0.0902956 0)
(0.171684 0.101874 0)
(0.175488 0.113682 0)
(0.18105 0.125755 0)
(0.190224 0.137591 0)
(0.20474 -0.0122086 0)
(0.204982 -0.0103809 0)
(0.205095 -0.00837545 0)
(0.205149 -0.00626803 0)
(0.205224 -0.00410232 0)
(0.205396 -0.00190332 0)
(0.20573 0.000311602 0)
(0.206282 0.00252884 0)
(0.207093 0.00473722 0)
(0.208196 0.00692716 0)
(0.209611 0.00909 0)
(0.211348 0.0112177 0)
(0.213402 0.0133025 0)
(0.215755 0.015337 0)
(0.21837 0.0173126 0)
(0.221188 0.019218 0)
(0.224123 0.0210453 0)
(0.227058 0.0228096 0)
(0.22984 0.0245138 0)
(0.232291 0.0258296 0)
(0.244951 -0.00296192 0)
(0.243539 -0.00134991 0)
(0.242266 0.000280685 0)
(0.241128 0.00193244 0)
(0.240118 0.00360536 0)
(0.239224 0.00529718 0)
(0.238433 0.00700367 0)
(0.237731 0.00871891 0)
(0.23711 0.0104356 0)
(0.23656 0.0121454 0)
(0.236077 0.0138392 0)
(0.23566 0.0155073 0)
(0.235315 0.0171397 0)
(0.235053 0.0187268 0)
(0.234891 0.0202593 0)
(0.234855 0.0217293 0)
(0.234975 0.0231301 0)
(0.23529 0.0244543 0)
(0.235844 0.0257 0)
(0.236682 0.0269023 0)
(0.257246 -0.00472702 0)
(0.258027 -0.00408346 0)
(0.258792 -0.00342071 0)
(0.25954 -0.00274188 0)
(0.260273 -0.00204982 0)
(0.260991 -0.00134702 0)
(0.261698 -0.00063553 0)
(0.262394 8.30256e-05 0)
(0.263082 0.000807446 0)
(0.263761 0.00153687 0)
(0.26443 0.00227073 0)
(0.265086 0.00300859 0)
(0.265723 0.0037501 0)
(0.266333 0.00449478 0)
(0.266907 0.00524183 0)
(0.267434 0.00598984 0)
(0.267902 0.00673728 0)
(0.268297 0.007484 0)
(0.268607 0.00822741 0)
(0.268822 0.00893936 0)
(0.267645 0.000876597 0)
(0.266974 0.00146131 0)
(0.266331 0.00203751 0)
(0.265718 0.00260544 0)
(0.265139 0.00316528 0)
(0.264595 0.00371706 0)
(0.264089 0.00426073 0)
(0.263623 0.00479607 0)
(0.263199 0.00532278 0)
(0.26282 0.00584045 0)
(0.262488 0.00634865 0)
(0.262206 0.00684694 0)
(0.261979 0.00733494 0)
(0.261811 0.00781239 0)
(0.261706 0.00827924 0)
(0.261669 0.00873577 0)
(0.261707 0.00918221 0)
(0.261823 0.00961777 0)
(0.262023 0.0100427 0)
(0.26231 0.0104722 0)
(0.276619 -0.00318733 0)
(0.277096 -0.00283444 0)
(0.277567 -0.00247335 0)
(0.278029 -0.00210451 0)
(0.27848 -0.00172839 0)
(0.278917 -0.00134548 0)
(0.279338 -0.000956264 0)
(0.279742 -0.000561219 0)
(0.280125 -0.00016083 0)
(0.280487 0.000244415 0)
(0.280825 0.000654009 0)
(0.281136 0.00106741 0)
(0.281418 0.00148405 0)
(0.28167 0.00190326 0)
(0.281887 0.00232428 0)
(0.282069 0.00274616 0)
(0.282213 0.00316811 0)
(0.282316 0.00359034 0)
(0.282377 0.00401259 0)
(0.282395 0.00442273 0)
(0.279916 0.000728865 0)
(0.279538 0.00102195 0)
(0.279171 0.00130931 0)
(0.278818 0.00159101 0)
(0.278482 0.00186715 0)
(0.278165 0.00213785 0)
(0.277868 0.00240324 0)
(0.277594 0.00266346 0)
(0.277345 0.00291869 0)
(0.277123 0.00316911 0)
(0.27693 0.00341493 0)
(0.276767 0.00365638 0)
(0.276637 0.00389372 0)
(0.276542 0.00412726 0)
(0.276482 0.00435736 0)
(0.27646 0.00458449 0)
(0.276478 0.00480898 0)
(0.276535 0.00503048 0)
(0.276633 0.00524891 0)
(0.276773 0.00547213 0)
(0.286423 -0.00228388 0)
(0.286702 -0.00206255 0)
(0.286977 -0.00183681 0)
(0.287246 -0.00160681 0)
(0.287508 -0.00137273 0)
(0.287761 -0.00113477 0)
(0.288003 -0.000893166 0)
(0.288233 -0.000648166 0)
(0.288449 -0.000400046 0)
(0.28865 -0.000149109 0)
(0.288835 0.00010432 0)
(0.289002 0.000359889 0)
(0.28915 0.000617222 0)
(0.289279 0.000875915 0)
(0.289387 0.00113551 0)
(0.289473 0.0013955 0)
(0.289537 0.00165545 0)
(0.289578 0.00191554 0)
(0.289597 0.00217579 0)
(0.289592 0.00242998 0)
(0.287542 0.000444824 0)
(0.287317 0.000615333 0)
(0.2871 0.000782567 0)
(0.28689 0.000946569 0)
(0.28669 0.0011074 0)
(0.286502 0.00126515 0)
(0.286325 0.00141992 0)
(0.286163 0.00157182 0)
(0.286015 0.001721 0)
(0.285884 0.0018676 0)
(0.285769 0.00201181 0)
(0.285673 0.00215381 0)
(0.285596 0.00229381 0)
(0.285539 0.00243201 0)
(0.285502 0.00256868 0)
(0.285487 0.00270411 0)
(0.285494 0.0028385 0)
(0.285522 0.00297165 0)
(0.285573 0.0031035 0)
(0.285645 0.00323831 0)
(0.292156 -0.00162392 0)
(0.292322 -0.00148055 0)
(0.292486 -0.00133465 0)
(0.292645 -0.00118632 0)
(0.2928 -0.00103565 0)
(0.292949 -0.00088276 0)
(0.293091 -0.000727775 0)
(0.293225 -0.000570847 0)
(0.293351 -0.000412138 0)
(0.293468 -0.000251827 0)
(0.293574 -9.01084e-05 0)
(0.293669 7.28112e-05 0)
(0.293753 0.000236712 0)
(0.293826 0.000401362 0)
(0.293885 0.000566507 0)
(0.293932 0.000731858 0)
(0.293966 0.000897188 0)
(0.293987 0.00106261 0)
(0.293995 0.00122818 0)
(0.293989 0.00139048 0)
(0.292461 0.000283 0)
(0.292324 0.000387734 0)
(0.292191 0.000490582 0)
(0.292063 0.000591573 0)
(0.291941 0.000690748 0)
(0.291826 0.000788162 0)
(0.291719 0.000883882 0)
(0.29162 0.000977983 0)
(0.29153 0.00107055 0)
(0.29145 0.0011617 0)
(0.29138 0.00125151 0)
(0.291321 0.00134013 0)
(0.291273 0.00142766 0)
(0.291237 0.00151425 0)
(0.291214 0.00160004 0)
(0.291202 0.0016852 0)
(0.291203 0.00176986 0)
(0.291217 0.00185389 0)
(0.291243 0.00193723 0)
(0.291282 0.00202234 0)
(0.295685 -0.00113891 0)
(0.295787 -0.00104514 0)
(0.295886 -0.000949868 0)
(0.295983 -0.000853159 0)
(0.296077 -0.000755069 0)
(0.296167 -0.000655669 0)
(0.296252 -0.000555038 0)
(0.296333 -0.000453265 0)
(0.296408 -0.000350447 0)
(0.296478 -0.000246693 0)
(0.296541 -0.000142114 0)
(0.296597 -3.68345e-05 0)
(0.296647 6.90191e-05 0)
(0.296689 0.000175313 0)
(0.296724 0.000281901 0)
(0.296751 0.000388619 0)
(0.296771 0.000495341 0)
(0.296783 0.000602145 0)
(0.296787 0.000709079 0)
(0.296783 0.000814154 0)
(0.295673 0.00019734 0)
(0.295587 0.000262837 0)
(0.295504 0.000327219 0)
(0.295424 0.000390507 0)
(0.295348 0.000452728 0)
(0.295277 0.000513915 0)
(0.29521 0.000574111 0)
(0.295148 0.000633363 0)
(0.295092 0.000691726 0)
(0.295042 0.000749258 0)
(0.294998 0.000806026 0)
(0.294961 0.000862101 0)
(0.294931 0.000917557 0)
(0.294907 0.000972472 0)
(0.294891 0.00102693 0)
(0.294882 0.00108104 0)
(0.294881 0.00113487 0)
(0.294887 0.00118833 0)
(0.294901 0.00124138 0)
(0.294922 0.0012955 0)
(0.297895 -0.00077973 0)
(0.297958 -0.000719884 0)
(0.29802 -0.00065913 0)
(0.29808 -0.000597502 0)
(0.298137 -0.000535036 0)
(0.298193 -0.000471779 0)
(0.298245 -0.000407779 0)
(0.298295 -0.00034309 0)
(0.29834 -0.000277773 0)
(0.298383 -0.000211891 0)
(0.298421 -0.000145515 0)
(0.298455 -7.87154e-05 0)
(0.298485 -1.15694e-05 0)
(0.298511 5.58444e-05 0)
(0.298531 0.00012344 0)
(0.298547 0.000191122 0)
(0.298559 0.000258817 0)
(0.298565 0.000326579 0)
(0.298567 0.000394448 0)
(0.298564 0.000461208 0)
(0.297721 0.000159988 0)
(0.297666 0.000199438 0)
(0.297614 0.000238211 0)
(0.297563 0.00027632 0)
(0.297515 0.000313784 0)
(0.29747 0.000350625 0)
(0.297427 0.00038687 0)
(0.297388 0.000422547 0)
(0.297353 0.000457693 0)
(0.29732 0.000492342 0)
(0.297292 0.000526536 0)
(0.297268 0.000560319 0)
(0.297248 0.000593734 0)
(0.297232 0.00062683 0)
(0.297221 0.000659659 0)
(0.297214 0.000692281 0)
(0.297212 0.000724737 0)
(0.297214 0.000756973 0)
(0.297221 0.000788959 0)
(0.297232 0.000821611 0)
(0.299225 -0.000519891 0)
(0.299265 -0.000483125 0)
(0.299304 -0.000445798 0)
(0.299342 -0.000407933 0)
(0.299378 -0.000369553 0)
(0.299412 -0.000330686 0)
(0.299445 -0.000291363 0)
(0.299476 -0.000251617 0)
(0.299504 -0.000211485 0)
(0.29953 -0.000171006 0)
(0.299554 -0.000130221 0)
(0.299575 -8.9175e-05 0)
(0.299593 -4.79127e-05 0)
(0.299608 -6.48132e-06 0)
(0.299621 3.5068e-05 0)
(0.29963 7.66775e-05 0)
(0.299637 0.000118304 0)
(0.29964 0.000159987 0)
(0.299641 0.000201755 0)
(0.299639 0.000242847 0)
(0.298979 0.000143646 0)
(0.298944 0.000165294 0)
(0.29891 0.000186521 0)
(0.298877 0.000207336 0)
(0.298847 0.000227752 0)
(0.298817 0.000247783 0)
(0.29879 0.000267447 0)
(0.298765 0.000286763 0)
(0.298741 0.000305753 0)
(0.29872 0.000324439 0)
(0.298702 0.000342849 0)
(0.298686 0.000361008 0)
(0.298672 0.000378946 0)
(0.298662 0.000396691 0)
(0.298653 0.000414276 0)
(0.298648 0.000431738 0)
(0.298646 0.000449102 0)
(0.298646 0.000466334 0)
(0.298649 0.000483412 0)
(0.298654 0.000500922 0)
(0.299955 -0.000323306 0)
(0.29998 -0.000304026 0)
(0.300005 -0.000284396 0)
(0.300028 -0.000264428 0)
(0.300051 -0.000244136 0)
(0.300073 -0.000223536 0)
(0.300093 -0.000202647 0)
(0.300112 -0.000181487 0)
(0.30013 -0.000160079 0)
(0.300146 -0.000138445 0)
(0.300161 -0.000116609 0)
(0.300174 -9.45953e-05 0)
(0.300185 -7.24312e-05 0)
(0.300194 -5.01431e-05 0)
(0.300202 -2.77603e-05 0)
(0.300207 -5.31676e-06 0)
(0.300211 1.7164e-05 0)
(0.300213 3.97167e-05 0)
(0.300213 6.2378e-05 0)
(0.300211 8.46195e-05 0)
(0.29964 0.000146916 0)
(0.299617 0.000154583 0)
(0.299595 0.000161973 0)
(0.299573 0.000169093 0)
(0.299553 0.000175952 0)
(0.299534 0.00018256 0)
(0.299516 0.000188929 0)
(0.2995 0.000195072 0)
(0.299485 0.000201003 0)
(0.299471 0.000206739 0)
(0.299459 0.000212296 0)
(0.299449 0.000217692 0)
(0.29944 0.000222944 0)
(0.299433 0.000228073 0)
(0.299428 0.000233098 0)
(0.299424 0.000238042 0)
(0.299423 0.000242923 0)
(0.299423 0.000247721 0)
(0.299425 0.000252421 0)
(0.299428 0.000257367 0)
(0.300212 -0.000173309 0)
(0.300228 -0.000168934 0)
(0.300243 -0.000164356 0)
(0.300258 -0.000159583 0)
(0.300272 -0.000154626 0)
(0.300285 -0.000149494 0)
(0.300298 -0.0001442 0)
(0.300309 -0.000138758 0)
(0.30032 -0.000133179 0)
(0.30033 -0.00012748 0)
(0.300338 -0.000121676 0)
(0.300346 -0.000115782 0)
(0.300353 -0.000109816 0)
(0.300358 -0.000103795 0)
(0.300362 -9.77355e-05 0)
(0.300365 -9.16581e-05 0)
(0.300367 -8.55792e-05 0)
(0.300368 -7.9501e-05 0)
(0.300367 -7.3423e-05 0)
(0.300365 -6.74822e-05 0)
(0.248023 -0.0841812 0)
(0.249521 -0.0861201 0)
(0.251087 -0.0881429 0)
(0.252687 -0.0902533 0)
(0.25427 -0.0924257 0)
(0.255768 -0.0946266 0)
(0.257096 -0.0968168 0)
(0.258153 -0.0989486 0)
(0.258823 -0.100965 0)
(0.258975 -0.102798 0)
(0.258466 -0.104368 0)
(0.25714 -0.105583 0)
(0.254837 -0.106339 0)
(0.251391 -0.106511 0)
(0.246635 -0.10596 0)
(0.240417 -0.104525 0)
(0.232602 -0.102034 0)
(0.223103 -0.098286 0)
(0.211906 -0.0929469 0)
(0.19913 -0.0853852 0)
(0.225349 -0.0211981 0)
(0.222379 -0.0206276 0)
(0.219442 -0.0201174 0)
(0.216576 -0.0196513 0)
(0.213824 -0.0192368 0)
(0.211231 -0.0188799 0)
(0.208844 -0.0185821 0)
(0.206709 -0.018342 0)
(0.20487 -0.0181551 0)
(0.203361 -0.0180134 0)
(0.202209 -0.0179045 0)
(0.201428 -0.0178114 0)
(0.201015 -0.0177119 0)
(0.200949 -0.017578 0)
(0.201188 -0.0173763 0)
(0.201671 -0.0170674 0)
(0.202321 -0.0166065 0)
(0.203044 -0.0159422 0)
(0.20374 -0.0150153 0)
(0.204321 -0.0137722 0)
(0.266986 -0.0298533 0)
(0.267111 -0.0290334 0)
(0.267112 -0.0281462 0)
(0.266976 -0.0271854 0)
(0.266693 -0.0261501 0)
(0.266255 -0.0250414 0)
(0.265654 -0.0238609 0)
(0.264885 -0.0226119 0)
(0.263949 -0.0212987 0)
(0.262846 -0.019927 0)
(0.261585 -0.0185035 0)
(0.260178 -0.0170359 0)
(0.258639 -0.0155324 0)
(0.256992 -0.014001 0)
(0.255261 -0.0124496 0)
(0.253477 -0.0108846 0)
(0.251673 -0.00931131 0)
(0.249885 -0.00773263 0)
(0.248147 -0.00614932 0)
(0.246493 -0.00456012 0)
(0.25164 -0.0128631 0)
(0.251007 -0.0125489 0)
(0.25047 -0.0122345 0)
(0.250037 -0.0119269 0)
(0.249715 -0.011623 0)
(0.249508 -0.0113189 0)
(0.249419 -0.0110113 0)
(0.249448 -0.0106973 0)
(0.249595 -0.0103735 0)
(0.249854 -0.0100364 0)
(0.250219 -0.0096826 0)
(0.250683 -0.00930893 0)
(0.251233 -0.00891234 0)
(0.251859 -0.00849017 0)
(0.252547 -0.00804029 0)
(0.253283 -0.00756116 0)
(0.254054 -0.00705198 0)
(0.254847 -0.00651274 0)
(0.255649 -0.00594428 0)
(0.256451 -0.00534825 0)
(0.278296 -0.0118489 0)
(0.278174 -0.0112522 0)
(0.278001 -0.0106462 0)
(0.277773 -0.0100247 0)
(0.277491 -0.00939007 0)
(0.277152 -0.00874515 0)
(0.276758 -0.0080921 0)
(0.27631 -0.00743297 0)
(0.27581 -0.00676992 0)
(0.275262 -0.00610506 0)
(0.274669 -0.00544046 0)
(0.274037 -0.00477805 0)
(0.273372 -0.0041196 0)
(0.27268 -0.00346662 0)
(0.271967 -0.00282042 0)
(0.271241 -0.002182 0)
(0.270508 -0.0015521 0)
(0.269776 -0.000931179 0)
(0.269051 -0.000319446 0)
(0.268339 0.000283095 0)
(0.271207 -0.00855032 0)
(0.271107 -0.00832915 0)
(0.271052 -0.00810317 0)
(0.271043 -0.00787793 0)
(0.271082 -0.00765194 0)
(0.271169 -0.00742353 0)
(0.271302 -0.00719168 0)
(0.271482 -0.00695553 0)
(0.271705 -0.00671417 0)
(0.271971 -0.00646676 0)
(0.272275 -0.00621247 0)
(0.272615 -0.00595059 0)
(0.272987 -0.00568049 0)
(0.273387 -0.00540165 0)
(0.27381 -0.00511368 0)
(0.274253 -0.0048163 0)
(0.274712 -0.00450936 0)
(0.275182 -0.00419285 0)
(0.275659 -0.00386686 0)
(0.276139 -0.00353159 0)
(0.286151 -0.00602067 0)
(0.286021 -0.00567156 0)
(0.285866 -0.00532326 0)
(0.285687 -0.0049717 0)
(0.285483 -0.00461798 0)
(0.285255 -0.00426339 0)
(0.285003 -0.00390876 0)
(0.284728 -0.00355475 0)
(0.284431 -0.00320209 0)
(0.284113 -0.00285145 0)
(0.283777 -0.00250349 0)
(0.283425 -0.0021588 0)
(0.283058 -0.00181793 0)
(0.282679 -0.00148134 0)
(0.282291 -0.00114944 0)
(0.281896 -0.000822589 0)
(0.281497 -0.000501042 0)
(0.281097 -0.000185007 0)
(0.280699 0.000125372 0)
(0.280304 0.000430008 0)
(0.282776 -0.00584608 0)
(0.282782 -0.00569548 0)
(0.28281 -0.00554122 0)
(0.282862 -0.00538657 0)
(0.282936 -0.00523082 0)
(0.283033 -0.00507318 0)
(0.283152 -0.00491323 0)
(0.283293 -0.00475068 0)
(0.283453 -0.0045852 0)
(0.283633 -0.00441646 0)
(0.283831 -0.00424416 0)
(0.284046 -0.00406805 0)
(0.284275 -0.00388787 0)
(0.284518 -0.00370344 0)
(0.284771 -0.00351457 0)
(0.285035 -0.00332115 0)
(0.285305 -0.00312308 0)
(0.285581 -0.00292031 0)
(0.285861 -0.00271283 0)
(0.286142 -0.00250067 0)
(0.291437 -0.00351088 0)
(0.291334 -0.00330035 0)
(0.291217 -0.00309152 0)
(0.291088 -0.00288191 0)
(0.290946 -0.0026721 0)
(0.290792 -0.00246272 0)
(0.290626 -0.00225413 0)
(0.290448 -0.00204661 0)
(0.29026 -0.00184044 0)
(0.290062 -0.00163592 0)
(0.289854 -0.0014333 0)
(0.289639 -0.00123285 0)
(0.289416 -0.00103478 0)
(0.289188 -0.000839298 0)
(0.288955 -0.000646585 0)
(0.28872 -0.000456794 0)
(0.288482 -0.000270051 0)
(0.288244 -8.64553e-05 0)
(0.288007 9.39176e-05 0)
(0.287773 0.000271019 0)
(0.289789 -0.00399021 0)
(0.289815 -0.00388941 0)
(0.289853 -0.0037861 0)
(0.289903 -0.00368222 0)
(0.289966 -0.0035774 0)
(0.29004 -0.00347121 0)
(0.290127 -0.00336346 0)
(0.290224 -0.00325401 0)
(0.290332 -0.00314272 0)
(0.290449 -0.00302944 0)
(0.290576 -0.00291404 0)
(0.290712 -0.00279639 0)
(0.290855 -0.00267639 0)
(0.291005 -0.00255395 0)
(0.29116 -0.00242898 0)
(0.291321 -0.00230142 0)
(0.291485 -0.00217123 0)
(0.291651 -0.00203839 0)
(0.291819 -0.00190288 0)
(0.291988 -0.00176472 0)
(0.294951 -0.00214012 0)
(0.294875 -0.00200983 0)
(0.294793 -0.00188089 0)
(0.294703 -0.00175179 0)
(0.294607 -0.00162284 0)
(0.294503 -0.0014944 0)
(0.294393 -0.00136664 0)
(0.294277 -0.0012397 0)
(0.294155 -0.00111371 0)
(0.294028 -0.000988817 0)
(0.293896 -0.00086515 0)
(0.293759 -0.00074283 0)
(0.29362 -0.000621969 0)
(0.293477 -0.000502666 0)
(0.293332 -0.00038501 0)
(0.293186 -0.000269076 0)
(0.293039 -0.000154929 0)
(0.292892 -4.26174e-05 0)
(0.292746 6.78213e-05 0)
(0.292603 0.000176364 0)
(0.29414 -0.0027087 0)
(0.294166 -0.00264162 0)
(0.2942 -0.00257285 0)
(0.29424 -0.00250359 0)
(0.294287 -0.00243361 0)
(0.294341 -0.00236268 0)
(0.294401 -0.0022907 0)
(0.294468 -0.00221759 0)
(0.29454 -0.00214328 0)
(0.294617 -0.00206771 0)
(0.2947 -0.0019908 0)
(0.294787 -0.0019125 0)
(0.294878 -0.00183274 0)
(0.294973 -0.0017515 0)
(0.295071 -0.00166872 0)
(0.295171 -0.00158438 0)
(0.295272 -0.00149846 0)
(0.295376 -0.00141094 0)
(0.295479 -0.00132184 0)
(0.295583 -0.00123116 0)
(0.297279 -0.00131279 0)
(0.297227 -0.00123121 0)
(0.29717 -0.00115058 0)
(0.297109 -0.00106994 0)
(0.297044 -0.000989479 0)
(0.296975 -0.000909412 0)
(0.296903 -0.000829831 0)
(0.296826 -0.000750808 0)
(0.296747 -0.000672418 0)
(0.296664 -0.000594735 0)
(0.296579 -0.000517829 0)
(0.296492 -0.000441764 0)
(0.296402 -0.0003666 0)
(0.296312 -0.00029239 0)
(0.29622 -0.00021918 0)
(0.296127 -0.00014701 0)
(0.296035 -7.59134e-05 0)
(0.295942 -5.91566e-06 0)
(0.295851 6.29651e-05 0)
(0.295761 0.000130718 0)
(0.296868 -0.00178475 0)
(0.296891 -0.00174204 0)
(0.296918 -0.00169818 0)
(0.296949 -0.00165394 0)
(0.296984 -0.00160919 0)
(0.297022 -0.00156378 0)
(0.297065 -0.00151765 0)
(0.297111 -0.00147077 0)
(0.297159 -0.00142311 0)
(0.297211 -0.00137461 0)
(0.297266 -0.00132526 0)
(0.297323 -0.00127501 0)
(0.297383 -0.00122384 0)
(0.297444 -0.00117173 0)
(0.297507 -0.00111866 0)
(0.297571 -0.00106462 0)
(0.297635 -0.00100959 0)
(0.2977 -0.000953587 0)
(0.297766 -0.0008966 0)
(0.29783 -0.000838643 0)
(0.29876 -0.000754882 0)
(0.298725 -0.00070503 0)
(0.298687 -0.000655844 0)
(0.298646 -0.000606708 0)
(0.298603 -0.000557733 0)
(0.298558 -0.000509048 0)
(0.29851 -0.00046071 0)
(0.29846 -0.000412757 0)
(0.298408 -0.000365231 0)
(0.298355 -0.000318172 0)
(0.2983 -0.00027162 0)
(0.298243 -0.000225611 0)
(0.298186 -0.000180176 0)
(0.298127 -0.000135345 0)
(0.298069 -9.1142e-05 0)
(0.29801 -4.75888e-05 0)
(0.297951 -4.70208e-06 0)
(0.297892 3.75052e-05 0)
(0.297834 7.90247e-05 0)
(0.297776 0.000119852 0)
(0.298534 -0.00113411 0)
(0.298553 -0.00110832 0)
(0.298574 -0.00108177 0)
(0.298598 -0.00105495 0)
(0.298624 -0.00102778 0)
(0.298651 -0.00100017 0)
(0.298681 -0.000972082 0)
(0.298713 -0.0009435 0)
(0.298747 -0.000914403 0)
(0.298782 -0.00088477 0)
(0.298819 -0.000854583 0)
(0.298857 -0.000823824 0)
(0.298896 -0.00079248 0)
(0.298936 -0.000760538 0)
(0.298977 -0.000727991 0)
(0.299018 -0.000694832 0)
(0.29906 -0.00066106 0)
(0.299102 -0.000626674 0)
(0.299143 -0.000591678 0)
(0.299185 -0.00055608 0)
(0.299655 -0.000370253 0)
(0.299631 -0.000341746 0)
(0.299606 -0.00031371 0)
(0.299579 -0.000285736 0)
(0.299551 -0.000257893 0)
(0.299521 -0.000230263 0)
(0.29949 -0.00020288 0)
(0.299457 -0.000175764 0)
(0.299423 -0.000148939 0)
(0.299389 -0.00012243 0)
(0.299353 -9.62567e-05 0)
(0.299316 -7.04406e-05 0)
(0.299279 -4.49991e-05 0)
(0.299241 -1.99482e-05 0)
(0.299203 4.6987e-06 0)
(0.299165 2.89304e-05 0)
(0.299127 5.27381e-05 0)
(0.299089 7.61157e-05 0)
(0.299052 9.90597e-05 0)
(0.299015 0.000121569 0)
(0.299486 -0.000633465 0)
(0.299501 -0.000621033 0)
(0.299517 -0.000608097 0)
(0.299535 -0.000595008 0)
(0.299554 -0.000581706 0)
(0.299574 -0.000568128 0)
(0.299595 -0.000554254 0)
(0.299617 -0.000540072 0)
(0.29964 -0.00052557 0)
(0.299664 -0.000510735 0)
(0.299689 -0.000495553 0)
(0.299715 -0.000480016 0)
(0.299741 -0.000464114 0)
(0.299767 -0.000447841 0)
(0.299794 -0.00043119 0)
(0.299821 -0.000414159 0)
(0.299848 -0.000396746 0)
(0.299875 -0.000378951 0)
(0.299902 -0.000360776 0)
(0.299929 -0.000342225 0)
(0.30009 -6.20576e-05 0)
(0.300073 -4.95554e-05 0)
(0.300056 -3.73687e-05 0)
(0.300038 -2.52584e-05 0)
(0.300019 -1.327e-05 0)
(0.299999 -1.45206e-06 0)
(0.299978 1.01764e-05 0)
(0.299956 2.16028e-05 0)
(0.299933 3.28137e-05 0)
(0.29991 4.37956e-05 0)
(0.299886 5.45362e-05 0)
(0.299862 6.50242e-05 0)
(0.299837 7.52501e-05 0)
(0.299812 8.52053e-05 0)
(0.299787 9.48828e-05 0)
(0.299762 0.000104277 0)
(0.299737 0.000113384 0)
(0.299712 0.000122202 0)
(0.299687 0.000130729 0)
(0.299663 0.000138966 0)
(0.299901 -0.000215127 0)
(0.299912 -0.000214913 0)
(0.299924 -0.000214485 0)
(0.299937 -0.000213924 0)
(0.29995 -0.000213205 0)
(0.299964 -0.000212307 0)
(0.299979 -0.00021122 0)
(0.299994 -0.000209938 0)
(0.30001 -0.000208452 0)
(0.300026 -0.000206757 0)
(0.300042 -0.000204846 0)
(0.300059 -0.000202715 0)
(0.300076 -0.000200359 0)
(0.300093 -0.000197776 0)
(0.30011 -0.000194963 0)
(0.300128 -0.000191921 0)
(0.300145 -0.000188649 0)
(0.300162 -0.000185148 0)
(0.300179 -0.000181422 0)