x,y,z,p
0,0,0,0.000196512
0,0.1,0,0.000432342
0,0.2,0,0.000668172
0,0.3,0,0.000943333
0,0.4,0,0.00125782
0,0.5,0,0.00157231
0,0.6,0,0.00188689
0,0.7,0,0.00220147
0,0.8,0,0.00251607
0,0.9,0,0.00283071
0,1,0,0.00314535
0,1.1,0,0.00345995
0,1.2,0,0.00377455
0,1.3,0,0.00408904
0,1.4,0,0.00440341
0,1.5,0,0.00471778
0,1.6,0,0.00503159
0,1.7,0,0.00534539
0,1.8,0,0.00565868
0,1.9,0,0.00597145
0,2,0,0.00628422
0,2.1,0,0.00659528
0,2.2,0,0.00690634
0,2.3,0,0.00721612
0,2.4,0,0.0075246
0,2.5,0,0.00783308
0,2.6,0,0.00813786
0,2.7,0,0.00844264
0,2.8,0,0.00874488
0,2.9,0,0.00904457
0,3,0,0.00934427
0,3.1,0,0.00963718
0,3.2,0,0.0099301
0,3.3,0,0.0102186
0,3.4,0,0.0105028
0,3.5,0,0.0107869
0,3.6,0,0.0110599
0,3.7,0,0.011333
0,3.8,0,0.0115992
0,3.9,0,0.0118584
0,4,0,0.0121178
0,4.1,0,0.0123604
0,4.2,0,0.012603
0,4.3,0,0.0128357
0,4.4,0,0.0130584
0,4.5,0,0.0132812
0,4.6,0,0.0134807
0,4.7,0,0.0136803
0,4.8,0,0.0138512
0,4.9,0,0.0139935
0,5,0,0.0141358
0,5.1,0,0.0143676
0,5.2,0,0.014508
0,5.3,0,0.0146356
0,5.4,0,0.0147496
0,5.5,0,0.0148499
0,5.6,0,0.014936
0,5.7,0,0.0150075
0,5.8,0,0.0150643
0,5.9,0,0.0151059
0,6,0,0.0151322
0,6.1,0,0.0151431
0,6.2,0,0.0151384
0,6.3,0,0.0151181
0,6.4,0,0.0150823
0,6.5,0,0.015031
0,6.6,0,0.0149644
0,6.7,0,0.0148827
0,6.8,0,0.0147861
0,6.9,0,0.0146749
0,7,0,0.0144726
0,7.1,0,0.0143481
0,7.2,0,0.0142236
0,7.3,0,0.01409
0,7.4,0,0.0139048
0,7.5,0,0.0137196
0,7.6,0,0.0135255
0,7.7,0,0.0133106
0,7.8,0,0.0130957
0,7.9,0,0.0128699
0,8,0,0.0126306
0,8.1,0,0.0123914
0,8.2,0,0.0121409
0,8.3,0,0.0118828
0,8.4,0,0.0116247
0,8.5,0,0.0113563
0,8.6,0,0.0110845
0,8.7,0,0.0108126
0,8.8,0,0.0105326
0,8.9,0,0.0102518
0,9,0,0.00997062
0,9.1,0,0.00968468
0,9.2,0,0.00939873
0,9.3,0,0.00911245
0,9.4,0,0.00882478
0,9.5,0,0.00853711
0,9.6,0,0.00824975
0,9.7,0,0.00796295
0,9.8,0,0.00767616
0,9.9,0,0.00739076
0,10,0,0.00710676
0,10.1,0,0.00682276
0,10.2,0,0.00654142
0,10.3,0,0.00626152
0,10.4,0,0.00598162
0,10.5,0,0.00570559
0,10.6,0,0.00543054
0,10.7,0,0.00515549
0,10.8,0,0.00488533
0,10.9,0,0.00461542
0,11,0,0.00434603
0,11.1,0,0.00408119
0,11.2,0,0.00381636
0,11.3,0,0.00355269
0,11.4,0,0.00329253
0,11.5,0,0.00303237
0,11.6,0,0.00277383
0,11.7,0,0.0025177
0,11.8,0,0.00226158
0,11.9,0,0.00200722
0,12,0,0.00175431
0,12.1,0,0.0015014
0,12.2,0,0.00125005
0,12.3,0,0.000999378
0,12.4,0,0.000748703
0,12.5,0,0.000551743
0,12.6,0,0.000364262
0,12.7,0,0.000176782
0.1,0,0,0.000117907
0.1,0.1,0,0.000353722
0.1,0.2,0,0.000628848
0.1,0.3,0,0.000943298
0.1,0.4,0,0.00125778
0.1,0.5,0,0.00157227
0.1,0.6,0,0.00188685
0.1,0.7,0,0.00220143
0.1,0.8,0,0.00251605
0.1,0.9,0,0.00283069
0.1,1,0,0.00314535
0.1,1.1,0,0.00346001
0.1,1.2,0,0.00377462
0.1,1.3,0,0.00408917
0.1,1.4,0,0.00440359
0.1,1.5,0,0.00471799
0.1,1.6,0,0.00503196
0.1,1.7,0,0.00534579
0.1,1.8,0,0.00565923
0.1,1.9,0,0.00597212
0.1,2,0,0.00628492
0.1,2.1,0,0.00659632
0.1,2.2,0,0.0069074
0.1,2.3,0,0.00721742
0.1,2.4,0,0.00752614
0.1,2.5,0,0.00783462
0.1,2.6,0,0.00814002
0.1,2.7,0,0.00844479
0.1,2.8,0,0.00874741
0.1,2.9,0,0.0090475
0.1,3,0,0.00934711
0.1,3.1,0,0.00964103
0.1,3.2,0,0.00993387
0.1,3.3,0,0.0102229
0.1,3.4,0,0.0105077
0.1,3.5,0,0.0107916
0.1,3.6,0,0.0110661
0.1,3.7,0,0.011339
0.1,3.8,0,0.0116058
0.1,3.9,0,0.011866
0.1,4,0,0.0121248
0.1,4.1,0,0.0123695
0.1,4.2,0,0.0126118
0.1,4.3,0,0.0128453
0.1,4.4,0,0.0130692
0.1,4.5,0,0.013291
0.1,4.6,0,0.0134932
0.1,4.7,0,0.0136921
0.1,4.8,0,0.0138792
0.1,4.9,0,0.0140383
0.1,5,0,0.0141478
0.1,5.1,0,0.0143801
0.1,5.2,0,0.0145209
0.1,5.3,0,0.0146488
0.1,5.4,0,0.0147633
0.1,5.5,0,0.0148639
0.1,5.6,0,0.0149503
0.1,5.7,0,0.0150221
0.1,5.8,0,0.0150791
0.1,5.9,0,0.0151209
0.1,6,0,0.0151474
0.1,6.1,0,0.0151583
0.1,6.2,0,0.0151537
0.1,6.3,0,0.0151334
0.1,6.4,0,0.0150975
0.1,6.5,0,0.015046
0.1,6.6,0,0.0149792
0.1,6.7,0,0.0148973
0.1,6.8,0,0.0148005
0.1,6.9,0,0.0146891
0.1,7,0,0.0144864
0.1,7.1,0,0.0143943
0.1,7.2,0,0.0142647
0.1,7.3,0,0.0141036
0.1,7.4,0,0.0139232
0.1,7.5,0,0.0137352
0.1,7.6,0,0.0135377
0.1,7.7,0,0.013326
0.1,7.8,0,0.0131078
0.1,7.9,0,0.0128802
0.1,8,0,0.0126429
0.1,8.1,0,0.0124003
0.1,8.2,0,0.0121491
0.1,8.3,0,0.011892
0.1,8.4,0,0.0116307
0.1,8.5,0,0.0113622
0.1,8.6,0,0.0110907
0.1,8.7,0,0.0108162
0.1,8.8,0,0.0105365
0.1,8.9,0,0.0102553
0.1,9,0,0.00997244
0.1,9.1,0,0.0096865
0.1,9.2,0,0.00940019
0.1,9.3,0,0.00911295
0.1,9.4,0,0.00882492
0.1,9.5,0,0.00853702
0.1,9.6,0,0.00824912
0.1,9.7,0,0.00796181
0.1,9.8,0,0.00767503
0.1,9.9,0,0.00738924
0.1,10,0,0.00710471
0.1,10.1,0,0.00682103
0.1,10.2,0,0.00653924
0.1,10.3,0,0.0062589
0.1,10.4,0,0.00597961
0.1,10.5,0,0.00570299
0.1,10.6,0,0.00542771
0.1,10.7,0,0.00515347
0.1,10.8,0,0.00488253
0.1,10.9,0,0.00461268
0.1,11,0,0.00434402
0.1,11.1,0,0.00407841
0.1,11.2,0,0.0038139
0.1,11.3,0,0.00355075
0.1,11.4,0,0.00329002
0.1,11.5,0,0.00303032
0.1,11.6,0,0.0027721
0.1,11.7,0,0.00251562
0.1,11.8,0,0.00226002
0.1,11.9,0,0.00200584
0.1,12,0,0.00175274
0.1,12.1,0,0.00150036
0.1,12.2,0,0.00124912
0.1,12.3,0,0.000998399
0.1,12.4,0,0.000748189
0.1,12.5,0,0.000498645
0.1,12.6,0,0.000293243
0.1,12.7,0,0.000106069
0.2,0,0,3.93024e-05
0.2,0.1,0,0.000314413
0.2,0.2,0,0.00062882
0.2,0.3,0,0.00094327
0.2,0.4,0,0.00125775
0.2,0.5,0,0.00157223
0.2,0.6,0,0.00188681
0.2,0.7,0,0.00220139
0.2,0.8,0,0.00251601
0.2,0.9,0,0.00283068
0.2,1,0,0.00314535
0.2,1.1,0,0.00346002
0.2,1.2,0,0.00377471
0.2,1.3,0,0.00408925
0.2,1.4,0,0.00440376
0.2,1.5,0,0.00471821
0.2,1.6,0,0.0050322
0.2,1.7,0,0.00534621
0.2,1.8,0,0.00565964
0.2,1.9,0,0.00597269
0.2,2,0,0.00628561
0.2,2.1,0,0.00659703
0.2,2.2,0,0.00690847
0.2,2.3,0,0.00721849
0.2,2.4,0,0.00752744
0.2,2.5,0,0.00783616
0.2,2.6,0,0.00814155
0.2,2.7,0,0.00844692
0.2,2.8,0,0.00874954
0.2,2.9,0,0.00904994
0.2,3,0,0.00934995
0.2,3.1,0,0.00964379
0.2,3.2,0,0.00993755
0.2,3.3,0,0.0102266
0.2,3.4,0,0.0105118
0.2,3.5,0,0.0107963
0.2,3.6,0,0.0110706
0.2,3.7,0,0.0113448
0.2,3.8,0,0.0116117
0.2,3.9,0,0.0118722
0.2,4,0,0.0121319
0.2,4.1,0,0.0123762
0.2,4.2,0,0.0126202
0.2,4.3,0,0.0128537
0.2,4.4,0,0.0130779
0.2,4.5,0,0.0133009
0.2,4.6,0,0.0135024
0.2,4.7,0,0.0137033
0.2,4.8,0,0.0138904
0.2,4.9,0,0.0140335
0.2,5,0,0.0141599
0.2,5.1,0,0.0143926
0.2,5.2,0,0.0145338
0.2,5.3,0,0.0146621
0.2,5.4,0,0.0147769
0.2,5.5,0,0.0148779
0.2,5.6,0,0.0149646
0.2,5.7,0,0.0150367
0.2,5.8,0,0.0150939
0.2,5.9,0,0.0151359
0.2,6,0,0.0151625
0.2,6.1,0,0.0151736
0.2,6.2,0,0.015169
0.2,6.3,0,0.0151486
0.2,6.4,0,0.0151127
0.2,6.5,0,0.0150611
0.2,6.6,0,0.0149941
0.2,6.7,0,0.014912
0.2,6.8,0,0.0148149
0.2,6.9,0,0.0147033
0.2,7,0,0.0145002
0.2,7.1,0,0.0143938
0.2,7.2,0,0.0142685
0.2,7.3,0,0.0141165
0.2,7.4,0,0.0139324
0.2,7.5,0,0.0137456
0.2,7.6,0,0.0135488
0.2,7.7,0,0.0133336
0.2,7.8,0,0.0131169
0.2,7.9,0,0.0128893
0.2,8,0,0.0126488
0.2,8.1,0,0.0124073
0.2,8.2,0,0.012156
0.2,8.3,0,0.0118962
0.2,8.4,0,0.0116358
0.2,8.5,0,0.0113668
0.2,8.6,0,0.0110935
0.2,8.7,0,0.0108196
0.2,8.8,0,0.0105392
0.2,8.9,0,0.010257
0.2,9,0,0.00997427
0.2,9.1,0,0.0096878
0.2,9.2,0,0.00940077
0.2,9.3,0,0.00911353
0.2,9.4,0,0.00882518
0.2,9.5,0,0.00853665
0.2,9.6,0,0.00824873
0.2,9.7,0,0.0079613
0.2,9.8,0,0.00767392
0.2,9.9,0,0.00738813
0.2,10,0,0.00710368
0.2,10.1,0,0.00681944
0.2,10.2,0,0.0065377
0.2,10.3,0,0.00625756
0.2,10.4,0,0.00597774
0.2,10.5,0,0.00570131
0.2,10.6,0,0.00542617
0.2,10.7,0,0.0051515
0.2,10.8,0,0.0048809
0.2,10.9,0,0.00461103
0.2,11,0,0.00434208
0.2,11.1,0,0.00407696
0.2,11.2,0,0.00381226
0.2,11.3,0,0.00354898
0.2,11.4,0,0.00328876
0.2,11.5,0,0.00302881
0.2,11.6,0,0.00277057
0.2,11.7,0,0.00251459
0.2,11.8,0,0.00225881
0.2,11.9,0,0.00200462
0.2,12,0,0.00175202
0.2,12.1,0,0.00149951
0.2,12.2,0,0.00124834
0.2,12.3,0,0.000998017
0.2,12.4,0,0.000747746
0.2,12.5,0,0.000498288
0.2,12.6,0,0.000249167
0.2,12.7,0,3.53563e-05
0.3,0,0,0
0.3,0.1,0,0.000314382
0.3,0.2,0,0.000628789
0.3,0.3,0,0.00094319
0.3,0.4,0,0.00125767
0.3,0.5,0,0.00157213
0.3,0.6,0,0.00188671
0.3,0.7,0,0.00220129
0.3,0.8,0,0.00251595
0.3,0.9,0,0.00283063
0.3,1,0,0.00314534
0.3,1.1,0,0.00346008
0.3,1.2,0,0.00377477
0.3,1.3,0,0.00408953
0.3,1.4,0,0.00440403
0.3,1.5,0,0.00471865
0.3,1.6,0,0.00503281
0.3,1.7,0,0.00534682
0.3,1.8,0,0.00566072
0.3,1.9,0,0.00597376
0.3,2,0,0.00628703
0.3,2.1,0,0.00659875
0.3,2.2,0,0.00691018
0.3,2.3,0,0.00722104
0.3,2.4,0,0.00752999
0.3,2.5,0,0.00783931
0.3,2.6,0,0.00814515
0.3,2.7,0,0.00845052
0.3,2.8,0,0.00875444
0.3,2.9,0,0.00905485
0.3,3,0,0.0093558
0.3,3.1,0,0.00965025
0.3,3.2,0,0.00994402
0.3,3.3,0,0.0102349
0.3,3.4,0,0.01052
0.3,3.5,0,0.0108059
0.3,3.6,0,0.011081
0.3,3.7,0,0.0113552
0.3,3.8,0,0.0116245
0.3,3.9,0,0.011885
0.3,4,0,0.0121465
0.3,4.1,0,0.0123916
0.3,4.2,0,0.0126356
0.3,4.3,0,0.0128719
0.3,4.4,0,0.0130961
0.3,4.5,0,0.0133213
0.3,4.6,0,0.0135235
0.3,4.7,0,0.0137244
0.3,4.8,0,0.0139142
0.3,4.9,0,0.0140573
0.3,5,0,0.0141855
0.3,5.1,0,0.0144197
0.3,5.2,0,0.0145618
0.3,5.3,0,0.0146911
0.3,5.4,0,0.0148068
0.3,5.5,0,0.0149087
0.3,5.6,0,0.0149961
0.3,5.7,0,0.0150689
0.3,5.8,0,0.0151267
0.3,5.9,0,0.0151691
0.3,6,0,0.015196
0.3,6.1,0,0.0152073
0.3,6.2,0,0.0152027
0.3,6.3,0,0.0151823
0.3,6.4,0,0.0151462
0.3,6.5,0,0.0150943
0.3,6.6,0,0.0150269
0.3,6.7,0,0.0149442
0.3,6.8,0,0.0148464
0.3,6.9,0,0.014734
0.3,7,0,0.0145297
0.3,7.1,0,0.0144213
0.3,7.2,0,0.014296
0.3,7.3,0,0.0141427
0.3,7.4,0,0.0139566
0.3,7.5,0,0.0137698
0.3,7.6,0,0.0135704
0.3,7.7,0,0.0133538
0.3,7.8,0,0.013137
0.3,7.9,0,0.0129059
0.3,8,0,0.0126649
0.3,8.1,0,0.012423
0.3,8.2,0,0.012168
0.3,8.3,0,0.0119082
0.3,8.4,0,0.0116469
0.3,8.5,0,0.0113752
0.3,8.6,0,0.0111018
0.3,8.7,0,0.0108267
0.3,8.8,0,0.0105442
0.3,8.9,0,0.010262
0.3,9,0,0.00997785
0.3,9.1,0,0.00969007
0.3,9.2,0,0.00940303
0.3,9.3,0,0.00911427
0.3,9.4,0,0.00882523
0.3,9.5,0,0.0085367
0.3,9.6,0,0.00824738
0.3,9.7,0,0.00795967
0.3,9.8,0,0.0076722
0.3,9.9,0,0.00738537
0.3,10,0,0.00710087
0.3,10.1,0,0.00681642
0.3,10.2,0,0.00653415
0.3,10.3,0,0.006254
0.3,10.4,0,0.00597395
0.3,10.5,0,0.00569739
0.3,10.6,0,0.00542225
0.3,10.7,0,0.0051474
0.3,10.8,0,0.00487693
0.3,10.9,0,0.00460706
0.3,11,0,0.0043381
0.3,11.1,0,0.0040732
0.3,11.2,0,0.0038085
0.3,11.3,0,0.00354543
0.3,11.4,0,0.00328541
0.3,11.5,0,0.00302547
0.3,11.6,0,0.00276768
0.3,11.7,0,0.00251182
0.3,11.8,0,0.00225609
0.3,11.9,0,0.00200252
0.3,12,0,0.00174993
0.3,12.1,0,0.00149758
0.3,12.2,0,0.00124703
0.3,12.3,0,0.000996709
0.3,12.4,0,0.000746723
0.3,12.5,0,0.000497822
0.3,12.6,0,0.000248701
0.3,12.7,0,0
0.4,0,0,0
0.4,0.1,0,0.000314357
0.4,0.2,0,0.000628696
0.4,0.3,0,0.000943097
0.4,0.4,0,0.00125753
0.4,0.5,0,0.00157198
0.4,0.6,0,0.00188656
0.4,0.7,0,0.00220116
0.4,0.8,0,0.00251582
0.4,0.9,0,0.00283057
0.4,1,0,0.00314532
0.4,1.1,0,0.00346012
0.4,1.2,0,0.00377499
0.4,1.3,0,0.00408975
0.4,1.4,0,0.00440456
0.4,1.5,0,0.00471929
0.4,1.6,0,0.0050336
0.4,1.7,0,0.00534809
0.4,1.8,0,0.00566199
0.4,1.9,0,0.00597568
0.4,2,0,0.00628917
0.4,2.1,0,0.00660117
0.4,2.2,0,0.00691347
0.4,2.3,0,0.00722433
0.4,2.4,0,0.0075344
0.4,2.5,0,0.00784409
0.4,2.6,0,0.00815039
0.4,2.7,0,0.00845714
0.4,2.8,0,0.00876106
0.4,2.9,0,0.00906316
0.4,3,0,0.00936466
0.4,3.1,0,0.00965981
0.4,3.2,0,0.00995555
0.4,3.3,0,0.0102464
0.4,3.4,0,0.0105339
0.4,3.5,0,0.0108206
0.4,3.6,0,0.0110966
0.4,3.7,0,0.0113734
0.4,3.8,0,0.0116427
0.4,3.9,0,0.0119062
0.4,4,0,0.0121686
0.4,4.1,0,0.012415
0.4,4.2,0,0.0126621
0.4,4.3,0,0.0128984
0.4,4.4,0,0.0131261
0.4,4.5,0,0.0133523
0.4,4.6,0,0.0135558
0.4,4.7,0,0.01376
0.4,4.8,0,0.0139498
0.4,4.9,0,0.0141114
0.4,5,0,0.0142247
0.4,5.1,0,0.0144613
0.4,5.2,0,0.0146051
0.4,5.3,0,0.0147359
0.4,5.4,0,0.0148531
0.4,5.5,0,0.0149562
0.4,5.6,0,0.0150449
0.4,5.7,0,0.0151187
0.4,5.8,0,0.0151773
0.4,5.9,0,0.0152204
0.4,6,0,0.0152479
0.4,6.1,0,0.0152594
0.4,6.2,0,0.015255
0.4,6.3,0,0.0152345
0.4,6.4,0,0.0151981
0.4,6.5,0,0.0151457
0.4,6.6,0,0.0150776
0.4,6.7,0,0.0149939
0.4,6.8,0,0.014895
0.4,6.9,0,0.0147813
0.4,7,0,0.0145748
0.4,7.1,0,0.0144791
0.4,7.2,0,0.0143463
0.4,7.3,0,0.0141837
0.4,7.4,0,0.0139984
0.4,7.5,0,0.0138057
0.4,7.6,0,0.0136054
0.4,7.7,0,0.0133883
0.4,7.8,0,0.0131656
0.4,7.9,0,0.0129345
0.4,8,0,0.0126916
0.4,8.1,0,0.012445
0.4,8.2,0,0.0121901
0.4,8.3,0,0.0119274
0.4,8.4,0,0.0116629
0.4,8.5,0,0.0113909
0.4,8.6,0,0.0111141
0.4,8.7,0,0.010837
0.4,8.8,0,0.0105542
0.4,8.9,0,0.0102687
0.4,9,0,0.00998343
0.4,9.1,0,0.00969496
0.4,9.2,0,0.00940516
0.4,9.3,0,0.00911594
0.4,9.4,0,0.00882593
0.4,9.5,0,0.00853542
0.4,9.6,0,0.008246
0.4,9.7,0,0.00795712
0.4,9.8,0,0.00766859
0.4,9.9,0,0.00738176
0.4,10,0,0.0070961
0.4,10.1,0,0.0068113
0.4,10.2,0,0.00652896
0.4,10.3,0,0.00624793
0.4,10.4,0,0.00596799
0.4,10.5,0,0.00569123
0.4,10.6,0,0.0054157
0.4,10.7,0,0.00514112
0.4,10.8,0,0.00487042
0.4,10.9,0,0.00460068
0.4,11,0,0.00433197
0.4,11.1,0,0.00406684
0.4,11.2,0,0.00380272
0.4,11.3,0,0.00353981
0.4,11.4,0,0.00327973
0.4,11.5,0,0.0030206
0.4,11.6,0,0.00276284
0.4,11.7,0,0.00250719
0.4,11.8,0,0.00225225
0.4,11.9,0,0.00199869
0.4,12,0,0.00174659
0.4,12.1,0,0.0014949
0.4,12.2,0,0.0012444
0.4,12.3,0,0.000994847
0.4,12.4,0,0.000745324
0.4,12.5,0,0.000496561
0.4,12.6,0,0.000248385
0.4,12.7,0,0
0.5,0,0,0
0.5,0.1,0,0.000314314
0.5,0.2,0,0.000628627
0.5,0.3,0,0.000942994
0.5,0.4,0,0.00125741
0.5,0.5,0,0.00157183
0.5,0.6,0,0.00188643
0.5,0.7,0,0.00220102
0.5,0.8,0,0.00251572
0.5,0.9,0,0.00283051
0.5,1,0,0.0031453
0.5,1.1,0,0.00346023
0.5,1.2,0,0.00377516
0.5,1.3,0,0.00409009
0.5,1.4,0,0.00440501
0.5,1.5,0,0.00471994
0.5,1.6,0,0.00503457
0.5,1.7,0,0.00534921
0.5,1.8,0,0.00566348
0.5,1.9,0,0.00597739
0.5,2,0,0.00629131
0.5,2.1,0,0.0066039
0.5,2.2,0,0.00691648
0.5,2.3,0,0.00722799
0.5,2.4,0,0.00753843
0.5,2.5,0,0.00784886
0.5,2.6,0,0.00815608
0.5,2.7,0,0.00846329
0.5,2.8,0,0.00876822
0.5,2.9,0,0.00907088
0.5,3,0,0.00937353
0.5,3.1,0,0.00966996
0.5,3.2,0,0.0099664
0.5,3.3,0,0.0102587
0.5,3.4,0,0.010547
0.5,3.5,0,0.0108352
0.5,3.6,0,0.0111129
0.5,3.7,0,0.0113907
0.5,3.8,0,0.0116618
0.5,3.9,0,0.0119263
0.5,4,0,0.0121908
0.5,4.1,0,0.0124391
0.5,4.2,0,0.0126874
0.5,4.3,0,0.0129259
0.5,4.4,0,0.0131546
0.5,4.5,0,0.0133833
0.5,4.6,0,0.0135889
0.5,4.7,0,0.0137944
0.5,4.8,0,0.0139705
0.5,4.9,0,0.0141172
0.5,5,0,0.0142639
0.5,5.1,0,0.014503
0.5,5.2,0,0.0146484
0.5,5.3,0,0.0147807
0.5,5.4,0,0.0148993
0.5,5.5,0,0.0150038
0.5,5.6,0,0.0150936
0.5,5.7,0,0.0151685
0.5,5.8,0,0.015228
0.5,5.9,0,0.0152718
0.5,6,0,0.0152997
0.5,6.1,0,0.0153116
0.5,6.2,0,0.0153073
0.5,6.3,0,0.0152867
0.5,6.4,0,0.0152499
0.5,6.5,0,0.015197
0.5,6.6,0,0.0151282
0.5,6.7,0,0.0150436
0.5,6.8,0,0.0149436
0.5,6.9,0,0.0148287
0.5,7,0,0.0146199
0.5,7.1,0,0.014491
0.5,7.2,0,0.0143621
0.5,7.3,0,0.0142237
0.5,7.4,0,0.0140317
0.5,7.5,0,0.0138396
0.5,7.6,0,0.0136385
0.5,7.7,0,0.0134162
0.5,7.8,0,0.0131938
0.5,7.9,0,0.0129605
0.5,8,0,0.0127138
0.5,8.1,0,0.0124672
0.5,8.2,0,0.0122094
0.5,8.3,0,0.0119442
0.5,8.4,0,0.011679
0.5,8.5,0,0.011404
0.5,8.6,0,0.0111258
0.5,8.7,0,0.0108475
0.5,8.8,0,0.0105619
0.5,8.9,0,0.0102755
0.5,9,0,0.00998891
0.5,9.1,0,0.00969844
0.5,9.2,0,0.00940797
0.5,9.3,0,0.00911736
0.5,9.4,0,0.00882616
0.5,9.5,0,0.00853496
0.5,9.6,0,0.0082444
0.5,9.7,0,0.00795502
0.5,9.8,0,0.00766564
0.5,9.9,0,0.00737808
0.5,10,0,0.00709234
0.5,10.1,0,0.00680661
0.5,10.2,0,0.00652402
0.5,10.3,0,0.00624312
0.5,10.4,0,0.00596223
0.5,10.5,0,0.00568572
0.5,10.6,0,0.0054103
0.5,10.7,0,0.00513489
0.5,10.8,0,0.00486486
0.5,10.9,0,0.00459512
0.5,11,0,0.00432593
0.5,11.1,0,0.00406167
0.5,11.2,0,0.00379742
0.5,11.3,0,0.00353441
0.5,11.4,0,0.00327516
0.5,11.5,0,0.00301591
0.5,11.6,0,0.00275837
0.5,11.7,0,0.00250341
0.5,11.8,0,0.00224844
0.5,11.9,0,0.00199534
0.5,12,0,0.00174376
0.5,12.1,0,0.00149219
0.5,12.2,0,0.00124228
0.5,12.3,0,0.000993076
0.5,12.4,0,0.000743876
0.5,12.5,0,0.000495787
0.5,12.6,0,0.000247893
0.5,12.7,0,0
0.6,0,0,0
0.6,0.1,0,0.000314208
0.6,0.2,0,0.00062848
0.6,0.3,0,0.000942768
0.6,0.4,0,0.00125715
0.6,0.5,0,0.00157152
0.6,0.6,0,0.00188609
0.6,0.7,0,0.0022007
0.6,0.8,0,0.00251543
0.6,0.9,0,0.00283025
0.6,1,0,0.00314516
0.6,1.1,0,0.00346025
0.6,1.2,0,0.00377531
0.6,1.3,0,0.00409051
0.6,1.4,0,0.00440558
0.6,1.5,0,0.0047209
0.6,1.6,0,0.005036
0.6,1.7,0,0.00535093
0.6,1.8,0,0.00566584
0.6,1.9,0,0.00598009
0.6,2,0,0.00629481
0.6,2.1,0,0.0066083
0.6,2.2,0,0.00692142
0.6,2.3,0,0.00723406
0.6,2.4,0,0.00754508
0.6,2.5,0,0.00785688
0.6,2.6,0,0.00816558
0.6,2.7,0,0.00847365
0.6,2.8,0,0.00878034
0.6,2.9,0,0.0090839
0.6,3,0,0.00938862
0.6,3.1,0,0.00968724
0.6,3.2,0,0.00998491
0.6,3.3,0,0.0102798
0.6,3.4,0,0.0105693
0.6,3.5,0,0.0108604
0.6,3.6,0,0.011141
0.6,3.7,0,0.0114204
0.6,3.8,0,0.0116948
0.6,3.9,0,0.011961
0.6,4,0,0.0122291
0.6,4.1,0,0.012481
0.6,4.2,0,0.0127313
0.6,4.3,0,0.0129737
0.6,4.4,0,0.0132044
0.6,4.5,0,0.0134373
0.6,4.6,0,0.013647
0.6,4.7,0,0.0138546
0.6,4.8,0,0.0140509
0.6,4.9,0,0.0142157
0.6,5,0,0.0143328
0.6,5.1,0,0.0145768
0.6,5.2,0,0.0147252
0.6,5.3,0,0.0148603
0.6,5.4,0,0.0149815
0.6,5.5,0,0.0150885
0.6,5.6,0,0.0151805
0.6,5.7,0,0.0152572
0.6,5.8,0,0.0153184
0.6,5.9,0,0.0153634
0.6,6,0,0.0153924
0.6,6.1,0,0.0154048
0.6,6.2,0,0.0154007
0.6,6.3,0,0.01538
0.6,6.4,0,0.0153427
0.6,6.5,0,0.0152888
0.6,6.6,0,0.0152187
0.6,6.7,0,0.0151324
0.6,6.8,0,0.0150303
0.6,6.9,0,0.0149129
0.6,7,0,0.0146996
0.6,7.1,0,0.0146001
0.6,7.2,0,0.0144648
0.6,7.3,0,0.0142956
0.6,7.4,0,0.0141029
0.6,7.5,0,0.013907
0.6,7.6,0,0.0136991
0.6,7.7,0,0.0134752
0.6,7.8,0,0.013248
0.6,7.9,0,0.013009
0.6,8,0,0.0127605
0.6,8.1,0,0.0125082
0.6,8.2,0,0.0122456
0.6,8.3,0,0.0119787
0.6,8.4,0,0.0117078
0.6,8.5,0,0.0114288
0.6,8.6,0,0.0111491
0.6,8.7,0,0.0108655
0.6,8.8,0,0.0105766
0.6,8.9,0,0.0102886
0.6,9,0,0.00999792
0.6,9.1,0,0.0097045
0.6,9.2,0,0.00941274
0.6,9.3,0,0.00911919
0.6,9.4,0,0.00882556
0.6,9.5,0,0.00853337
0.6,9.6,0,0.00824072
0.6,9.7,0,0.00794961
0.6,9.8,0,0.00765948
0.6,9.9,0,0.00737045
0.6,10,0,0.00708358
0.6,10.1,0,0.00679749
0.6,10.2,0,0.00651386
0.6,10.3,0,0.0062323
0.6,10.4,0,0.0059515
0.6,10.5,0,0.00567424
0.6,10.6,0,0.00539855
0.6,10.7,0,0.00512369
0.6,10.8,0,0.00485312
0.6,10.9,0,0.00458347
0.6,11,0,0.00431503
0.6,11.1,0,0.0040505
0.6,11.2,0,0.00378666
0.6,11.3,0,0.00352447
0.6,11.4,0,0.00326525
0.6,11.5,0,0.00300665
0.6,11.6,0,0.00274995
0.6,11.7,0,0.0024952
0.6,11.8,0,0.00224111
0.6,11.9,0,0.00198887
0.6,12,0,0.00173761
0.6,12.1,0,0.0014871
0.6,12.2,0,0.00123808
0.6,12.3,0,0.000989207
0.6,12.4,0,0.000741238
0.6,12.5,0,0.000494088
0.6,12.6,0,0.000246629
0.6,12.7,0,0
0.7,0,0,0
0.7,0.1,0,0.000314167
0.7,0.2,0,0.000628292
0.7,0.3,0,0.00094258
0.7,0.4,0,0.00125688
0.7,0.5,0,0.00157121
0.7,0.6,0,0.0018858
0.7,0.7,0,0.00220039
0.7,0.8,0,0.00251512
0.7,0.9,0,0.00283008
0.7,1,0,0.00314502
0.7,1.1,0,0.00346024
0.7,1.2,0,0.00377557
0.7,1.3,0,0.00409077
0.7,1.4,0,0.00440639
0.7,1.5,0,0.00472186
0.7,1.6,0,0.00503726
0.7,1.7,0,0.00535295
0.7,1.8,0,0.00566785
0.7,1.9,0,0.00598325
0.7,2,0,0.00629831
0.7,2.1,0,0.00661234
0.7,2.2,0,0.0069269
0.7,2.3,0,0.00723953
0.7,2.4,0,0.00755251
0.7,2.5,0,0.00786491
0.7,2.6,0,0.00817446
0.7,2.7,0,0.00848485
0.7,2.8,0,0.00879154
0.7,2.9,0,0.00909808
0.7,3,0,0.00940371
0.7,3.1,0,0.00970356
0.7,3.2,0,0.0100046
0.7,3.3,0,0.0102995
0.7,3.4,0,0.0105932
0.7,3.5,0,0.0108855
0.7,3.6,0,0.0111678
0.7,3.7,0,0.0114518
0.7,3.8,0,0.0117262
0.7,3.9,0,0.0119976
0.7,4,0,0.0122675
0.7,4.1,0,0.0125213
0.7,4.2,0,0.0127772
0.7,4.3,0,0.0130197
0.7,4.4,0,0.0132564
0.7,4.5,0,0.0134913
0.7,4.6,0,0.013703
0.7,4.7,0,0.0139168
0.7,4.8,0,0.0141131
0.7,4.9,0,0.0142665
0.7,5,0,0.0144017
0.7,5.1,0,0.0146505
0.7,5.2,0,0.0148019
0.7,5.3,0,0.0149399
0.7,5.4,0,0.0150638
0.7,5.5,0,0.0151731
0.7,5.6,0,0.0152673
0.7,5.7,0,0.015346
0.7,5.8,0,0.0154088
0.7,5.9,0,0.0154551
0.7,6,0,0.015485
0.7,6.1,0,0.015498
0.7,6.2,0,0.0154942
0.7,6.3,0,0.0154733
0.7,6.4,0,0.0154354
0.7,6.5,0,0.0153806
0.7,6.6,0,0.0153091
0.7,6.7,0,0.0152211
0.7,6.8,0,0.015117
0.7,6.9,0,0.0149972
0.7,7,0,0.0147792
0.7,7.1,0,0.0146642
0.7,7.2,0,0.0145285
0.7,7.3,0,0.0143676
0.7,7.4,0,0.0141698
0.7,7.5,0,0.0139683
0.7,7.6,0,0.0137603
0.7,7.7,0,0.0135301
0.7,7.8,0,0.0132976
0.7,7.9,0,0.0130586
0.7,8,0,0.0128027
0.7,8.1,0,0.0125463
0.7,8.2,0,0.0122835
0.7,8.3,0,0.0120088
0.7,8.4,0,0.011735
0.7,8.5,0,0.0114551
0.7,8.6,0,0.0111683
0.7,8.7,0,0.010883
0.7,8.8,0,0.0105927
0.7,8.9,0,0.010299
0.7,9,0,0.0100071
0.7,9.1,0,0.00971221
0.7,9.2,0,0.00941577
0.7,9.3,0,0.00912155
0.7,9.4,0,0.00882648
0.7,9.5,0,0.00853066
0.7,9.6,0,0.00823781
0.7,9.7,0,0.00794532
0.7,9.8,0,0.00765274
0.7,9.9,0,0.00736371
0.7,10,0,0.00707578
0.7,10.1,0,0.0067882
0.7,10.2,0,0.00650458
0.7,10.3,0,0.00622244
0.7,10.4,0,0.0059408
0.7,10.5,0,0.00566367
0.7,10.6,0,0.00538784
0.7,10.7,0,0.00511251
0.7,10.8,0,0.00484227
0.7,10.9,0,0.00457279
0.7,11,0,0.00430415
0.7,11.1,0,0.0040402
0.7,11.2,0,0.00377676
0.7,11.3,0,0.00351452
0.7,11.4,0,0.00325612
0.7,11.5,0,0.00299811
0.7,11.6,0,0.00274142
0.7,11.7,0,0.0024878
0.7,11.8,0,0.00223436
0.7,11.9,0,0.00198212
0.7,12,0,0.00173232
0.7,12.1,0,0.0014824
0.7,12.2,0,0.00123354
0.7,12.3,0,0.000986319
0.7,12.4,0,0.000738787
0.7,12.5,0,0.000491991
0.7,12.6,0,0.000246248
0.7,12.7,0,0
0.8,0,0,0
0.8,0.1,0,0.000314031
0.8,0.2,0,0.000628156
0.8,0.3,0,0.000942224
0.8,0.4,0,0.00125652
0.8,0.5,0,0.00157077
0.8,0.6,0,0.00188534
0.8,0.7,0,0.00219993
0.8,0.8,0,0.00251473
0.8,0.9,0,0.00282969
0.8,1,0,0.00314472
0.8,1.1,0,0.00346016
0.8,1.2,0,0.0037755
0.8,1.3,0,0.00409133
0.8,1.4,0,0.00440695
0.8,1.5,0,0.00472283
0.8,1.6,0,0.00503884
0.8,1.7,0,0.00535453
0.8,1.8,0,0.00567094
0.8,1.9,0,0.00598634
0.8,2,0,0.00630227
0.8,2.1,0,0.00661749
0.8,2.2,0,0.00693205
0.8,2.3,0,0.00724739
0.8,2.4,0,0.00756037
0.8,2.5,0,0.00787428
0.8,2.6,0,0.00818576
0.8,2.7,0,0.00849615
0.8,2.8,0,0.00880711
0.8,2.9,0,0.00911365
0.8,3,0,0.0094216
0.8,3.1,0,0.00972428
0.8,3.2,0,0.0100254
0.8,3.3,0,0.0103263
0.8,3.4,0,0.01062
0.8,3.5,0,0.0109156
0.8,3.6,0,0.0112018
0.8,3.7,0,0.0114857
0.8,3.8,0,0.0117682
0.8,3.9,0,0.0120396
0.8,4,0,0.0123136
0.8,4.1,0,0.0125723
0.8,4.2,0,0.0128281
0.8,4.3,0,0.0130802
0.8,4.4,0,0.013317
0.8,4.5,0,0.0135566
0.8,4.6,0,0.0137736
0.8,4.7,0,0.0139874
0.8,4.8,0,0.0141938
0.8,4.9,0,0.0143472
0.8,5,0,0.0144855
0.8,5.1,0,0.0147401
0.8,5.2,0,0.0148952
0.8,5.3,0,0.0150367
0.8,5.4,0,0.0151639
0.8,5.5,0,0.0152762
0.8,5.6,0,0.0153732
0.8,5.7,0,0.0154543
0.8,5.8,0,0.0155191
0.8,5.9,0,0.0155671
0.8,6,0,0.0155982
0.8,6.1,0,0.015612
0.8,6.2,0,0.0156084
0.8,6.3,0,0.0155873
0.8,6.4,0,0.0155488
0.8,6.5,0,0.0154929
0.8,6.6,0,0.0154198
0.8,6.7,0,0.0153297
0.8,6.8,0,0.015223
0.8,6.9,0,0.0151002
0.8,7,0,0.0148767
0.8,7.1,0,0.0147582
0.8,7.2,0,0.0146225
0.8,7.3,0,0.0144539
0.8,7.4,0,0.0142512
0.8,7.5,0,0.0140497
0.8,7.6,0,0.0138312
0.8,7.7,0,0.0135976
0.8,7.8,0,0.0133649
0.8,7.9,0,0.0131132
0.8,8,0,0.0128558
0.8,8.1,0,0.0125973
0.8,8.2,0,0.0123227
0.8,8.3,0,0.0120479
0.8,8.4,0,0.0117705
0.8,8.5,0,0.0114815
0.8,8.6,0,0.0111948
0.8,8.7,0,0.0109046
0.8,8.8,0,0.0106081
0.8,8.9,0,0.0103144
0.8,9,0,0.0100171
0.8,9.1,0,0.00971839
0.8,9.2,0,0.00942195
0.8,9.3,0,0.00912255
0.8,9.4,0,0.00882536
0.8,9.5,0,0.00852954
0.8,9.6,0,0.00823214
0.8,9.7,0,0.00793874
0.8,9.8,0,0.00764588
0.8,9.9,0,0.00735353
0.8,10,0,0.00706541
0.8,10.1,0,0.00677729
0.8,10.2,0,0.0064919
0.8,10.3,0,0.00620976
0.8,10.4,0,0.00592764
0.8,10.5,0,0.00564992
0.8,10.6,0,0.00537409
0.8,10.7,0,0.0050986
0.8,10.8,0,0.0048285
0.8,10.9,0,0.00455902
0.8,11,0,0.00429076
0.8,11.1,0,0.00402725
0.8,11.2,0,0.00376381
0.8,11.3,0,0.00350259
0.8,11.4,0,0.00324467
0.8,11.5,0,0.00298666
0.8,11.6,0,0.00273164
0.8,11.7,0,0.00247834
0.8,11.8,0,0.00222514
0.8,11.9,0,0.001975
0.8,12,0,0.00172524
0.8,12.1,0,0.00147594
0.8,12.2,0,0.00122912
0.8,12.3,0,0.000981895
0.8,12.4,0,0.000735407
0.8,12.5,0,0.00049043
0.8,12.6,0,0.000244687
0.8,12.7,0,0
0.9,0,0,0
0.9,0.1,0,0.000313937
0.9,0.2,0,0.00062782
0.9,0.3,0,0.000941888
0.9,0.4,0,0.001256
0.9,0.5,0,0.0015702
0.9,0.6,0,0.00188473
0.9,0.7,0,0.00219929
0.9,0.8,0,0.00251409
0.9,0.9,0,0.00282917
0.9,1,0,0.00314426
0.9,1.1,0,0.00345981
0.9,1.2,0,0.00377554
0.9,1.3,0,0.00409138
0.9,1.4,0,0.00440766
0.9,1.5,0,0.00472379
0.9,1.6,0,0.00504013
0.9,1.7,0,0.00535692
0.9,1.8,0,0.00567333
0.9,1.9,0,0.00599022
0.9,2,0,0.0063067
0.9,2.1,0,0.00662256
0.9,2.2,0,0.00693922
0.9,2.3,0,0.00725456
0.9,2.4,0,0.00757017
0.9,2.5,0,0.007885
0.9,2.6,0,0.00819755
0.9,2.7,0,0.00851134
0.9,2.8,0,0.0088223
0.9,2.9,0,0.00913291
0.9,3,0,0.00944227
0.9,3.1,0,0.00974657
0.9,3.2,0,0.0100526
0.9,3.3,0,0.0103536
0.9,3.4,0,0.010653
0.9,3.5,0,0.0109506
0.9,3.6,0,0.011239
0.9,3.7,0,0.0115296
0.9,3.8,0,0.0118121
0.9,3.9,0,0.0120911
0.9,4,0,0.0123676
0.9,4.1,0,0.012629
0.9,4.2,0,0.0128932
0.9,4.3,0,0.0131452
0.9,4.4,0,0.0133908
0.9,4.5,0,0.0136334
0.9,4.6,0,0.0138535
0.9,4.7,0,0.0140763
0.9,4.8,0,0.0142826
0.9,4.9,0,0.0144607
0.9,5,0,0.014584
0.9,5.1,0,0.0148455
0.9,5.2,0,0.015005
0.9,5.3,0,0.0151507
0.9,5.4,0,0.0152818
0.9,5.5,0,0.0153978
0.9,5.6,0,0.015498
0.9,5.7,0,0.015582
0.9,5.8,0,0.0156493
0.9,5.9,0,0.0156993
0.9,6,0,0.0157319
0.9,6.1,0,0.0157467
0.9,6.2,0,0.0157435
0.9,6.3,0,0.0157222
0.9,6.4,0,0.0156829
0.9,6.5,0,0.0156256
0.9,6.6,0,0.0155506
0.9,6.7,0,0.015458
0.9,6.8,0,0.0153483
0.9,6.9,0,0.015222
0.9,7,0,0.014992
0.9,7.1,0,0.0148864
0.9,7.2,0,0.0147377
0.9,7.3,0,0.0145579
0.9,7.4,0,0.0143536
0.9,7.5,0,0.0141392
0.9,7.6,0,0.0139191
0.9,7.7,0,0.0136808
0.9,7.8,0,0.0134357
0.9,7.9,0,0.013184
0.9,8,0,0.0129191
0.9,8.1,0,0.012651
0.9,8.2,0,0.0123762
0.9,8.3,0,0.0120922
0.9,8.4,0,0.0118083
0.9,8.5,0,0.0115184
0.9,8.6,0,0.0112222
0.9,8.7,0,0.0109283
0.9,8.8,0,0.0106301
0.9,8.9,0,0.0103281
0.9,9,0,0.0100287
0.9,9.1,0,0.00972792
0.9,9.2,0,0.00942485
0.9,9.3,0,0.0091245
0.9,9.4,0,0.00882479
0.9,9.5,0,0.00852428
0.9,9.6,0,0.00822666
0.9,9.7,0,0.00793055
0.9,9.8,0,0.00763507
0.9,9.9,0,0.00734272
0.9,10,0,0.00705217
0.9,10.1,0,0.00676301
0.9,10.2,0,0.00647748
0.9,10.3,0,0.00619368
0.9,10.4,0,0.00591149
0.9,10.5,0,0.00563352
0.9,10.6,0,0.00535711
0.9,10.7,0,0.00508193
0.9,10.8,0,0.0048116
0.9,10.9,0,0.00454256
0.9,11,0,0.00427466
0.9,11.1,0,0.00401109
0.9,11.2,0,0.00374891
0.9,11.3,0,0.00348794
0.9,11.4,0,0.00323038
0.9,11.5,0,0.00297408
0.9,11.6,0,0.00271912
0.9,11.7,0,0.00246677
0.9,11.8,0,0.00221526
0.9,11.9,0,0.00196512
0.9,12,0,0.00171697
0.9,12.1,0,0.00146908
0.9,12.2,0,0.00122241
0.9,12.3,0,0.000977304
0.9,12.4,0,0.000731846
0.9,12.5,0,0.000487225
0.9,12.6,0,0.000243891
0.9,12.7,0,0
1,0,0,0
1,0.1,0,0.000313789
1,0.2,0,0.000627578
1,0.3,0,0.000941504
1,0.4,0,0.00125557
1,0.5,0,0.00156963
1,0.6,0,0.00188415
1,0.7,0,0.00219868
1,0.8,0,0.00251351
1,0.9,0,0.00282865
1,1,0,0.00314379
1,1.1,0,0.00345964
1,1.2,0,0.00377548
1,1.3,0,0.00409167
1,1.4,0,0.00440821
1,1.5,0,0.00472475
1,1.6,0,0.00504187
1,1.7,0,0.00535899
1,1.8,0,0.00567626
1,1.9,0,0.00599369
1,2,0,0.00631112
1,2.1,0,0.00662843
1,2.2,0,0.00694573
1,2.3,0,0.00726265
1,2.4,0,0.00757918
1,2.5,0,0.00789572
1,2.6,0,0.00821058
1,2.7,0,0.00852545
1,2.8,0,0.0088389
1,2.9,0,0.00915092
1,3,0,0.00946295
1,3.1,0,0.00977062
1,3.2,0,0.0100783
1,3.3,0,0.0103828
1,3.4,0,0.0106842
1,3.5,0,0.0109856
1,3.6,0,0.0112785
1,3.7,0,0.0115714
1,3.8,0,0.0118586
1,3.9,0,0.0121401
1,4,0,0.0124216
1,4.1,0,0.0126885
1,4.2,0,0.0129554
1,4.3,0,0.0132131
1,4.4,0,0.0134616
1,4.5,0,0.0137102
1,4.6,0,0.0139361
1,4.7,0,0.014162
1,4.8,0,0.0143564
1,4.9,0,0.0145194
1,5,0,0.0146825
1,5.1,0,0.0149508
1,5.2,0,0.0151147
1,5.3,0,0.0152646
1,5.4,0,0.0153997
1,5.5,0,0.0155193
1,5.6,0,0.0156229
1,5.7,0,0.0157098
1,5.8,0,0.0157795
1,5.9,0,0.0158316
1,6,0,0.0158656
1,6.1,0,0.0158814
1,6.2,0,0.0158786
1,6.3,0,0.0158571
1,6.4,0,0.015817
1,6.5,0,0.0157584
1,6.6,0,0.0156814
1,6.7,0,0.0155863
1,6.8,0,0.0154736
1,6.9,0,0.0153438
1,7,0,0.0151073
1,7.1,0,0.0149618
1,7.2,0,0.0148162
1,7.3,0,0.0146602
1,7.4,0,0.0144446
1,7.5,0,0.014229
1,7.6,0,0.0140038
1,7.7,0,0.0137563
1,7.8,0,0.0135087
1,7.9,0,0.0132503
1,8,0,0.0129785
1,8.1,0,0.0127068
1,8.2,0,0.0124248
1,8.3,0,0.0121361
1,8.4,0,0.0118474
1,8.5,0,0.0115508
1,8.6,0,0.0112516
1,8.7,0,0.0109524
1,8.8,0,0.0106487
1,8.9,0,0.0103444
1,9,0,0.0100402
1,9.1,0,0.00973523
1,9.2,0,0.0094303
1,9.3,0,0.00912589
1,9.4,0,0.00882355
1,9.5,0,0.00852121
1,9.6,0,0.0082206
1,9.7,0,0.00792318
1,9.8,0,0.00762576
1,9.9,0,0.00733155
1,10,0,0.00704054
1,10.1,0,0.00674954
1,10.2,0,0.00646323
1,10.3,0,0.00617946
1,10.4,0,0.00589568
1,10.5,0,0.00561789
1,10.6,0,0.0053416
1,10.7,0,0.00506531
1,10.8,0,0.00479597
1,10.9,0,0.004527
1,11,0,0.0042587
1,11.1,0,0.00399653
1,11.2,0,0.00373435
1,11.3,0,0.00347369
1,11.4,0,0.00321754
1,11.5,0,0.00296139
1,11.6,0,0.00270727
1,11.7,0,0.00245619
1,11.8,0,0.00220511
1,11.9,0,0.0019562
1,12,0,0.00170908
1,12.1,0,0.00146195
1,12.2,0,0.00121678
1,12.3,0,0.000972448
1,12.4,0,0.000728115
1,12.5,0,0.000485239
1,12.6,0,0.000242619
1,12.7,0,0
1.1,0,0,0
1.1,0.1,0,0.000313473
1.1,0.2,0,0.000627139
1.1,0.3,0,0.000940818
1.1,0.4,0,0.00125476
1.1,0.5,0,0.00156863
1.1,0.6,0,0.00188302
1.1,0.7,0,0.0021975
1.1,0.8,0,0.0025123
1.1,0.9,0,0.00282745
1.1,1,0,0.00314267
1.1,1.1,0,0.00345874
1.1,1.2,0,0.00377473
1.1,1.3,0,0.00409131
1.1,1.4,0,0.00440809
1.1,1.5,0,0.00472519
1.1,1.6,0,0.00504312
1.1,1.7,0,0.00536067
1.1,1.8,0,0.00567899
1.1,1.9,0,0.00599702
1.1,2,0,0.00631571
1.1,2.1,0,0.00663468
1.1,2.2,0,0.00695284
1.1,2.3,0,0.00727171
1.1,2.4,0,0.00758935
1.1,2.5,0,0.00790811
1.1,2.6,0,0.00822579
1.1,2.7,0,0.00854207
1.1,2.8,0,0.00885867
1.1,2.9,0,0.00917245
1.1,3,0,0.00948794
1.1,3.1,0,0.00979987
1.1,3.2,0,0.0101096
1.1,3.3,0,0.0104188
1.1,3.4,0,0.0107227
1.1,3.5,0,0.0110291
1.1,3.6,0,0.0113279
1.1,3.7,0,0.0116236
1.1,3.8,0,0.011917
1.1,3.9,0,0.0122019
1.1,4,0,0.0124898
1.1,4.1,0,0.0127643
1.1,4.2,0,0.0130347
1.1,4.3,0,0.0133001
1.1,4.4,0,0.0135527
1.1,4.5,0,0.0138087
1.1,4.6,0,0.0140435
1.1,4.7,0,0.0142731
1.1,4.8,0,0.0144937
1.1,4.9,0,0.0146791
1.1,5,0,0.0148105
1.1,5.1,0,0.0150884
1.1,5.2,0,0.0152584
1.1,5.3,0,0.0154141
1.1,5.4,0,0.0155547
1.1,5.5,0,0.0156795
1.1,5.6,0,0.0157877
1.1,5.7,0,0.0158788
1.1,5.8,0,0.015952
1.1,5.9,0,0.016007
1.1,6,0,0.0160432
1.1,6.1,0,0.0160604
1.1,6.2,0,0.0160582
1.1,6.3,0,0.0160366
1.1,6.4,0,0.0159955
1.1,6.5,0,0.015935
1.1,6.6,0,0.0158554
1.1,6.7,0,0.0157569
1.1,6.8,0,0.0156399
1.1,6.9,0,0.0155052
1.1,7,0,0.0152597
1.1,7.1,0,0.0151459
1.1,7.2,0,0.0149917
1.1,7.3,0,0.0147964
1.1,7.4,0,0.0145764
1.1,7.5,0,0.0143542
1.1,7.6,0,0.0141166
1.1,7.7,0,0.0138637
1.1,7.8,0,0.0136078
1.1,7.9,0,0.0133382
1.1,8,0,0.0130613
1.1,8.1,0,0.01278
1.1,8.2,0,0.0124883
1.1,8.3,0,0.0121954
1.1,8.4,0,0.0118969
1.1,8.5,0,0.011592
1.1,8.6,0,0.0112895
1.1,8.7,0,0.0109812
1.1,8.8,0,0.0106705