/*--------------------------------*- C++ -*----------------------------------*\
| =========                 |                                                 |
| \\      /  F ield         | OpenFOAM: The Open Source CFD Toolbox           |
|  \\    /   O peration     | Version:  v1806                                 |
|   \\  /    A nd           | Web:      www.OpenFOAM.com                      |
|    \\/     M anipulation  |                                                 |
\*---------------------------------------------------------------------------*/
FoamFile
{
    version     2.0;
    format      ascii;
    class       volVectorField;
    location    "500";
    object      U;
}
// * * * * * * * * * * * * * * * * * * * * * * * * * * * * * * * * * * * * * //

dimensions      [0 1 -1 0 0 0 0];


internalField   nonuniform List<vector> 
4400
(
(0.245354 0.258465 0)
(0.294544 0.184751 0)
(0.309339 0.136573 0)
(0.316819 0.104781 0)
(0.321219 0.0841608 0)
(0.323166 0.0710732 0)
(0.32343 0.0622794 0)
(0.322789 0.0557734 0)
(0.321657 0.0506401 0)
(0.320228 0.0464488 0)
(0.318611 0.0429644 0)
(0.316871 0.0400422 0)
(0.315056 0.0375848 0)
(0.313196 0.0355228 0)
(0.311315 0.0338047 0)
(0.309424 0.0323918 0)
(0.307532 0.0312554 0)
(0.305651 0.0303761 0)
(0.303829 0.0297229 0)
(0.302317 0.0292179 0)
(0.255757 0.135569 0)
(0.281075 0.097902 0)
(0.296331 0.086798 0)
(0.307757 0.0802301 0)
(0.313713 0.0731301 0)
(0.316477 0.0660301 0)
(0.317719 0.0595692 0)
(0.318042 0.0539945 0)
(0.31772 0.0492886 0)
(0.316945 0.0453364 0)
(0.315855 0.0420116 0)
(0.314552 0.0392074 0)
(0.313105 0.0368411 0)
(0.311563 0.0348507 0)
(0.309961 0.0331899 0)
(0.308322 0.0318234 0)
(0.30666 0.0307255 0)
(0.304993 0.0298782 0)
(0.303366 0.0292513 0)
(0.302006 0.0287814 0)
(0.229875 0.10324 0)
(0.262187 0.102393 0)
(0.284076 0.0943592 0)
(0.297146 0.0828628 0)
(0.304976 0.0720725 0)
(0.309707 0.0634684 0)
(0.312388 0.0568463 0)
(0.3137 0.0516049 0)
(0.314103 0.0473048 0)
(0.313896 0.0436948 0)
(0.313272 0.0406309 0)
(0.31236 0.0380209 0)
(0.31125 0.0358004 0)
(0.310004 0.0339213 0)
(0.308666 0.0323468 0)
(0.307266 0.0310482 0)
(0.305826 0.0300043 0)
(0.304365 0.0291997 0)
(0.302929 0.0286079 0)
(0.301718 0.0281748 0)
(0.248019 0.0695185 0)
(0.268918 0.0699394 0)
(0.28285 0.0671094 0)
(0.293153 0.0638949 0)
(0.300481 0.0603044 0)
(0.305316 0.0563237 0)
(0.308341 0.0522315 0)
(0.310098 0.0483304 0)
(0.310957 0.0447874 0)
(0.31117 0.0416521 0)
(0.31092 0.0389144 0)
(0.31034 0.0365426 0)
(0.309525 0.034502 0)
(0.308545 0.0327613 0)
(0.307449 0.0312945 0)
(0.306272 0.0300803 0)
(0.30504 0.0291025 0)
(0.303775 0.0283492 0)
(0.302521 0.0277976 0)
(0.301456 0.0274037 0)
(0.249137 0.0527205 0)
(0.265013 0.0597127 0)
(0.27882 0.0615738 0)
(0.289253 0.0597908 0)
(0.296592 0.0562213 0)
(0.301621 0.0522332 0)
(0.304964 0.0484576 0)
(0.307066 0.0450517 0)
(0.308258 0.0420116 0)
(0.308785 0.0393072 0)
(0.308828 0.0369128 0)
(0.308518 0.0348074 0)
(0.307953 0.0329727 0)
(0.307204 0.0313918 0)
(0.306324 0.0300495 0)
(0.30535 0.0289326 0)
(0.30431 0.0280307 0)
(0.303228 0.0273355 0)
(0.302146 0.0268287 0)
(0.30122 0.0264744 0)
(0.260809 0.0399719 0)
(0.271867 0.0457296 0)
(0.281239 0.0480994 0)
(0.288878 0.0483686 0)
(0.294891 0.047421 0)
(0.299384 0.045713 0)
(0.302576 0.0435658 0)
(0.304722 0.0412401 0)
(0.306056 0.0389214 0)
(0.30677 0.0367211 0)
(0.307015 0.0346962 0)
(0.306911 0.0328714 0)
(0.306548 0.031254 0)
(0.305994 0.0298433 0)
(0.305301 0.028635 0)
(0.304508 0.0276233 0)
(0.303642 0.0268033 0)
(0.302729 0.0261705 0)
(0.301806 0.0257109 0)
(0.301011 0.0253964 0)
(0.266019 0.031428 0)
(0.27378 0.0377919 0)
(0.281521 0.0413993 0)
(0.288283 0.0427012 0)
(0.293698 0.0424109 0)
(0.29781 0.0411908 0)
(0.30081 0.0395203 0)
(0.302907 0.0376812 0)
(0.304284 0.0358222 0)
(0.305097 0.0340238 0)
(0.305475 0.0323334 0)
(0.30552 0.0307798 0)
(0.305314 0.0293799 0)
(0.30492 0.0281428 0)
(0.304386 0.0270725 0)
(0.30375 0.02617 0)
(0.303039 0.0254351 0)
(0.302278 0.024867 0)
(0.301501 0.0244557 0)
(0.300826 0.0241798 0)
(0.273241 0.0252733 0)
(0.278858 0.030488 0)
(0.284395 0.0338419 0)
(0.289377 0.0355862 0)
(0.293616 0.0361568 0)
(0.297042 0.0359035 0)
(0.299673 0.0350931 0)
(0.301594 0.0339416 0)
(0.302916 0.0326148 0)
(0.30375 0.0312304 0)
(0.304197 0.0298671 0)
(0.30434 0.0285752 0)
(0.304249 0.027386 0)
(0.303981 0.0263189 0)
(0.303579 0.0253852 0)
(0.303077 0.0245915 0)
(0.302502 0.023942 0)
(0.301877 0.0234387 0)
(0.301232 0.0230755 0)
(0.300667 0.0228364 0)
(0.277863 0.0204655 0)
(0.281864 0.0252991 0)
(0.286146 0.028688 0)
(0.290215 0.0307077 0)
(0.293765 0.0316199 0)
(0.296681 0.0317207 0)
(0.298963 0.0312752 0)
(0.300672 0.0304897 0)
(0.301886 0.0295117 0)
(0.302688 0.0284433 0)
(0.303155 0.0273553 0)
(0.303355 0.026297 0)
(0.303345 0.0253029 0)
(0.303173 0.0243966 0)
(0.302878 0.023594 0)
(0.302489 0.022906 0)
(0.302031 0.0223396 0)
(0.301524 0.0218996 0)
(0.300996 0.0215829 0)
(0.300529 0.0213784 0)
(0.282615 0.0169236 0)
(0.285537 0.0209239 0)
(0.288662 0.023924 0)
(0.291678 0.0259167 0)
(0.294399 0.0270552 0)
(0.296723 0.0275196 0)
(0.298611 0.0274767 0)
(0.30007 0.0270738 0)
(0.30114 0.0264348 0)
(0.301872 0.0256587 0)
(0.302324 0.0248198 0)
(0.302548 0.0239727 0)
(0.30259 0.0231565 0)
(0.302488 0.0223987 0)
(0.302277 0.0217189 0)
(0.301981 0.0211305 0)
(0.301622 0.0206432 0)
(0.301218 0.0202635 0)
(0.300793 0.0199909 0)
(0.300414 0.0198182 0)
(0.286118 0.0139307 0)
(0.28823 0.0174557 0)
(0.290577 0.0201937 0)
(0.292921 0.0221229 0)
(0.295082 0.0233292 0)
(0.296954 0.02394 0)
(0.298498 0.024091 0)
(0.299712 0.0239074 0)
(0.300622 0.0234943 0)
(0.301263 0.0229358 0)
(0.301675 0.0222975 0)
(0.301898 0.0216294 0)
(0.301968 0.0209691 0)
(0.301916 0.0203448 0)
(0.301769 0.019777 0)
(0.301548 0.0192807 0)
(0.301272 0.0188671 0)
(0.300956 0.0185437 0)
(0.30062 0.0183121 0)
(0.300317 0.0181681 0)
(0.289355 0.0116113 0)
(0.290882 0.0145392 0)
(0.292584 0.016905 0)
(0.294301 0.0186611 0)
(0.295915 0.0198511 0)
(0.297349 0.0205548 0)
(0.29856 0.0208624 0)
(0.299535 0.0208634 0)
(0.300281 0.0206406 0)
(0.30082 0.0202653 0)
(0.301178 0.0197967 0)
(0.301384 0.0192819 0)
(0.301464 0.0187573 0)
(0.301445 0.0182508 0)
(0.301345 0.0177834 0)
(0.301185 0.0173707 0)
(0.300977 0.0170244 0)
(0.300735 0.0167527 0)
(0.300474 0.0165585 0)
(0.300237 0.0164402 0)
(0.291884 0.00956712 0)
(0.292975 0.0120739 0)
(0.294212 0.0141345 0)
(0.295486 0.0157124 0)
(0.296701 0.0168307 0)
(0.297793 0.0175421 0)
(0.298726 0.0179138 0)
(0.299486 0.0180162 0)
(0.300076 0.0179162 0)
(0.30051 0.0176725 0)
(0.300806 0.0173351 0)
(0.300983 0.0169448 0)
(0.301063 0.0165344 0)
(0.301062 0.0161298 0)
(0.300997 0.0157507 0)
(0.300883 0.0154126 0)
(0.300731 0.0151269 0)
(0.30055 0.0149019 0)
(0.300354 0.0147415 0)
(0.300172 0.0146457 0)
(0.294094 0.00788813 0)
(0.294852 0.00994613 0)
(0.295717 0.0116792 0)
(0.296613 0.0130453 0)
(0.297478 0.014052 0)
(0.298267 0.0147322 0)
(0.298952 0.0151313 0)
(0.29952 0.0153001 0)
(0.299967 0.0152893 0)
(0.300301 0.0151463 0)
(0.300533 0.0149128 0)
(0.300677 0.0146241 0)
(0.300747 0.0143093 0)
(0.300756 0.0139915 0)
(0.300716 0.0136893 0)
(0.300637 0.0134168 0)
(0.300529 0.013185 0)
(0.300399 0.0130018 0)
(0.300255 0.0128715 0)
(0.300121 0.0127953 0)
(0.295838 0.00636485 0)
(0.296351 0.00806354 0)
(0.296941 0.00950747 0)
(0.297559 0.0106656 0)
(0.298161 0.0115405 0)
(0.298715 0.0121534 0)
(0.299199 0.0125366 0)
(0.299603 0.0127281 0)
(0.299925 0.0127673 0)
(0.300168 0.0126915 0)
(0.300339 0.0125344 0)
(0.300448 0.0123252 0)
(0.300504 0.0120882 0)
(0.300516 0.0118436 0)
(0.300492 0.0116073 0)
(0.30044 0.0113921 0)
(0.300366 0.0112078 0)
(0.300276 0.0110616 0)
(0.300176 0.0109579 0)
(0.300081 0.0108986 0)
(0.297282 0.00504007 0)
(0.297606 0.00637865 0)
(0.297982 0.007534 0)
(0.298377 0.00847619 0)
(0.298764 0.00920316 0)
(0.299123 0.00972767 0)
(0.299441 0.0100715 0)
(0.299708 0.0102615 0)
(0.299923 0.0103268 0)
(0.300087 0.0102958 0)
(0.300204 0.0101951 0)
(0.30028 0.0100479 0)
(0.30032 0.00987429 0)
(0.300331 0.00969082 0)
(0.300318 0.009511 0)
(0.300285 0.0093456 0)
(0.300238 0.00920304 0)
(0.300179 0.00908957 0)
(0.300114 0.00900933 0)
(0.300051 0.00896448 0)
(0.298379 0.00380325 0)
(0.298569 0.00482809 0)
(0.298789 0.00571698 0)
(0.299022 0.00644852 0)
(0.299251 0.0070205 0)
(0.299464 0.00744093 0)
(0.299654 0.00772458 0)
(0.299814 0.00789058 0)
(0.299943 0.00795994 0)
(0.300042 0.00795373 0)
(0.300113 0.00789172 0)
(0.30016 0.00779168 0)
(0.300186 0.00766899 0)
(0.300193 0.00753659 0)
(0.300186 0.00740512 0)
(0.300167 0.00728314 0)
(0.30014 0.00717741 0)
(0.300106 0.007093 0)
(0.300067 0.00703351 0)
(0.300029 0.00700102 0)
(0.299199 0.00266843 0)
(0.299291 0.00338421 0)
(0.299398 0.00401084 0)
(0.299512 0.00453091 0)
(0.299624 0.00494184 0)
(0.299729 0.00524819 0)
(0.299823 0.00545928 0)
(0.299903 0.00558755 0)
(0.299968 0.00564706 0)
(0.300018 0.00565215 0)
(0.300054 0.00561655 0)
(0.300078 0.00555273 0)
(0.300091 0.00547162 0)
(0.300095 0.0053825 0)
(0.300092 0.00529303 0)
(0.300083 0.00520943 0)
(0.300069 0.00513662 0)
(0.300052 0.00507835 0)
(0.300033 0.00503741 0)
(0.300013 0.00501556 0)
(0.299725 0.00157591 0)
(0.299755 0.00200476 0)
(0.299791 0.00237948 0)
(0.299831 0.00269124 0)
(0.29987 0.00293889 0)
(0.299906 0.0031249 0)
(0.299939 0.0032545 0)
(0.299966 0.00333481 0)
(0.299988 0.003374 0)
(0.300006 0.00338045 0)
(0.300018 0.00336224 0)
(0.300026 0.00332677 0)
(0.300031 0.00328055 0)
(0.300033 0.00322914 0)
(0.300031 0.00317715 0)
(0.300028 0.00312832 0)
(0.300024 0.00308566 0)
(0.300018 0.00305147 0)
(0.300011 0.00302751 0)
(0.300004 0.00301497 0)
(0.299987 0.000529686 0)
(0.299988 0.000666423 0)
(0.29999 0.000789753 0)
(0.299992 0.000893201 0)
(0.299994 0.000975725 0)
(0.299995 0.00103798 0)
(0.299997 0.00108161 0)
(0.299998 0.0011089 0)
(0.299999 0.00112251 0)
(0.3 0.00112519 0)
(0.300001 0.0011196 0)
(0.300001 0.0011082 0)
(0.300002 0.00109315 0)
(0.300002 0.00107631 0)
(0.300002 0.00105922 0)
(0.300001 0.00104313 0)
(0.300001 0.00102906 0)
(0.300001 0.00101778 0)
(0.300001 0.00100988 0)
(0.3 0.00100578 0)
(0.101513 -0.165178 0)
(0.080726 -0.139998 0)
(0.0681473 -0.116615 0)
(0.0593491 -0.0957078 0)
(0.052772 -0.0766823 0)
(0.0477617 -0.0590534 0)
(0.0439893 -0.0424923 0)
(0.0412655 -0.0267277 0)
(0.0394735 -0.0115155 0)
(0.0385428 0.00336879 0)
(0.0384373 0.0181377 0)
(0.0391512 0.0329989 0)
(0.0407086 0.0481627 0)
(0.0431673 0.0638499 0)
(0.0466289 0.0802997 0)
(0.0512643 0.0977772 0)
(0.057377 0.11661 0)
(0.065583 0.137314 0)
(0.0773701 0.160531 0)
(0.097128 0.185157 0)
(0.175481 -0.0987452 0)
(0.16132 -0.0893931 0)
(0.148973 -0.0786378 0)
(0.138624 -0.0671336 0)
(0.13017 -0.0551513 0)
(0.123442 -0.0428296 0)
(0.118273 -0.0302666 0)
(0.114518 -0.0175346 0)
(0.112069 -0.00468439 0)
(0.110851 0.00824711 0)
(0.110826 0.0212311 0)
(0.111989 0.0342423 0)
(0.114372 0.0472545 0)
(0.118045 0.0602366 0)
(0.123128 0.0731454 0)
(0.129799 0.0859104 0)
(0.138322 0.0984368 0)
(0.14909 0.11072 0)
(0.162717 0.122923 0)
(0.180154 0.133514 0)
(0.19296 -0.0622065 0)
(0.187858 -0.0566653 0)
(0.183292 -0.0502185 0)
(0.179263 -0.0430201 0)
(0.175786 -0.0352234 0)
(0.172886 -0.0269583 0)
(0.170591 -0.018333 0)
(0.168923 -0.00943873 0)
(0.167901 -0.000353121 0)
(0.167538 0.00885562 0)
(0.167845 0.0181254 0)
(0.168829 0.0273967 0)
(0.170494 0.0366096 0)
(0.172842 0.0456998 0)
(0.175873 0.054594 0)
(0.179587 0.0632038 0)
(0.183987 0.0714248 0)
(0.189091 0.0791519 0)
(0.19499 0.0862455 0)
(0.20194 0.0921616 0)
(0.221232 -0.0372613 0)
(0.217569 -0.0331097 0)
(0.214173 -0.0286282 0)
(0.211122 -0.0238485 0)
(0.208474 -0.0188048 0)
(0.206268 -0.0135337 0)
(0.204534 -0.00807351 0)
(0.20329 -0.00246426 0)
(0.202551 0.00325267 0)
(0.202326 0.00903494 0)
(0.202622 0.0148394 0)
(0.203443 0.0206223 0)
(0.204794 0.0263393 0)
(0.206675 0.0319455 0)
(0.209089 0.0373946 0)
(0.212033 0.0426391 0)
(0.215506 0.0476337 0)
(0.219506 0.0523471 0)
(0.22404 0.0567396 0)
(0.229125 0.0605657 0)
(0.234365 -0.0259862 0)
(0.232585 -0.0229138 0)
(0.230986 -0.0196133 0)
(0.229583 -0.0161034 0)
(0.228391 -0.0124074 0)
(0.227424 -0.00855185 0)
(0.226694 -0.0045653 0)
(0.226211 -0.000477377 0)
(0.225984 0.00368155 0)
(0.226019 0.00788059 0)
(0.22632 0.0120885 0)
(0.226888 0.0162736 0)
(0.22772 0.0204039 0)
(0.228813 0.0244466 0)
(0.230158 0.0283686 0)
(0.231745 0.0321356 0)
(0.233563 0.0357131 0)
(0.235599 0.0390686 0)
(0.237844 0.0421678 0)
(0.240294 0.0449434 0)
(0.24971 -0.0174964 0)
(0.248458 -0.0150698 0)
(0.247319 -0.0125406 0)
(0.246312 -0.00991834 0)
(0.245451 -0.00721386 0)
(0.244752 -0.00443911 0)
(0.244225 -0.00160706 0)
(0.243879 0.00126838 0)
(0.243722 0.00417248 0)
(0.243757 0.00708986 0)
(0.243989 0.0100048 0)
(0.244418 0.0129012 0)
(0.245041 0.015763 0)
(0.245857 0.0185746 0)
(0.246861 0.0213203 0)
(0.248044 0.0239852 0)
(0.249398 0.0265556 0)
(0.250912 0.0290229 0)
(0.252575 0.0313781 0)
(0.254374 0.0335688 0)
(0.258627 -0.0128192 0)
(0.25791 -0.0109388 0)
(0.257279 -0.00898651 0)
(0.256738 -0.00696876 0)
(0.256293 -0.00489317 0)
(0.255948 -0.00276835 0)
(0.255705 -0.000603752 0)
(0.255569 0.00159047 0)
(0.255541 0.00380363 0)
(0.255622 0.00602464 0)
(0.255814 0.00824215 0)
(0.256115 0.0104447 0)
(0.256525 0.0126206 0)
(0.257041 0.0147586 0)
(0.25766 0.0168473 0)
(0.258379 0.0188758 0)
(0.259192 0.0208337 0)
(0.260096 0.0227115 0)
(0.261087 0.0245011 0)
(0.262161 0.0261899 0)
(0.267783 -0.0093763 0)
(0.267282 -0.0078534 0)
(0.266839 -0.00629271 0)
(0.266458 -0.0046986 0)
(0.266142 -0.00307575 0)
(0.265898 -0.00142916 0)
(0.265726 0.000235907 0)
(0.265631 0.00191394 0)
(0.265615 0.00359924 0)
(0.265677 0.00528596 0)
(0.265821 0.00696818 0)
(0.266044 0.00863996 0)
(0.266347 0.0102954 0)
(0.266727 0.0119287 0)
(0.267182 0.0135343 0)
(0.267711 0.0151067 0)
(0.268307 0.016641 0)
(0.268969 0.0181338 0)
(0.269691 0.0195819 0)
(0.270468 0.0209674 0)
(0.273863 -0.00714873 0)
(0.273545 -0.00592991 0)
(0.273271 -0.00468455 0)
(0.273041 -0.00341562 0)
(0.272857 -0.00212638 0)
(0.272721 -0.000820389 0)
(0.272634 0.000498547 0)
(0.272597 0.00182643 0)
(0.272609 0.00315908 0)
(0.272673 0.00449221 0)
(0.272787 0.00582147 0)
(0.272951 0.00714248 0)
(0.273165 0.00845086 0)
(0.273429 0.00974233 0)
(0.273739 0.0110127 0)
(0.274097 0.0122579 0)
(0.274499 0.0134741 0)
(0.274945 0.014658 0)
(0.275434 0.0158069 0)
(0.275963 0.0169163 0)
(0.279692 -0.00551325 0)
(0.279471 -0.00450879 0)
(0.279279 -0.00348851 0)
(0.279119 -0.00245453 0)
(0.278991 -0.00140908 0)
(0.278896 -0.000354482 0)
(0.278836 0.00070687 0)
(0.278812 0.00177251 0)
(0.278824 0.00283993 0)
(0.278872 0.00390657 0)
(0.278957 0.00496988 0)
(0.279078 0.0060273 0)
(0.279235 0.00707631 0)
(0.279427 0.00811442 0)
(0.279654 0.00913919 0)
(0.279914 0.0101482 0)
(0.280206 0.0111393 0)
(0.280528 0.0121109 0)
(0.28088 0.0130615 0)
(0.281259 0.0139835 0)
(0.283909 -0.00432739 0)
(0.28376 -0.00350777 0)
(0.283634 -0.00267699 0)
(0.28353 -0.00183653 0)
(0.28345 -0.000987975 0)
(0.283393 -0.000133009 0)
(0.283361 0.000726627 0)
(0.283353 0.00158912 0)
(0.28337 0.00245262 0)
(0.283411 0.00331525 0)
(0.283478 0.00417508 0)
(0.283569 0.00503022 0)
(0.283684 0.00587878 0)
(0.283824 0.0067189 0)
(0.283987 0.00754875 0)
(0.284173 0.00836656 0)
(0.284382 0.00917063 0)
(0.284613 0.00995955 0)
(0.284865 0.0107322 0)
(0.285138 0.0114862 0)
(0.287771 -0.00343396 0)
(0.287668 -0.00275425 0)
(0.287581 -0.00206723 0)
(0.28751 -0.00137401 0)
(0.287455 -0.000675719 0)
(0.287416 2.64629e-05 0)
(0.287395 0.000731338 0)
(0.28739 0.00143768 0)
(0.287404 0.00214426 0)
(0.287434 0.00284982 0)
(0.287483 0.00355311 0)
(0.287548 0.00425289 0)
(0.287632 0.00494793 0)
(0.287732 0.005637 0)
(0.287848 0.0063189 0)
(0.287981 0.00699243 0)
(0.28813 0.00765648 0)
(0.288294 0.00831025 0)
(0.288472 0.008953 0)
(0.288665 0.00958116 0)
(0.290703 -0.00273304 0)
(0.290633 -0.00217644 0)
(0.290575 -0.00161464 0)
(0.290528 -0.00104844 0)
(0.290492 -0.00047867 0)
(0.290468 9.38075e-05 0)
(0.290457 0.000668105 0)
(0.290457 0.00124332 0)
(0.290469 0.00181852 0)
(0.290494 0.00239279 0)
(0.290531 0.00296519 0)
(0.290579 0.00353478 0)
(0.29064 0.00410065 0)
(0.290713 0.00466187 0)
(0.290797 0.00521756 0)
(0.290893 0.00576683 0)
(0.291 0.00630883 0)
(0.291118 0.00684286 0)
(0.291246 0.0073684 0)
(0.291385 0.00788407 0)
(0.293284 -0.00217977 0)
(0.293237 -0.00172274 0)
(0.293198 -0.00126211 0)
(0.293167 -0.000798481 0)
(0.293143 -0.000332462 0)
(0.293127 0.000135316 0)
(0.29312 0.000604213 0)
(0.29312 0.00107358 0)
(0.293129 0.00154276 0)
(0.293147 0.0020111 0)
(0.293172 0.00247794 0)
(0.293206 0.00294263 0)
(0.293247 0.0034045 0)
(0.293297 0.00386292 0)
(0.293355 0.00431726 0)
(0.29342 0.00476686 0)
(0.293493 0.00521112 0)
(0.293574 0.00564963 0)
(0.293661 0.006082 0)
(0.293755 0.00650642 0)
(0.295269 -0.00171852 0)
(0.295239 -0.00135128 0)
(0.295214 -0.000981468 0)
(0.295193 -0.000609525 0)
(0.295179 -0.000235904 0)
(0.295169 0.00013893 0)
(0.295165 0.000514504 0)
(0.295167 0.000890338 0)
(0.295174 0.00126595 0)
(0.295186 0.00164084 0)
(0.295204 0.00201453 0)
(0.295228 0.00238653 0)
(0.295257 0.00275636 0)
(0.295291 0.00312353 0)
(0.295331 0.00348758 0)
(0.295376 0.00384803 0)
(0.295426 0.00420444 0)
(0.295481 0.00455643 0)
(0.295541 0.00490379 0)
(0.295606 0.00524564 0)
(0.296931 -0.00133243 0)
(0.296913 -0.00104241 0)
(0.296897 -0.000750588 0)
(0.296885 -0.000457277 0)
(0.296876 -0.000162816 0)
(0.29687 0.000132455 0)
(0.296867 0.000428194 0)
(0.296868 0.000724053 0)
(0.296873 0.00101968 0)
(0.296881 0.00131473 0)
(0.296892 0.00160885 0)
(0.296906 0.00190168 0)
(0.296924 0.00219289 0)
(0.296946 0.00248212 0)
(0.29697 0.00276903 0)
(0.296998 0.00305329 0)
(0.297029 0.00333455 0)
(0.297062 0.0036126 0)
(0.297099 0.00388731 0)
(0.297139 0.00415762 0)
(0.298167 -0.00099212 0)
(0.298156 -0.000773792 0)
(0.298147 -0.000554213 0)
(0.29814 -0.000333613 0)
(0.298135 -0.000112229 0)
(0.298132 0.000109697 0)
(0.298131 0.000331922 0)
(0.298132 0.000554198 0)
(0.298135 0.000776278 0)
(0.29814 0.000997911 0)
(0.298147 0.00121885 0)
(0.298155 0.00143884 0)
(0.298166 0.00165764 0)
(0.298179 0.00187501 0)
(0.298193 0.0020907 0)
(0.29821 0.00230446 0)
(0.298228 0.00251607 0)
(0.298248 0.00272535 0)
(0.29827 0.00293224 0)
(0.298294 0.00313613 0)
(0.299102 -0.000688315 0)
(0.299097 -0.000535263 0)
(0.299093 -0.00038139 0)
(0.299089 -0.000226851 0)
(0.299087 -7.18059e-05 0)
(0.299086 8.35827e-05 0)
(0.299085 0.000239151 0)
(0.299085 0.000394734 0)
(0.299087 0.000550165 0)
(0.299089 0.000705278 0)
(0.299092 0.000859907 0)
(0.299096 0.00101388 0)
(0.299101 0.00116705 0)
(0.299107 0.00131923 0)
(0.299114 0.00147027 0)
(0.299121 0.00162 0)
(0.29913 0.00176826 0)
(0.299139 0.00191495 0)
(0.299149 0.00206003 0)
(0.29916 0.00220288 0)
(0.2997 -0.000404714 0)
(0.299698 -0.000314416 0)
(0.299697 -0.000223655 0)
(0.299696 -0.000132521 0)
(0.299695 -4.11057e-05 0)
(0.299694 5.04964e-05 0)
(0.299694 0.000142191 0)
(0.299694 0.000233882 0)
(0.299695 0.000325474 0)
(0.299695 0.00041687 0)
(0.299696 0.000507973 0)
(0.299698 0.000598689 0)
(0.299699 0.000688921 0)
(0.299701 0.000778577 0)
(0.299703 0.000867562 0)
(0.299705 0.000955781 0)
(0.299708 0.00104313 0)
(0.29971 0.00112956 0)
(0.299713 0.00121511 0)
(0.299715 0.0012996 0)
(0.299992 -0.000134437 0)
(0.299992 -0.000104249 0)
(0.299992 -7.39043e-05 0)
(0.299992 -4.34292e-05 0)
(0.299992 -1.2854e-05 0)
(0.299991 1.77925e-05 0)
(0.299991 4.84812e-05 0)
(0.299991 7.91834e-05 0)
(0.299991 0.000109871 0)
(0.299991 0.000140515 0)
(0.299991 0.000171089 0)
(0.299991 0.000201568 0)
(0.299991 0.000231926 0)
(0.299991 0.000262141 0)
(0.299991 0.000292193 0)
(0.299991 0.000322057 0)
(0.29999 0.000351724 0)
(0.29999 0.00038125 0)
(0.29999 0.000410749 0)
(0.299989 0.000439713 0)
(0.293819 -0.0961449 0)
(0.29261 -0.099887 0)
(0.291546 -0.104117 0)
(0.290718 -0.108975 0)
(0.290217 -0.114543 0)
(0.290107 -0.120868 0)
(0.290393 -0.127969 0)
(0.290993 -0.135816 0)
(0.291707 -0.144322 0)
(0.2922 -0.153328 0)
(0.291996 -0.162597 0)
(0.290493 -0.171818 0)
(0.286991 -0.18061 0)
(0.280737 -0.188536 0)
(0.270964 -0.1951 0)
(0.256934 -0.199775 0)
(0.237965 -0.202135 0)
(0.213448 -0.201976 0)
(0.182837 -0.198655 0)
(0.145603 -0.188677 0)
(0.286799 -0.0701755 0)
(0.284501 -0.0709766 0)
(0.281814 -0.0718338 0)
(0.278745 -0.0727102 0)
(0.275313 -0.0736661 0)
(0.271556 -0.0747791 0)
(0.267536 -0.0761338 0)
(0.263346 -0.0778202 0)
(0.259094 -0.0799246 0)
(0.25489 -0.0825154 0)
(0.250815 -0.085626 0)
(0.246892 -0.089237 0)
(0.243047 -0.0932579 0)
(0.239086 -0.0975128 0)
(0.234685 -0.101731 0)
(0.229412 -0.105546 0)
(0.222782 -0.108498 0)
(0.214299 -0.110006 0)
(0.203523 -0.109313 0)
(0.190302 -0.105624 0)
(0.28278 -0.0745463 0)
(0.2814 -0.0757315 0)
(0.279859 -0.0768556 0)
(0.278119 -0.0779186 0)
(0.276123 -0.0788806 0)
(0.273806 -0.0797021 0)
(0.271097 -0.0803496 0)
(0.267927 -0.080796 0)
(0.264236 -0.0810233 0)
(0.259986 -0.0810243 0)
(0.255165 -0.0808029 0)
(0.249795 -0.0803715 0)
(0.243932 -0.0797446 0)
(0.23767 -0.0789297 0)
(0.231124 -0.077915 0)
(0.224428 -0.0766577 0)
(0.217711 -0.0750726 0)
(0.211091 -0.0730212 0)
(0.204676 -0.0703139 0)
(0.198587 -0.0667517 0)
(0.276513 -0.055071 0)
(0.274476 -0.0554293 0)
(0.272378 -0.0558129 0)
(0.270228 -0.0561933 0)
(0.268037 -0.0565666 0)
(0.265817 -0.0569222 0)
(0.263574 -0.0572403 0)
(0.261311 -0.0574932 0)
(0.25902 -0.0576463 0)
(0.256684 -0.0576583 0)
(0.254278 -0.0574837 0)
(0.251768 -0.0570745 0)
(0.249114 -0.0563836 0)
(0.246279 -0.0553682 0)
(0.243234 -0.0539918 0)
(0.239961 -0.0522269 0)
(0.236464 -0.0500549 0)
(0.232772 -0.0474667 0)
(0.228942 -0.0444627 0)
(0.225059 -0.0410542 0)
(0.278554 -0.0506157 0)
(0.277102 -0.0504448 0)
(0.275523 -0.0501873 0)
(0.273815 -0.0498463 0)
(0.271976 -0.0494163 0)
(0.270005 -0.0488931 0)
(0.267902 -0.0482744 0)
(0.265674 -0.0475586 0)
(0.263331 -0.0467442 0)
(0.260888 -0.0458287 0)
(0.258365 -0.0448082 0)
(0.255787 -0.0436759 0)
(0.253179 -0.0424219 0)
(0.25057 -0.0410326 0)
(0.247987 -0.0394911 0)
(0.245456 -0.0377778 0)
(0.243003 -0.035872 0)
(0.240649 -0.0337538 0)
(0.238413 -0.0314063 0)
(0.236313 -0.0288184 0)
(0.27808 -0.0403602 0)
(0.27679 -0.0401167 0)
(0.275486 -0.0398279 0)
(0.274167 -0.0394846 0)
(0.272835 -0.0390781 0)
(0.271489 -0.0385991 0)
(0.270128 -0.0380378 0)
(0.268751 -0.0373839 0)
(0.267355 -0.0366275 0)
(0.265939 -0.0357593 0)
(0.2645 -0.0347705 0)
(0.263036 -0.0336539 0)
(0.26155 -0.0324039 0)
(0.260042 -0.0310166 0)
(0.258519 -0.0294898 0)
(0.256988 -0.0278234 0)
(0.255461 -0.0260187 0)
(0.253951 -0.0240788 0)
(0.252477 -0.0220079 0)
(0.251057 -0.0198116 0)
(0.280742 -0.0346072 0)
(0.279725 -0.0341187 0)
(0.278667 -0.033576 0)
(0.277571 -0.0329799 0)
(0.27644 -0.0323288 0)
(0.275276 -0.0316212 0)
(0.274086 -0.0308557 0)
(0.272875 -0.0300308 0)
(0.271648 -0.0291445 0)
(0.270414 -0.0281949 0)
(0.269181 -0.0271793 0)
(0.267955 -0.0260951 0)
(0.266746 -0.0249393 0)
(0.265563 -0.0237086 0)
(0.264413 -0.0224002 0)
(0.263304 -0.0210114 0)
(0.262243 -0.0195399 0)
(0.261239 -0.0179846 0)
(0.260298 -0.0163452 0)
(0.259425 -0.0146226 0)
(0.282683 -0.0286604 0)
(0.281901 -0.0281933 0)
(0.281113 -0.0276834 0)
(0.280321 -0.0271308 0)
(0.279527 -0.0265322 0)
(0.278729 -0.0258846 0)
(0.277931 -0.0251852 0)
(0.277132 -0.0244316 0)
(0.276334 -0.0236218 0)
(0.275539 -0.0227541 0)
(0.274748 -0.0218273 0)
(0.273963 -0.0208405 0)
(0.273187 -0.0197935 0)
(0.272423 -0.0186864 0)
(0.271676 -0.0175201 0)
(0.270948 -0.0162957 0)
(0.270244 -0.0150149 0)
(0.269571 -0.0136798 0)
(0.268932 -0.012293 0)
(0.268334 -0.0108574 0)
(0.285264 -0.0241494 0)
(0.284643 -0.0236381 0)
(0.284013 -0.0230927 0)
(0.283375 -0.0225139 0)
(0.282732 -0.021901 0)
(0.282085 -0.0212533 0)
(0.281437 -0.0205702 0)
(0.28079 -0.0198513 0)
(0.280147 -0.0190962 0)
(0.279511 -0.0183043 0)
(0.278886 -0.0174753 0)
(0.278273 -0.0166089 0)
(0.277678 -0.0157047 0)
(0.277101 -0.0147627 0)
(0.276548 -0.013783 0)
(0.27602 -0.0127658 0)
(0.275521 -0.0117117 0)
(0.275053 -0.0106216 0)
(0.274619 -0.00949666 0)
(0.274222 -0.0083384 0)
(0.287601 -0.020287 0)
(0.287142 -0.0198181 0)
(0.286683 -0.0193207 0)
(0.286225 -0.0187965 0)
(0.285769 -0.0182445 0)
(0.285315 -0.0176638 0)
(0.284864 -0.0170538 0)
(0.284419 -0.0164141 0)
(0.283979 -0.0157445 0)
(0.283546 -0.0150449 0)
(0.283121 -0.0143152 0)
(0.282706 -0.0135559 0)
(0.282303 -0.0127673 0)
(0.281912 -0.01195 0)
(0.281536 -0.0111048 0)
(0.281176 -0.0102327 0)
(0.280835 -0.00933476 0)
(0.280514 -0.00841232 0)
(0.280215 -0.00746683 0)
(0.279941 -0.00649989 0)
(0.289855 -0.0170259 0)
(0.289498 -0.016583 0)
(0.289141 -0.0161188 0)
(0.288785 -0.0156344 0)
(0.28843 -0.0151292 0)
(0.288078 -0.0146031 0)
(0.287729 -0.0140561 0)
(0.287385 -0.0134882 0)
(0.287046 -0.0128994 0)
(0.286715 -0.01229 0)
(0.286392 -0.01166 0)
(0.286079 -0.0110097 0)
(0.285777 -0.0103394 0)
(0.285487 -0.00964959 0)
(0.285211 -0.00894066 0)
(0.28495 -0.00821325 0)
(0.284705 -0.00746805 0)
(0.284477 -0.00670588 0)
(0.284268 -0.00592766 0)
(0.284078 -0.00513444 0)
(0.291912 -0.0143079 0)
(0.291655 -0.0139146 0)
(0.2914 -0.0135036 0)
(0.291147 -0.0130765 0)
(0.290896 -0.0126329 0)
(0.290648 -0.0121727 0)
(0.290404 -0.0116959 0)
(0.290165 -0.0112024 0)
(0.28993 -0.0106925 0)
(0.289701 -0.0101662 0)
(0.289479 -0.00962405 0)
(0.289263 -0.0090662 0)
(0.289056 -0.00849312 0)
(0.288857 -0.00790529 0)
(0.288667 -0.00730329 0)
(0.288488 -0.00668775 0)
(0.288319 -0.00605938 0)
(0.288163 -0.00541895 0)
(0.288019 -0.00476729 0)
(0.287888 -0.00410531 0)
(0.293724 -0.0119086 0)
(0.293532 -0.0115601 0)
(0.293342 -0.0111985 0)
(0.293153 -0.0108247 0)
(0.292966 -0.0104385 0)
(0.292782 -0.0100399 0)
(0.292602 -0.00962896 0)
(0.292424 -0.00920588 0)
(0.292251 -0.00877082 0)
(0.292083 -0.00832399 0)
(0.29192 -0.00786565 0)
(0.291763 -0.00739607 0)
(0.291612 -0.0069156 0)
(0.291468 -0.00642459 0)
(0.291332 -0.00592346 0)
(0.291204 -0.00541267 0)
(0.291085 -0.00489273 0)
(0.290975 -0.00436418 0)
(0.290874 -0.00382761 0)
(0.290783 -0.00328367 0)
(0.295327 -0.00986093 0)
(0.295194 -0.00956232 0)
(0.295064 -0.00925307 0)
(0.294934 -0.00893425 0)
(0.294807 -0.00860576 0)
(0.294682 -0.00826756 0)
(0.294559 -0.00791974 0)
(0.294439 -0.00756247 0)
(0.294323 -0.00719591 0)
(0.294209 -0.00682027 0)
(0.2941 -0.00643579 0)
(0.293994 -0.00604273 0)
(0.293893 -0.0056414 0)
(0.293797 -0.00523214 0)
(0.293705 -0.0048153 0)
(0.29362 -0.0043913 0)
(0.29354 -0.00396055 0)
(0.293466 -0.00352353 0)
(0.293398 -0.00308071 0)
(0.293338 -0.00263261 0)
(0.296669 -0.00800106 0)
(0.296577 -0.00775005 0)
(0.296486 -0.0074912 0)
(0.296397 -0.00722514 0)
(0.296308 -0.0069518 0)
(0.296222 -0.00667121 0)
(0.296137 -0.00638347 0)
(0.296054 -0.00608874 0)
(0.295973 -0.00578716 0)
(0.295895 -0.00547892 0)
(0.29582 -0.00516421 0)
(0.295748 -0.00484324 0)
(0.295679 -0.00451625 0)
(0.295613 -0.00418349 0)
(0.295551 -0.00384524 0)
(0.295494 -0.0035018 0)
(0.29544 -0.00315348 0)
(0.29539 -0.00280063 0)
(0.295345 -0.0024436 0)
(0.295305 -0.00208277 0)
(0.297796 -0.00634996 0)
(0.297738 -0.00614671 0)
(0.297682 -0.00593727 0)
(0.297626 -0.0057224 0)
(0.297571 -0.00550203 0)
(0.297517 -0.00527615 0)
(0.297465 -0.00504488 0)
(0.297414 -0.00480832 0)
(0.297364 -0.00456661 0)
(0.297316 -0.00431989 0)
(0.29727 -0.00406834 0)
(0.297225 -0.00381211 0)
(0.297183 -0.00355141 0)
(0.297143 -0.00328644 0)
(0.297105 -0.00301742 0)
(0.297069 -0.00274459 0)
(0.297036 -0.00246819 0)
(0.297006 -0.00218849 0)
(0.296978 -0.00190578 0)
(0.296953 -0.00162032 0)
(0.298677 -0.00480764 0)
(0.298643 -0.0046507 0)
(0.298609 -0.00448937 0)
(0.298576 -0.00432415 0)
(0.298544 -0.00415498 0)
(0.298512 -0.00398187 0)
(0.298481 -0.00380491 0)
(0.29845 -0.00362419 0)
(0.298421 -0.00343981 0)
(0.298392 -0.00325189 0)
(0.298365 -0.00306054 0)
(0.298339 -0.00286589 0)
(0.298314 -0.0026681 0)
(0.29829 -0.00246729 0)
(0.298268 -0.00226365 0)
(0.298247 -0.00205732 0)
(0.298228 -0.0018485 0)
(0.29821 -0.00163737 0)
(0.298194 -0.00142412 0)
(0.29818 -0.00120897 0)
(0.299342 -0.0033774 0)
(0.299326 -0.0032662 0)
(0.29931 -0.0031518 0)
(0.299295 -0.00303475 0)
(0.299279 -0.002915 0)
(0.299265 -0.00279254 0)
(0.29925 -0.00266743 0)
(0.299236 -0.00253975 0)
(0.299222 -0.00240958 0)
(0.299208 -0.002277 0)
(0.299196 -0.00214208 0)
(0.299183 -0.00200492 0)
(0.299171 -0.00186563 0)
(0.29916 -0.00172431 0)
(0.29915 -0.00158106 0)
(0.29914 -0.00143602 0)
(0.299131 -0.00128929 0)
(0.299122 -0.00114102 0)
(0.299115 -0.000991343 0)
(0.299108 -0.000840391 0)
(0.299778 -0.00199809 0)
(0.299773 -0.00193166 0)
(0.299768 -0.00186352 0)
(0.299764 -0.00179388 0)
(0.299759 -0.00172267 0)
(0.299754 -0.00164989 0)
(0.299749 -0.00157558 0)
(0.299744 -0.00149979 0)
(0.29974 -0.00142257 0)
(0.299735 -0.00134396 0)
(0.299731 -0.00126401 0)
(0.299727 -0.00118278 0)
(0.299723 -0.00110032 0)
(0.299719 -0.0010167 0)
(0.299716 -0.000931984 0)
(0.299712 -0.000846238 0)
(0.299709 -0.000759536 0)
(0.299707 -0.000671953 0)
(0.299704 -0.000583567 0)
(0.299702 -0.00049446 0)
(0.299991 -0.000670425 0)
(0.299992 -0.0006477 0)
(0.299992 -0.000624242 0)
(0.299992 -0.000600484 0)
(0.299992 -0.000576331 0)
(0.299992 -0.000551721 0)
(0.299992 -0.000526653 0)
(0.299992 -0.000501134 0)
(0.299992 -0.000475171 0)
(0.299992 -0.000448775 0)
(0.299992 -0.000421956 0)
(0.299992 -0.000394728 0)
(0.299992 -0.000367108 0)
(0.299992 -0.000339112 0)
(0.299992 -0.00031076 0)
(0.299992 -0.000282074 0)
(0.299992 -0.000253075 0)
(0.299992 -0.000223787 0)
(0.299992 -0.000194235 0)
(0.299992 -0.000164442 0)
(0.0736407 -0.0852988 0)
(0.0541876 -0.0690138 0)
(0.041251 -0.054795 0)
(0.0319892 -0.0434265 0)
(0.0250127 -0.0341781 0)
(0.0195793 -0.0265495 0)
(0.0152534 -0.0202717 0)
(0.0117585 -0.0151475 0)
(0.00890841 -0.0110083 0)
(0.00657201 -0.0077108 0)
(0.00465374 -0.00513389 0)
(0.0030826 -0.00317308 0)
(0.00180588 -0.00173659 0)
(0.000785521 -0.000742148 0)
(-3.62338e-06 -0.000114027 0)
(-0.000574228 0.000220005 0)
(-0.000925725 0.00033104 0)
(-0.00104298 0.000284992 0)
(-0.000896096 0.000155993 0)
(-0.000432221 4.08409e-05 0)
(0.115225 -0.0662772 0)
(0.0979987 -0.0599238 0)
(0.0833275 -0.0528185 0)
(0.0707418 -0.0460112 0)