/*--------------------------------*- C++ -*----------------------------------*\
| =========                 |                                                 |
| \\      /  F ield         | OpenFOAM: The Open Source CFD Toolbox           |
|  \\    /   O peration     | Version:  v1806                                 |
|   \\  /    A nd           | Web:      www.OpenFOAM.com                      |
|    \\/     M anipulation  |                                                 |
\*---------------------------------------------------------------------------*/
FoamFile
{
    version     2.0;
    format      ascii;
    class       surfaceScalarField;
    location    "110";
    object      phi;
}
// * * * * * * * * * * * * * * * * * * * * * * * * * * * * * * * * * * * * * //

dimensions      [0 3 -1 0 0 0 0];
oriented        oriented;


internalField   nonuniform List<scalar> 
4680
(
0.0749982
-0.00058709
0.0749938
-0.00189387
0.0749825
-0.0030888
0.0749679
-0.00452669
0.074942
-0.00582291
0.074913
-0.00751003
0.0748658
-0.00898163
0.0748183
-0.0110147
0.0747427
-0.0127367
0.0746729
-0.0152278
0.0745612
-0.0172502
0.0744689
-0.0201989
0.0743225
-0.0225549
0.0742128
-0.0258814
0.0740475
-0.028512
0.0739403
-0.0318306
0.0738102
-0.0345413
0.073742
-0.0373266
0.0737109
-0.039647
-0.0413924
0.073735
0.0749957
-0.000582836
0.0749861
-0.00188418
0.0749648
-0.00306749
0.0749394
-0.00450133
0.0748963
-0.00577982
0.0748523
-0.00746606
0.0747796
-0.00890892
0.0747146
-0.0109497
0.0746033
-0.0126254
0.0745176
-0.0151421
0.0743587
-0.0170912
0.074261
-0.0201012
0.0740591
-0.0223531
0.0739686
-0.0257908
0.0737554
-0.0282988
0.0737053
-0.0317805
0.073572
-0.034408
0.0735934
-0.037348
0.0736433
-0.0396969
-0.0415144
0.0737653
0.0749932
-0.000576042
0.0749773
-0.00186825
0.0749439
-0.00303407
0.0749044
-0.00446187
0.0748397
-0.0057151
0.074775
-0.00740134
0.0746702
-0.00880412
0.0745799
-0.0108594
0.0744252
-0.0124707
0.0743146
-0.0150316
0.0741014
-0.016878
0.0739898
-0.0199897
0.0737283
-0.0220916
0.0736524
-0.0257149
0.0733899
-0.0280364
0.0734026
-0.0317932
0.0732639
-0.0342693
0.0733941
-0.0374781
0.073525
-0.0398278
-0.0417508
0.0737614
0.0749909
-0.000566907
0.0749683
-0.00184571
0.0749229
-0.00298865
0.074868
-0.00440699
0.0747813
-0.00562842
0.0746932
-0.00731315
0.0745557
-0.00866669
0.0744358
-0.0107395
0.0742374
-0.0122723
0.0740958
-0.01489
0.0738285
-0.0166107
0.0736961
-0.0198572
0.0733746
-0.0217701
0.0733083
-0.0256486
0.0729917
-0.0277197
0.073071
-0.0318725
0.0729115
-0.0341099
0.0731699
-0.0377365
0.0733667
-0.0400246
-0.0421197
0.0737355
0.0749887
-0.000555643
0.0749593
-0.00181626
0.0749024
-0.00293175
0.0748314
-0.00433602
0.0747235
-0.00552054
0.0746103
-0.00719991
0.0744412
-0.00849762
0.0742887
-0.010587
0.0740478
-0.0120314
0.0738706
-0.0147129
0.0735503
-0.0162903
0.0733908
-0.0196978
0.0730078
-0.021387
0.0729459
-0.0255867
0.0725665
-0.0273404
0.0727157
-0.0320217
0.0725139
-0.0339081
0.0729244
-0.038147
0.0731622
-0.0402623
-0.0426502
0.0736927
0.0749868
-0.000542474
0.0749502
-0.00177961
0.0748825
-0.00286403
0.0747948
-0.00424838
0.0746668
-0.00539254
0.0745272
-0.00706027
0.0743281
-0.00829853
0.0741402
-0.0103992
0.0738587
-0.0117498
0.0736411
-0.0144952
0.073269
-0.0159182
0.0730754
-0.0195041
0.0726292
-0.0209409
0.0725643
-0.0255218
0.0721131
-0.0268891
0.0723326
-0.0322412
0.0720653
-0.0336408
0.0726542
-0.0387359
0.0729006
-0.0405087
-0.0433889
0.0736392
0.0749851
-0.000527609
0.074941
-0.00173549
0.0748631
-0.00278613
0.0747583
-0.00414353
0.0746113
-0.0052456
0.074444
-0.00689291
0.0742167
-0.00807126
0.0739905
-0.010173
0.0736709
-0.0114302
0.0734069
-0.0142312
0.0729855
-0.0154969
0.0727483
-0.0192669
0.0722386
-0.0204312
0.07216
-0.0254433
0.0716284
-0.0263575
0.0719148
-0.0325275
0.0715595
-0.0332855
0.0723519
-0.0395283
0.0725702
-0.040727
-0.0444025
0.0735838
0.0749836
-0.000511202
0.0749319
-0.00168375
0.0748444
-0.00269864
0.0747219
-0.00402109
0.0745572
-0.00508086
0.0743609
-0.00669657
0.0741074
-0.00781779
0.0738396
-0.00990517
0.0734848
-0.0110754
0.0731673
-0.0139138
0.0727004
-0.0150299
0.0724069
-0.0189735
0.071836
-0.0198602
0.0717278
-0.0253351
0.0711096
-0.0257393
0.0714547
-0.0328726
0.0709887
-0.0328195
0.0720067
-0.0405464
0.0721614
-0.0408817
-0.045775
0.0735339
0.0749821
-0.000493311
0.0749228
-0.00162441
0.0748261
-0.00260198
0.074686
-0.00388094
0.0745043
-0.00489923
0.0742781
-0.00647037
0.0740002
-0.00753985
0.0736876
-0.00959262
0.0733009
-0.0106886
0.0729218
-0.0135347
0.0724146
-0.0145227
0.0720483
-0.0186072
0.0714226
-0.0192345
0.071261
-0.0251735
0.0705553
-0.0250337
0.0709443
-0.0332616
0.0703427
-0.0322178
0.0716082
-0.0418119
0.0716667
-0.0409401
-0.0475951
0.0734869
0.0749806
-0.000473879
0.0749139
-0.00155771
0.0748082
-0.00249633
0.0746507
-0.00372342
0.0744526
-0.00470117
0.0741964
-0.00621413
0.0738951
-0.00723857
0.0735354
-0.00923295
0.0731194
-0.0102726
0.0726703
-0.0130855
0.0721293
-0.0139817
0.0716692
-0.0181471
0.0710012
-0.0185666
0.0707498
-0.024922
0.0699683
-0.0242522
0.0703719
-0.0336651
0.0696098
-0.0314557
0.0711525
-0.0433546
0.071073
-0.0408607
-0.0499443
0.0734222
0.0749789
-0.000452735
0.0749053
-0.00148416
0.0747906
-0.00238158
0.0746165
-0.00354937
0.0744019
-0.00448657
0.0741165
-0.00592875
0.0737918
-0.00691388
0.0733847
-0.00882578
0.0729403
-0.00982824
0.0724147
-0.0125599
0.0718448
-0.0134119
0.0712679
-0.0175701
0.0705743
-0.0178729
0.0701819
-0.0245297
0.0693562
-0.0234265
0.0697144
-0.0340233
0.0687856
-0.0305269
0.0706439
-0.0452129
0.0703409
-0.0405577
-0.052916
0.0733126
0.0749769
-0.000429646
0.0748972
-0.00140444
0.0747731
-0.00225747
0.0745838
-0.00336014
0.0743521
-0.0042548
0.0740396
-0.00561624
0.07369
-0.0065643
0.0732375
-0.00837327
0.0727624
-0.00935316
0.0721595
-0.011957
0.0715608
-0.0128131
0.0708479
-0.0168573
0.0701422
-0.0171673
0.0695453
-0.0239327
0.0687283
-0.0226096
0.06893
-0.034225
0.067888
-0.0294849
0.0700768
-0.0474017
0.0693843
-0.0398652
-0.0567117
0.0731801
0.0749748
-0.0004044
0.0748896
-0.0013193
0.0747558
-0.00212367
0.074553
-0.00315731
0.0743031
-0.00400496
0.0739664
-0.00527946
0.0735894
-0.00618734
0.0730961
-0.00788
0.0725845
-0.00884153
0.0719101
-0.0112826
0.0712728
-0.0121758
0.0704226
-0.0160071
0.0697035
-0.0164481
0.0688351
-0.0230643
0.0680861
-0.0218607
0.0679626
-0.0341015
0.0669632
-0.0284855
0.0693809
-0.0498194
0.0681032
-0.0385874
-0.0618152
0.0732067
0.0749725
-0.000376901
0.0748826
-0.0012294
0.074739
-0.00198008
0.0745241
-0.00294242
0.0742556
-0.00373642
0.0738976
-0.00492145
0.0734907
-0.00578045
0.0729625
-0.00735184
0.0724067
-0.00828568
0.0716716
-0.0105476
0.0709769
-0.0114811
0.0700058
-0.015036
0.0692436
-0.0156859
0.0680939
-0.0219147
0.0674179
-0.0211847
0.0667594
-0.033443
0.0660553
-0.0277814
0.0683591
-0.0521232
0.0665135
-0.0367419
-0.0691001
0.0737984
0.0749703
-0.000347251
0.0748761
-0.00113515
0.074723
-0.00182701
0.0744972
-0.00271661
0.0742101
-0.00344932
0.0738333
-0.00454465
0.0733952
-0.0053423
0.0728373
-0.006794
0.0722308
-0.00767915
0.0714472
-0.00976398
0.0706736
-0.0107074
0.0696093
-0.0139716
0.0687456
-0.0148223
0.0673662
-0.0205353
0.0666913
-0.0205097
0.0653144
-0.032066
0.06514
-0.027607
0.0667076
-0.0536908
0.064915
-0.0349493
-0.0795245
0.0753394
0.0749685
-0.000315772
0.07487
-0.00103667
0.0747084
-0.00166532
0.0744722
-0.00248044
0.0741678
-0.00314494
0.0737734
-0.00415025
0.073305
-0.00487394
0.0727203
-0.00620928
0.0720612
-0.00702004
0.0712369
-0.0089397
0.0703694
-0.00983991
0.0692374
-0.0128396
0.068211
-0.0137959
0.0666791
-0.0190034
0.0658148
-0.0196454
0.0638876
-0.0301389
0.0641023
-0.0278216
0.0641963
-0.0537848
0.0638253
-0.0345783
-0.0931896
0.0774905
0.0749672
-0.000282961
0.0748643
-0.000933815
0.0746954
-0.00149637
0.0744488
-0.00223389
0.0741296
-0.00282569
0.0737175
-0.00373818
0.0732226
-0.00437908
0.0726107
-0.0055973
0.0719035
-0.00631282
0.0710386
-0.00807485
0.0700771
-0.00887839
0.0688851
-0.0116476
0.067662
-0.0125728
0.0660333
-0.0173747
0.0647871
-0.0183992
0.0625665
-0.0279183
0.0626708
-0.0279259
0.0606355
-0.0517495
0.0634596
-0.0374025
-0.10816
0.0784303
0.0749664
-0.000249376
0.074859
-0.000826353
0.0746843
-0.00132176
0.0744272
-0.00197677
0.0740962
-0.00249466
0.0736657
-0.0033077
0.0731499
-0.00386327
0.0725082
-0.00495563
0.0717626
-0.00556723
0.0708505
-0.00716276
0.0698108
-0.00783863
0.0685443
-0.0103811
0.0671375
-0.011166
0.0654015
-0.0156387
0.0636809
-0.0166787
0.0613154
-0.0255527
0.0604704
-0.0270809
0.0572333
-0.0485123
0.0631203
-0.0432895
-0.119943
0.0749031
0.0749661
-0.000215491
0.074854
-0.000714206
0.0746753
-0.00114308
0.0744076
-0.00170906
0.0740679
-0.00215503
0.0736186
-0.00285831
0.0730878
-0.00333254
0.072414
-0.00428181
0.0716419
-0.00479514
0.070674
-0.00619488
0.0695807
-0.00674527
0.0682132
-0.00901355
0.0666743
-0.00962721
0.0647552
-0.0137196
0.0626294
-0.0145529
0.0599906
-0.0229139
0.057737
-0.0248273
0.0541549
-0.0449303
0.0609279
-0.0500624
-0.122375
0.0633601
0.0749659
-0.000181434
0.0748498
-0.000598016
0.0746678
-0.000961124
0.0743906
-0.00143186
0.0740442
-0.00180862
0.0735775
-0.00239167
0.0730356
-0.00279061
0.0723312
-0.0035774
0.0715404
-0.00400437
0.0705158
-0.00517026
0.0693873
-0.00561674
0.0679048
-0.00753111
0.0662838
-0.00800617
0.0641087
-0.0115445
0.0617256
-0.0121697
0.0584964
-0.0196848
0.0550141
-0.021345
0.0502878
-0.040204
0.0507859
-0.0505606
0.0406884
-0.112278
0.0738139
-0.0387099
0.0739297
-0.0392727
0.0740646
-0.0393966
0.0742054
-0.0392418
0.0743414
-0.0389351
0.074465
-0.0385509
0.07457
-0.0381532
0.0746523
-0.0378
0.0747087
-0.0375271
-0.0373561
0.0747381
0.0739516
-0.0388962
0.0741546
-0.0394757
0.074347
-0.0395889
0.0745238
-0.0394186
0.0746774
-0.0390888
0.0748006
-0.0386741
0.0748917
-0.0382444
0.0749524
-0.0378607
0.0749837
-0.0375584
-0.0373597
0.0749873
0.0740682
-0.039203
0.0743652
-0.0397727
0.0746211
-0.0398448
0.0748385
-0.0396361
0.0750116
-0.0392618
0.075135
-0.0387975
0.0752138
-0.0383232
0.075256
-0.0379029
0.0752674
-0.0375698
-0.0373432
0.0752509
0.0741759
-0.0396434
0.0745708
-0.0401676
0.0748941
-0.0401681
0.0751544
-0.0398963
0.075346
-0.0394534
0.0754691
-0.0389206
0.0755378
-0.0383919
0.075567
-0.037932
0.0755649
-0.0375678
-0.0373095
0.0755312
0.0742819
-0.0402326
0.0747781
-0.0406638
0.075172
-0.040562
0.0754757
-0.0402001
0.0756848
-0.0396625
0.0758092
-0.0390451
0.0758744
-0.0384571
0.0758979
-0.0379555
0.0758845
-0.0375544
-0.0372458
0.0758208
0.0743925
-0.0409859
0.074992
-0.0412633
0.0754594
-0.0410294
0.0758073
-0.040548
0.0760361
-0.0398913
0.0761699
-0.0391788
0.0762409
-0.0385281
0.0762602
-0.0379748
0.0762174
-0.0375117
-0.0371028
0.0760745
0.0745128
-0.0419148
0.0752157
-0.0419662
0.0757612
-0.0415748
0.0761597
-0.0409464
0.0764197
-0.0401513
0.0765761
-0.0393353
0.0766547
-0.0386067
0.076644
-0.0379641
0.0765058
-0.0373734
-0.0367673
0.0761703
0.0746417
-0.0430227
0.075451
-0.0427755
0.0760906
-0.0422144
0.0765606
-0.0414164
0.0768721
-0.0404629
0.0770545
-0.0395177
0.0771045
-0.0386567
0.0769737
-0.0378333
0.0765914
-0.0369912
-0.0360409
0.075865
0.0747677
-0.0443036
0.0757087
-0.0437164
0.0764871
-0.0429929
0.0770645
-0.0419937
0.077434
-0.0408324
0.0775921
-0.0396757
0.077489
-0.0385536
0.0770409
-0.0373852
0.0761621
-0.0361123
-0.0346456
0.0747669
0.0748653
-0.0457468
0.0760387
-0.0448897
0.0770345
-0.0439888
0.0777356
-0.0426948
0.0780916
-0.0411885
0.078051
-0.0396352
0.0775286
-0.0380311
0.076439
-0.0362957
0.0747255
-0.0343988
-0.0322782
0.0723581
0.0749876
-0.0474218
0.0765687
-0.0464708
0.0778384
-0.0452584
0.0785613
-0.0434177
0.0786538
-0.0412809
0.0780491
-0.0390305
0.076686
-0.036668
0.0745448
-0.0341545
0.071658
-0.031512
-0.0287193
0.0680991
0.0753313
-0.0495731
0.0774825
-0.048622
0.0788983
-0.0466743
0.0792741
-0.0437935
0.0785916
-0.0405984
0.076869
-0.0373079
0.0741683
-0.0339673
0.0706103
-0.0305965
0.0663633
-0.027265
-0.0239771
0.0616211
0.0761847
-0.0525511
0.0788341
-0.0512714
0.079843
-0.0476832
0.0791345
-0.043085
0.0769407
-0.0384046
0.0734998
-0.0338671
0.0690878
-0.0295553
0.0640019
-0.0255106
0.0585367
-0.0217999
-0.0184031
0.0529628
0.0777065
-0.0564592
0.0801698
-0.0537347
0.0796352
-0.0471486
0.0768434
-0.0402932
0.0724172
-0.0339784
0.066911
-0.0283608
0.0608208
-0.0234651
0.0545606
-0.0192503
0.0484526
-0.0156919
-0.0126825
0.042732
0.0793679
-0.0604877
0.0801138
-0.0544806
0.0765179
-0.0435527
0.0707901
-0.0345655
0.0638688
-0.0270571
0.0565815
-0.0210735
0.049488
-0.0163716
0.0429315
-0.0126939
0.0370878
-0.00984815
-0.00762367
0.0320289
0.0794093
-0.0624066
0.0762903
-0.0513616
0.0684833
-0.0357457
0.0597714
-0.0258536
0.051041
-0.0183266
0.0431229
-0.0131554
0.0362909
-0.00953958
0.0305752
-0.00697823
0.0258764
-0.00514926
-0.00382113
0.0220738
0.0749746
-0.0589508
0.0662194
-0.0426063
0.0543851
-0.0239115
0.0440957
-0.0155642
0.0353419
-0.00957278
0.0285312
-0.00634477
0.023276
-0.00428438
0.0192457
-0.00294792
0.0161428
-0.00204633
-0.0014381
0.0137598
0.0630887
-0.0471365
0.0486917
-0.0282094
0.035408
-0.0106277
0.0262892
-0.00644538
0.0198206
-0.0031042
0.0154787
-0.00200291
0.0124156
-0.0012212
0.0102293
-0.000761688
0.00863912
-0.000456125
-0.000263316
0.00746433
0.0423465
-0.026123
0.0255481
-0.0114109
0.0159667
-0.0010463
0.0106813
-0.00115993
0.00773689
-0.000159816
0.00593799
-0.00020401
0.00477424
-5.74501e-05
0.00401515
-2.59742e-06
0.00351607
4.29477e-05
8.65164e-05
0.00316624
0.0145655
0.0031545
0.0021082
0.000948274
0.000788457
0.000584447
0.000526997
0.0005244
0.000567347
0.000653864
0.07474
-0.0354372
0.0747145
-0.0355039
0.0746476
-0.0357152
0.0745128
-0.0360784
0.0742795
-0.0366117
0.0738816
-0.037402
0.073189
-0.0384757
0.0720517
-0.0397705
0.0702514
-0.0414458
0.0673086
-0.0435557
0.0624882
-0.0451581
0.0552104
-0.0450322
0.0457125
-0.043366
0.0353427
-0.0412302
0.0258892
-0.038787
0.0185088
-0.0353201
0.0133781
-0.0304626
0.0101182
-0.0245349
0.00824486
-0.0181612
-0.0119882
0.0749633
-0.0354132
0.0749056
-0.0354462
0.0747899
-0.0355996
0.0745752
-0.0358637
0.0742072
-0.0362436
0.0735841
-0.0367788
0.0725417
-0.0374333
0.0709053
-0.0381341
0.0684271
-0.0389676
0.0646319
-0.0397605
0.0590031
-0.0395292
0.0514659
-0.037495
0.0426315
-0.0345316
0.0336226
-0.0322214
0.0255604
-0.0307249
0.0190985
-0.0288582
0.0143655
-0.0257296
0.0111816
-0.021351
0.00926986
-0.0162495
-0.0111339
0.0752039
-0.0353662
0.0751089
-0.0353513
0.0749265
-0.0354172
0.074596
-0.0355332
0.0740339
-0.0356815
0.0731054
-0.0358503
0.0716329
-0.0359608
0.0694399
-0.0359411
0.0662727
-0.0358004
0.0617206
-0.0352084
0.0555087
-0.0333173
0.0479454
-0.0299316
0.0398694
-0.0264556
0.0321341
-0.024486
0.025303
-0.0238938
0.0196832
-0.0232384
0.0153891
-0.0214355
0.0123743
-0.0183362
0.0104922
-0.0143674
-0.0102227
0.0754533
-0.0352883
0.0752969
-0.0351949
0.0750014
-0.0351217
0.0744823
-0.0350141
0.0736274
-0.0348266
0.0722822
-0.0345051
0.0702745
-0.0339531
0.0674412
-0.0331078
0.0635561
-0.0319154
0.058346
-0.0299983
0.0518104
-0.0267817
0.0444795
-0.0226007
0.037161
-0.0191371
0.0304655
-0.0177906
0.0246647
-0.018093
0.0198584
-0.0184321
0.016092
-0.0176692
0.0133601
-0.0156043
0.0115955
-0.0126028
-0.00931163
0.0756779
-0.0351454
0.0753986
-0.0349155
0.0748989
-0.034622
0.0740723
-0.0341876
0.07279
-0.0335442
0.0709004
-0.0326155
0.06826
-0.0313128
0.0647419
-0.0295897
0.0601837
-0.0273572
0.0544658
-0.0242803
0.0478078
-0.0201237
0.0408751
-0.015668
0.0343946
-0.0126566
0.0287205
-0.0121165
0.0238692
-0.0132417
0.0198042
-0.014367
0.0165453
-0.0144103
0.0141188
-0.0131778
0.0125054
-0.0109894
-0.00843287
0.075785
-0.0348559
0.075267
-0.0343975
0.0744188
-0.0337738
0.0731258
-0.0328945
0.0712653
-0.0316837
0.0687174
-0.0300676
0.0653895
-0.0279849
0.0612069
-0.0254071
0.0560877
-0.0222379
0.0500683
-0.0182609
0.0435401
-0.0135955
0.0372066
-0.00933451
0.0316368
-0.00708676
0.0269412
-0.00742101
0.0229557
-0.00925608
0.0195683
-0.0109797
0.0167906
-0.0116326
0.0146707
-0.0110578
0.0132212
-0.00953999
-0.00760488
0.0755866
-0.0342722
0.0746535
-0.0334644
0.0732696
-0.0323899
0.0713373
-0.0309622
0.0687707
-0.0291172
0.0655066
-0.0268035
0.061513
-0.0239914
0.0567706
-0.0206647
0.0512833
-0.0167507
0.0452266
-0.0122042
0.0390976
-0.00746654
0.0335474
-0.00378434
0.0289397
-0.00247905
0.0251737
-0.00365499
0.0219741
-0.00605645
0.0192009
-0.00820656
0.0168703
-0.00930189
0.0150464
-0.00923395
0.0137639
-0.00825746
-0.00683889
0.0747711
-0.0331784
0.073204
-0.0318973
0.0710916
-0.0302775
0.0683845
-0.0282551
0.065059
-0.0257917
0.0611172
-0.0228617
0.0565797
-0.0194539
0.0514734
-0.0155584
0.0458813
-0.0111586
0.0400838
-0.00640666
0.0346121
-0.00199484
0.0299902
0.000837574
0.0263618
0.00114938
0.0234627
-0.000755907
0.0209684
-0.00356212
0.0187455
-0.00598372
0.0168234
-0.00737978
0.0152786
-0.00768912
0.0141602
-0.00713908
-0.00614144
0.07291
-0.0313215
0.0705
-0.0294872
0.0675264
-0.027304
0.0640112
-0.0247399
0.0599979
-0.0217784
0.0555374
-0.0184012
0.0506778
-0.0145943
0.0454772
-0.0103579
0.0400833
-0.00576471
0.0348427
-0.00116612
0.030241
0.0026069
0.0266345
0.00444412
0.0239569
0.00382699
0.0218447
0.00135629
0.0199731
-0.00169055
0.0182375
-0.00424811
0.0166839
-0.00582625
0.0153977
-0.00640284
0.0144372
-0.00617862
-0.00551572
0.0695228
-0.0284862
0.0661562
-0.0261207
0.0623288
-0.0234765
0.0581308
-0.020542
0.0536458
-0.0172933
0.0489346
-0.01369
0.0440445
-0.00970417
0.0390544
-0.00536769
0.0341639
-0.000874211
0.0297229
0.00327481
0.0261414
0.00618844
0.0235674
0.0070181
0.0217719
0.00562248
0.0203475
0.00278067
0.0190152
-0.000358271
0.0177054
-0.00293826
0.0164806
-0.00460149
0.0154308
-0.005353
0.0146198
-0.00536765
-0.00496254
0.0642162
-0.0246033
0.0599692
-0.0218737
0.0554954
-0.0190027
0.0509114
-0.0159579
0.0462863
-0.0126682
0.0416507
-0.00905438
0.0370377
-0.00509121
0.0325508
-0.000880749
0.0284094
0.00326717
0.0249556
0.00672857
0.0224459
0.00869819
0.0208481
0.00861583
0.0198267
0.00664393
0.0189884
0.00361896
0.0181136
0.000516541
0.0171718
-0.00199642
0.0162374
-0.00366718
0.0154015
-0.00451709
0.0147302
-0.0046963
-0.00448088
0.0568737
-0.0198559
0.0520689
-0.0170689
0.047351
-0.0142848
0.0427905
-0.0113974
0.0383911
-0.00826883
0.03414
-0.00480326
0.0300714
-0.00102256
0.0263123
0.00287831
0.0231062
0.00647327
0.0207127
0.00912203
0.0192377
0.0101733
0.018502
0.0093515
0.0181275
0.00701844
0.0177729
0.00397354
0.0172797
0.00100973
0.0166537
-0.00137037
0.015974
-0.00298757
0.0153301
-0.00387312
0.0147877
-0.00415393
-0.00406839
0.0478234
-0.0147166
0.0429885
-0.012234
0.0385211
-0.00981738
0.0343848
-0.0072611
0.0305107
-0.00439475
0.0268719
-0.00116442
0.0235312
0.00231816
0.0206524
0.00575709
0.0184545
0.00867117
0.0170974
0.0104791
0.0165441
0.0107265
0.0165225
0.00937309
0.0166647
0.00687624
0.0166982
0.00394003
0.0165218
0.0011862
0.0161641
-0.00101272
0.0157065
-0.00252993
0.0152334
-0.00340007
0.0148091
-0.00372956
-0.00372165
0.0378601
-0.00984469
0.0335647
-0.00793866
0.0297652
-0.00601789
0.0263213
-0.00381713
0.0231414
-0.00121486
0.020237
0.00173991
0.0177218
0.0048334
0.0157745
0.00770441
0.0145623
0.00988335
0.0141347
0.0109068
0.0143437
0.0105174
0.0148794
0.00883739
0.0154188
0.0063369
0.0157587
0.00360014
0.0158426
0.00110225
0.0157127
-0.000882768
0.0154477
-0.00226495
0.015126
-0.00307833
0.0148086
-0.00341216
-0.00343652
0.0280313
-0.00584708
0.0246729
-0.0045802
0.0217462
-0.00309122
0.0190791
-0.00115004
0.0166348
0.00122949
0.0144956
0.00387903
0.0128187
0.00651033
0.0117691
0.00875401
0.0114408
0.0102116
0.011783
0.0105646
0.0125804
0.00972002
0.0135291
0.00788869
0.0143654
0.0055006
0.0149454
0.00302016
0.0152434
0.000804299
0.0153064
-0.000945849
0.0152082
-0.00216667
0.0150196
-0.00288982
0.0147985
-0.00319098
-0.00320833
0.0192692
-0.00304247
0.0169523
-0.00226327
0.0148739
-0.00101287
0.0129267
0.000797149
0.011173
0.00298322
0.00976375
0.00528828
0.00887131
0.00740277
0.00861919
0.00900613
0.0090228
0.00980803
0.00995738
0.00963002
0.0111817
0.00849569
0.0124246
0.00664577
0.0134803
0.00444493
0.0142492
0.00225129
0.0147238
0.000329691
0.0149507
-0.00117276
0.0149964
-0.00221236
0.0149246
-0.00281801
0.0147892
-0.0030556
-0.00303203
0.0121188
-0.0014015
0.0106954
-0.000839863
0.00929717
0.000385352
0.00794262
0.0021517
0.00679116
0.00413469
0.00603348
0.00604595
0.00582352
0.00761273
0.00622801
0.00860165
0.00719447
0.00884156
0.00855574
0.00826876
0.0100749
0.00697648
0.0115231
0.00519766
0.0127419
0.00322611
0.0136615
0.00133171
0.0142832
-0.000292035
0.0146495
-0.00153905
0.0148193
-0.00238213
0.0148491
-0.00284785
0.0147896
-0.00299608
-0.00290228
0.00672226
-0.000659426
0.00591429
-3.18923e-05
0.00498057
0.00131908
0.00407339
0.00305888
0.00341907
0.004789
0.00320732
0.0062577
0.00355021
0.00726984
0.00445755
0.00769431
0.00582855
0.00747057
0.0074806
0.00661671
0.00919734
0.00525973
0.0107893
0.0036057
0.0121328
0.00188263
0.0131754
0.000289114
0.0139209
-0.0010376
0.0144061
-0.00202425
0.0146826
-0.00265855
0.0148003
-0.00296561
0.0148072
-0.00300292
-0.00281358
0.0029661
-0.000459287
0.00246756
0.000466651
0.00178716
0.00199948
0.00119243
0.0036536
0.000923805
0.00505763
0.00113934
0.00604217
0.00189825
0.00651094
0.00316465
0.00642791
0.00480934
0.00582588
0.00665189
0.00477416
0.00850068
0.00341094
0.0101972
0.00190919
0.0116399
0.00043988
0.0127858
-0.000856773
0.0136367
-0.00188844
0.0142235
-0.00261105
0.0145911
-0.00302623
0.0147843
-0.00315871
0.0148484
-0.00306707
-0.0027602
0.000635562
-0.000440985
0.000148842
0.000953371
-0.000455596
0.00260392
-0.000858843
0.00405685
-0.000852692
0.00505148
-0.00032658
0.00551605
0.0007217
0.00546266
0.0022266
0.00492301
0.00404674
0.00400574
0.00601162
0.00280928
0.0079514
0.00147116
0.00972851
0.000132083
0.0112546
-0.00108625
0.0124888
-0.00209092
0.0134302
-0.00282985
0.0141038
-0.00328466
0.014549
-0.00347139
0.0148059
-0.00341563
0.0149184
-0.00317954
-0.00273677
-0.000284602
-0.000156383
-0.000881273
0.00155004
-0.00141869
0.00314134
-0.00168025
0.00431841
-0.00155004
0.00492127
-0.000986052
0.00495206
-7.71905e-06
0.00448432
0.00129693
0.00361835
0.00282971
0.00247297
0.0044577
0.00118129
0.00605662
-0.000127763
0.00752627
-0.00133756
0.00879894
-0.00235892
0.00984199
-0.00313398
0.0106514
-0.00363925
0.0112436
-0.0038769
0.0116461
-0.00387389
0.0118907
-0.00366021
0.0120076
-0.00329643
-0.00273771
-0.000636417
0.000480035
-0.00143898
0.00235261
-0.00204383
0.00374619
-0.00228114
0.00455572
-0.00208066
0.00472078
-0.00143561
0.00430702
-0.000388832
0.00343754
0.000976241
0.00225328
0.00255126
0.00089795
0.00421393
-0.000481385
0.00584717
-0.00176101
0.00735464
-0.00284502
0.00866951
-0.0036738
0.00975723
-0.00422169
0.0106109
-0.00449288
0.011244
-0.00451007
0.0116819
-0.00431173
0.0119548
-0.00393309
0.0120928
-0.00343445
-0.00275061
-0.000812807
0.00129284
-0.00175183
0.00329163
-0.00241407
0.00440842
-0.00264339
0.00478504
-0.00240518
0.00448258
-0.00171822
0.00362005
-0.000637282
0.00235661
0.000754092
0.000861905
0.00235033
-0.000698289
0.0040356
-0.00216665
0.0056968
-0.00342221
0.00723835
-0.00438657
0.00859189
-0.00502734
0.0097199
-0.0053497
0.0106124
-0.00538538
0.0112805
-0.0051782
0.0117478
-0.00477899
0.0120435
-0.00422879
0.0121983
-0.00358926
-0.00277219
-0.000878849
0.00217169
-0.00187985
0.00429263
-0.00256965
0.00509822
-0.00279542
0.00501081
-0.00254406
0.00423122
-0.00184773
0.00292372
-0.00076434
0.00127321
0.000626866
-0.000529301
0.00222611
-0.00229753
0.00392306
-0.0038636
0.00560617
-0.00510532
0.00717803
-0.00595844
0.00856672
-0.00641603
0.00973074
-0.00651372
0.0106569
-0.00631153
0.0113542
-0.00587545
0.0118449
-0.00526977
0.0121581
-0.00454195
0.0123251
-0.00375623
-0.00279938
-0.000868514
0.0030402
-0.00185553
0.00527965
-0.00253289
0.00577558
-0.00275082
0.00522873
-0.00250411
0.00398451
-0.00182568
0.0022453
-0.00076806
0.000215589
0.00059856
-0.00189592
0.00218307
-0.00388204
0.00388015
-0.00556069
0.00557818
-0.00680334
0.0071758
-0.00755606
0.00859564
-0.00783587
0.00979117
-0.00770926
0.0107456
-0.00726601
0.0114661
-0.00659594
0.0119744
-0.00577807
0.0122996
-0.00486712
0.012474
-0.00393063
-0.0028289
-0.000795487
0.00383569
-0.00169112
0.00617528
-0.00231
0.00639447
-0.0025092
0.00542793
-0.00227936
0.00375468
-0.00164193
0.00160787
-0.000636608
-0.000789737
0.000680843
-0.00321337
0.00223123
-0.00543243
0.0039145
-0.00724396
0.00561819
-0.00850703
0.00723532
-0.00917319
0.00868124
-0.00928179
0.00990314
-0.00893115
0.0108802
-0.00824308
0.0116178
-0.0073335
0.0121374
-0.00629769
0.0124689
-0.00519867
0.0126458
-0.00410753
-0.00285739
-0.000658442
0.00449413
-0.00138186
0.0068987
-0.00189254
0.00690515
-0.00205723
0.00559262
-0.00185203
0.00354947
-0.00127592
0.00103177
-0.000347748
-0.00171791
0.000893571
-0.00445469
0.00238691
-0.00692577
0.00403827
-0.00889531
0.00573462
-0.0102034
0.00736219
-0.0108008
0.00882728
-0.0107469
0.0100693
-0.0101731
0.0110625
-0.00923633
0.0118105
-0.0080815
0.0123349
-0.00682206
0.0126669
-0.00553066
0.0128411
-0.00428172
-0.0028813
-0.000442739
0.00493687
-0.00091023
0.00736619
-0.00125802
0.00725294
-0.00136969
0.00570429
-0.00119319
0.00337298
-0.000696396
0.000534975
0.000128288
-0.0025426
0.00126537
-0.00559178
0.00267381
-0.00833421
0.0042693
-0.0104908
0.00593978
-0.0118739
0.00756444
-0.0124254
0.00903891
-0.0122213
0.0102929
-0.0114271
0.0112948
-0.0102382
0.0120459
-0.00883255
0.0125679
-0.00734412
0.012894
-0.00585677
0.01306
-0.00444772
-0.00289693
-8.81973e-05
0.00502507
-0.000236417
0.00751441
-0.000369764
0.00738629
-0.000411286
0.00574581
-0.000264549
0.00322624
0.000137045
0.00013338
0.000829913
-0.00323547
0.00183398
-0.00659584
0.00312406
-0.0096243
0.00463223
-0.011999
0.00625087
-0.0134925
0.00785324
-0.0140278
0.00932308
-0.0136912
0.0105784
-0.0126825
0.0115798
-0.0112396
0.0123255
-0.00957824
0.0128375
-0.00785606
0.0131509
-0.0061702
0.0133027
-0.00459954
-0.00290052
0.000486491
0.00453858
0.000735856
0.00726504
0.000835866
0.00728628
0.000870774
0.0057109
0.000981407
0.00311561
0.00127098
-0.000156195
0.00181018
-0.00377466
0.00264554
-0.0074312
0.00377759
-0.0107563
0.00515852
-0.0133799
0.00669042
-0.0150244
0.00824351
-0.0155809
0.00968928
-0.015137
0.0109317
-0.0139249
0.0119212
-0.0122292
0.0126516
-0.0103086
0.0131449
-0.00834932
0.0134378
-0.00646315
0.0135696
-0.00473133
-0.00288742
0.00253494
0.00358636
-0.00158272
0.00347605
0.00632393
0.00395342
0.00680891
0.00411228
0.00555204
0.00418873
0.00303916
0.00438206
-0.000349521
0.00484205
-0.00423465
0.00567967
-0.00826882
0.00694306
-0.0120197
0.00860775
-0.0150446
0.0105639
-0.0169806
0.0126305
-0.0176475
0.014604
-0.0171105
0.0163193
-0.0156401
0.0176842
-0.0135941
0.0186778
-0.0113023
0.0193322
-0.00900365
0.0196965
-0.00682746
0.0198436
-0.00487841
-0.00282422
0.00735136
0.00324035
-0.00700535
0.00814382
0.00553148
0.00865251
0.00630021
0.00879455
0.00541
0.00871315
0.00312056
0.00859998
-0.000236352
0.0086297
-0.00426438
0.00895044
-0.00858955
0.00966454
-0.0127338
0.0108106
-0.0161906
0.0123359
-0.0185058
0.0140878
-0.0193994
0.015852
-0.0188747
0.0174272
-0.0172153
0.0186853
-0.0148522
0.0195838
-0.0122008
0.0201472
-0.00956709
0.0204269
-0.00710716
0.0204987
-0.00495017
-0.00270288
0.0151196
0.00412924
-0.0160085
0.0150694
0.00558169
0.0151509
0.00621869
0.0150309
0.00552996
0.0146769
0.00347461
0.0141977
0.000242833
0.0137376
-0.00380429
0.0134536
-0.00830549
0.0134849
-0.0127652
0.0139357
-0.0166414
0.0148325
-0.0194026
0.0160839
-0.0206508
0.0174893
-0.0202801
0.0188171
-0.0185431
0.0198941
-0.0159292
0.0206445
-0.0129512
0.0210772
-0.00999976
0.0212417
-0.00727166
0.0212144
-0.00492289
-0.00250863
0.0260192
0.0066289
-0.0285189
0.0245957
0.00700521
0.0237475
0.00706691
0.0230259
0.00625155
0.0222119
0.00428863
0.0212632
0.00119154
0.020255
-0.00279612
0.0192988
-0.00734925
0.0185409
-0.0120074
0.018136
-0.0162365
0.0182
-0.0194666
0.0187364
-0.0211871
0.0195961
-0.0211399
0.0205356
-0.0194826
0.0213339
-0.0167274
0.0218689
-0.0134862
0.0221228
-0.0102536
0.0221367
-0.00728553
0.0219844
-0.00477062
-0.00222513
0.039463
0.0105772
-0.0434113
0.0365555
0.00991274
0.0344628
0.00915961
0.0328164
0.00789795
0.0313058
0.00579925
0.0297528
0.00274453
0.0281196
-0.00116292
0.0264425
-0.00567216
0.0248327
-0.0103975
0.0234613
-0.0148651
0.0225217
-0.0185271
0.0221332
-0.0207986
0.0222413
-0.021248
0.0226256
-0.0198669
0.0230254
-0.0171272
0.0232632
-0.0137241
0.0232817
-0.0102721
0.0231049
-0.00710871
0.0227991
-0.00446479
-0.00183549
0.0537689
0.0152055
-0.0583972
0.0498608
0.0138209
0.046669
0.0123514
0.0440244
0.0105425
0.0416767
0.00814695
0.0394054
0.00501584
0.0370772
0.00116526
0.0346535
-0.00324845
0.0321823
-0.00792625
0.029809
-0.0124919
0.0277695
-0.0164875
0.0262951
-0.0193242
0.0254605
-0.0204134
0.0251143
-0.0195206
0.0249814
-0.0169944
0.0248284
-0.0135711
0.0245474
-0.00999117
0.0241357
-0.00669696
0.0236456
-0.00397474
-0.00132253
0.0667024
0.019548
-0.071045
0.0626471
0.0178762
0.0589667
0.0160318
0.0556567
0.0138525
0.0526041
0.0111996
0.0496474
0.00797245
0.0466484
0.00416427
0.0435056
-0.000105569
0.0402291
-0.00464984
0.0369075
-0.00917032
0.0337748
-0.0133548
0.0311438
-0.0166931
0.0292307
-0.0185003
0.0279991
-0.0182891
0.0271998
-0.016195
0.0265569
-0.0129282
0.0259076
-0.00934181
0.0252138
-0.00600318
0.0245076
-0.00326857
-0.00066931
0.0766433
0.0229568
-0.080052
0.0731754
0.021344
0.0697231
0.0194841
0.0663326
0.0172431
0.0629866
0.0145455
0.0596094
0.0113497
0.0561068
0.00766683
0.0524085
0.00359275
0.0484648
-0.000706092
0.0443437
-0.00504929
0.040237
-0.00924803
0.0364932
-0.0129494
0.0334559
-0.015463
0.0312353
-0.0160685
0.029656
-0.0146157
0.028429
-0.0117012
0.0273421
-0.00825495
0.0263184
-0.00497949
0.0253642
-0.00231434
0.000140099
0.0831702
0.025258
-0.0854714
0.0806297
0.0238845
0.0778713
0.0222425
0.0749115
0.0202029
0.0717494
0.0177076
0.0683522
0.0147469
0.0646692
0.0113499
0.0606639
0.00759802
0.0563139
0.00364393
0.0516266
-0.000361996
0.0467682
-0.00438965
0.0420707
-0.00825194
0.0379697
-0.0113619
0.0347316
-0.0128305
0.0322989
-0.012183
0.03041
-0.00981229
0.0288222