/*--------------------------------*- C++ -*----------------------------------*\
| =========                 |                                                 |
| \\      /  F ield         | OpenFOAM: The Open Source CFD Toolbox           |
|  \\    /   O peration     | Version:  v1806                                 |
|   \\  /    A nd           | Web:      www.OpenFOAM.com                      |
|    \\/     M anipulation  |                                                 |
\*---------------------------------------------------------------------------*/
FoamFile
{
    version     2.0;
    format      ascii;
    class       volVectorField;
    location    "7";
    object      U;
}
// * * * * * * * * * * * * * * * * * * * * * * * * * * * * * * * * * * * * * //

dimensions      [0 1 -1 0 0 0 0];


internalField   nonuniform List<vector> 
5735
(
(2.9613 1.68301 0.00161102)
(2.96337 1.68453 -1.84649e-05)
(2.96357 1.68473 -1.66725e-09)
(2.96337 1.68453 1.84638e-05)
(2.9613 1.68301 -0.00161102)
(2.72449 1.63807 0.00370513)
(2.72333 1.64085 -5.12457e-06)
(2.72335 1.641 -1.50592e-09)
(2.72333 1.64085 5.12219e-06)
(2.72449 1.63807 -0.00370512)
(2.66985 1.7376 0.0062671)
(2.66797 1.74019 1.22782e-06)
(2.66802 1.74034 -1.21791e-09)
(2.66797 1.74019 -1.22963e-06)
(2.66985 1.7376 -0.0062671)
(2.42641 -0.183934 0.0154263)
(2.42571 -0.184448 1.10046e-05)
(2.42581 -0.184478 -2.33064e-10)
(2.42571 -0.184448 -1.10049e-05)
(2.42641 -0.183934 -0.0154263)
(2.21478 -0.0313102 0.0172557)
(2.21269 -0.0308838 1.28033e-05)
(2.21261 -0.0308419 -4.79645e-10)
(2.21269 -0.0308839 -1.28039e-05)
(2.21478 -0.0313104 -0.0172557)
(2.09042 0.0474252 0.0175275)
(2.08771 0.0466809 1.1497e-05)
(2.0877 0.0466416 -2.03215e-11)
(2.08771 0.0466808 -1.14972e-05)
(2.09042 0.0474252 -0.0175275)
(2.47018 0.0907468 0.015519)
(2.47021 0.0916976 1.01917e-05)
(2.47029 0.0917858 -3.44895e-10)
(2.47021 0.0916976 -1.01922e-05)
(2.47018 0.0907468 -0.015519)
(2.56789 -0.19042 0.0131789)
(2.56711 -0.19072 7.51601e-06)
(2.56712 -0.19072 -1.58095e-10)
(2.56711 -0.19072 -7.51633e-06)
(2.56789 -0.19042 -0.0131789)
(2.5199 0.0125909 0.0137257)
(2.51864 0.0126022 9.48365e-06)
(2.51858 0.0126245 -2.18209e-10)
(2.51864 0.0126023 -9.48406e-06)
(2.5199 0.0125909 -0.0137257)
(2.27203 -1.45976 0.0128682)
(2.27295 -1.46438 -4.27762e-07)
(2.27307 -1.46461 -3.93985e-10)
(2.27295 -1.46438 4.26676e-07)
(2.27203 -1.45976 -0.0128682)
(2.17434 -1.52734 0.0110576)
(2.17299 -1.52874 1.91231e-06)
(2.17292 -1.52871 -9.8555e-10)
(2.17299 -1.52874 -1.91415e-06)
(2.17434 -1.52734 -0.0110576)
(2.53619 -1.65476 0.00640674)
(2.53824 -1.65655 -1.00871e-05)
(2.53844 -1.65668 -1.20133e-09)
(2.53824 -1.65655 1.00852e-05)
(2.53619 -1.65476 -0.00640674)
(2.67262 -1.84432 0.00611722)
(2.67447 -1.84456 -1.6028e-05)
(2.67445 -1.84474 -1.081e-10)
(2.67447 -1.84456 1.60272e-05)
(2.67262 -1.84432 -0.00611722)
(-0.145894 0.131122 -0.00520152)
(-0.16094 0.137763 -3.87551e-05)
(-0.16369 0.139026 -9.25145e-08)
(-0.160939 0.137762 3.86444e-05)
(-0.145891 0.131121 0.00520172)
(-0.455129 -0.0357153 -0.00547697)
(-0.464996 -0.0341206 -2.97008e-05)
(-0.466658 -0.0337881 -2.27077e-07)
(-0.464996 -0.0341206 2.95716e-05)
(-0.455128 -0.0357153 0.00547732)
(0.578701 0.303967 -0.00597436)
(0.574609 0.311666 2.59884e-06)
(0.573895 0.312982 -4.38682e-08)
(0.57461 0.311666 -2.64688e-06)
(0.578702 0.303966 0.00597446)
(0.282736 0.196414 0.00270704)
(0.282097 0.196983 -1.67398e-06)
(0.281949 0.196869 4.13398e-10)
(0.282097 0.196983 1.67485e-06)
(0.282736 0.196414 -0.00270704)
(0.199279 0.187296 0.00270327)
(0.197882 0.187462 -6.3955e-07)
(0.197728 0.187273 5.18453e-10)
(0.197882 0.187462 6.40718e-07)
(0.199279 0.187296 -0.00270327)
(0.260922 0.241495 0.00264787)
(0.26065 0.241627 -2.36831e-06)
(0.260496 0.241434 5.48479e-10)
(0.26065 0.241627 2.36949e-06)
(0.260922 0.241495 -0.00264787)
(1.04706 -0.456754 0.0267926)
(1.03945 -0.458432 2.20284e-05)
(1.03937 -0.458411 -1.89253e-09)
(1.03945 -0.458432 -2.20311e-05)
(1.04706 -0.456754 -0.0267926)
(1.6441 -0.125673 0.0246417)
(1.64349 -0.124194 1.77858e-05)
(1.64358 -0.124104 -7.36809e-10)
(1.64349 -0.124194 -1.77869e-05)
(1.6441 -0.125673 -0.0246417)
(1.59042 -0.126764 0.0225478)
(1.58684 -0.126467 1.59307e-05)
(1.58677 -0.12643 -1.90465e-09)
(1.58684 -0.126467 -1.5933e-05)
(1.59042 -0.126763 -0.0225478)
(1.53014 -0.573265 0.023043)
(1.52495 -0.575109 1.90774e-05)
(1.52495 -0.575173 -6.36069e-09)
(1.52495 -0.575109 -1.90839e-05)
(1.53014 -0.573265 -0.023043)
(0.311859 -0.235721 0.00278397)
(0.311739 -0.237124 -7.41687e-08)
(0.311735 -0.237205 3.73971e-10)
(0.311739 -0.237124 7.51531e-08)
(0.311859 -0.235721 -0.00278397)
(0.285205 -0.277839 0.00271529)
(0.285745 -0.278913 -9.72375e-07)
(0.285771 -0.278928 -6.2364e-11)
(0.285745 -0.278913 9.72872e-07)
(0.285205 -0.277839 -0.00271529)
(0.221735 -0.225904 0.00276028)
(0.220653 -0.226947 4.14816e-07)
(0.220624 -0.226967 6.76886e-10)
(0.220653 -0.226947 -4.13644e-07)
(0.221735 -0.225904 -0.00276028)
(3.56859 1.34039 -0.0083436)
(3.57007 1.34111 -2.70394e-05)
(3.57011 1.34111 -3.8189e-10)
(3.57007 1.34111 2.70386e-05)
(3.56859 1.34039 0.0083436)
(3.96514 1.18295 -0.0101945)
(3.96808 1.18269 -1.95249e-05)
(3.96824 1.18273 -6.68056e-10)
(3.96808 1.18269 1.95224e-05)
(3.96514 1.18295 0.0101945)
(3.42201 1.73139 -0.00825821)
(3.42442 1.73068 -2.08417e-05)
(3.42452 1.73055 -1.15588e-09)
(3.42442 1.73068 2.08412e-05)
(3.42201 1.73139 0.00825821)
(3.7633 -0.455693 -0.00667417)
(3.76509 -0.457144 8.69357e-06)
(3.76496 -0.457937 3.52076e-10)
(3.76508 -0.457144 -8.69406e-06)
(3.7633 -0.455692 0.00667417)
(3.52315 -1.31748 -0.00777002)
(3.52377 -1.3172 1.20461e-05)
(3.52363 -1.31738 -1.89078e-09)
(3.52377 -1.3172 -1.20497e-05)
(3.52315 -1.31748 0.00777003)
(3.57815 -0.753336 -0.00461391)
(3.5771 -0.752581 1.36698e-05)
(3.57684 -0.752728 6.14505e-10)
(3.5771 -0.752581 -1.36696e-05)
(3.57815 -0.753337 0.00461391)
(2.43153 -0.448205 0.0137928)
(2.43027 -0.448961 8.42577e-06)
(2.43027 -0.448986 -2.43996e-10)
(2.43027 -0.448961 -8.42655e-06)
(2.43153 -0.448205 -0.0137928)
(2.61098 -0.299016 0.0125833)
(2.61044 -0.299455 7.47502e-06)
(2.61046 -0.299502 2.72241e-11)
(2.61044 -0.299455 -7.47499e-06)
(2.61098 -0.299016 -0.0125833)
(2.59394 -0.339406 0.011979)
(2.5933 -0.339809 7.45825e-06)
(2.59332 -0.339832 -7.22904e-11)
(2.5933 -0.339809 -7.45851e-06)
(2.59394 -0.339407 -0.011979)
(0.255233 0.0518928 0.00251143)
(0.254626 0.0516898 -6.31662e-07)
(0.254517 0.0516067 5.64255e-11)
(0.254626 0.0516898 6.31909e-07)
(0.255233 0.0518928 -0.00251143)
(0.244556 0.0931912 0.00262668)
(0.243886 0.0929416 -7.17419e-07)
(0.243764 0.0928384 6.12415e-10)
(0.243886 0.0929416 7.1861e-07)
(0.244556 0.0931912 -0.00262669)
(0.302186 -0.0367305 0.00250939)
(0.301935 -0.0371298 2.52618e-07)
(0.301902 -0.0371999 2.1664e-10)
(0.301935 -0.0371298 -2.52103e-07)
(0.302186 -0.0367305 -0.00250939)
(0.273986 -0.0501048 0.0024553)
(0.273708 -0.0503577 2.25745e-07)
(0.273676 -0.0504177 3.03616e-10)
(0.273708 -0.0503577 -2.25356e-07)
(0.273986 -0.0501048 -0.0024553)
(0.133318 -0.0248217 0.00270691)
(0.132931 -0.0252309 -2.13117e-07)
(0.132875 -0.0253454 1.84871e-10)
(0.132931 -0.0252309 2.13651e-07)
(0.133318 -0.0248217 -0.00270691)
(0.200895 -0.0203643 0.00257606)
(0.200458 -0.0207002 -2.01181e-07)
(0.200393 -0.0207966 -4.42162e-11)
(0.200458 -0.0207002 2.01497e-07)
(0.200895 -0.0203643 -0.00257606)
(0.203862 0.138492 0.00272008)
(0.202869 0.138365 -5.07899e-07)
(0.202733 0.138242 7.13546e-10)
(0.202869 0.138365 5.09471e-07)
(0.203862 0.138492 -0.00272009)
(0.105522 0.051556 0.00266754)
(0.104971 0.0511435 -4.83424e-07)
(0.104892 0.051028 3.57447e-10)
(0.104971 0.0511435 4.84243e-07)
(0.105522 0.0515559 -0.00266754)
(0.218996 -0.00216686 0.0024708)
(0.218577 -0.00244196 -2.57377e-07)
(0.218515 -0.00252442 -2.45765e-10)
(0.218577 -0.00244195 2.57236e-07)
(0.218996 -0.00216689 -0.0024708)
(0.109812 -0.105885 0.00268523)
(0.109403 -0.106172 5.73875e-08)
(0.10937 -0.106256 1.40967e-10)
(0.109403 -0.106172 -5.69088e-08)
(0.109812 -0.105885 -0.00268523)
(0.189508 -0.070173 0.00263858)
(0.189119 -0.0705892 -1.30132e-08)
(0.189075 -0.0706905 -7.59488e-11)
(0.189119 -0.0705892 1.32278e-08)
(0.189508 -0.070173 -0.00263858)
(0.207958 -0.0627332 0.0025487)
(0.207607 -0.0630826 3.70105e-08)
(0.20756 -0.0631685 -7.80241e-11)
(0.207607 -0.0630826 -3.6863e-08)
(0.207958 -0.0627332 -0.0025487)
(0.238781 -0.0267743 0.00243475)
(0.238377 -0.0270107 -4.37411e-08)
(0.238321 -0.0270756 -1.29629e-10)
(0.238377 -0.0270107 4.37871e-08)
(0.238781 -0.0267744 -0.00243475)
(0.23685 -0.0220984 0.00237299)
(0.236546 -0.0224088 6.78652e-09)
(0.236499 -0.0224796 1.72537e-10)
(0.236546 -0.0224088 -6.47248e-09)
(0.23685 -0.0220984 -0.00237299)
(0.241154 -0.0329785 0.00231865)
(0.240811 -0.0332061 -1.28186e-07)
(0.240754 -0.0332684 -6.13253e-11)
(0.240811 -0.0332061 1.28263e-07)
(0.241154 -0.0329785 -0.00231865)
(0.237449 -0.00175391 0.00233495)
(0.237058 -0.00201807 -2.6937e-07)
(0.23699 -0.00209048 -2.34318e-10)
(0.237058 -0.00201806 2.6915e-07)
(0.237449 -0.00175394 -0.00233495)
(0.216521 -0.186905 0.00277821)
(0.215761 -0.187569 6.50402e-07)
(0.21573 -0.187656 6.55968e-10)
(0.215761 -0.187569 -6.49366e-07)
(0.216521 -0.186905 -0.00277821)
(0.237359 0.00410302 0.00232256)
(0.23691 0.0039228 -5.03752e-07)
(0.236827 0.00385938 7.95707e-11)
(0.23691 0.00392281 5.03995e-07)
(0.237359 0.004103 -0.00232256)
(0.219045 0.0216176 0.00247062)
(0.218562 0.0213987 -4.98e-07)
(0.218479 0.0213203 1.45282e-10)
(0.218562 0.0213988 4.98231e-07)
(0.219045 0.0216175 -0.00247062)
(0.18817 0.0392826 0.00258367)
(0.187657 0.0389426 -4.81154e-07)
(0.187573 0.0388407 1.83886e-10)
(0.187657 0.0389426 4.81562e-07)
(0.18817 0.0392826 -0.00258367)
(0.25208 -0.14205 0.00271937)
(0.25172 -0.142475 2.949e-07)
(0.251693 -0.142561 5.36873e-10)
(0.25172 -0.142475 -2.93844e-07)
(0.25208 -0.14205 -0.00271938)
(0.259878 -0.080098 0.00258682)
(0.259518 -0.0804436 2.43236e-07)
(0.259481 -0.0805167 4.32603e-10)
(0.259518 -0.0804436 -2.42313e-07)
(0.259878 -0.080098 -0.00258682)
(0.264158 0.0222003 0.00235636)
(0.26368 0.0220437 -6.5226e-07)
(0.263583 0.0219788 3.08901e-10)
(0.26368 0.0220437 6.5257e-07)
(0.264158 0.0222002 -0.00235636)
(0.265973 0.000855393 0.00217005)
(0.265543 0.00074271 -6.29189e-07)
(0.265453 0.000693253 8.67573e-10)
(0.265543 0.000742714 6.30135e-07)
(0.265973 0.000855365 -0.00217005)
(0.246401 -0.00156343 0.00214985)
(0.245991 -0.00169028 -4.74132e-07)
(0.245911 -0.00174007 3.41791e-10)
(0.245991 -0.00169027 4.74397e-07)
(0.246401 -0.00156345 -0.00214985)
(0.250897 -0.00984336 0.00214663)
(0.250553 -0.0100306 -3.4916e-07)
(0.250491 -0.0100887 5.24993e-11)
(0.250553 -0.0100306 3.49107e-07)
(0.250897 -0.00984339 -0.00214663)
(0.253248 -0.013423 0.00213934)
(0.252922 -0.013597 -1.76015e-07)
(0.252864 -0.0136477 3.86879e-11)
(0.252922 -0.013597 1.7622e-07)
(0.253248 -0.013423 -0.00213934)
(0.256762 -0.012143 0.00217065)
(0.256487 -0.0123978 -8.37803e-08)
(0.256441 -0.0124557 1.34448e-10)
(0.256487 -0.0123978 8.40716e-08)
(0.256762 -0.012143 -0.00217065)
(0.276669 -0.0203823 0.00224213)
(0.27643 -0.0206377 1.22794e-07)
(0.276392 -0.0206919 4.34129e-10)
(0.27643 -0.0206377 -1.22105e-07)
(0.276669 -0.0203823 -0.00224213)
(0.299155 -0.176851 0.00282524)
(0.298795 -0.177842 3.20783e-07)
(0.298782 -0.177938 6.24453e-10)
(0.298795 -0.177842 -3.19804e-07)
(0.299155 -0.176851 -0.00282524)
(0.30004 -0.115401 0.00277199)
(0.29966 -0.116174 3.54389e-07)
(0.29963 -0.11627 8.0796e-10)
(0.29966 -0.116174 -3.52965e-07)
(0.30004 -0.115401 -0.00277199)
(0.301262 -0.0758347 0.00267455)
(0.300939 -0.0764018 3.46931e-07)
(0.300904 -0.076486 3.42678e-10)
(0.300939 -0.0764018 -3.46105e-07)
(0.301262 -0.0758347 -0.00267455)
(0.292992 -0.0125189 0.0022967)
(0.292768 -0.0128253 1.9438e-07)
(0.292735 -0.0128826 5.39113e-10)
(0.292768 -0.0128253 -1.93595e-07)
(0.292992 -0.0125189 -0.0022967)
(0.28723 0.0878793 0.00268192)
(0.286515 0.0880546 -1.10351e-06)
(0.286372 0.0879956 4.51999e-10)
(0.286515 0.0880546 1.10455e-06)
(0.28723 0.0878793 -0.00268193)
(0.287347 0.0478957 0.00256675)
(0.286708 0.0479215 -1.00364e-06)
(0.286578 0.047868 -2.70163e-10)
(0.286708 0.0479215 1.00392e-06)
(0.287347 0.0478956 -0.00256675)
(0.285659 0.0152973 0.00239758)
(0.285122 0.0152784 -9.29505e-07)
(0.285006 0.0152342 4.1916e-10)
(0.285122 0.0152784 9.29888e-07)
(0.285659 0.0152972 -0.00239758)
(0.27933 -0.00807467 0.00220012)
(0.278851 -0.00809803 -8.46376e-07)
(0.278745 -0.00813262 1.10258e-09)
(0.278851 -0.00809803 8.47408e-07)
(0.27933 -0.00807471 -0.00220013)
(0.269061 -0.0235607 0.00198004)
(0.268644 -0.0235799 -7.41336e-07)
(0.268549 -0.0236053 -1.02646e-10)
(0.268644 -0.0235799 7.41841e-07)
(0.269061 -0.0235607 -0.00198004)
(0.260001 -0.0124497 0.00196673)
(0.259614 -0.0125302 -5.76411e-07)
(0.259532 -0.0125673 -1.81635e-10)
(0.259615 -0.0125302 5.75871e-07)
(0.260001 -0.0124497 -0.00196673)
(0.248356 -0.00948023 0.00195624)
(0.247993 -0.00958572 -4.50376e-07)
(0.24792 -0.00962509 1.86454e-10)
(0.247993 -0.00958572 4.50271e-07)
(0.248356 -0.00948025 -0.00195624)
(0.250437 -0.0106897 0.00195504)
(0.250097 -0.010848 -3.27787e-07)
(0.250033 -0.0108944 4.16893e-10)
(0.250097 -0.010848 3.28594e-07)
(0.250437 -0.0106897 -0.00195504)
(0.249186 -0.00563712 0.0019544)
(0.248878 -0.00580304 -1.80003e-07)
(0.248823 -0.00584724 8.06894e-11)
(0.248878 -0.00580303 1.80397e-07)
(0.249186 -0.00563714 -0.0019544)
(0.25139 -0.00512747 0.0019784)
(0.251117 -0.0053121 -6.35972e-08)
(0.251071 -0.00535817 -1.6853e-10)
(0.251117 -0.0053121 6.35402e-08)
(0.25139 -0.00512748 -0.0019784)
(0.269466 -0.000495186 0.00201947)
(0.269233 -0.000689281 7.56306e-08)
(0.269194 -0.000734786 1.66126e-10)
(0.269233 -0.000689277 -7.53223e-08)
(0.269466 -0.000495198 -0.00201947)
(0.27986 0.00951487 0.00205551)
(0.279666 0.00928255 1.24628e-07)
(0.279633 0.00923599 5.35764e-10)
(0.279666 0.00928255 -1.23903e-07)
(0.27986 0.00951486 -0.00205551)
(0.27741 0.135613 0.0027569)
(0.276594 0.135921 -1.25078e-06)
(0.276452 0.135843 3.38905e-11)
(0.276594 0.135921 1.25127e-06)
(0.27741 0.135613 -0.0027569)
(0.29783 0.0237782 0.00208845)
(0.297713 0.0235624 2.13339e-07)
(0.297693 0.0235205 8.14771e-10)
(0.297713 0.0235624 -2.12011e-07)
(0.29783 0.0237782 -0.00208846)
(0.320027 -0.000411248 0.00235406)
(0.319953 -0.000679904 3.32006e-07)
(0.319939 -0.0007291 5.07414e-10)
(0.319953 -0.000679898 -3.3102e-07)
(0.320027 -0.000411254 -0.00235407)
(0.339689 -0.0346062 0.0025962)
(0.339686 -0.0349444 4.48243e-07)
(0.33968 -0.0349996 -1.84888e-10)
(0.339686 -0.0349444 -4.48558e-07)
(0.339689 -0.0346062 -0.0025962)
(0.356665 -0.0856624 0.00278667)
(0.356805 -0.0860808 5.3607e-07)
(0.356813 -0.0861408 1.11633e-11)
(0.356805 -0.0860808 -5.35678e-07)
(0.356665 -0.0856624 -0.00278667)
(0.367284 -0.142332 0.00291954)
(0.367612 -0.14283 6.28593e-07)
(0.367637 -0.142888 4.30087e-10)
(0.367612 -0.14283 -6.27149e-07)
(0.367284 -0.142332 -0.00291955)
(0.371306 -0.20234 0.00296687)
(0.37203 -0.202814 5.64081e-07)
(0.372084 -0.202858 1.94009e-10)
(0.37203 -0.202814 -5.63624e-07)
(0.371306 -0.20234 -0.00296687)
(0.351619 0.174376 0.00285538)
(0.351542 0.174238 -1.50084e-06)
(0.351415 0.17411 5.89838e-10)
(0.351542 0.174238 1.50125e-06)
(0.351619 0.174376 -0.00285538)
(0.347474 0.10761 0.00278913)
(0.347125 0.107555 -1.28664e-06)
(0.346991 0.107463 4.60767e-10)
(0.347125 0.107555 1.28718e-06)
(0.347474 0.107609 -0.00278913)
(0.334599 0.0539773 0.00265319)
(0.334172 0.0539288 -1.18061e-06)
(0.334045 0.0538629 -8.93797e-10)
(0.334172 0.0539288 1.18014e-06)
(0.334599 0.0539772 -0.00265319)
(0.320087 0.01295 0.00245739)
(0.319652 0.0129302 -1.02725e-06)
(0.319536 0.0128854 1.18173e-10)
(0.319652 0.0129302 1.02688e-06)
(0.320087 0.0129499 -0.00245739)
(0.303254 -0.015646 0.00223758)
(0.30283 -0.0156442 -9.18674e-07)
(0.302723 -0.0156728 1.19019e-09)
(0.30283 -0.0156442 9.19443e-07)
(0.303254 -0.015646 -0.00223758)
(0.284184 -0.0349155 0.00199766)
(0.283787 -0.0349036 -8.18257e-07)
(0.283689 -0.0349219 -3.0438e-10)
(0.283787 -0.0349036 8.17673e-07)
(0.284184 -0.0349156 -0.00199766)
(0.264113 -0.0468934 0.00175263)
(0.263754 -0.04687 -7.26542e-07)
(0.263666 -0.0468801 -9.7924e-10)
(0.263754 -0.04687 7.25185e-07)
(0.264113 -0.0468934 -0.00175263)
(0.25582 -0.0326846 0.00175167)
(0.255452 -0.0326943 -6.51051e-07)
(0.255368 -0.0327123 -5.37326e-10)
(0.255452 -0.0326943 6.49628e-07)
(0.25582 -0.0326847 -0.00175167)
(0.251031 -0.0205533 0.00175343)
(0.25069 -0.0206071 -5.30246e-07)
(0.250615 -0.0206344 2.88469e-10)
(0.25069 -0.0206071 5.30157e-07)
(0.251031 -0.0205533 -0.00175343)
(0.244719 -0.0139846 0.00175222)
(0.244394 -0.0140631 -4.24893e-07)
(0.244326 -0.0140938 6.51634e-10)
(0.244394 -0.0140631 4.26086e-07)
(0.244719 -0.0139846 -0.00175222)
(0.245751 -0.0101585 0.00175379)
(0.245452 -0.0102753 -3.29824e-07)
(0.245392 -0.0103119 2.53115e-10)
(0.245452 -0.0102753 3.30637e-07)
(0.245751 -0.0101585 -0.00175379)
(0.245288 -0.00246972 0.00175316)
(0.24503 -0.00259892 -2.0382e-07)
(0.24498 -0.00263522 -5.09546e-10)
(0.24503 -0.00259892 2.03377e-07)
(0.245288 -0.00246973 -0.00175316)
(0.247582 0.00209638 0.00177157)
(0.247351 0.00194045 -1.37224e-07)
(0.247306 0.00190182 -7.70281e-10)
(0.247351 0.00194045 1.36323e-07)
(0.247582 0.00209637 -0.00177157)
(0.259087 0.00972783 0.00179638)
(0.258872 0.00955595 1.59297e-08)
(0.258834 0.00951684 -3.1167e-10)
(0.258872 0.00955596 -1.63394e-08)
(0.259087 0.00972782 -0.00179638)
(0.265223 0.0232088 0.00181212)
(0.26504 0.0230242 5.31302e-08)
(0.265008 0.0229858 2.42734e-10)
(0.26504 0.0230242 -5.2721e-08)
(0.265223 0.0232088 -0.00181212)
(0.354466 0.248078 0.00276802)
(0.354743 0.247752 -1.36067e-06)
(0.354606 0.247575 9.56231e-10)
(0.354743 0.247752 1.36281e-06)
(0.354466 0.248078 -0.00276802)
(0.275 0.0374074 0.00182359)
(0.274865 0.0372294 1.30588e-07)
(0.274841 0.0371934 6.50057e-10)
(0.274865 0.0372294 -1.29471e-07)
(0.275 0.0374074 -0.00182359)
(1.96341 -0.377372 0.0206209)
(1.9624 -0.377754 1.37685e-05)
(1.96255 -0.377771 -1.37174e-09)
(1.9624 -0.377754 -1.37703e-05)
(1.96341 -0.377372 -0.0206209)
(1.83741 -0.0341377 0.0210328)
(1.83461 -0.0336162 1.45528e-05)
(1.83454 -0.0335615 -8.48661e-10)
(1.83461 -0.0336162 -1.4554e-05)
(1.83741 -0.0341376 -0.0210328)
(2.00138 -0.555008 0.0203991)
(1.99971 -0.556534 1.85626e-05)
(1.99986 -0.556604 -2.78056e-09)
(1.99971 -0.556534 -1.85661e-05)
(2.00138 -0.555008 -0.0203991)
(1.61149 0.0300787 0.0219849)
(1.60717 0.0281264 1.38328e-05)
(1.60721 0.0280848 -4.35963e-10)
(1.60717 0.0281264 -1.38334e-05)
(1.61149 0.0300787 -0.0219849)
(2.14205 0.14583 0.0196904)
(2.14214 0.147182 1.33081e-05)
(2.14226 0.147271 -8.331e-11)
(2.14214 0.147182 -1.33085e-05)
(2.14205 0.145829 -0.0196904)
(1.92324 -0.00849748 0.0193794)
(1.92033 -0.00882642 1.28654e-05)
(1.9203 -0.00881625 -4.15509e-10)
(1.92033 -0.00882647 -1.28664e-05)
(1.92324 -0.00849753 -0.0193794)
(2.04662 -0.176072 0.019272)
(2.04467 -0.176775 1.39238e-05)
(2.04467 -0.176798 -1.11222e-09)
(2.04467 -0.176775 -1.39254e-05)
(2.04662 -0.176072 -0.019272)
(2.13563 -0.341116 0.0182766)
(2.13354 -0.341502 1.35673e-05)
(2.13359 -0.341495 -9.01213e-10)
(2.13354 -0.341502 -1.35689e-05)
(2.13563 -0.341116 -0.0182766)
(2.39932 -0.312736 0.0174856)
(2.39981 -0.313105 1.22229e-05)
(2.40001 -0.313146 -6.57666e-10)
(2.39981 -0.313106 -1.22237e-05)
(2.39932 -0.312737 -0.0174856)
(1.51184 0.502651 0.022991)
(1.50633 0.505624 1.69948e-05)
(1.50611 0.505801 4.3496e-11)
(1.50633 0.505624 -1.69946e-05)
(1.51184 0.502651 -0.022991)
(2.02064 0.374439 0.0197382)
(2.02007 0.374776 1.42264e-05)
(2.02033 0.374773 8.17126e-11)
(2.02007 0.374776 -1.42264e-05)
(2.02064 0.374439 -0.0197382)
(2.17495 0.2613 0.0172622)
(2.17206 0.262381 1.20013e-05)
(2.1719 0.262478 5.80385e-11)
(2.17206 0.262381 -1.20011e-05)
(2.17495 0.2613 -0.0172622)
(0.964692 0.668302 0.0254669)
(0.959463 0.669431 7.95226e-06)
(0.959705 0.669455 1.91892e-10)
(0.959463 0.669431 -7.95238e-06)
(0.964692 0.668302 -0.0254669)
(2.14121 -0.752351 0.0170449)
(2.14054 -0.75468 4.00387e-06)
(2.14052 -0.754763 -5.80857e-09)
(2.14054 -0.75468 -4.01011e-06)
(2.14121 -0.75235 -0.0170448)
(1.84148 -1.1076 0.0180312)
(1.84158 -1.11229 -5.8091e-06)
(1.84178 -1.11243 -3.72915e-08)
(1.84158 -1.11229 5.78882e-06)
(1.84148 -1.1076 -0.0180311)
(1.75043 -1.45736 0.0173814)
(1.7521 -1.45827 -1.72072e-05)
(1.75216 -1.45814 -6.89164e-09)
(1.7521 -1.45827 1.72007e-05)
(1.75043 -1.45736 -0.0173814)
(2.12341 -0.505909 0.0163355)
(2.12169 -0.507459 7.62619e-06)
(2.12169 -0.507531 -1.58971e-09)
(2.12169 -0.507459 -7.62858e-06)
(2.12341 -0.505909 -0.0163355)
(2.43611 -0.585213 0.014017)
(2.43592 -0.585712 6.93574e-06)
(2.436 -0.585763 -8.82301e-10)
(2.43592 -0.585712 -6.93751e-06)
(2.43611 -0.585213 -0.014017)
(2.30539 -0.76595 0.0142569)
(2.304 -0.767176 4.34285e-06)
(2.30397 -0.767182 -2.97205e-09)
(2.304 -0.767176 -4.34738e-06)
(2.30539 -0.76595 -0.0142569)
(2.32613 -1.05722 0.0141158)
(2.32566 -1.05785 1.05535e-05)
(2.32572 -1.05787 -8.10043e-09)
(2.32566 -1.05785 -1.05621e-05)
(2.32613 -1.05722 -0.0141158)
(2.31434 -0.324956 0.0160097)
(2.31331 -0.325708 8.15941e-06)
(2.31332 -0.325713 -1.35944e-10)
(2.31331 -0.325709 -8.15929e-06)
(2.31434 -0.324956 -0.0160097)
(2.42436 -0.223698 0.0150949)
(2.4234 -0.224139 1.11004e-05)
(2.42344 -0.224186 -1.32796e-10)
(2.4234 -0.224139 -1.11002e-05)
(2.42436 -0.223698 -0.0150949)
(2.44822 0.240489 0.0151481)
(2.44842 0.240587 1.01404e-05)
(2.44862 0.240599 -1.7493e-10)
(2.44842 0.240587 -1.01407e-05)
(2.44822 0.240489 -0.0151481)
(0.385407 -0.272672 0.00288345)
(0.386506 -0.27299 8.57451e-07)
(0.386564 -0.273012 1.73622e-10)
(0.386506 -0.27299 -8.57586e-07)
(0.385407 -0.272672 -0.00288345)
(2.08004 0.748942 0.0179419)
(2.08161 0.749478 5.95038e-06)
(2.08178 0.749529 4.58138e-11)
(2.08161 0.749478 -5.95008e-06)
(2.08004 0.748942 -0.0179419)
(2.09978 0.706108 0.0168194)
(2.09666 0.709496 4.91177e-06)
(2.09663 0.709695 1.38699e-10)
(2.09666 0.709496 -4.91171e-06)
(2.09978 0.706108 -0.0168194)
(2.40567 0.402149 0.0156743)
(2.40696 0.401639 8.77516e-06)
(2.40713 0.401581 -5.17686e-11)
(2.40696 0.401639 -8.77501e-06)
(2.40567 0.402149 -0.0156743)
(2.42659 0.364802 0.014039)
(2.42439 0.366554 6.64563e-06)
(2.42436 0.366703 -2.23799e-10)
(2.42439 0.366554 -6.64571e-06)
(2.42659 0.364802 -0.014039)
(1.8291 1.21949 0.0179215)
(1.82576 1.22601 -3.56617e-06)
(1.82575 1.22619 1.58959e-10)
(1.82576 1.22601 3.56667e-06)
(1.8291 1.21949 -0.0179215)
(0.320486 0.278316 0.00251012)
(0.3217 0.277096 -1.11779e-06)
(0.321585 0.276899 1.37054e-09)
(0.3217 0.277096 1.12055e-06)
(0.320486 0.278316 -0.00251013)
(2.45767 0.0294463 0.0138908)
(2.45601 0.0288076 9.32568e-06)
(2.45602 0.0287617 -1.38238e-10)
(2.45601 0.0288076 -9.32585e-06)
(2.45767 0.0294463 -0.0138908)
(2.46524 0.191376 0.0134566)
(2.46301 0.192025 9.25017e-06)
(2.46285 0.192093 -1.81233e-10)
(2.46301 0.192025 -9.25031e-06)
(2.46524 0.191376 -0.0134566)
(2.61569 0.30602 0.0127155)
(2.6162 0.305781 8.41864e-06)
(2.61627 0.305787 -5.09442e-11)
(2.6162 0.305782 -8.41869e-06)
(2.61569 0.30602 -0.0127155)
(0.359237 -0.312914 0.00263422)
(0.361336 -0.312495 5.83724e-07)
(0.361407 -0.312509 1.14429e-09)
(0.361336 -0.312495 -5.82114e-07)
(0.359237 -0.312914 -0.00263422)
(0.467891 0.240737 0.00292521)
(0.4672 0.240337 -2.08488e-06)
(0.466932 0.240211 8.6532e-10)
(0.4672 0.240337 2.08762e-06)
(0.467891 0.240737 -0.00292522)
(0.446328 0.158173 0.00303538)
(0.445644 0.157934 -2.09006e-06)
(0.445412 0.157843 1.12206e-09)
(0.445644 0.157934 2.09088e-06)
(0.446329 0.158173 -0.00303538)
(0.421915 0.0849229 0.00295427)
(0.421245 0.084801 -1.85632e-06)
(0.421043 0.0847377 2.21083e-10)
(0.421245 0.084801 1.85653e-06)
(0.421915 0.0849228 -0.00295427)
(0.392093 0.0248832 0.00278168)
(0.391449 0.0248423 -1.76142e-06)
(0.391271 0.0248041 -1.11207e-09)
(0.391449 0.0248423 1.76034e-06)
(0.392093 0.0248831 -0.00278168)
(0.360407 -0.0159148 0.00254515)
(0.359812 -0.0159101 -1.46638e-06)
(0.359656 -0.0159332 1.76641e-10)
(0.359812 -0.0159102 1.46591e-06)
(0.360407 -0.0159148 -0.00254515)
(0.328191 -0.0437759 0.00228104)
(0.327672 -0.0437416 -1.19846e-06)
(0.327539 -0.0437532 1.07356e-09)
(0.327672 -0.0437416 1.19958e-06)
(0.328191 -0.043776 -0.00228104)
(0.297301 -0.0611186 0.00201497)
(0.296859 -0.0610702 -1.00594e-06)
(0.296747 -0.0610744 1.6233e-10)
(0.296859 -0.0610702 1.00635e-06)
(0.297301 -0.0611186 -0.00201497)
(0.269675 -0.0703309 0.0017515)
(0.269289 -0.0702693 -8.45594e-07)
(0.269192 -0.0702675 -2.89856e-10)
(0.269289 -0.0702693 8.45201e-07)
(0.269675 -0.0703309 -0.0017515)
(0.245355 -0.0725741 0.00149898)
(0.245017 -0.0725069 -7.08553e-07)
(0.244934 -0.0725015 5.11121e-10)
(0.245017 -0.0725069 7.08921e-07)
(0.245355 -0.0725742 -0.00149898)
(0.244716 -0.0513308 0.00151655)
(0.244392 -0.0513002 -6.31369e-07)
(0.244314 -0.051305 2.83065e-10)
(0.244392 -0.0513002 6.31349e-07)
(0.244716 -0.0513308 -0.00151655)
(0.241903 -0.0370046 0.0015275)
(0.241575 -0.0370053 -5.64867e-07)
(0.2415 -0.0370176 3.92486e-10)
(0.241575 -0.0370053 5.65212e-07)
(0.241903 -0.0370046 -0.0015275)
(0.240582 -0.0243247 0.00153831)
(0.240272 -0.0243606 -4.72543e-07)
(0.240203 -0.0243806 5.00337e-10)
(0.240272 -0.0243606 4.73507e-07)
(0.240582 -0.0243248 -0.00153831)
(0.237796 -0.0160608 0.00154309)
(0.237497 -0.0161204 -3.87533e-07)
(0.237434 -0.0161443 1.76041e-10)
(0.237497 -0.0161204 3.88201e-07)
(0.237796 -0.0160608 -0.00154309)
(0.238653 -0.00963837 0.00154695)
(0.238373 -0.00972751 -3.0728e-07)
(0.238316 -0.00975629 -4.5747e-10)
(0.238373 -0.00972751 3.06858e-07)
(0.238653 -0.00963838 -0.00154695)
(0.238129 -0.000456079 0.00154782)
(0.237876 -0.000565053 -2.06829e-07)
(0.237827 -0.000595455 -9.65581e-10)
(0.237876 -0.000565051 2.05524e-07)
(0.238129 -0.000456091 -0.00154782)
(0.240211 0.00709465 0.00156183)
(0.239976 0.00696389 -1.35535e-07)
(0.239931 0.00693175 -1.02139e-09)
(0.239976 0.00696389 1.34186e-07)
(0.240211 0.00709464 -0.00156183)
(0.246791 0.0150906 0.00157301)
(0.246587 0.0149534 -3.93501e-08)
(0.24655 0.0149214 -6.01412e-10)
(0.246587 0.0149534 3.86687e-08)
(0.246791 0.0150906 -0.00157301)
(0.249642 0.0299042 0.00157542)
(0.249464 0.0297561 6.47952e-09)
(0.249431 0.0297241 1.58994e-11)
(0.249464 0.0297561 -6.27762e-09)
(0.249642 0.0299042 -0.00157542)
(0.253795 0.0440722 0.00157306)
(0.253653 0.0439253 6.72982e-08)
(0.253627 0.0438947 2.85793e-10)
(0.253653 0.0439253 -6.66977e-08)
(0.253795 0.0440722 -0.00157306)
(0.254955 0.0674196 0.00156263)
(0.254829 0.0672766 9.2315e-08)
(0.254806 0.0672474 1.66312e-10)
(0.254829 0.0672766 -9.1969e-08)
(0.254955 0.0674196 -0.00156263)
(0.283427 0.0623963 0.00183192)
(0.283302 0.0622306 1.5318e-07)
(0.283279 0.0621971 5.28606e-10)
(0.283302 0.0622306 -1.52103e-07)
(0.283427 0.0623963 -0.00183192)
(0.315034 0.0488439 0.00211892)
(0.31491 0.04865 2.28833e-07)
(0.314887 0.0486115 7.70415e-10)
(0.31491 0.04865 -2.27525e-07)
(0.315034 0.0488439 -0.00211892)
(0.351864 0.0277734 0.00241274)
(0.351741 0.0275632 2.95916e-07)
(0.351718 0.0275203 1.70157e-10)
(0.351741 0.0275632 -2.95927e-07)
(0.351864 0.0277734 -0.00241274)
(0.388656 -0.00111316 0.00270442)
(0.388557 -0.00134923 4.06143e-07)
(0.388535 -0.00139619 -4.09961e-10)
(0.388557 -0.00134922 -4.06434e-07)
(0.388656 -0.00111316 -0.00270442)
(0.426608 -0.0445702 0.00294548)
(0.426567 -0.0448233 4.87572e-07)
(0.426549 -0.044872 -4.4819e-10)
(0.426567 -0.0448233 -4.86894e-07)
(0.426609 -0.0445702 -0.00294548)
(0.459086 -0.105358 0.00310957)
(0.459131 -0.105594 5.26376e-07)
(0.459116 -0.105641 -1.36433e-10)
(0.459131 -0.105594 -5.26074e-07)
(0.459086 -0.105358 -0.00310957)
(0.485295 -0.185787 0.00317229)
(0.485422 -0.186027 5.23879e-07)
(0.485404 -0.186076 6.0398e-10)
(0.485422 -0.186027 -5.23556e-07)
(0.485295 -0.185787 -0.00317229)
(0.506846 -0.274184 0.00305843)
(0.507009 -0.27438 6.76963e-07)
(0.506981 -0.274426 6.68515e-10)
(0.507009 -0.27438 -6.75018e-07)
(0.506846 -0.274184 -0.00305843)
(1.80711 1.42977 0.0148481)
(1.80935 1.43359 -2.91337e-05)
(1.80949 1.43369 3.94889e-10)
(1.80935 1.43359 2.9134e-05)
(1.80711 1.42977 -0.0148481)
(2.10037 1.28754 0.0158874)
(2.10323 1.28876 -1.02296e-05)
(2.10344 1.28883 -2.6618e-10)
(2.10323 1.28876 1.02287e-05)
(2.10037 1.28754 -0.0158874)
(2.10988 0.814318 0.0155572)
(2.10948 0.816909 -1.48749e-06)
(2.10957 0.817049 2.42982e-10)
(2.10948 0.816909 1.48797e-06)
(2.10988 0.814318 -0.0155572)
(2.36364 0.826989 0.0147913)
(2.36288 0.827961 5.74358e-06)
(2.36298 0.828048 4.06504e-10)
(2.36288 0.827961 -5.74322e-06)
(2.36364 0.826989 -0.0147913)
(2.3554 0.530544 0.0138668)
(2.35512 0.531961 6.01574e-06)
(2.35518 0.532045 4.06781e-11)
(2.35512 0.531961 -6.01557e-06)
(2.3554 0.530544 -0.0138668)
(2.61164 0.494495 0.0126559)
(2.61074 0.494676 7.32867e-06)
(2.61083 0.494683 -9.5785e-11)
(2.61074 0.494676 -7.32868e-06)
(2.61164 0.494495 -0.0126559)
(2.6022 0.318873 0.011611)
(2.60213 0.32006 5.85458e-06)
(2.60216 0.320186 5.94116e-11)
(2.60213 0.32006 -5.85458e-06)
(2.6022 0.318873 -0.011611)
(2.58883 -0.519732 0.0121997)
(2.58863 -0.520426 6.56184e-06)
(2.5887 -0.520478 4.10741e-12)
(2.58863 -0.520426 -6.562e-06)
(2.58883 -0.519732 -0.0121997)
(2.65425 -0.289769 0.0112437)
(2.65356 -0.290234 6.26343e-06)
(2.65355 -0.290273 -1.20919e-10)
(2.65356 -0.290234 -6.26357e-06)
(2.65425 -0.289769 -0.0112437)
(2.48458 -1.28658 0.0104939)
(2.48416 -1.28932 -5.29622e-07)
(2.4842 -1.28948 -5.87463e-10)
(2.48416 -1.28932 5.2778e-07)
(2.48458 -1.28658 -0.0104939)
(2.38319 -1.03674 0.0122331)
(2.38347 -1.03689 1.22673e-06)
(2.38357 -1.03684 -1.43309e-09)
(2.38347 -1.03689 -1.22903e-06)
(2.38319 -1.03674 -0.0122331)
(2.55625 -0.79811 0.0118701)
(2.55508 -0.800008 4.15338e-06)
(2.55506 -0.800148 -8.55887e-10)
(2.55508 -0.800008 -4.15519e-06)
(2.55626 -0.79811 -0.0118701)
(2.50488 -0.708431 0.0119632)
(2.50505 -0.708763 5.60025e-06)
(2.50515 -0.708789 -5.4847e-10)
(2.50505 -0.708763 -5.60115e-06)
(2.50488 -0.708431 -0.0119632)
(2.67639 -0.50097 0.0111044)
(2.67545 -0.501942 5.39219e-06)
(2.67543 -0.502004 -1.31468e-10)
(2.67545 -0.501942 -5.3924e-06)
(2.67639 -0.50097 -0.0111044)