/*--------------------------------*- C++ -*----------------------------------*\
| =========                 |                                                 |
| \\      /  F ield         | OpenFOAM: The Open Source CFD Toolbox           |
|  \\    /   O peration     | Version:  v1806                                 |
|   \\  /    A nd           | Web:      www.OpenFOAM.com                      |
|    \\/     M anipulation  |                                                 |
\*---------------------------------------------------------------------------*/
FoamFile
{
    version     2.0;
    format      ascii;
    class       volScalarField;
    location    "13";
    object      p;
}
// * * * * * * * * * * * * * * * * * * * * * * * * * * * * * * * * * * * * * //

dimensions      [0 2 -2 0 0 0 0];


internalField   nonuniform List<scalar> 
2400
(
0.052536
0.0507981
0.0510957
0.0509039
0.0496242
0.0479382
0.0455683
0.0442826
0.0415054
0.0391649
0.034825
0.0315484
0.0266695
0.02231
0.0170323
0.0110607
0.00568766
-0.0011932
-0.00669065
-0.0136833
0.157316
0.152931
0.153627
0.152739
0.149148
0.144087
0.137558
0.133206
0.125365
0.117887
0.105669
0.0953519
0.0811595
0.0677151
0.051755
0.0339886
0.0170812
-0.00320904
-0.0207158
-0.0413079
0.263008
0.256169
0.256689
0.255209
0.249201
0.2415
0.230969
0.223687
0.210738
0.198021
0.178568
0.160884
0.137781
0.114475
0.0878329
0.0577551
0.0288077
-0.00568794
-0.0361198
-0.0713815
0.369348
0.360628
0.361524
0.358768
0.350719
0.340443
0.326541
0.316359
0.298297
0.280639
0.254289
0.229431
0.197178
0.163875
0.125769
0.083382
0.0410071
-0.0084626
-0.0530231
-0.10438
0.4763
0.467168
0.468982
0.464186
0.454099
0.441467
0.424751
0.411882
0.388734
0.366551
0.333842
0.301852
0.260592
0.216834
0.166798
0.111687
0.0542811
-0.0109877
-0.071592
-0.140588
0.583773
0.576529
0.579779
0.572047
0.55991
0.545162
0.526386
0.511
0.483042
0.45671
0.418251
0.379135
0.329284
0.274471
0.212293
0.143632
0.0695076
-0.012609
-0.0915886
-0.180467
0.691633
0.68932
0.694105
0.683063
0.668903
0.652259
0.632339
0.614513
0.582652
0.552286
0.508762
0.462469
0.404436
0.338228
0.263762
0.180202
0.0883007
-0.0130244
-0.112632
-0.224205
0.79989
0.806109
0.81132
0.797753
0.781735
0.763592
0.743707
0.723204
0.68938
0.654729
0.606899
0.553854
0.487182
0.41016
0.322765
0.222633
0.112745
-0.0111539
-0.134847
-0.272138
0.909038
0.927972
0.930087
0.916185
0.898299
0.880408
0.861517
0.838299
0.804714
0.765934
0.714441
0.656014
0.579733
0.492821
0.39139
0.272869
0.144274
-0.00517288
-0.157805
-0.325597
1.01964
1.05483
1.04948
1.03841
1.01633
1.00491
0.9849
0.962867
0.928754
0.888585
0.833354
0.771466
0.686346
0.589674
0.472973
0.334422
0.184315
0.00557119
-0.180355
-0.3859
1.13192
1.18344
1.16778
1.16305
1.13495
1.13761
1.10935
1.09976
1.05658
1.02738
0.963021
0.905126
0.809327
0.706137
0.571825
0.412748
0.236431
0.0224501
-0.201376
-0.45543
1.24545
1.3077
1.28279
1.28573
1.25322
1.27245
1.23305
1.24483
1.18484
1.18357
1.09633
1.06428
0.942603
0.85512
0.688917
0.517241
0.306147
0.0503025
-0.218519
-0.536877
1.36057
1.42209
1.39299
1.40193
1.36987
1.39968
1.35488
1.38493
1.31334
1.34357
1.22994
1.24458
1.07804
1.04449
0.81367
0.68035
0.393793
0.103774
-0.229058
-0.628517
1.48024
1.52547
1.50039
1.51054
1.48548
1.51482
1.47517
1.51168
1.44205
1.48601
1.36394
1.41275
1.21299
1.25279
0.938434
0.908821
0.483233
0.248226
-0.232392
-0.71581
1.60919
1.62006
1.60881
1.61454
1.60691
1.62335
1.60403
1.62613
1.5801
1.60844
1.50554
1.54999
1.34696
1.41418
1.06009
1.13501
0.551082
0.514169
-0.267851
-0.730958
1.7468
1.71572
1.71977
1.72643
1.74005
1.74671
1.75682
1.75757
1.75543
1.74626
1.70153
1.68417
1.52757
1.52887
1.19372
1.25914
0.581965
0.706058
-0.392244
-0.596009
1.87846
1.81127
1.84551
1.84623
1.89382
1.88095
1.93485
1.91353
1.96876
1.93474
1.96655
1.90574
1.8588
1.74185
1.54732
1.37691
0.751715
0.719012
-0.581067
-0.437325
1.98334
1.9121
1.96227
1.96644
2.03562
2.01944
2.10937
2.08128
2.20296
2.14499
2.2925
2.16861
2.31101
2.08309
2.11898
1.77366
1.41772
0.871481
-0.574119
-0.454036
2.07281
2.01744
2.06686
2.08556
2.15643
2.16252
2.25895
2.26253
2.40278
2.37971
2.57335
2.48003
2.75427
2.49936
2.84782
2.25446
2.48432
1.28394
0.470913
-1.2206
2.16606
2.126
2.16903
2.20288
2.27303
2.30797
2.40156
2.45187
2.58256
2.63699
2.81138
2.84435
3.08159
3.01345
3.37339
2.93743
3.55014
1.89721
2.49244
-3.69075
-0.0187738
-0.02377
-0.0281115
-0.03291
-0.037059
-0.0405863
-0.0435911
-0.0459063
-0.0483995
-0.0497906
-0.057469
-0.072494
-0.0863441
-0.100968
-0.113971
-0.125311
-0.134675
-0.142748
-0.149832
-0.154351
-0.0996679
-0.125567
-0.149933
-0.175377
-0.198098
-0.217824
-0.234339
-0.248627
-0.261567
-0.270996
-0.145692
-0.183691
-0.219472
-0.256926
-0.290044
-0.319008
-0.342937
-0.363919
-0.382827
-0.397141
-0.196161
-0.248032
-0.297186
-0.347807
-0.392045
-0.431302
-0.463539
-0.491421
-0.515836
-0.534741
-0.25231
-0.319828
-0.384767
-0.450711
-0.507104
-0.55741
-0.599163
-0.634567
-0.66418
-0.687371
-0.315948
-0.401507
-0.483856
-0.567909
-0.63892
-0.701704
-0.753512
-0.797504
-0.832308
-0.859749
-0.388088
-0.495928
-0.598288
-0.7027
-0.791703
-0.869493
-0.932406
-0.984975
-1.02525
-1.05556
-0.469841
-0.605124
-0.732613
-0.861167
-0.971269
-1.06745
-1.14314
-1.20469
-1.24948
-1.28194
-0.564115
-0.731921
-0.891311
-1.05018
-1.18618
-1.30339
-1.39479
-1.46527
-1.51445
-1.54818
-0.675624
-0.882223
-1.08079
-1.27904
-1.44708
-1.5894
-1.6977
-1.77808
-1.82914
-1.86272
-0.811555
-1.06633
-1.31393
-1.56174
-1.77002
-1.9412
-2.06714
-2.15583
-2.20556
-2.2329
-0.974653
-1.30088
-1.61492
-1.92253
-2.17778
-2.38108
-2.52323
-2.61696
-2.6578
-2.66889
-1.16139
-1.60972
-2.02077
-2.39709
-2.70497
-2.94228
-3.09714
-3.18812
-3.20917
-3.19059
-1.3726
-2.02521
-2.57296
-3.03673
-3.40422
-3.67555
-3.83454
-3.90206
-3.88042
-3.81854
-1.78364
-2.62694
-3.31174
-3.92255
-4.40439
-4.70877
-4.83023
-4.81035
-4.67823
-4.52681
-2.68193
-3.52563
-4.30669
-5.13763
-5.79842
-6.16838
-6.25257
-6.06612
-5.72502
-5.37316
-4.031
-4.75602
-6.21841
-7.00998
-7.43269
-7.53644
-7.51753
-7.28357
-6.89534
-6.35941
-3.82242
-4.41947
-9.70684
-11.5217
-10.482
-9.45295
-8.55468
-7.51001
-6.74482
-5.98715
-9.14945
-4.0313
-7.24587
-9.2012
-10.1783
-10.0308
-9.41218
-8.39592
-7.54296
-6.59138
-0.0539194
-0.035651
-0.0486843
-0.0422177
-0.0072045
0.0578717
-0.0438248
-0.100889
-0.107118
-0.124258
-0.132233
-0.024774
0.0257667
0.0126141
0.0218686
0.0349968
0.0440236
0.0170074
-0.00343901
0.000612057
-0.160412
-0.133902
-0.166104
-0.0980285
-0.0111663
0.0780441
-0.101362
-0.23003
-0.29939
-0.421438
-0.553708
-0.368567
-0.156427
-0.00327959
0.0576091
0.0804511
0.0701302
0.0481379
0.0185399
0.00637263
-0.287638
-0.243824
-0.292018
-0.177097
-0.0326268
0.118275
-0.037029
-0.254165
-0.489609
-0.813962
-0.961554
-0.59735
-0.227849
-0.016162
0.093839
0.135349
0.133811
0.0871229
0.028985
0.0103943
-0.422838
-0.372533
-0.429124
-0.25593
-0.0384771
0.165378
0.0986561
-0.209371
-0.686482
-1.27678
-1.46167
-0.946798
-0.363687
-0.0353298
0.131947
0.18512
0.175224
0.123281
0.0424699
0.0155492
-0.568282
-0.523164
-0.570842
-0.356409
-0.0534862
0.217253
0.299171
-0.121125
-0.907154
-1.77758
-2.00647
-1.29227
-0.519219
-0.0593681
0.169452
0.233508
0.224038
0.16341
0.0568111
0.0184531
-0.729392
-0.695655
-0.715061
-0.433933
-0.00775355
0.30867
0.528973
0.0124769
-1.12387
-2.29132
-2.54773
-1.63211
-0.670358
-0.0801194
0.206888
0.284604
0.277463
0.196458
0.0690132
0.0206971
-0.907418
-0.900807
-0.866348
-0.5022
0.00410271
0.435467
0.86557
0.14978
-1.33829
-2.7919
-3.09323
-1.98628
-0.824186
-0.104179
0.244053
0.335683
0.327131
0.230924
0.0837895
0.021197
-1.10747
-1.1402
-1.01187
-0.562435
0.0395619
0.605687
1.11989
0.297008
-1.53264
-3.24064
-3.56304
-2.2938
-0.958525
-0.123739
0.279858
0.388811
0.38317
0.257743
0.093758
0.0221916
-1.32926
-1.42823
-1.15744
-0.571675
0.097808
0.794581
1.34657
0.430603
-1.70856
-3.648
-3.98187
-2.56311
-1.07268
-0.139772
0.318544
0.443205
0.429213
0.284827
0.105599
0.0225945
-1.59481
-1.77015
-1.29661
-0.599985
0.143752
0.98928
1.52507
0.502085
-1.85858
-3.94141
-4.29102
-2.76224
-1.1579
-0.149317
0.356563
0.494459
0.474553
0.305619
0.113473
0.0264112
-1.89595
-2.17607
-1.44491
-0.56157
0.187574
1.14466
1.62972
0.531146
-1.95995
-4.10955
-4.47502
-2.88301
-1.21578
-0.153345
0.397443
0.539126
0.51295
0.327639
0.124333
0.0309685
-2.24078
-2.66035
-1.60438
-0.55424
0.224431
1.25115
1.66138
0.512715
-2.00533
-4.1509
-4.51259
-2.91851
-1.24353
-0.146873
0.437684
0.579853
0.54825
0.347112
0.137886
0.0392058
-2.62463
-3.2523
-1.79475
-0.526194
0.254555
1.28625
1.6045
0.450387
-1.98619
-4.05452
-4.42379
-2.87639
-1.24006
-0.125689
0.470928
0.609538
0.574248
0.367535
0.156099
0.0483661
-3.04617
-3.98881
-2.00468
-0.520572
0.273703
1.28488
1.51833
0.399433
-1.91191
-3.84835
-4.19122
-2.76925
-1.20644
-0.0929288
0.492056
0.632034
0.592253
0.385235
0.177783
0.0582995
-3.55929
-4.88609
-2.22475
-0.538048
0.280168
1.23872
1.40989
0.355568
-1.79925
-3.59462
-3.91105
-2.61787
-1.14587
-0.0569116
0.502784
0.642268
0.601611
0.401033
0.200312
0.0678459
-4.09741
-6.10557
-2.50917
-0.573236
0.292832
1.17828
1.29784
0.323101
-1.64888
-3.30385
-3.59595
-2.4329
-1.06036
-0.0290843
0.504026
0.642148
0.603596
0.414007
0.22255
0.0768777
-4.65275
-7.50561
-2.81232
-0.716535
0.294683
1.13371
1.22291
0.336399
-1.46577
-2.99374
-3.25873
-2.22327
-0.959765
-0.0143494
0.49708
0.631937
0.599674
0.424323
0.242419
0.0851765
-5.43579
-9.01962
-3.18822
-0.885595
0.337822
1.12131
1.18493
0.397064
-1.23859
-2.65514
-2.89799
-1.99334
-0.857547
-0.00904876
0.481
0.61329
0.590987
0.432455
0.259793
0.0928192
-5.47293
-9.58525
-3.64042
-1.14367
0.391869
1.14753
1.15567
0.489594
-0.94926
-2.25214
-2.50144
-1.74232
-0.765601
-0.0107825
0.455847
0.58857
0.579118
0.438647
0.27441
0.0999488
-6.10505
-8.73966
-4.15412
-1.40604
0.470927
1.18002
1.13433
0.604683
-0.608911
-1.77582
-2.06576
-1.47875
-0.687777
-0.019478
0.422701
0.559114
0.565033
0.443152
0.28659
0.106623
-6.60017
-8.26082
-4.97618
-1.64414
0.544466
1.2002
1.12102
0.71758
-0.278926
-1.30848
-1.65524
-1.24683
-0.629199
-0.0343559
0.38602
0.52941
0.551409
0.446063
0.29573
0.112329
-6.98903
-9.04085
-5.81625
-1.86254
0.602366
1.18673
1.10163
0.81487
0.0195224
-0.893206
-1.29719
-1.05432
-0.58503
-0.0537087
0.348267
0.501089
0.538897
0.448025
0.302821
0.117147
-7.25796
-9.17706
-6.51312
-2.04295
0.647568
1.13515
1.07904
0.903451
0.29977
-0.504001
-0.959518
-0.879631
-0.549979
-0.0806264
0.304458
0.471197
0.5255
0.449256
0.309003
0.121769
-7.34064
-9.35689
-6.89159
-2.19036
0.671111
1.02614
1.05144
0.982088
0.544703
-0.160805
-0.654652
-0.72357
-0.5262
-0.117717
0.253667
0.43714
0.509902
0.449356
0.314227
0.126255
-7.25861
-9.42966
-6.99453
-2.30528
0.654643
0.854861
1.01866
1.04869
0.75007
0.132239
-0.386938
-0.586472
-0.515681
-0.168983
0.194701
0.396335
0.490714
0.44784
0.318372
0.130665
-7.09524
-9.13957
-6.8954
-2.39372
0.61422
0.624912
0.978793
1.10362
0.918433
0.379258
-0.153931
-0.469098
-0.52077
-0.238027
0.125551
0.34794
0.467547
0.44436
0.321354
0.134985
-6.83598
-8.66772
-6.4144
-2.44279
0.547833
0.403651
0.939195
1.15046
1.05309
0.586404
0.0497394
-0.37256
-0.545752
-0.326349
0.0444975
0.292477
0.440807
0.438779
0.323185
0.139113
-6.52546
-8.21821
-5.8837
-2.40111
0.456804
0.237843
0.903522
1.19087
1.16041
0.76121
0.227353
-0.297212
-0.594997
-0.434208
-0.0500394
0.230921
0.411039
0.431153
0.323988
0.142874
-6.24848
-7.22436
-4.98793
-2.23157
0.337866
0.171397
0.876744
1.22402
1.24779
0.909807
0.381962
-0.243476
-0.670545
-0.561825
-0.155659
0.163629
0.378293
0.421569
0.323967
0.146085
-6.05333
-6.21151
-3.63225
-2.06699
-0.131306
0.171986
0.864592
1.24872
1.31529
1.03817
0.513077
-0.214247
-0.773601
-0.710541
-0.272403
0.0899802
0.341919
0.409956
0.323224
0.148598
-6.59671
-5.31758
-1.70606
-1.83106
-0.968423
0.163931
0.873422
1.27947
1.37599
1.16861
0.645683
-0.210085
-0.930135
-0.919692
-0.427564
-0.00849432
0.292206
0.39315
0.321241
0.150774
-8.07932
-3.5521
0.53925
-1.5611
-0.757066
0.233684
0.916314
1.3138
1.44504
1.29143
0.746647
-0.263796
-1.16568
-1.21508
-0.636115
-0.143073
0.22282
0.368697
0.316733
0.151996
-7.82519
-1.27629
1.30678
-1.69472
-0.545711
0.326151
0.966585
1.35222
1.49552
1.39303
0.828167
-0.363955
-1.45428
-1.5563
-0.879246
-0.299537
0.141987
0.339786
0.31009
0.152449
-6.13998
-0.411279
0.917979
-2.19193
-0.452953
0.406463
1.00003
1.39316
1.56475
1.46802
0.863136
-0.518012
-1.79837
-1.94151
-1.15828
-0.476193
0.0519457
0.306147
0.301613
0.153101
-4.76233
-0.568523
0.634369
-1.86239
-0.313206
0.494537
1.03386
1.41364
1.59701
1.52688
0.879704
-0.70231
-2.19495
-2.376
-1.46551
-0.666596
-0.0424309
0.26892
0.291129
0.155068
-3.43945
-0.714958
0.505501
-1.31602
-0.172754
0.540886
1.03642
1.41723
1.5977
1.54868
0.870697
-0.931677
-2.62872
-2.82782
-1.78521
-0.862214
-0.138362
0.230862
0.280264
0.158492
-2.66371
-0.84404
0.412289
-0.879559
-0.0617519
0.571434
1.03059
1.37163
1.57341
1.53078
0.815774
-1.17685
-3.06485
-3.28099
-2.1018
-1.05239
-0.231251
0.190942
0.269664
0.164248
-2.01815
-0.812613
0.283764
-0.578661
0.0150474
0.579568
1.02612
1.33481
1.44678
1.47955
0.761279
-1.42748
-3.49135
-3.7165
-2.3982
-1.22844
-0.315881
0.152885
0.256467
0.170062
-1.55015
-0.77057
0.168338
-0.350168
0.0787387
0.565735
0.991382
1.2892
1.4292
1.41473
0.650165
-1.67313
-3.85764
-4.0954
-2.65446
-1.37868
-0.391986
0.117752
0.245249
0.174746
-1.20142
-0.680522
0.0876021
-0.178822
0.135787
0.557588
0.961166
1.23503
1.30137
1.35083
0.588311
-1.86839
-4.16264
-4.40734
-2.85476
-1.49164
-0.451803
0.0840713
0.232684
0.17893
-0.930847
-0.578836
0.0282011
-0.069642
0.17754
0.527138
0.907611
1.18296
1.20994
1.27736
0.495569
-2.03397
-4.34935
-4.59984
-2.97949
-1.5612
-0.493534
0.0569983
0.21648
0.177963
-0.718655
-0.479003
-0.0114667
0.00715831
0.210818
0.503008
0.870083
1.10387
1.09599
1.20791
0.426605
-2.1166
-4.42562
-4.68231
-3.02475
-1.57769
-0.517735
0.0324981
0.202163
0.17236
-0.55209
-0.384159
-0.0336299
0.051467
0.231813
0.473428
0.808975
1.042
0.995408
1.13375
0.379849
-2.1411
-4.37939
-4.63224
-2.98934
-1.53937
-0.515388
0.0100511
0.180372
0.162977
-0.42074
-0.299403
-0.0409429
0.0742364
0.236625
0.443176
0.756028
0.948795
0.883382
1.07767
0.33692
-2.07882
-4.19834
-4.45238
-2.87248
-1.45446
-0.490391
-0.00454602
0.157645
0.142922
-0.314872
-0.224864
-0.0402669
0.0818326
0.228802
0.404658
0.693536
0.85381
0.76119
0.992957
0.315238
-1.92038
-3.87855
-4.11322
-2.66395
-1.32916
-0.448795
-0.0162636
0.132075
0.121477
-0.228366
-0.162264
-0.0343346
0.0793007
0.201843
0.35878
0.624538
0.730016
0.650891
0.888323
0.288188
-1.69888
-3.40748
-3.63923
-2.35713
-1.15838
-0.392542
-0.0227416
0.102518
0.0929245
-0.157224
-0.110657
-0.0303977
0.0668907
0.162135
0.297491
0.539908
0.570507
0.487261
0.746812
0.268666
-1.39056
-2.80656
-3.00027
-1.93736
-0.927466
-0.311815
-0.0207893
0.0739279
0.0630967
-0.100645
-0.0697501
-0.026587
0.0473853
0.113248
0.216994
0.426267
0.400065
0.35673
0.560104
0.226622
-1.04551
-2.07516
-2.23833
-1.4309
-0.651722
-0.199473
-0.00946667
0.0449973
0.037511
-0.0569511
-0.0381512
-0.0220819
0.0207863
0.0674325
0.123113
0.260636
0.220483
0.244398
0.38508
0.168906
-0.65315
-1.26893
-1.37656
-0.840144
-0.372481
-0.0606675
0.0186096
0.0130236
0.0126299
-0.0193117
-0.0111685
-0.016786
0.00363085
0.0206028
0.0353536
0.0883861
0.0629347
0.0584415
0.102593
0.0634044
-0.222726
-0.427321
-0.406599
-0.249692
-0.12632
0.00387231
0.0297752
0.00297929
-0.00263691
-0.0990149
-0.887304
-2.21323
-2.58094
-3.38477
-3.66773
-4.13384
-4.53846
-4.96531
-5.24069
-1.01168
-3.71946
-2.79929
-1.27339
-2.04229
-2.91928
-3.99374
-4.98855
-6.0196
-6.81406
0.313929
-0.433299
-0.915563
-1.65277
-3.18309
-4.45569
-5.0509
-5.37392
-5.90519
-6.6535
0.34304
-0.463355
-1.27214
-1.96644
-2.65002
-3.26317
-3.79986
-4.36007
-4.91608
-5.39067
0.24018
-0.36478
-0.94058
-1.44981
-1.93361
-2.42993
-2.93779
-3.43171
-3.87664
-4.20834
0.20103
-0.22329
-0.647271
-1.0622
-1.47339
-1.8841
-2.28691
-2.65075
-2.96039
-3.16502
0.179942
-0.138526
-0.474656
-0.816963
-1.15621
-1.47448
-1.77502
-2.03231
-2.25253
-2.40475
0.160032
-0.0931111
-0.360594
-0.631347
-0.897346
-1.14296
-1.36936
-1.56197
-1.72516
-1.8402
0.147865
-0.0546109
-0.265977
-0.478872
-0.686698
-0.880011
-1.05604
-1.20584
-1.32961
-1.41667
0.142406
-0.0211927
-0.19029
-0.359915
-0.524329
-0.677401
-0.814997
-0.931639
-1.02656
-1.09414
0.136264
0.00251552
-0.133733
-0.269146
-0.398967
-0.518977
-0.625973
-0.716991
-0.791044
-0.844464
0.127527
0.0185754
-0.0902588
-0.197493
-0.299681
-0.393866
-0.477586
-0.549285
-0.607554
-0.649885
0.117826
0.0299383
-0.0562769
-0.141005
-0.221809
-0.296254
-0.361916
-0.418091
-0.463669
-0.49719
0.107252
0.0368693
-0.0313041
-0.0980396
-0.161771
-0.220257
-0.271208
-0.314622
-0.349939
-0.376549
0.094924
0.0392304
-0.0142663
-0.066029
-0.115508
-0.160742
-0.199784
-0.232787
-0.259635
-0.280113
0.080661
0.0377743
-0.0033735
-0.0425575
-0.0800854
-0.114322
-0.143637
-0.168005
-0.187536
-0.202366
0.0647914
0.0331889
0.00272661
-0.0259908
-0.053325
-0.0782749
-0.0993097
-0.116482
-0.129853
-0.140012
0.0475283
0.0259215
0.00497952
-0.0147123
-0.0331651
-0.0500219
-0.0639845
-0.0752242
-0.0838483
-0.0905726
0.0291253
0.0164468
0.00437222
-0.00719577
-0.017671
-0.0273628
-0.0351967
-0.0414735
-0.0464127
-0.0506159
0.00977607
0.00545395
0.00163616
-0.00230048
-0.00558046
-0.00881852
-0.0112407
-0.0132951
-0.0149651
-0.0167408
2.36934
2.35483
2.38743
2.43466
2.50525
2.57851
2.67452
2.78308
2.91349
3.06374
3.22808
3.41889
3.61432
3.83248
4.03825
4.22922
4.36107
4.32303
3.99639
2.79853
2.30865
2.27886
2.31655
2.35108
2.42113
2.47013
2.56188
2.63874
2.75762
2.86908
3.00529
3.15125
3.28553
3.44982
3.53767
3.64583
3.55802
3.38119
2.70931
1.63602
2.22748
2.19919
2.23353
2.25624
2.32158
2.35
2.43776
2.47847
2.59067
2.64409
2.77156
2.83194
2.95019
2.99585
3.04273
3.014
2.85551
2.59226
2.01674
1.32035
2.12095
2.11506
2.13762
2.15358
2.20155
2.22633
2.29517
2.32264
2.40768
2.43554
2.52556
2.54424
2.61273
2.5982
2.58438
2.49048
2.302
2.04897
1.57375
1.06634
1.9989
2.01838
2.03151
2.04378
2.07289
2.09786
2.14332
2.1704
2.21923
2.24397
2.28335
2.29499
2.30043
2.27525
2.19972
2.11194
1.88105
1.68204
1.24855
0.822714
1.87383
1.91009
1.91247
1.92601
1.93581
1.96432
1.98533
2.0152
2.0327
2.05709
2.05675
2.06716
2.02446
2.00312
1.88669
1.80369
1.57953
1.37703
1.02738
0.626423
1.74961
1.78938
1.7872
1.79914
1.79722
1.82332
1.82723
1.85543
1.85078
1.87127
1.846
1.848
1.78681
1.7496
1.63573
1.52679
1.34254
1.12366
0.849888
0.510645
1.62468
1.65697
1.6556
1.66366
1.65792
1.67456
1.6717
1.68869
1.67659
1.68195
1.65184
1.6329
1.57561
1.51325
1.41678
1.29031
1.13522
0.933576
0.705539
0.427054
1.49818
1.5174
1.51857
1.52288
1.51764
1.52318
1.51813
1.52145
1.50823
1.49788
1.46923
1.43364
1.38124
1.30696
1.21917
1.09792
0.960414
0.785049
0.591757
0.364706
1.36917
1.37684
1.37817
1.38019
1.37596
1.37374
1.36665
1.36031
1.34508
1.32546
1.29599
1.25415
1.20228
1.12968
1.04702
0.938487
0.815949
0.667041
0.503874
0.31828
1.23731
1.23819
1.2377
1.23783
1.23362
1.22754
1.21845
1.20668
1.189
1.16532
1.13435
1.0922
1.04149
0.97502
0.8984
0.803014
0.695283
0.569337
0.43249
0.280137
1.10329
1.10142
1.0992
1.09751
1.09287
1.08482
1.07435
1.06016
1.04083
1.01615
0.98485
0.944674
0.896698
0.837037
0.767924
0.684809
0.591328
0.485118
0.370736
0.24562
0.968729
0.966368
0.962962
0.959912
0.954882
0.94578
0.934608
0.919979
0.900197
0.876173
0.846103
0.808813
0.764778
0.711961
0.651177
0.579789
0.499852
0.410669
0.315725
0.213721
0.834842
0.83289
0.829051
0.825174
0.819917
0.810514
0.799244
0.785348
0.766317
0.743864
0.716398
0.682709
0.643394
0.597463
0.545185
0.485183
0.418117
0.344013
0.266049
0.18412
0.702404
0.700987
0.697393
0.693122
0.687911
0.67896
0.66807
0.655543
0.638359
0.618121
0.594137
0.564736
0.530631
0.491665
0.44783
0.398684
0.343854
0.283395
0.220263
0.155596
0.57177
0.570671
0.567702
0.563446
0.558661
0.550774
0.540712
0.529914
0.515432
0.497993
0.477921
0.453349
0.424833
0.392931
0.357385
0.318387
0.275045
0.227149
0.177079
0.127191
0.44294
0.441848
0.439623
0.435844
0.431829
0.425421
0.416677
0.407893
0.396553
0.382516
0.366507
0.347214
0.324539
0.299802
0.27235
0.242787
0.210161
0.173899
0.135761
0.0986417
0.315503
0.314378
0.312843
0.309968
0.306979
0.302315
0.295431
0.288894
0.280821
0.270613
0.258881
0.245058
0.228502
0.210902
0.191422
0.170667
0.148089
0.122629
0.0958296
0.0700983
0.189114
0.188006
0.18716
0.185354
0.183595
0.180791
0.176282
0.172281
0.167385
0.161322
0.153984
0.145837
0.135485
0.125162
0.113379
0.101118
0.0879301
0.0727363
0.0569612
0.0416746
0.0630551
0.0625683
0.0622619
0.0616827
0.0610692
0.060198
0.0585394
0.0572603
0.0555513
0.053609
0.0510132
0.0484001
0.0447582
0.0414394
0.0374348
0.033372
0.0290772
0.0239377
0.01885
0.0136634
2.25232
2.21336
2.25771
2.29422
2.37245
2.41987
2.52446
2.59537
2.73964
2.83194
3.0207
3.12728
3.36422
3.4562
3.73628
3.71322
4.0634
3.53754
4.44854
0.558257
2.30835
2.28498
2.32001
2.36548
2.44052
2.50789
2.61115
2.70795
2.85309
2.98243
3.17924
3.33796
3.60019
3.76701
4.11213
4.24138
4.6476
4.60553
4.79745
4.24763
2.3483
2.3474
2.37419
2.42553
2.49559
2.58181
2.68217
2.80392
2.94507
3.11359
3.3053
3.52938
3.78009
4.06438
4.37728
4.70897
5.09946
5.37346
5.85708
5.42225
2.39382
2.38927
2.42098
2.47076
2.54751
2.63375
2.74657
2.87107
3.03016
3.20427
3.42176
3.65873
3.94608
4.25943
4.62122
5.01475
5.42034
5.83797
6.10819
6.43015
2.41481
2.42392
2.45521
2.50749
2.58169
2.67472
2.78905
2.92444
3.08618
3.27446
3.49765
3.75369
4.05561
4.39263
4.78835
5.2081
5.70551
6.1547
6.63504
6.7413
2.43499
2.44555
2.47602
2.52958
2.60305
2.69969
2.81472
2.95609
3.11826
3.31501
3.53892
3.80781
4.10962
4.46667
4.85624
5.30848
5.76467
6.25557
6.64077
6.97233
2.44376
2.45304
2.48455
2.53714
2.6126
2.70797
2.82529
2.9639
3.12915
3.32182
3.54955
3.81207
4.11817
4.46425
4.85969
5.29388
5.76714
6.23976
6.65802
7.00816
2.44092
2.44946
2.48031
2.533
2.60687
2.70206
2.81577
2.9535
3.11243
3.30341
3.52111
3.77762
4.06829
4.39982
4.77391
5.17811
5.63369
6.05907
6.52056
6.55916
2.4353
2.42948
2.46357
2.51453
2.59201
2.6789
2.7914
2.91872
3.07479
3.25376
3.46164
3.70221
3.96887
4.27863
4.60074
4.97285
5.32244
5.72038
5.96902
6.24141
2.40976
2.40228
2.43525
2.4854
2.56029
2.64223
2.7483
2.86762
3.01479
3.18007
3.37409
3.58842
3.83387
4.09237
4.38371
4.65655
4.97573
5.15466
5.55552
4.57053
)
;

boundaryField
{
    inlet
    {
        type            zeroGradient;
    }
    outlet
    {
        type            fixedValue;
        value           uniform 0;
    }
    upAndBottom
    {
        type            empty;
    }
    obstacle
    {
        type            zeroGradient;
    }
}


// ************************************************************************* //
