/*--------------------------------*- C++ -*----------------------------------*\
| =========                 |                                                 |
| \\      /  F ield         | OpenFOAM: The Open Source CFD Toolbox           |
|  \\    /   O peration     | Version:  v1806                                 |
|   \\  /    A nd           | Web:      www.OpenFOAM.com                      |
|    \\/     M anipulation  |                                                 |
\*---------------------------------------------------------------------------*/
FoamFile
{
    version     2.0;
    format      ascii;
    class       surfaceScalarField;
    location    "160";
    object      phi;
}
// * * * * * * * * * * * * * * * * * * * * * * * * * * * * * * * * * * * * * //

dimensions      [0 3 -1 0 0 0 0];
oriented        oriented;


internalField   nonuniform List<scalar> 
4680
(
0.105
-0.000199154
0.105
-0.000597
0.105001
-0.00099413
0.105002
-0.00139012
0.105004
-0.00178455
0.105007
-0.00217677
0.105012
-0.00256578
0.105018
-0.00295014
0.105027
-0.00332791
0.105038
-0.00369661
0.105053
-0.0040532
0.105071
-0.00439417
0.105094
-0.00471553
0.105123
-0.00501307
0.105156
-0.0052823
0.105195
-0.00551884
0.10524
-0.00571827
0.105288
-0.00587647
0.105339
-0.00599015
-0.00606751
0.105414
0.105
-0.000199433
0.105001
-0.000597898
0.105003
-0.000995779
0.105006
-0.00139285
0.10501
-0.00178881
0.105016
-0.00218313
0.105025
-0.00257493
0.105038
-0.00296287
0.105055
-0.00334507
0.105078
-0.00371913
0.105107
-0.00408199
0.105142
-0.00443011
0.105186
-0.00475936
0.105239
-0.00506538
0.1053
-0.00534332
0.105369
-0.00558853
0.105447
-0.00579615
0.105533
-0.00596233
0.105627
-0.00608383
-0.00615893
0.105718
0.105
-0.000199827
0.105002
-0.000599154
0.105004
-0.000998123
0.105008
-0.0013968
0.105014
-0.00179509
0.105024
-0.00219266
0.105038
-0.00258879
0.105057
-0.00298231
0.105083
-0.00337144
0.105118
-0.00375386
0.105163
-0.00412648
0.105218
-0.0044857
0.105286
-0.00482715
0.105367
-0.00514617
0.105461
-0.00543739
0.105568
-0.0056957
0.105687
-0.00591542
0.105817
-0.00609225
0.105955
-0.00622111
-0.00629896
0.106095
0.105
-0.000200221
0.105002
-0.000600447
0.105004
-0.00100064
0.105009
-0.00140126
0.105016
-0.0018025
0.105028
-0.00220431
0.105045
-0.0026062
0.10507
-0.00300723
0.105104
-0.00340579
0.10515
-0.00379967
0.105209
-0.00418575
0.105284
-0.00456036
0.105376
-0.0049188
0.105486
-0.00525599
0.105614
-0.00556582
0.105761
-0.00584243
0.105924
-0.00607897
0.106102
-0.00627006
0.10629
-0.00640928
-0.0064935
0.106485
0.105
-0.000200465
0.105001
-0.000601319
0.105003
-0.00100258
0.105007
-0.0014052
0.105014
-0.00180974
0.105026
-0.00221652
0.105046
-0.00262538
0.105074
-0.0030357
0.105114
-0.00344609
0.105169
-0.00385454
0.105241
-0.00425795
0.105334
-0.00465256
0.105448
-0.00503326
0.105587
-0.0053945
0.10575
-0.00572915
0.105938
-0.00603036
0.106149
-0.00628961
0.106379
-0.00650022
0.106623
-0.00665382
-0.00674605
0.106876
0.105
-0.000200366
0.105
-0.000601186
0.105
-0.00100297
0.105002
-0.00140728
0.105008
-0.0018151
0.105018
-0.00222725
0.105037
-0.00264395
0.105066
-0.00306509
0.10511
-0.00348955
0.105171
-0.00391567
0.105253
-0.00434039
0.105361
-0.00475997
0.105496
-0.00516885
0.105663
-0.00556092
0.105861
-0.00592778
0.106092
-0.00626133
0.106354
-0.0065508
0.106641
-0.0067878
0.106948
-0.00696093
-0.00706404
0.107266
0.104999
-0.000199682
0.104997
-0.000599335
0.104995
-0.00100063
0.104994
-0.00140583
0.104995
-0.00181643
0.105002
-0.0022339
0.105017
-0.0026589
0.105044
-0.00309201
0.105086
-0.00353249
0.10515
-0.00397928
0.105239
-0.00442936
0.105358
-0.00487932
0.105513
-0.00532297
0.105705
-0.00575382
0.105939
-0.0061618
0.106215
-0.0065374
0.106531
-0.00686676
0.106883
-0.00713928
0.107261
-0.00733914
-0.00745779
0.107655
0.104998
-0.000198131
0.104994
-0.000594929
0.104988
-0.000994135
0.104981
-0.00139887
0.104975
-0.00181113
0.104975
-0.00223329
0.104982
-0.00266645
0.105002
-0.00311223
0.10504
-0.00357019
0.105101
-0.00404043
0.105192
-0.00451988
0.105318
-0.00500599
0.105487
-0.00549175
0.105704
-0.00597074
0.105973
-0.00643065
0.106296
-0.00686061
0.106672
-0.00724249
0.107096
-0.00756293
0.107556
-0.00779973
-0.00794101
0.108039
0.104997
-0.000195389
0.104989
-0.000587015
0.104977
-0.000981867
0.104962
-0.00138412
0.104947
-0.00179617
0.104936
-0.00222169
0.104931
-0.00266202
0.10494
-0.00312053
0.104966
-0.00359668
0.105018
-0.0040928
0.105104
-0.00460519
0.105231
-0.00513366
0.105409
-0.00566942
0.105646
-0.00620767
0.105948
-0.0067325
0.10632
-0.00723262
0.106761
-0.00768365
0.107267
-0.00806913
0.107825
-0.00835749
-0.00853222
0.108416
0.104996
-0.0001911
0.104983
-0.000574551
0.104963
-0.000962017
0.104938
-0.00135903
0.10491
-0.00176808
0.104883
-0.00219479
0.104862
-0.0026402
0.104852
-0.00311065
0.104859
-0.00360451
0.104895
-0.00412843
0.104966
-0.00467632
0.105086
-0.00525375
0.105264
-0.00584735
0.105515
-0.00645828
0.105845
-0.00706314
0.106267
-0.00765411
0.106779
-0.00819605
0.107381
-0.00867063
0.108055
-0.00903179
-0.00925665
0.10878
0.104994
-0.000184887
0.104976
-0.000556436
0.104946
-0.000932654
0.104908
-0.00132085
0.104863
-0.00172306
0.104816
-0.00214783
0.104771
-0.00259475
0.104735
-0.00307528
0.104715
-0.00358447
0.104724
-0.00413752
0.104769
-0.00472139
0.104871
-0.00535492
0.105036
-0.00601271
0.105291
-0.00671314
0.105642
-0.00741409
0.106112
-0.00812423
0.1067
-0.00878438
0.107413
-0.00938297
0.108229
-0.00984784
-0.010149
0.109121
0.104991
-0.000176377
0.104967
-0.00053156
0.104926
-0.00089181
0.104872
-0.00126676
0.104806
-0.00165707
0.104734
-0.00207568
0.104658
-0.00251873
0.104588
-0.00300623
0.10453
-0.00352557
0.1045
-0.0041081
0.104504
-0.00472487
0.104571
-0.00542267
0.104705
-0.00614645
0.104951
-0.00695879
0.105306
-0.00776887
0.105821
-0.00864011
0.106486
-0.0094489
0.107329
-0.0102263
0.108319
-0.010838
-0.0112567
0.109427
0.104989
-0.000165225
0.104956
-0.000498856
0.104902
-0.000837616
0.104829
-0.00119397
0.104738
-0.00156614
0.104636
-0.00197308
0.104522
-0.00240485
0.10441
-0.00289451
0.1043
-0.00341534
0.104218
-0.00402611
0.10416
-0.00466673
0.104176
-0.0054385
0.10425
-0.00622111
0.104468
-0.00717674
0.104796
-0.00809678
0.105353
-0.00919667
0.10608
-0.0101763
0.107085
-0.0112308
0.108288
-0.0120419
-0.0126476
0.109679
0.104986
-0.000151163
0.104944
-0.000457373
0.104875
-0.000768488
0.104781
-0.00109993
0.104662
-0.00144668
0.104524
-0.00183484
0.104365
-0.00224602
0.104201
-0.00273057
0.104026
-0.00324052
0.103875
-0.00387527
0.103732
-0.00452338
0.103671
-0.00537775
0.103649
-0.00619934
0.103814
-0.00734155
0.104063
-0.00834576
0.104653
-0.00978634
0.105395
-0.0109185
0.106611
-0.0124473
0.108064
-0.0134945
-0.0144385
0.109855
0.104983
-0.000134028
0.104932
-0.000406357
0.104847
-0.00068333
0.104729
-0.000982495
0.104579
-0.00129597
0.1044
-0.00165622
0.10419
-0.00203631
0.103964
-0.00250456
0.103712
-0.00298873
0.103474
-0.00363658
0.103221
-0.00427014
0.10305
-0.00520735
0.102885
-0.00603433
0.102956
-0.00741198
0.103051
-0.00844115
0.103658
-0.0103935
0.104309
-0.0115699
0.105818
-0.0139559
0.107462
-0.0151381
-0.0168813
0.109904
0.10498
-0.000113796
0.104919
-0.000345366
0.104817
-0.000581732
0.104675
-0.000840288
0.104492
-0.00111265
0.104269
-0.00143348
0.104005
-0.00177194
0.103707
-0.00220715
0.103369
-0.00265056
0.103021
-0.00328842
0.102636
-0.00388547
0.102311
-0.00488227
0.101957
-0.00568012
0.101852
-0.00730679
0.101708
-0.0082976
0.102265
-0.0109504
0.10268
-0.0119847
0.104617
-0.0158927
0.106226
-0.0167477
-0.0203892
0.109734
0.104977
-9.05841e-05
0.104906
-0.000274411
0.104788
-0.000464076
0.104621
-0.000673043
0.104405
-0.000897005
0.104137
-0.00116473
0.103817
-0.00145203
0.103441
-0.00183129
0.103012
-0.00222134
0.102533
-0.00280941
0.102002
-0.00335467
0.101465
-0.00434536
0.100885
-0.00510073
0.100471
-0.00689236
0.100015
-0.00784142
0.100286
-0.0112214
0.100314
-0.0120128
0.102727
-0.0183055
0.104086
-0.0181071
-0.0260355
0.109732
0.104974
-6.46688e-05
0.104894
-0.000194054
0.104761
-0.000331615
0.10457
-0.000481974
0.104324
-0.000651111
0.104011
-0.000851022
0.103637
-0.00107891
0.103181
-0.00137527
0.102662
-0.00170167
0.102039
-0.00218636
0.101355
-0.00267057
0.100553
-0.00354376
0.0997188
-0.00426645
0.0988275
-0.00600116
0.0979945
-0.00700833
0.0975376
-0.0107646
0.0971034
-0.0115785
0.0990798
-0.0202819
0.100099
-0.019126
-0.0371024
0.111166
0.104972
-3.65204e-05
0.104883
-0.000105453
0.104738
-0.000186498
0.104526
-0.000269992
0.104254
-0.000378959
0.1039
-0.000497006
0.103479
-0.000658302
0.102949
-0.000844973
0.102345
-0.00109739
0.101581
-0.00142285
0.100742
-0.00183114
0.0996609
-0.00246282
0.0985332
-0.00313879
0.0970599
-0.00452781
0.0956964
-0.00564487
0.0940711
-0.00913921
0.0931668
-0.0106742
0.09333
-0.0204451
0.0938667
-0.0196627
-0.0518608
0.108625
0.10497
-6.31324e-06
0.104875
-1.10203e-05
0.10472
-3.06539e-05
0.104492
-4.29437e-05
0.104198
-8.43791e-05
0.103814
-0.00011331
0.103352
-0.000196222
0.102766
-0.000259105
0.102085
-0.000415819
0.101212
-0.000550285
0.100218
-0.000837019
0.0989016
-0.0011464
0.0974306
-0.00166778
0.0953885
-0.0024857
0.093219
-0.0034754
0.0901344
-0.00605459
0.0878188
-0.0083587
0.0854806
-0.0181069
0.0937224
-0.0279045
0.104298
-0.0624362
0.105434
-0.00173717
0.105451
-0.00173637
0.105469
-0.00173616
0.105487
-0.00173475
0.105505
-0.00173229
0.105523
-0.00172884
0.105542
-0.00172439
0.10556
-0.00171894
0.105579
-0.00171258
-0.00170468
0.105597
0.105744
-0.00176302
0.105772
-0.00176409
0.105799
-0.00176381
0.105827
-0.00176246
0.105855
-0.00176002
0.105882
-0.0017565
0.10591
-0.00175194
0.105937
-0.00174634
0.105965
-0.0017398
-0.00173222
0.105992
0.106136
-0.00180438
0.106177
-0.00180512
0.106218
-0.00180465
0.106258
-0.00180301
0.106299
-0.00180019
0.106338
-0.00179622
0.106377
-0.00179111
0.106416
-0.0017849
0.106454
-0.00177762
-0.0017692
0.106491
0.106541
-0.00186004
0.106596
-0.00186054
0.106651
-0.00185978
0.106706
-0.0018577
0.10676
-0.00185432
0.106813
-0.00184966
0.106866
-0.00184374
0.106918
-0.0018366
0.106968
-0.00182823
-0.00181879
0.107018
0.106948
-0.00193214
0.10702
-0.00193243
0.107091
-0.00193124
0.107162
-0.00192855
0.107232
-0.00192436
0.107301
-0.00191871
0.107369
-0.0019116
0.107436
-0.0019031
0.1075
-0.00189316
-0.00188214
0.107564
0.107357
-0.00202311
0.107448
-0.00202309
0.107538
-0.00202132
0.107627
-0.00201778
0.107715
-0.00201249
0.107802
-0.00200547
0.107887
-0.00199676
0.107971
-0.00198641
0.108052
-0.00197435
-0.0019612
0.108131
0.107768
-0.00213596
0.10788
-0.00213556
0.107992
-0.00213306
0.108103
-0.00212843
0.108212
-0.0021217
0.108319
-0.0021129
0.108425
-0.00210205
0.108527
-0.00208926
0.108627
-0.00207439
-0.0020584
0.108725
0.108178
-0.00227479
0.108317
-0.002274
0.108454
-0.00227061
0.10859
-0.00226461
0.108725
-0.00225604
0.108857
-0.00224492
0.108986
-0.00223129
0.109112
-0.00221529
0.109234
-0.0021967
-0.002177
0.109353
0.108587
-0.00244518
0.108757
-0.00244405
0.108926
-0.00243963
0.109093
-0.00243194
0.109258
-0.002421
0.10942
-0.00240688
0.109578
-0.00238961
0.109732
-0.00236942
0.109882
-0.00234591
-0.00232136
0.110026
0.108989
-0.00265478
0.109199
-0.00265346
0.109407
-0.00264788
0.109613
-0.00263808
0.109816
-0.00262411
0.110015
-0.00260605
0.11021
-0.00258398
0.110398
-0.00255821
0.110581
-0.00252815
-0.00249725
0.110757
0.109381
-0.00291435
0.10964
-0.00291307
0.109898
-0.00290621
0.110154
-0.00289373
0.110406
-0.00287576
0.110652
-0.00285243
0.110892
-0.00282386
0.111124
-0.00279055
0.111348
-0.00275158
-0.00271221
0.111563
0.109752
-0.0032397
0.110078
-0.00323876
0.110402
-0.00323033
0.110723
-0.00321416
0.111038
-0.00319054
0.111345
-0.00315976
0.111643
-0.00312207
0.111931
-0.00307825
0.112206
-0.00302695
-0.00297602
0.11247
0.110094
-0.00365397
0.110509
-0.00365448
0.110923
-0.00364391
0.111331
-0.0036221
0.11173
-0.00358979
0.112118
-0.0035477
0.112492
-0.00349636
0.112851
-0.00343706
0.113192
-0.0033679
-0.00330042
0.113516
0.110393
-0.00419177
0.110935
-0.00419626
0.111472
-0.00418132
0.112
-0.00414982
0.112513
-0.00410356
0.11301
-0.00404383
0.113485
-0.00397149
0.113936
-0.0038886
0.114361
-0.00379274
-0.0036988
0.114759
0.110653
-0.00494043
0.111388
-0.00493065
0.112106
-0.00490012
0.112802
-0.00484514
0.113469
-0.00477116
0.114106
-0.00468013
0.114707
-0.00457294
0.115271
-0.00445268
0.115795
-0.00431668
-0.00419017
0.116286
0.110842
-0.00604817
0.111902
-0.00599075
0.112917
-0.00591488
0.113877
-0.00580512
0.114776
-0.0056701
0.115607
-0.00551197
0.116367
-0.00533277
0.117052
-0.00513757
0.117661
-0.00492518
-0.00471195
0.118182
0.111173
-0.0074886
0.112614
-0.0074315
0.11395
-0.00725093
0.115183
-0.00703889
0.116305
-0.00679132
0.1173
-0.0065071
0.11816
-0.00619299
0.118882
-0.00585926
0.119469
-0.00551222
-0.00518149
0.119938
0.113465
-0.00978843
0.115148
-0.00911372
0.116468
-0.00857095
0.117483
-0.00805385
0.118216
-0.00752518
0.118687
-0.00697733
0.118915
-0.00642092
0.118922
-0.00586644
0.118733
-0.00532374
-0.00477525
0.118327
0.110413
-0.0115762
0.11149
-0.0101908
0.111884
-0.0089649
0.11169
-0.0078602
0.110973
-0.00680762
0.109811
-0.00581532
0.108286
-0.00489583
0.106469
-0.00404987
0.104425
-0.00327953
-0.00259716
0.102247
0.0927216
0.0825307
0.0735658
0.0657057
0.058898
0.0530827
0.0481869
0.044137
0.0408575
0.0382603
0.105748
-0.0146362
0.105923
-0.0133086
0.106019
-0.0121839
0.106147
-0.0103453
0.106185
-0.00965123
0.106346
-0.00823948
0.106346
-0.00808187
0.10642
-0.0070085
0.106393
-0.0069986
0.10634
-0.00747222
0.106378
-0.00794577
0.106252
-0.0103443
0.106546
-0.0110311
0.106554
-0.0124856
0.106717
-0.0131034
0.106678
-0.0128065
0.106668
-0.0148421
0.10654
-0.0168993
0.106283
-0.0181625
-0.0236413
0.106187
-0.0148307
0.106371
-0.0134934
0.106437
-0.0122494
0.106509
-0.0104174
0.1065
-0.00964175
0.10663
-0.00837028
0.106593
-0.00804452
0.106609
-0.00702421
0.106519
-0.0069092
0.106416
-0.00736908
0.106423
-0.00795218
0.106317
-0.0102386
0.106683
-0.0113971
0.106714
-0.0125173
0.106904
-0.0132927
0.106751
-0.0126534
0.106728
-0.0148199
0.106534
-0.0167053
0.10622
-0.0178477
-0.0238108
0.106759
-0.0150989
0.10697
-0.013704
0.10702
-0.0122999
0.107034
-0.0104316
0.106987
-0.00959429
0.107084
-0.00846742
0.107012
-0.00797228
0.10695
-0.00696265
0.106778
-0.00673664
0.10659
-0.00718141
0.106527
-0.00788925
0.106449
-0.010161
0.106902
-0.0118492
0.10698
-0.0125961
0.107204
-0.013516
0.10691
-0.0123599
0.106856
-0.014766
0.106533
-0.0163817
0.10612
-0.0174355
-0.0240971
0.107372
-0.0154532
0.107619
-0.0139512
0.107658
-0.0123388
0.107616
-0.0103888
0.107539
-0.00951754
0.107613
-0.00854177
0.107515
-0.00787388
0.107376
-0.0068238
0.10711
-0.006471
0.106819
-0.00689062
0.10666
-0.00773005
0.106621
-0.0101217
0.107166
-0.0123947
0.107321
-0.012751
0.107575
-0.0137697
0.107137
-0.0119217
0.107033
-0.0146619
0.106515
-0.0158635
0.105981
-0.0169021
-0.0244984
0.108012
-0.0159017
0.108298
-0.0142367
0.108318
-0.0123586
0.108211
-0.0102824
0.108108
-0.00941459
0.108173
-0.00860602
0.108056
-0.00775692
0.107842
-0.00661061
0.107474
-0.00610272
0.107059
-0.00647592
0.106783
-0.00745378
0.106794
-0.0101325
0.107451
-0.0130521
0.107715
-0.0130149
0.107996
-0.0140504
0.107417
-0.0113425
0.107234
-0.0144792
0.106441
-0.0150708
0.105779
-0.0162405
-0.0250174
0.108682
-0.0164527
0.109004
-0.014559
0.10899
-0.0123448
0.108807
-0.0100993
0.108678
-0.00928582
0.108746
-0.00867339
0.108618
-0.00762953
0.108333
-0.00632537
0.107847
-0.0056163
0.107279
-0.00590772
0.106862
-0.00703723
0.106941
-0.0102113
0.107736
-0.0138475
0.108152
-0.013431
0.108458
-0.0143564
0.107745
-0.010629
0.107428
-0.0141621
0.106268
-0.0139107
0.105494
-0.015467
-0.0256518
0.109388
-0.0171162
0.109743
-0.0149143
0.109676
-0.0122769
0.109397
-0.00982038
0.109241
-0.00913054
0.109328
-0.00875972
0.109202
-0.0075043
0.108846
-0.00596943
0.108219
-0.00498882
0.107454
-0.00514323
0.106871
-0.00645383
0.107039
-0.0103795
0.108007
-0.0148154
0.108633
-0.0140567
0.108963
-0.0146865
0.108119
-0.00978466
0.107571
-0.0136146
0.105952
-0.0122913
0.105104
-0.0146189
-0.0263774
0.110141
-0.0179039
0.110523
-0.0152967
0.110373
-0.0121267
0.109972
-0.0094197
0.109788
-0.00894683
0.109915
-0.0088863
0.109813
-0.00740227
0.109388
-0.00554412
0.108586
-0.00418734
0.107567
-0.00412363
0.106786
-0.00567331
0.107065
-0.0106586
0.108252
-0.0160019
0.109157
-0.0149622
0.109508
-0.0150369
0.108521
-0.00879798
0.107601
-0.0126946
0.105453
-0.0101437
0.104572
-0.0137381
-0.0271266
0.11095
-0.0188283
0.111352
-0.015698
0.111081
-0.0118564
0.110524
-0.00886271
0.110308
-0.00873036
0.110505
-0.00908327
0.11046
-0.00735759
0.109967
-0.00505102
0.108944
-0.003164
0.107592
-0.00277148
0.106579
-0.00466117
0.106987
-0.011066
0.108449
-0.017464
0.109707
-0.0162207
0.110064
-0.0153936
0.108893
-0.00762665
0.107423
-0.0112253
0.104721
-0.00744146
0.10382
-0.0128374
-0.0277701
0.111831
-0.0199032
0.112241
-0.0161076
0.111799
-0.0114143
0.111039
-0.00810257
0.110781
-0.00847237
0.111092
-0.00939403
0.111157
-0.00742263
0.110596
-0.00449042
0.10928
-0.00184785
0.107497
-0.000988855
0.106215
-0.00337854
0.106756
-0.0116076
0.108549
-0.019257
0.110215
-0.0178859
0.110542
-0.0157205
0.109105
-0.00618977
0.106911
-0.00903109
0.103675
-0.00420546
0.102695
-0.0118576
-0.0281193
0.112803
-0.0211437
0.113207
-0.0165111
0.112521
-0.0107287
0.111494
-0.00707517
0.111178
-0.0081569
0.111663
-0.009879
0.111911
-0.00767067
0.111277
-0.00385631
0.109564
-0.000134546
0.107234
0.00134118
0.105637
-0.00178167
0.106288
-0.0122589
0.108428
-0.0213972
0.110496
-0.0199537
0.110729
-0.0159535
0.108924
-0.00438483
0.105889
-0.0059961
0.102168
-0.000483693
0.100951
-0.0106416
-0.0279617
0.113894
-0.0225682
0.11427
-0.0168867
0.113237
-0.00969603
0.111854
-0.00569192
0.111451
-0.00775443
0.112184
-0.0106112
0.112703
-0.00818966
0.111966
-0.00311993
0.109724
0.00210819
0.106716
0.00434901
0.104749
0.000184564
0.105412
-0.0129211
0.10781
-0.0237955
0.110179
-0.0223225
0.11024
-0.0160153
0.108
-0.00214423
0.104125
-0.00212151
0.0999658
0.00367577
0.0982796
-0.00895537
-0.0271298
0.115145
-0.0241972
0.115452
-0.0171927
0.113919
-0.00816311
0.112055
-0.00382824
0.111503
-0.00720222
0.112535
-0.0116438
0.113398
-0.00905203
0.112515
-0.00223673
0.109576
0.00504692
0.10579
0.00813482
0.10336
0.00261506
0.103789
-0.0133508
0.106185
-0.0261915
0.108655
-0.0247923
0.108517
-0.0158771
0.10589
0.000483112
0.101333
0.0024355
0.0967543
0.00825396
0.0943798
-0.0065808
-0.025581
0.116603
-0.026041
0.116742
-0.017331
0.114476
-0.00589767
0.111951
-0.00130269
0.111092
-0.00634386
0.11237
-0.0129214
0.113577
-0.0102591
0.112499
-0.00115931
0.108775
0.00877083
0.104175
0.0127352
0.101099
0.00569095
0.100849
-0.0131009
0.102826
-0.0281684
0.105182
-0.0271478
0.104953
-0.0156489
0.102171
0.00326607
0.0972167
0.00738934
0.0922251
0.0132455
0.089085
-0.00344065
-0.0234497
0.118252
-0.0280063
0.117966
-0.0170453
0.114625
-0.00255676
0.111156
0.00216636
0.109612
-0.00479959
0.110807
-0.0141169
0.112263
-0.0117151
0.111055
4.93505e-05
0.106705
0.0131205
0.101383
0.0180574
0.0973561
0.00971759
0.0958441
-0.0115889
0.0970161
-0.0293404
0.0991939
-0.0293256
0.0991753
-0.0156304
0.0966182
0.00582317
0.0915856
0.0124219
0.0862269
0.0186042
0.082477
0.00030923
-0.0210345
0.119712
-0.0295354
0.118445
-0.0157789
0.113561
0.00232782
0.108688
0.00703852
0.105688
-0.00179963
0.106106
-0.0145346
0.107715
-0.0133235
0.106819
0.000944953
0.102481
0.0174591
0.0966891
0.0238488
0.0913487
0.015058
0.0881814
-0.00842163
0.0885122
-0.0296712
0.0907457
-0.0315592
0.0913479
-0.0162325
0.089358
0.00781306
0.0844896
0.0172903
0.0788975
0.0241963
0.074938
0.00426875
-0.0187059
0.119214
-0.0288111
0.116011
-0.012576
0.109302
0.00903675
0.102462
0.0138791
0.0969015
0.00376063
0.0958185
-0.0134516
0.0979131
-0.0154182
0.0984196
0.00043846
0.0952163
0.0206624
0.0893066
0.0297585
0.0825356
0.021829
0.0779854
-0.00387144
0.0779882
-0.029674
0.0807012
-0.0342722
0.0821983
-0.0177295
0.080873
0.00913837
0.0762896
0.0218737
0.0707429
0.029743
0.0670575
0.00795412
-0.0168036
0.111304
-0.0217878
0.10543
-0.0067027
0.0976659
0.0168012
0.0888191
0.0227258
0.0804676
0.0121121
0.0784123
-0.0113963
0.0823074
-0.0193133
0.0856945
-0.00294863
0.084641
0.0217159
0.0789338
0.0354657
0.0712956
0.0294673
0.0664861
0.00093802
0.0669364
-0.0301243
0.0703589
-0.0376948
0.0726688
-0.0200394
0.0718372
0.00996996
0.0676222
0.0260887
0.0625137
0.0348515
0.0595329
0.0109349
-0.0155166
0.0862976
-0.00583866
0.0803607
-0.000765827
0.074613
0.022549
0.0654136
0.0319252
0.0568374
0.0206883
0.0565551
-0.011114
0.0636898
-0.026448
0.070492
-0.00975083
0.0715689
0.020639
0.0664093
0.0406252
0.0593389
0.0365377
0.0557353
0.00454156
0.0570052
-0.0313941
0.0608716
-0.0415612
0.0635839
-0.0227516
0.0629987
0.0105551
0.0593175
0.02977
0.0550582
0.0391107
0.0530077
0.0129854
-0.0148441
0.0348959
-0.00247426
0.0397717
-0.0056416
0.041946
0.0203747
0.0371315
0.0367397
0.0334287
0.024391
0.0369226
-0.0146078
0.0464701
-0.0359956
0.0553684
-0.018649
0.0577563
0.0182511
0.0539027
0.0444788
0.0492468
0.0411936
0.0477031
0.00608524
0.0494868
-0.0331778
0.0530934
-0.0451678
0.0557085
-0.0253667
0.0552114
0.0110522
0.0523004
0.0326809
0.0491683
0.0422428
0.0479759
0.0141778
-0.0146455
0.00402473
-0.00649898
0.00585237
-0.00746924
0.00738908
0.018838
0.00696278
0.0371661
0.00702079
0.024333
0.00836835
-0.0159553
0.0109445
-0.0385717
0.0135304
-0.0212349
0.0144205
0.0173611
0.0137171
0.0451822
0.012959
0.0419517
0.0128986
0.00614559
0.0133587
-0.0336378
0.0141735
-0.0459827
0.0148757
-0.0260689
0.0147476
0.0111803
0.0140777
0.0333508
0.0133844
0.0429361
0.0130934
0.0144688
-0.0146629
0.00200085
-0.00849984
0.0037683
-0.00923669
0.00558074
0.0170255
0.0056172
0.0371296
0.00620964
0.0237406
0.00768827
-0.017434
0.0101062
-0.0409897
0.0125942
-0.0237229
0.0135486
0.0164066
0.0130476
0.0456831
0.0125847
0.0424147
0.0127022
0.0060281
0.0131268
-0.0340625
0.0138213
-0.0466771
0.0144532
-0.0267008
0.0143319
0.0113016
0.013733
0.0339497
0.0131343
0.0435348
0.0128848
0.0147184
-0.0146904
0.00048748
-0.00898732
0.00208084
-0.01083
0.00405677
0.0150496
0.00459063
0.0365957
0.00571497
0.0226162
0.00728567
-0.0190047
0.00946447
-0.0431685
0.0117751
-0.0260335
0.0127569
0.0154249
0.0124773
0.0459627
0.0123296
0.0425624
0.0126188
0.00573887
0.012994
-0.0344376
0.0135513
-0.0472344
0.0140909
-0.0272404
0.0139694
0.0114231
0.0134423
0.0344769
0.0129347
0.0440423
0.0127298
0.0149234
-0.0147174
-0.000571252
-0.00841606
0.000794974
-0.0121963
0.00287844
0.0129661
0.00390953
0.0355646
0.00554081
0.020985
0.00715336
-0.0206172
0.00902467
-0.0450398
0.0110888
-0.0280977
0.0120737
0.0144399
0.0120247
0.0460117
0.012195
0.0423921
0.0126447
0.00528913
0.0129577
-0.0347506
0.0133616
-0.0476383
0.0137949
-0.0276737
0.0136681
0.0115499
0.013211
0.034934
0.0127918
0.0444616
0.0126243
0.0150909
-0.0147377
-0.00117937
-0.00723669
-7.2619e-05
-0.013303
0.00207829
0.0108152
0.00358928
0.0340536
0.00568195
0.0188923
0.00728716
-0.0222224
0.00879616
-0.0465488
0.0105513
-0.0298528
0.0115141
0.0134772
0.0116994
0.0458264
0.0121822
0.0419093
0.0127776
0.00469374
0.0130169
-0.03499
0.0132539
-0.0478752
0.013568
-0.0279878
0.0134309
0.0116869
0.013041
0.0353239
0.0127064
0.0447961
0.0125692
0.0152281
-0.0147455
-0.00132472
-0.00591196
-0.000458658
-0.0141691
0.00167854
0.00867802
0.0036329
0.0320993
0.00612414
0.016401
0.00767804
-0.0237763
0.00878496
-0.0476557
0.0101771
-0.031245
0.0110913
0.0125629
0.0115082
0.0454095
0.0122902
0.0411273
0.0130136
0.00397029
0.0131701
-0.0351464
0.0132295
-0.0479346
0.0134128
-0.0281712
0.0132601
0.0118396
0.0129336
0.0356505
0.0126792
0.0450505
0.0125652
0.0153421
-0.0147349
-0.00100922
-0.00490275
-0.00040035
-0.014778
0.00169229
0.00658538
0.00403236
0.0297592
0.00684556
0.0135878
0.00831152
-0.0252423
0.00899244
-0.0483366
0.009978
-0.0322305
0.0108165
0.0117245
0.0114554
0.0447706
0.0125159
0.0400668
0.0133479
0.00313832
0.0134143
-0.0352128
0.0132886
-0.047809
0.0133311
-0.0282137
0.0131573
0.0120133
0.0128893
0.0359185
0.0127102
0.0452296
0.0126126
0.0154397
-0.0147005
-0.000206139
-0.00469661
0.000124854
-0.015109
0.00212473
0.00458551
0.00477065
0.0271133
0.00781869
0.0105398
0.00916688
-0.0265905
0.00941446
-0.0485842
0.00996251
-0.0327786
0.0106983
0.0109887
0.0115425
0.0439263
0.0128544
0.038755
0.0137741
0.00221863
0.0137457
-0.0351844
0.0134307
-0.047494
0.0133241
-0.0281071
0.0131235
0.0122139
0.0129084
0.0361337
0.012799
0.0453391
0.0127113
0.0155273
-0.0146372
0.00101425
-0.00571086
0.0011547
-0.0152494
0.00297296
0.00276724
0.00582432
0.0242619
0.00901212
0.007352
0.0102184
-0.0277967
0.0100409
-0.0484067
0.0101349
-0.0328726
0.0107423
0.0103814
0.0117691
0.0428995
0.0132991
0.0372249
0.014285
0.00123276
0.0141593
-0.0350587
0.0136541
-0.0469889
0.013392
-0.027845
0.0131591
0.0124469
0.0129906
0.0363022
0.0129448
0.0453849
0.0128613
0.0156108
-0.0145403
0.00271983
-0.00843068
0.00266409
-0.0151937
0.00422604
0.00120529
0.00717442
0.0213136
0.010387
0.00413941
0.0114279
-0.0288376
0.0108524
-0.0478313
0.0104984
-0.0325186
0.010954
0.00992583
0.0121345
0.0417189
0.0138453
0.0355142
0.0148677
0.000210356
0.0146448
-0.0348358
0.013955
-0.0462991
0.0135368
-0.0274267
0.0132637
0.0127199
0.0131371
0.0364289
0.0131474
0.0453745
0.0130606
0.0156976
-0.0144036
0.0153274
-0.0102011
-0.013557
0.0141352
-0.0140014
0.0164453
-0.00110483
0.0233005
0.0144584
0.0303329
-0.00289298
0.0320469
-0.0305517
0.0293133
-0.0450977
0.0268767
-0.0300819
0.0273026
0.00949987
0.030542
0.0384795
0.0350563
0.0309999
0.0374124
-0.00214571
0.0365431
-0.0339665
0.0342481
-0.0440041
0.0327247
-0.0259034
0.0318658
0.0135788
0.0317539
0.0365407
0.031933
0.0451954
0.0316184
0.0160122
-0.0139282
0.0374654
0.00129002
-0.0489565
0.0308018
-0.00733776
0.0296621
3.48654e-05
0.0346569
0.00946357
0.0400361
-0.00827214
0.0406275
-0.0311432
0.0364478
-0.0409179
0.0320333
-0.0256674
0.0313844
0.0101487
0.0347701
0.0350939
0.0394749
0.0262951
0.0417132
-0.00438392
0.0403813
-0.0326346
0.0372023
-0.0408251
0.0348506
-0.0235516
0.0336793
0.01475
0.0336554
0.0365647
0.034023
0.0448278
0.0335916
0.0164435
-0.013204
0.0585494
0.0147746
-0.072034
0.0489497
0.00226194
0.0448242
0.00416042
0.0471258
0.00716194
0.0499892
-0.0111355
0.0492143
-0.0303683
0.0442497
-0.0359533
0.0386551
-0.0200728
0.0370287
0.011775
0.0401214
0.0320012
0.0445528
0.0218637
0.0464408
-0.00627187
0.0446963
-0.0308902
0.0408413
-0.0369701
0.0377451
-0.0204554
0.0362254
0.0162698
0.0361806
0.0366095
0.0366758
0.0443325
0.0361342
0.0169852
-0.0122136
0.0717542
0.0237917
-0.0807713
0.0633985
0.0106177
0.0586373
0.00892154
0.0588172
0.00698207
0.0590943
-0.0114126
0.0568767
-0.0281507
0.0516853
-0.0307619
0.0458609
-0.0142484
0.0436732
0.0139627
0.0462357
0.0294387
0.0500225
0.0180769
0.0513235
-0.00757295
0.0491915
-0.0287581
0.0449038
-0.0326825
0.0412428
-0.0167943
0.0393813
0.0181313
0.0392333
0.0367574
0.0397921
0.0437737
0.0391528
0.0176245
-0.0109666
0.0777802
0.0281225
-0.082111
0.0723124
0.0160854
0.068679
0.012555
0.067952
0.00770904
0.0663834
-0.00984397
0.0630124
-0.0247797
0.0579972
-0.0257467
0.0527461
-0.00899723
0.05059
0.0161187
0.0526446
0.0273841
0.0555857
0.0151358
0.0561191
-0.00810632
0.0535986
-0.0262376
0.0491135
-0.0281973
0.0451308
-0.0128116
0.0429951
0.0202669
0.0426912
0.0370614
0.0432596
0.0432053
0.0425466
0.0183375
-0.00948943
0.0795947
0.0295581
-0.0810302
0.0766713
0.0190088
0.0746098
0.0146164
0.0738624
0.0084565
0.0714207
-0.00740236
0.0674302
-0.0207892
0.0628336
-0.0211502
0.058624
-0.00478762
0.0570394
0.0177033
0.0587929
0.0256306
0.0608849
0.0130439
0.0605906
-0.0078121
0.0576882
-0.0233352
0.0532081
-0.0237172
0.0491754
-0.00877887
0.0468971
0.0225451
0.0464276
0.0375309
0.0469627
0.0426702
0.0462047
0.0190955
-0.00781966
0.0795378
0.0296506
-0.0796304
0.0782237
0.020323
0.0773957
0.0154444
0.0769614
0.00889073
0.0743918
-0.00483273
0.0703067
-0.0167041
0.0662293
-0.0170727
0.0631657
-0.00172399
0.0624496
0.0184194
0.0641452
0.023935
0.0655449
0.0116441
0.0645163
-0.00678345
0.0612843
-0.0201032
0.0569669
-0.0193998
0.0531434
-0.00495542
0.0509055
0.024783
0.0503123
0.038124
0.0507863
0.0421963
0.0500111
0.0198706
-0.0060003
0.0788594
0.0292239
-0.0784327
0.0783788
0.0208036
0.0782594
0.0155638
0.0781225
0.00902763
0.0758222
-0.00253237
0.0720086
-0.0128905
0.0684545
-0.0135186
0.066384
0.000346434
0.0665439
0.0182595
0.0683368
0.0221422
0.0692727
0.0107083
0.0677281
-0.00523888
0.0642791
-0.0166542
0.0602336
-0.0153543
0.0568273
-0.00154912
0.0548347
0.0267756
0.0542105
0.0387482
0.0546161
0.0417907
0.0538482
0.0206385
-0.00407591
0.0780661
0.0286077
-0.0774499
0.0779682
0.0209014
0.0781491
0.015383
0.0781726
0.00900411
0.076271
-0.000630836
0.0729168
-0.0095362
0.0698436
-0.0104455
0.0685109
0.0016792
0.0693458
0.0174246
0.0712599
0.0202281
0.0719417
0.0100265
0.0701525
-0.00344972
0.0666424
-0.0131441
0.0629328
-0.0116447
0.0600664
0.00131727
0.0585081
0.0283339
0.0579827
0.0392737
0.0583366
0.0414367
0.0575978
0.0213773
-0.00209109
0.0773067
0.0279186
-0.0766176
0.0773821
0.0208261
0.0776333
0.0151318
0.0776923
0.00894507
0.076172
0.000889498
0.0733333
-0.00669751
0.0706928
-0.00780496
0.0698438
0.00252814
0.071079
0.0161894
0.0730393
0.0182678
0.0736057
0.00946013
0.0718202
-0.00166426
0.0684148
-0.00973868
0.0650621
-0.00829203
0.0627705
0.00360891
0.0617746
0.0293297
0.0614895
0.0395588
0.0618298
0.0410964
0.0611426
0.0220646
-9.10732e-05
0.0766008
0.027205
-0.0758872
0.0767649
0.020662
0.0769912
0.0149054
0.0770149
0.00892134
0.0758057
0.00209871
0.0734624
-0.00435421
0.0712107
-0.00555326
0.0706539
0.0030849
0.0720397
0.0148036
0.0739344
0.0163731
0.0744456
0.00894893
0.0728411
-5.98091e-05
0.0696851
-0.00658269
0.0666863
-0.00529323
0.0649129
0.00538228
0.0645267
0.029716
0.0646042
0.0394813
0.0649798
0.0407207
0.0643698
0.0226747
0.00187644
0.0759363
0.0264972
-0.0752285
0.0761542
0.0204441
0.0763333
0.0147263
0.0762984
0.00895629
0.0753315
0.00306558
0.0734282
-0.00245087
0.0715268
-0.00365191
0.0711404
0.00347135
0.0725002
0.0134438
0.0742323
0.014641