/*--------------------------------*- C++ -*----------------------------------*\
| =========                 |                                                 |
| \\      /  F ield         | OpenFOAM: The Open Source CFD Toolbox           |
|  \\    /   O peration     | Version:  v1806                                 |
|   \\  /    A nd           | Web:      www.OpenFOAM.com                      |
|    \\/     M anipulation  |                                                 |
\*---------------------------------------------------------------------------*/
FoamFile
{
    version     2.0;
    format      ascii;
    class       volScalarField;
    location    "240";
    object      p;
}
// * * * * * * * * * * * * * * * * * * * * * * * * * * * * * * * * * * * * * //

dimensions      [0 2 -2 0 0 0 0];


internalField   nonuniform List<scalar> 
2400
(
0.000101942
0.00010317
0.000105566
0.00010924
0.000113982
0.000119841
0.000126411
0.000133696
0.000140978
0.000148094
0.000153855
0.00015778
0.00015816
0.00015412
0.000143674
0.000125792
9.91872e-05
6.38695e-05
2.07982e-05
-2.91121e-05
0.00030542
0.000309007
0.000315987
0.000326792
0.000340728
0.000358058
0.000377455
0.000399115
0.00042074
0.000442102
0.000459438
0.000471648
0.000473346
0.000462265
0.000432211
0.00038047
0.000302813
0.000199006
7.06474e-05
-7.64252e-05
0.000507746
0.000513665
0.000525173
0.000543063
0.00056616
0.00059499
0.000627292
0.000663563
0.000699849
0.000736082
0.000765724
0.000787426
0.000791672
0.000775307
0.000727138
0.000643147
0.000515132
0.000342613
0.000127608
-0.000119056
0.000708143
0.000716406
0.00073247
0.000757524
0.000789895
0.000830462
0.000875965
0.000927415
0.000979025
0.0010313
0.00107448
0.00110768
0.00111634
0.00109739
0.00103303
0.000918899
0.00074079
0.000498471
0.000193343
-0.000160044
0.000905856
0.000916489
0.000937156
0.000969488
0.00101129
0.00106391
0.00112301
0.0011904
0.00125823
0.00132814
0.00138654
0.00143406
0.00144967
0.00143206
0.00135415
0.00121322
0.000985375
0.000672137
0.000271413
-0.000197994
0.00110012
0.00111315
0.00113848
0.00117821
0.00122962
0.00129466
0.00136785
0.00145213
0.00153729
0.00162685
0.00170262
0.0017681
0.00179398
0.00178304
0.00169506
0.00153239
0.00125526
0.000870437
0.000366724
-0.000230699
0.00129018
0.0013056
0.00133565
0.00138291
0.00144414
0.00152199
0.00160986
0.00171207
0.00181592
0.00192748
0.00202324
0.00211116
0.00215144
0.00215409
0.00206051
0.00188349
0.00155759
0.00110187
0.000485208
-0.000255651
0.00147525
0.00149304
0.00152791
0.00158278
0.00165408
0.00174511
0.00184831
0.00196954
0.00209365
0.00222979
0.00234867
0.00246422
0.00252397
0.00254885
0.00245536
0.00227443
0.00190044
0.00137736
0.000633915
-0.000269247
0.00165456
0.00167467
0.00171443
0.00177699
0.00185859
0.00196311
0.00208236
0.00222365
0.00236978
0.00253317
0.00267882
0.00282771
0.00291315
0.00297058
0.0028846
0.00271399
0.00229309
0.00171127
0.000821398
-0.0002656
0.00182733
0.00184966
0.0018944
0.00196463
0.00205679
0.00217498
0.00231103
0.00247326
0.00264336
0.00283655
0.00301319
0.00320138
0.00332016
0.00342181
0.00335339
0.00321145
0.00274646
0.00212233
0.00105828
-0.000234292
0.00199279
0.0020172
0.00206699
0.0021448
0.00224774
0.0023796
0.00253323
0.002717
0.00291316
0.00313835
0.00335082
0.00358406
0.00374559
0.00390391
0.00386694
0.00377592
0.00327371
0.00263408
0.00135778
-0.000155753
0.00215017
0.00217646
0.00223137
0.00231655
0.00243045
0.00257578
0.00274769
0.00295323
0.00317764
0.00343645
0.00369018
0.00397357
0.00418933
0.00441664
0.00443036
0.00441506
0.00389102
0.00327412
0.00173733
5.81778e-06
0.00229872
0.00232664
0.00238671
0.00247895
0.0026039
0.00276223
0.00295305
0.0031801
0.0034349
0.00372814
0.00402904
0.00436652
0.00465034
0.00495774
0.00504839
0.00513351
0.00461802
0.00407143
0.00222286
0.00031087
0.0024377
0.00246698
0.00253217
0.00263103
0.002767
0.00293763
0.00314776
0.00339556
0.00368267
0.00401014
0.0043643
0.00475824
0.00512625
0.00552276
0.00572537
0.00593206
0.00547786
0.00505005
0.00285601
0.000849176
0.00256639
0.00259676
0.00266695
0.00277189
0.00291866
0.00310064
0.00333016
0.00359743
0.00391824
0.00427872
0.00469173
0.00514266
0.00561254
0.00610493
0.00646486
0.00680893
0.00649938
0.00622147
0.00370399
0.00172583
0.00268411
0.0027153
0.00279027
0.00290067
0.00305777
0.00324998
0.00349849
0.00378353
0.00413855
0.00452974
0.00500582
0.00551209
0.00610109
0.00669406
0.0072669
0.00776316
0.00772414
0.00758715
0.00487607
0.0030217
0.0027902
0.00282199
0.00290138
0.00301654
0.00318323
0.00338441
0.00365092
0.00395171
0.00434018
0.00475906
0.00529993
0.00585758
0.00657911
0.00727294
0.00812103
0.00879233
0.00921192
0.00916311
0.0065532
0.00475857
0.00288406
0.00291632
0.00299962
0.0031188
0.00329397
0.00350286
0.00378559
0.00410002
0.00451943
0.00496271
0.00556609
0.00617038
0.00702945
0.00781944
0.00899413
0.00986297
0.0110135
0.0110317
0.00903715
0.00673131
0.0029651
0.0029979
0.00308434
0.00320686
0.00338895
0.00360442
0.00390064
0.00422682
0.00467247
0.00513723
0.00579543
0.00644231
0.0074292
0.0083133
0.00983212
0.0109154
0.013084
0.0133197
0.0130731
0.00614982
0.00303284
0.00306627
0.0031553
0.00327997
0.00346777
0.00368785
0.00399534
0.00432979
0.00479759
0.00527785
0.00598305
0.00666256
0.00776194
0.00872658
0.0105658
0.0118856
0.0152513
0.0159919
0.0208973
0.00126082
-6.86692e-05
-8.42201e-05
-9.63661e-05
-0.000106686
-0.00011681
-0.000126991
-0.000136972
-0.000146533
-0.000155478
-0.000163676
-0.000172419
-0.000205883
-0.000238145
-0.000269707
-0.000300848
-0.000331474
-0.000361338
-0.000390246
-0.000418093
-0.00044491
-0.000281129
-0.000339606
-0.000396185
-0.000451207
-0.000505131
-0.000557909
-0.00060925
-0.000658884
-0.000706577
-0.000752233
-0.000395401
-0.000480288
-0.000561749
-0.000640672
-0.000718073
-0.000793937
-0.00086777
-0.000939126
-0.00100764
-0.00107318
-0.000513166
-0.000626729
-0.000735608
-0.000841122
-0.000944672
-0.00104619
-0.00114494
-0.0012403
-0.00133174
-0.00141908
-0.000635347
-0.000781351
-0.000921421
-0.00105714
-0.00119026
-0.00132065
-0.00144734
-0.00156947
-0.00168636
-0.00179777
-0.000763082
-0.000946595
-0.00112286
-0.00129358
-0.00146083
-0.00162439
-0.00178299
-0.00193554
-0.00208116
-0.00221951
-0.000897248
-0.00112519
-0.00134461
-0.00155697
-0.00176453
-0.00196697
-0.0021627
-0.00235033
-0.00252873
-0.00269753
-0.0010387
-0.00132092
-0.00159346
-0.00185668
-0.00211288
-0.00236168
-0.00260119
-0.00282969
-0.00304578
-0.00324902
-0.00118886
-0.00154022
-0.00188032
-0.00220714
-0.00252303
-0.00282783
-0.00311944
-0.00339577
-0.00365517
-0.00389714
-0.00135147
-0.00179585
-0.00222462
-0.00263203
-0.0030217
-0.00339452
-0.00374831
-0.00408048
-0.00438909
-0.00467375
-0.00153682
-0.00211426
-0.00266189
-0.00317109
-0.0036513
-0.00410641
-0.00453395
-0.00493038
-0.00529346
-0.00562334
-0.00176986
-0.00254772
-0.00325614
-0.00389113
-0.00447966
-0.00503231
-0.00554536
-0.00601329
-0.00643352
-0.00680754
-0.00210386
-0.00318999
-0.00411536
-0.00490197
-0.0056165
-0.00628139
-0.00688935
-0.0074311
-0.00790416
-0.00831274
-0.00265199
-0.00419848
-0.00540478
-0.00636764
-0.00722661
-0.00801898
-0.00872777
-0.00933705
-0.00984579
-0.0102629
-0.00368491
-0.00588451
-0.00741494
-0.00854965
-0.00955284
-0.0104755
-0.0112774
-0.0119297
-0.012434
-0.0128073
-0.00571912
-0.00888471
-0.0107956
-0.0120528
-0.0131381
-0.0141284
-0.0149495
-0.0155563
-0.0159541
-0.0161746
-0.00910188
-0.0135926
-0.0160259
-0.0174539
-0.0185977
-0.0195555
-0.020244
-0.0206409
-0.020774
-0.0206988
-0.0146764
-0.0195242
-0.0217669
-0.0232375
-0.0244283
-0.0252149
-0.0255465
-0.0255187
-0.025245
-0.0248133
-0.0345441
-0.0350002
-0.0322766
-0.0312659
-0.0311777
-0.0310196
-0.0306181
-0.030061
-0.0294522
-0.028751
-0.000190633
-0.000224415
-0.000227664
-0.000210022
-0.000181243
-0.000146193
-0.000111907
-7.98585e-05
-5.79401e-05
-4.33472e-05
-3.35665e-05
-2.68105e-05
-1.37126e-05
-2.2254e-06
1.48953e-05
2.65102e-05
2.71154e-05
2.27846e-05
8.53426e-06
5.17951e-07
-0.000557847
-0.000662321
-0.000673067
-0.000622719
-0.000538777
-0.000436721
-0.000334344
-0.00024029
-0.000172489
-0.000127641
-9.81214e-05
-7.79149e-05
-4.28797e-05
-8.85583e-06
3.64994e-05
7.03994e-05
8.01178e-05
7.32517e-05
4.80609e-05
1.61421e-05
-0.000939081
-0.00111194
-0.00112777
-0.00104194
-0.000900459
-0.000729052
-0.000556538
-0.000399133
-0.00028436
-0.000209916
-0.000161633
-0.000129514
-7.39214e-05
-1.71173e-05
5.68091e-05
0.000115747
0.000135718
0.000126471
8.53303e-05
2.81969e-05
-0.0013423
-0.00158295
-0.00159931
-0.00147316
-0.0012697
-0.00102456
-0.000778348
-0.000554916
-0.000392794
-0.000289886
-0.000224783
-0.000182606
-0.000106137
-2.59237e-05
7.92194e-05
0.000164801
0.000194212
0.00018192
0.000122856
3.9487e-05
-0.0017767
-0.00208197
-0.00209164
-0.00191874
-0.0016477
-0.00132352
-0.000998914
-0.000706167
-0.000496181
-0.000366344
-0.000287239
-0.000237388
-0.00013992
-3.55427e-05
0.000103874
0.0002179
0.000256609
0.000241602
0.000161883
4.9872e-05
-0.0022524
-0.00261621
-0.0026092
-0.00238135
-0.00203586
-0.00162617
-0.00121717
-0.000851069
-0.000592511
-0.00043792
-0.000348711
-0.000294555
-0.000176255
-4.67317e-05
0.000130919
0.00027628
0.000324562
0.000307161
0.000202212
5.87732e-05
-0.00278169
-0.00319378
-0.00315694
-0.00286391
-0.0024357
-0.00193266
-0.00143207
-0.000987517
-0.000679549
-0.000503145
-0.000409109
-0.00035514
-0.000216321
-6.03003e-05
0.000160874
0.000341429
0.000399575
0.000380081
0.000243634
6.50353e-05
-0.00337968
-0.00382361
-0.00374001
-0.00336929
-0.00284871
-0.0022431
-0.00164223
-0.00111299
-0.000754687
-0.000560346
-0.000468446
-0.00042038
-0.000261555
-7.72411e-05
0.0001942
0.000414696
0.000483202
0.000462023
0.000285551
6.76086e-05
-0.00406498
-0.00451536
-0.00436379
-0.0039003
-0.00327638
-0.0025576
-0.00184593
-0.00122446
-0.000814837
-0.000607585
-0.000526826
-0.000491772
-0.000313802
-9.8907e-05
0.000231127
0.000497269
0.000577031
0.000554568
0.000326832
6.50936e-05
-0.00486056
-0.00527952
-0.00503387
-0.00445959
-0.00372023
-0.0028762
-0.00204124
-0.00131844
-0.000856364
-0.000642608
-0.000584425
-0.000571062
-0.000375353
-0.000127075
0.000271512
0.000589911
0.000682454
0.000659023
0.00036594
5.59896e-05
-0.00579473
-0.00612729
-0.00575591
-0.00504954
-0.00418183
-0.00319902
-0.002226
-0.00139096
-0.000875084
-0.000662754
-0.000641297
-0.000660023
-0.000448821
-0.000163928
0.000314569
0.000692398
0.000800112
0.00077602
0.000401208
3.91735e-05
-0.00690209
-0.00707047
-0.00653535
-0.00567172
-0.00466277
-0.00352614
-0.00239782
-0.00143777
-0.000866433
-0.000664904
-0.000696772
-0.000759702
-0.000536675
-0.000211884
0.000358471
0.000802826
0.00092907
0.000904706
0.000431235
1.45248e-05
-0.00822448
-0.00812133
-0.00737634
-0.00632555
-0.00516411
-0.00385735
-0.00255452
-0.00145514
-0.000826141
-0.000645587
-0.000748885
-0.000869003
-0.000640067
-0.000273099
0.000399802
0.000916504
0.00106545
0.00104157
0.000455136
-1.64132e-05
-0.00981189
-0.00929123
-0.00827918
-0.00700522
-0.00568398
-0.0041912
-0.00269515
-0.00144222
-0.000752538
-0.000601526
-0.000793296
-0.000983004
-0.000756906
-0.000348424
0.000433138
0.00102479
0.00120083
0.00117912
0.00047262
-5.00492e-05
-0.0117167
-0.0105836
-0.00923638
-0.00769055
-0.00621135
-0.00452239
-0.00282072
-0.00140359
-0.000649598
-0.000531951
-0.000822375
-0.00109079
-0.000879787
-0.000435714
0.000451302
0.00111472
0.00132096
0.00130438
0.000483197
-8.11295e-05
-0.0139617
-0.0119746
-0.0102181
-0.00835046
-0.00672242
-0.00483887
-0.00293578
-0.00135393
-0.000532046
-0.000442186
-0.000826751
-0.00117498
-0.000994225
-0.00052789
0.000446982
0.00117004
0.00140565
0.00139796
0.000484755
-0.000103941
-0.0165132
-0.0133683
-0.0111421
-0.00890114
-0.00717417
-0.00511867
-0.00304777
-0.00132011
-0.000429848
-0.000347903
-0.000800883
-0.00121507
-0.00107898
-0.000611578
0.000415872
0.00117431
0.00143082
0.00143496
0.000472728
-0.000113749
-0.019263
-0.0146354
-0.0119005
-0.00926973
-0.00750746
-0.00532803
-0.0031604
-0.00133544
-0.000385876
-0.000281877
-0.000748732
-0.00119349
-0.00110901
-0.000666478
0.000360456
0.00111562
0.00137358
0.00138845
0.000440836
-0.000107557
-0.0212699
-0.0154467
-0.0124278
-0.00943977
-0.00766835
-0.00542813
-0.00326486
-0.00142559
-0.000445862
-0.000283177
-0.000686505
-0.00110152
-0.00106014
-0.000666824
0.000291239
0.000991729
0.00122085
0.001239
0.000383172
-8.43746e-05
-0.0230258
-0.0160624
-0.012775
-0.00945321
-0.00764317
-0.00539214
-0.0033431
-0.00159396
-0.000632552
-0.000381819
-0.000633007
-0.000941308
-0.000915797
-0.000590048
0.000224972
0.000810307
0.000974588
0.000986583
0.000297061
-4.5723e-05
-0.0229857
-0.0160318
-0.0129018
-0.00936885
-0.00750077
-0.00526341
-0.00336992
-0.00175751
-0.000846188
-0.00051345
-0.000602707
-0.000783026
-0.000742719
-0.000478155
0.000189491
0.00065169
0.000744662
0.000755769
0.000219214
-9.33064e-06
-0.0226599
-0.0160785
-0.012983
-0.00933145
-0.00739742
-0.00517275
-0.00337627
-0.00186002
-0.00098421
-0.000604214
-0.000590943
-0.000685991
-0.00063093
-0.000398622
0.00017191
0.000557404
0.000607136
0.000610963
0.000173951
1.37545e-05
-0.0224804
-0.0161474
-0.0130708
-0.00929652
-0.00727536
-0.00506654
-0.0033738
-0.00196906
-0.00113451
-0.000707128
-0.000583165
-0.000582639
-0.000506724
-0.000304912
0.000158082
0.000460348
0.00046533
0.000456822
0.00012885
3.8325e-05
-0.0223584
-0.0162229
-0.0131576
-0.00925833
-0.00713909
-0.00494661
-0.00336465
-0.0020822
-0.00129314
-0.000817848
-0.000577367
-0.000473628
-0.00037138
-0.000200085
0.000148424
0.000360958
0.000320172
0.000297518
8.39194e-05
6.34859e-05
-0.0223106
-0.0163001
-0.0132475
-0.00921757
-0.00699337
-0.00481733
-0.003351
-0.0021973
-0.00145581
-0.000932407
-0.000572327
-0.000360527
-0.000227502
-8.67944e-05
0.000142467
0.00026036
0.000173958
0.000136364
3.98187e-05
8.85948e-05
-0.0223415
-0.0163812
-0.0133388
-0.00917527
-0.00684311
-0.00468423
-0.00333517
-0.00231232
-0.0016181
-0.00104679
-0.000566896
-0.000245186
-7.75608e-05
3.20771e-05
0.000139375
0.000159898
2.93004e-05
-2.34528e-05
-2.62145e-06
0.00011302
-0.0224445
-0.0164623
-0.0134255
-0.00913078
-0.0066927
-0.00455295
-0.00331955
-0.00242526
-0.00177557
-0.00115706
-0.000559943
-0.0001296
7.35487e-05
0.000153243
0.000138159
6.08684e-05
-0.000111351
-0.000178833
-4.26437e-05
0.000136164
-0.0226068
-0.0165363
-0.0134945
-0.00908214
-0.00654608
-0.00442857
-0.0033062
-0.00253402
-0.00192409
-0.00125961
-0.000550528
-1.58842e-05
0.000222903
0.000273244
0.000137755
-3.54237e-05
-0.00024567
-0.000326947
-7.96064e-05
0.000157528
-0.0228524
-0.0165823
-0.0135395
-0.00902976
-0.00640677
-0.0043154
-0.00329712
-0.00263675
-0.0020601
-0.00135119
-0.000537741
9.41122e-05
0.000366996
0.000388515
0.000136996
-0.000128052
-0.000371735
-0.000464936
-0.000113248
0.00017614
-0.0232847
-0.0166053
-0.013566
-0.008984
-0.00627883
-0.00422386
-0.00329668
-0.00273398
-0.00218148
-0.00142866
-0.000520378
0.000199543
0.00050338
0.000495043
0.000134191
-0.000217954
-0.000489322
-0.000589056
-0.000144257
0.00018914
-0.0222134
-0.0171451
-0.0136028
-0.00890893
-0.00603145
-0.00408406
-0.00332436
-0.00293773
-0.00241316
-0.00156451
-0.000473463
0.000415797
0.000778099
0.000700284
0.000119866
-0.000410068
-0.000727756
-0.000824825
-0.000207391
0.000203846
-0.0198732
-0.0156267
-0.0127486
-0.00857873
-0.00575154
-0.0039952
-0.00337923
-0.00310528
-0.0025653
-0.00162365
-0.000395848
0.000622734
0.0010171
0.000870164
7.23571e-05
-0.000617808
-0.000947324
-0.00103406
-0.000266022
0.000216097
-0.0164718
-0.0140433
-0.0116025
-0.00815039
-0.00558742
-0.00403622
-0.00343366
-0.00313535
-0.00253879
-0.00156633
-0.000341178
0.000679694
0.00105012
0.000865528
-3.18211e-06
-0.000739546
-0.00101967
-0.00108282
-0.000289458
0.000199581
-0.0128938
-0.0118423
-0.0101273
-0.00756835
-0.00540258
-0.00403704
-0.00341033
-0.00303601
-0.00240141
-0.00146512
-0.000338228
0.00059878
0.000925771
0.000738074
-7.67749e-05
-0.000772586
-0.000984228
-0.00101662
-0.000293121
0.000159268
-0.0102624
-0.0100172
-0.00886234
-0.00693754
-0.00515732
-0.00395703
-0.00330173
-0.00286058
-0.00222182
-0.00136181
-0.000380605
0.000439353
0.000716666
0.000565207
-0.000125553
-0.000730546
-0.000880385
-0.000890043
-0.00028697
0.000108513
-0.00814314
-0.00841619
-0.00767474
-0.00625711
-0.00482938
-0.00378888
-0.00313577
-0.00265833
-0.00204036
-0.00127237
-0.000440118
0.000260624
0.000499599
0.000393726
-0.000147312
-0.000643744
-0.000749029
-0.000744806
-0.000274315
5.8839e-05
-0.00651952
-0.00706499
-0.00663903
-0.00560947
-0.00447052
-0.0035725
-0.00294248
-0.00245429
-0.00187204
-0.00119508
-0.000494876
9.73819e-05
0.000307496
0.000245211
-0.000153299
-0.000543422
-0.000620168
-0.000607205
-0.000256261
1.76583e-05
-0.0052652
-0.00593545
-0.00573736
-0.00499399
-0.00408797
-0.00332006
-0.00273159
-0.00225464
-0.0017178
-0.00112396
-0.000534559
-3.56825e-05
0.000153473
0.0001273
-0.000153437
-0.000449916
-0.000507691
-0.000489346
-0.000233834
-1.19642e-05
-0.00428453
-0.00498636
-0.00494545
-0.00441566
-0.00369879
-0.00304837
-0.00251184
-0.00206088
-0.00157331
-0.00105404
-0.000556153
-0.000135549
3.77694e-05
3.82252e-05
-0.000152075
-0.000371124
-0.000415657
-0.00039375
-0.000208646
-3.04656e-05
-0.00350799
-0.00418568
-0.00424766
-0.00387766
-0.00331362
-0.00276696
-0.00228753
-0.0018716
-0.00143436
-0.000982009
-0.000559882
-0.000204644
-4.52881e-05
-2.62577e-05
-0.000150281
-0.000307809
-0.000342174
-0.000317783
-0.000182316
-4.01429e-05
-0.00288322
-0.00350684
-0.00363073
-0.00337943
-0.00293822
-0.00248226
-0.0020611
-0.00168543
-0.00129823
-0.000906144
-0.000547701
-0.00024757
-0.000101649
-7.04058e-05
-0.000147289
-0.000257248
-0.000283201
-0.00025751
-0.000156373
-4.101e-05
-0.00237199
-0.00292733
-0.00308293
-0.00291857
-0.00257576
-0.00219865
-0.00183446
-0.00150161
-0.0011631
-0.000825715
-0.000521821
-0.000268826
-0.000136441
-9.79658e-05
-0.000142134
-0.000216254
-0.000235107
-0.000209303
-0.000132246
-4.02583e-05
-0.00194617
-0.00242817
-0.00259389
-0.00249183
-0.00222771
-0.00191892
-0.00160903
-0.00131963
-0.00102789
-0.000740533
-0.000484355
-0.000272154
-0.000153827
-0.000112123
-0.000134258
-0.000182075
-0.000194991
-0.000170148
-0.000110336
-3.70041e-05
-0.0015849
-0.00199347
-0.00215443
-0.00209564
-0.00189435
-0.0016447
-0.00138573
-0.00113925
-0.000892134
-0.000650677
-0.000437162
-0.000260568
-0.000157191
-0.000115533
-0.000123467
-0.000152571
-0.00016078
-0.00013815
-9.06983e-05
-3.24236e-05
-0.00127257
-0.00161005
-0.00175631
-0.00172623
-0.00157509
-0.00137678
-0.00116513
-0.000960373
-0.000755738
-0.00055695
-0.000381794
-0.000237472
-0.000149432
-0.000110425
-0.00010985
-0.000126142
-0.000130777
-0.000110519
-7.31143e-05
-2.72611e-05
-0.000997275
-0.00126694
-0.00139206
-0.0013798
-0.00126875
-0.00111528
-0.000947507
-0.000782973
-0.000618766
-0.000459915
-0.000320189
-0.00020535
-0.000133009
-9.86456e-05
-9.36811e-05
-0.000101651
-0.000103671
-8.64752e-05
-5.7308e-05
-2.19285e-05
-0.000749731
-0.000954992
-0.00105496
-0.0010525
-0.000973743
-0.00085987
-0.000732885
-0.000607007
-0.000481378
-0.000360222
-0.000253723
-0.000166325
-0.000109949
-8.17431e-05
-7.53293e-05
-7.83321e-05
-7.87172e-05
-6.49965e-05
-4.29062e-05
-1.66521e-05
-0.000522726
-0.000666558
-0.000738989
-0.000740683
-0.000688344
-0.000609944
-0.000521136
-0.000432457
-0.000343777
-0.000258525
-0.000183635
-0.000122244
-8.20563e-05
-6.1112e-05
-5.52974e-05
-5.56663e-05
-5.51728e-05
-4.51619e-05
-2.95829e-05
-1.15781e-05
-0.000309399
-0.000394827
-0.000438759
-0.000440968
-0.000410908
-0.000364931
-0.000312154
-0.000259413
-0.000206345
-0.000155538
-0.000111047
-7.46139e-05
-5.09696e-05
-3.81158e-05
-3.43179e-05
-3.36017e-05
-3.26607e-05
-2.63331e-05
-1.66398e-05
-6.5242e-06
-0.000105706
-0.000133106
-0.000148005
-0.000148721
-0.000138459
-0.000123062
-0.000104994
-8.73051e-05
-6.91757e-05
-5.19453e-05
-3.71303e-05
-2.47317e-05
-1.75244e-05
-1.33747e-05
-1.27024e-05
-1.20837e-05
-1.10263e-05
-8.69886e-06
-3.21122e-06
-1.2058e-06
-0.0318009
-0.0320291
-0.0281453
-0.0259898
-0.025408
-0.025321
-0.0253084
-0.0253243
-0.0253821
-0.0253719
-0.00503585
-0.0090006
-0.0113781
-0.0132575
-0.0150609
-0.0166832
-0.0179735
-0.0189005
-0.0194947
-0.0198253
-0.00494756
-0.00822224
-0.0101521
-0.0113394
-0.0123372
-0.0132724
-0.0140892
-0.0147427
-0.0152312
-0.0155808
-0.00230223
-0.00411938
-0.00543065
-0.00643822
-0.00736175
-0.00825306
-0.00907899
-0.00980764
-0.0104309
-0.0109557
-0.0014293
-0.00263937
-0.0036837
-0.00457212
-0.00537899
-0.00613382
-0.0068302
-0.00745673
-0.00800902
-0.00848965
-0.00117307
-0.00197069
-0.00270903
-0.00337303
-0.00398814
-0.00456856
-0.00511355
-0.00561824
-0.0060799
-0.00649884
-0.00101429
-0.00156329
-0.00209395
-0.00259499
-0.00307242
-0.00352976
-0.00396532
-0.00437577
-0.0047585
-0.00511222
-0.000895065
-0.00130243
-0.00170055
-0.00208414
-0.00245528
-0.00281434
-0.00315938
-0.003488
-0.00379831
-0.00408911
-0.000793312
-0.00110875
-0.0014153
-0.00171214
-0.00200195
-0.00228479
-0.00255886
-0.0028222
-0.00307334
-0.00331126
-0.000698681
-0.00094786
-0.00118879
-0.00142253
-0.00165193
-0.00187713
-0.00209657
-0.0023087
-0.00251234
-0.0027067
-0.000609945
-0.000808987
-0.00100113
-0.00118774
-0.00137136
-0.00155213
-0.00172887
-0.00190041
-0.00206585
-0.00222461
-0.000527453
-0.000687343
-0.000841731
-0.00099185
-0.00113972
-0.00128551
-0.00142836
-0.00156739
-0.00170193
-0.00183156
-0.000451059
-0.000579613
-0.000703863
-0.000824819
-0.000944043
-0.00106169
-0.00117711
-0.00128968
-0.00139888
-0.00150441
-0.000380202
-0.000483111
-0.000582679
-0.000679714
-0.000775406
-0.000869875
-0.000962652
-0.00105326
-0.00114133
-0.00122663
-0.000314159
-0.000395609
-0.000474482
-0.000551419
-0.000627325
-0.000702287
-0.000775955
-0.000847974
-0.00091808
-0.000986089
-0.000252141
-0.000315221
-0.000376334
-0.000435991
-0.000494871
-0.000553037
-0.000610231
-0.00066619
-0.000720722
-0.000773685
-0.000193254
-0.000240227
-0.000285819
-0.000330334
-0.000374236
-0.00041758
-0.0004602
-0.000501921
-0.000542615
-0.000582183
-0.000136604
-0.00016891
-0.000200648
-0.000231786
-0.000262451
-0.000292648
-0.000322294
-0.000351289
-0.000379547
-0.000406983
-8.32258e-05
-0.000101338
-0.000119197
-0.000136944
-0.000154576
-0.000172033
-0.000189239
-0.000206138
-0.000222716
-0.000238963
-3.61384e-05
-4.50282e-05
-5.18173e-05
-5.73864e-05
-6.28148e-05
-6.83418e-05
-7.38224e-05
-7.91033e-05
-8.4077e-05
-8.86525e-05
0.0031663
0.00320037
0.00328768
0.0034138
0.00359879
0.00382103
0.00412241
0.00446061
0.00491666
0.00540428
0.00608674
0.00678018
0.00783341
0.00882023
0.0105529
0.0118767
0.0148795
0.0153539
0.0180647
-0.00209111
0.00314112
0.0031741
0.00325794
0.00338021
0.00355736
0.00377164
0.00405729
0.00438091
0.00480593
0.00526643
0.0058832
0.00652271
0.00741906
0.00828603
0.00957094
0.0106131
0.0120868
0.0124306
0.011503
0.00955807
0.00309237
0.00312488
0.00320395
0.00332096
0.00348755
0.00369164
0.00395688
0.0042619
0.00464758
0.00507401
0.00561103
0.00618394
0.00690432
0.00763017
0.00849622
0.00922786
0.00977651
0.00986441
0.00788487
0.00570637
0.00302153
0.00305333
0.00312677
0.00323717
0.00339132
0.00358282
0.00382466
0.00410688
0.00444895
0.00483418
0.00528759
0.00578262
0.00633557
0.00690673
0.0074375
0.00790093
0.00790633
0.00771429
0.0054371
0.0031882
0.00293002
0.00296062
0.00302799
0.0031306
0.00327131
0.003448
0.00366519
0.003921
0.0042189
0.00455742
0.0049311
0.00534191
0.00575041
0.00617347
0.00646231
0.00670151
0.00640877
0.00597758
0.00393996
0.00180438
0.00281935
0.00284823
0.00290936
0.00300331
0.00313017
0.00329043
0.00348284
0.00370996
0.00396523
0.00425474
0.00455627
0.0048842
0.00517502
0.005465
0.0055863
0.00564172
0.00521334
0.00461377
0.00292774
0.000925573
0.00269113
0.00271781
0.00277271
0.00285748
0.00297052
0.00311345
0.00328176
0.00347939
0.00369492
0.00393608
0.00417462
0.00442578
0.00462358
0.00480026
0.00480925
0.00472649
0.00425251
0.00356961
0.00218737
0.000444823
0.00254697
0.00257114
0.00261994
0.00269533
0.00279493
0.00292036
0.00306575
0.00323448
0.00341384
0.00360967
0.00379438
0.0039781
0.00410362
0.00418989
0.00412577
0.00395122
0.00347661
0.00278432
0.00164481
0.000199481
0.00238853
0.00241001
0.00245293
0.00251907
0.00260582
0.00271422
0.00283825
0.00297975
0.00312676
0.00328189
0.00342133
0.00354861
0.00361886
0.00363765
0.00352796
0.00330167
0.00284836
0.0021951
0.0012469
6.32495e-05
0.00221743
0.0022362
0.00227353
0.00233078
0.00240546
0.00249779
0.00260222
0.00271891
0.00283746
0.00295737
0.00305938
0.00314151
0.00317043
0.0031424
0.00300647
0.00275863
0.00233755
0.00174673
0.00095179
-1.69645e-05
0.00203527
0.00205139
0.00208348
0.0021324
0.00219589
0.00227344
0.00236019
0.00245487
0.00254881
0.0026392
0.0027109
0.0027584
0.00275757
0.00269967
0.00255146
0.00230257
0.00191939
0.00139844
0.000730375
-6.31839e-05
0.00184355
0.00185719
0.00188442
0.00192566
0.00197893
0.00204316
0.00211419
0.00218981
0.00226287
0.00232921
0.00237701
0.00239913
0.00237803
0.00230338
0.00215321
0.0019163
0.00157398
0.00112262
0.0005627
-8.72623e-05
0.00164368
0.00165506
0.00167783
0.00171209
0.00175615
0.00180858
0.00186585
0.00192528
0.00198097
0.00202824
0.00205781
0.00206228
0.00202869
0.00194711
0.00180265
0.00158567
0.00128554
0.000900353
0.000434237
-9.66178e-05
0.00143699
0.00144631
0.00146503
0.00149304
0.00152887
0.00157098
0.00161637
0.00166227
0.0017038
0.00173638
0.00175264
0.00174574
0.00170592
0.00162465
0.00149155
0.00129922
0.00104149
0.000718133
0.000334328
-9.61397e-05
0.00122467
0.00123215
0.00124722
0.00126965
0.0012982
0.00133135
0.0013666
0.00140134
0.00143158
0.00145316
0.00146026
0.00144699
0.00140595
0.00133027
0.00121261
0.00104764
0.000831812
0.000565954
0.000255213
-8.90956e-05
0.00100781
0.00101365
0.00102543
0.0010429
0.00106501
0.00109042
0.00111708
0.00114269
0.00116408
0.00117772
0.00117907
0.00116335
0.00112499
0.00105873
0.000959384
0.000823284
0.00064845
0.000436215
0.000191189
-7.7686e-05
0.000787375
0.000791746
0.000800573
0.000813605
0.000830024
0.00084871
0.00086807
0.000886246
0.000900793
0.00090893
0.000907233
0.000892051
0.000859327
0.000805223
0.000726168
0.000619742
0.000484894
0.000323019
0.000137919
-6.34781e-05
0.000564265
0.000567303
0.000573438
0.000582465
0.000593786
0.000606568
0.000619665
0.000631718
0.000640989
0.000645474
0.000642778
0.00063034
0.000605395
0.000565357
0.000507896
0.000431537
0.000335753
0.000221711
9.20862e-05
-4.78031e-05
0.000339288
0.000341087
0.000344724
0.000350057
0.000356717
0.000364189
0.000371779
0.000378659
0.000383783
0.000385939
0.000383697
0.000375536
0.000359843
0.000335128
0.00030008
0.000253925
0.000196476
0.000128536
5.15916e-05
-3.15436e-05
0.000113219
0.000113827
0.000115054
0.000116843
0.000119068
0.000121552
0.000124063
0.000126319
0.000127967
0.000128597
0.00012772
0.000124821
0.00011936
0.000110842
9.88429e-05
8.31259e-05
6.36936e-05
4.09516e-05
1.56144e-05
-1.30515e-05
0.0030711
0.00310408
0.00319577
0.00331946
0.00351254
0.00373124
0.00404916
0.00438056
0.00486897
0.00534284
0.00609101
0.00675912
0.00795495
0.00891132
0.0109953
0.0124027
0.0165514
0.0182717
0.0284809
0.0214162
0.00309065
0.00312366
0.0032162
0.0033399
0.0035348
0.00375371
0.00407525
0.00440683
0.00490252
0.00537648
0.00614028
0.00680898
0.00804183
0.00900547
0.011191
0.0126654
0.017162
0.0195195
0.030865
0.0302956
0.00310794
0.00314115
0.00323405
0.00335809
0.0035539
0.00377361
0.00409695
0.00442991
0.00492932
0.00540576
0.00617796
0.00685181
0.00810616
0.00908479
0.0113356
0.0128833
0.0176233
0.0205284
0.0324303
0.0362245
0.00312304
0.00315638
0.00324949
0.00337382
0.00357017
0.00379047
0.00411493
0.0044489
0.00495061
0.00542889
0.00620637
0.00688409
0.00815225
0.00914199
0.0114357
0.0130377
0.0179399
0.0212331
0.0334836
0.0398987
0.00313595
0.00316936
0.00326256
0.00338703
0.00358365
0.00380424
0.00412922
0.00446367
0.00496647
0.00544564
0.00622567
0.00690526
0.00818019
0.00917547
0.0114906
0.0131205
0.018106
0.0216055
0.0340368
0.0417517
0.00314665
0.00318007
0.00327323
0.00339774
0.0035943
0.00381494
0.00413976
0.00447429
0.00497678
0.00545611
0.00623558
0.0069155
0.00818942
0.00918525
0.0114985
0.0131289
0.0181155
0.0216283
0.0340922
0.041977
0.00315513
0.00318854
0.0032815
0.00340596
0.00360212
0.00382258
0.00414656
0.00448075
0.00498153
0.0054603
0.0062361
0.00691484
0.00817995
0.00917133
0.0114595
0.0130625
0.0179677
0.0212986
0.0336498
0.0405913
0.00316142
0.00319473
0.00328739
0.00341166
0.00360715
0.00382711
0.00414969
0.004483
0.00498087
0.0054581
0.00622754
0.00690308
0.00815247
0.00913369
0.0113755
0.0129241
0.0176679
0.0206268
0.0327147
0.0374477
0.00316552
0.00319867
0.0032909
0.00341487
0.00360938
0.00382857
0.00414911
0.00448111
0.00497483
0.00544964
0.00620989
0.00688048
0.0081069
0.00907408
0.0112468
0.0127213
0.0172193
0.0196268
0.031308
0.0322041
0.00316738
0.00320052
0.0032918
0.00341583
0.00360843
0.00382749
0.00414408
0.0044761
0.00496177
0.00543714
0.0061801
0.00685177
0.0080377
0.00900123
0.0110643
0.0124756
0.0165999
0.0183394
0.0290828
0.024146
)
;

boundaryField
{
    inlet
    {
        type            zeroGradient;
    }
    outlet
    {
        type            fixedValue;
        value           uniform 0;
    }
    upAndBottom
    {
        type            empty;
    }
    obstacle
    {
        type            zeroGradient;
    }
}


// ************************************************************************* //
