/*--------------------------------*- C++ -*----------------------------------*\
| =========                 |                                                 |
| \\      /  F ield         | OpenFOAM: The Open Source CFD Toolbox           |
|  \\    /   O peration     | Version:  v1806                                 |
|   \\  /    A nd           | Web:      www.OpenFOAM.com                      |
|    \\/     M anipulation  |                                                 |
\*---------------------------------------------------------------------------*/
FoamFile
{
    version     2.0;
    format      ascii;
    class       volScalarField;
    location    "400";
    object      p;
}
// * * * * * * * * * * * * * * * * * * * * * * * * * * * * * * * * * * * * * //

dimensions      [0 2 -2 0 0 0 0];


internalField   nonuniform List<scalar> 
5004
(
-0.00505295
-0.00505417
-0.00505417
-0.00505295
-0.00511069
-0.00511062
-0.00511062
-0.00511069
-0.0050295
-0.0050291
-0.0050291
-0.0050295
-0.00499795
-0.00499763
-0.00499763
-0.00499795
-0.00498855
-0.00498862
-0.00498862
-0.00498855
-0.00508282
-0.0050834
-0.0050834
-0.00508282
-0.00510937
-0.00510995
-0.00510995
-0.00510937
-0.00516081
-0.00516253
-0.00516253
-0.0051608
0.0208854
0.0208808
0.0208808
0.0208854
0.0215293
0.0215237
0.0215237
0.0215293
0.0218843
0.0218859
0.0218859
0.0218843
-0.00503588
-0.00503617
-0.00503617
-0.00503588
-0.00520202
-0.00520203
-0.00520203
-0.00520202
0.0154399
0.0154339
0.0154339
0.0154399
0.0172811
0.0172774
0.0172774
0.0172811
0.0134568
0.0134497
0.0134497
0.0134568
0.0337585
0.033781
0.033781
0.0337585
0.0389757
0.0389924
0.0389924
0.0389757
-0.00532851
-0.00532619
-0.00532619
-0.00532851
-0.00556713
-0.00556849
-0.00556849
-0.00556713
-0.00560999
-0.00560889
-0.00560889
-0.00560999
-0.00529235
-0.00528557
-0.00528557
-0.00529235
0.0175099
0.0175177
0.0175177
0.0175099
-0.00756321
-0.0075719
-0.0075719
-0.00756321
-0.00579951
-0.0057964
-0.0057964
-0.00579951
-0.00579233
-0.00579085
-0.00579085
-0.00579233
-0.00600322
-0.00600486
-0.00600486
-0.00600322
-0.00605811
-0.00605551
-0.00605551
-0.00605811
-0.00591105
-0.00590869
-0.00590869
-0.00591105
-0.00630466
-0.00630851
-0.00630851
-0.00630466
-0.00559482
-0.00558968
-0.00558968
-0.00559482
-0.00613997
-0.00613256
-0.00613256
-0.00613997
0.020844
0.0208469
0.0208469
0.020844
0.02321
0.0231793
0.0231793
0.02321
0.0257471
0.0257726
0.0257726
0.0257471
0.0213949
0.0213905
0.0213905
0.0213949
0.0194384
0.0194575
0.0194575
0.0194384
-0.00637329
-0.0063757
-0.0063757
-0.00637329
-0.0066621
-0.00666759
-0.00666759
-0.0066621
-0.0125418
-0.0125959
-0.0125959
-0.0125418
0.0245248
0.0245389
0.0245389
0.0245248
-0.00704148
-0.00704148
-0.00704148
-0.00704148
-0.00770977
-0.00770411
-0.00770411
-0.00770977
-0.00842028
-0.00841441
-0.00841441
-0.00842028
-0.00920085
-0.00919471
-0.00919471
-0.00920085
-0.0100619
-0.010054
-0.010054
-0.0100619
-0.011137
-0.0111277
-0.0111277
-0.011137
-0.0126218
-0.0126141
-0.0126141
-0.0126218
-0.0143445
-0.0143337
-0.0143337
-0.0143445
-0.0168969
-0.0168875
-0.0168875
-0.0168969
-0.0193122
-0.0192971
-0.0192971
-0.0193122
-0.0227677
-0.0228177
-0.0228177
-0.0227677
-0.0175532
-0.0175142
-0.0175142
-0.0175532
-0.0213585
-0.0213946
-0.0213946
-0.0213585
-0.00277961
-0.00277576
-0.00277576
-0.00277961
0.0126848
0.0127214
0.0127214
0.0126848
0.0160265
0.0160165
0.0160165
0.0160265
0.018983
0.0189976
0.0189976
0.018983
0.017708
0.0177015
0.0177015
0.017708
-0.00600282
-0.00600298
-0.00600298
-0.00600282
0.018829
0.018833
0.018833
0.018829
0.0249278
0.0249355
0.0249355
0.0249278
0.0270883
0.027083
0.027083
0.0270883
-0.00654402
-0.00655255
-0.00655255
-0.00654402
-0.00584671
-0.00584129
-0.00584129
-0.00584671
-0.00604982
-0.00605456
-0.00605456
-0.00604982
-0.00614414
-0.00614224
-0.00614224
-0.00614414
-0.00637791
-0.0063825
-0.0063825
-0.00637791
-0.00644143
-0.00644061
-0.00644061
-0.00644143
-0.00647966
-0.00647861
-0.00647861
-0.00647966
-0.00630959
-0.00630793
-0.00630793
-0.00630959
-0.00601367
-0.00601244
-0.00601244
-0.00601367
0.0169368
0.0169496
0.0169496
0.0169368
0.0158854
0.0158927
0.0158927
0.0158854
0.0283219
0.0283193
0.0283193
0.0283219
0.0344685
0.0345118
0.0345118
0.0344685
0.036405
0.0363917
0.0363917
0.036405
0.0498737
0.0499268
0.0499268
0.0498737
0.0143908
0.0143966
0.0143966
0.0143908
0.0189851
0.0189835
0.0189835
0.0189851
0.0167
0.0167039
0.0167039
0.0167
0.0164895
0.0164923
0.0164923
0.0164895
0.0157133
0.0157165
0.0157165
0.0157133
0.0145126
0.0145174
0.0145174
0.0145126
0.0131901
0.01319
0.01319
0.0131901
0.0253751
0.0253763
0.0253763
0.0253751
-0.00533046
-0.00533143
-0.00533143
-0.00533046
0.0142539
0.0142605
0.0142605
0.0142539
0.0142369
0.0142366
0.0142366
0.0142369
0.013983
0.0139952
0.0139952
0.013983
0.0117786
0.0117782
0.0117782
0.0117786
0.00653976
0.00651386
0.00651386
0.00653976
-0.000492254
-0.000497544
-0.000497544
-0.000492254
-0.0156431
-0.0157135
-0.0157135
-0.0156431
-0.0151327
-0.015114
-0.015114
-0.0151327
-0.0173401
-0.0173807
-0.0173807
-0.0173401
-0.0167084
-0.0167011
-0.0167011
-0.0167084
-0.0153711
-0.0153632
-0.0153632
-0.0153711
-0.0135577
-0.0135509
-0.0135509
-0.0135577
-0.012104
-0.0121003
-0.0121003
-0.012104
-0.0107504
-0.0107447
-0.0107447
-0.0107504
-0.00962673
-0.00961885
-0.00961885
-0.00962673
-0.00881358
-0.00881026
-0.00881026
-0.00881358
-0.0080821
-0.00807749
-0.00807749
-0.0080821
-0.00743455
-0.00743077
-0.00743077
-0.00743455
-0.00684547
-0.00684283
-0.00684283
-0.00684547
-0.0062846
-0.00627701
-0.00627701
-0.0062846
-0.00644854
-0.00646033
-0.00646033
-0.00644854
-0.00539927
-0.00538853
-0.00538853
-0.00539927
-0.00557453
-0.00557692
-0.00557692
-0.00557453
-0.00595757
-0.00596453
-0.00596453
-0.00595757
-0.00605141
-0.00604858
-0.00604858
-0.00605141
-0.00617541
-0.00617526
-0.00617526
-0.00617541
-0.0062592
-0.00626029
-0.00626029
-0.0062592
-0.00626718
-0.0062714
-0.0062714
-0.00626718
-0.00647813
-0.00648096
-0.00648096
-0.00647813
-0.00653598
-0.00653774
-0.00653774
-0.00653598
-0.00648559
-0.00648912
-0.00648912
-0.00648559
-0.00621806
-0.00621977
-0.00621977
-0.00621806
-0.0058392
-0.00584112
-0.00584112
-0.0058392
-0.00581539
-0.00581391
-0.00581391
-0.00581539
-0.00604036
-0.0060433
-0.0060433
-0.00604036
-0.00575885
-0.00575743
-0.00575743
-0.00575885
-0.00560225
-0.00560196
-0.00560196
-0.00560225
-0.00543915
-0.00544018
-0.00544018
-0.00543915
0.0297989
0.0298081
0.0298081
0.0297989
0.0338904
0.0338811
0.0338811
0.0338904
0.0128044
0.0128058
0.0128058
0.0128044
0.0380879
0.0380688
0.0380688
0.0380879
0.011903
0.0118988
0.0118988
0.011903
0.0433473
0.0433322
0.0433322
0.0433473
-0.00525357
-0.00525439
-0.00525439
-0.00525357
-0.0053838
-0.00538421
-0.00538421
-0.0053838
-0.00551527
-0.00551742
-0.00551742
-0.00551527
-0.00554667
-0.00554753
-0.00554753
-0.00554667
-0.00549283
-0.00549208
-0.00549208
-0.00549283
-0.00544295
-0.00544444
-0.00544444
-0.00544295
0.0453227
0.0453554
0.0453554
0.0453227
0.0291458
0.0291439
0.0291439
0.0291458
0.0252016
0.0252132
0.0252132
0.0252016
0.0216058
0.0216039
0.0216039
0.0216058
0.0188148
0.0188186
0.0188186
0.0188148
0.0164213
0.0164238
0.0164238
0.0164213
0.0144715
0.0144753
0.0144753
0.0144715
0.0147235
0.0147262
0.0147262
0.0147235
0.014607
0.0146124
0.0146124
0.014607
0.014101
0.0141044
0.0141044
0.014101
0.0132385
0.0132451
0.0132451
0.0132385
0.0122078
0.0122139
0.0122139
0.0122078
0.0111155
0.0111211
0.0111211
0.0111155
0.00997224
0.00997776
0.00997776
0.00997224
0.0105892
0.0105861
0.0105861
0.0105892
0.011276
0.011275
0.011275
0.011276
0.0116749
0.0116714
0.0116714
0.0116749
0.0117876
0.0117916
0.0117916
0.0117876
0.0114475
0.0114544
0.0114544
0.0114475
0.0104193
0.0104253
0.0104253
0.0104193
0.00865654
0.00866065
0.00866065
0.00865654
0.00418202
0.0041582
0.0041582
0.00418202
-3.88221e-05
-2.75618e-05
-2.75617e-05
-3.8822e-05
-0.00899663
-0.00903749
-0.00903749
-0.00899663
-0.0105518
-0.0105206
-0.0105206
-0.0105518
-0.0122022
-0.0121992
-0.0121992
-0.0122022
-0.0128074
-0.0127974
-0.0127974
-0.0128074
-0.0122888
-0.0122752
-0.0122752
-0.0122888
-0.0113151
-0.0113041
-0.0113041
-0.0113151
-0.0104388
-0.0104305
-0.0104305
-0.0104388
-0.00959263
-0.00958489
-0.00958489
-0.00959263
-0.00879754
-0.0087885
-0.0087885
-0.00879754
-0.00816286
-0.00815946
-0.00815946
-0.00816286
-0.0075316
-0.00752521
-0.00752521
-0.0075316
-0.00703366
-0.0070315
-0.0070315
-0.00703366
-0.00652321
-0.00651811
-0.00651811
-0.00652321
-0.00614338
-0.00614002
-0.00614002
-0.00614338
-0.00582963
-0.00582812
-0.00582812
-0.00582963
-0.00564019
-0.0056431
-0.0056431
-0.00564019
-0.00557162
-0.0055703
-0.0055703
-0.00557162
-0.00573209
-0.00573815
-0.00573815
-0.00573209
-0.00581963
-0.00582096
-0.00582096
-0.00581963
-0.00589856
-0.00590116
-0.00590116
-0.00589856
-0.00589548
-0.00589522
-0.00589522
-0.00589548
-0.00586874
-0.00587261
-0.00587261
-0.00586874
-0.00568634
-0.00568896
-0.00568896
-0.00568634
-0.0061213
-0.00612309
-0.00612309
-0.0061213
-0.00637103
-0.00637237
-0.00637237
-0.00637103
-0.00646035
-0.0064624
-0.0064624
-0.00646035
-0.00636861
-0.00636928
-0.00636928
-0.00636861
-0.00607025
-0.00607059
-0.00607059
-0.00607025
-0.00569926
-0.00570006
-0.00570007
-0.00569926
-0.00527383
-0.00527446
-0.00527446
-0.00527383
-0.00489297
-0.0048932
-0.0048932
-0.00489297
-0.00506543
-0.00506621
-0.00506621
-0.00506543
-0.00514827
-0.00514834
-0.00514834
-0.00514827
-0.00522189
-0.00522302
-0.00522302
-0.00522189
-0.00522256
-0.0052233
-0.0052233
-0.00522256
-0.00516057
-0.00516069
-0.00516069
-0.00516057
-0.00509477
-0.00509462
-0.00509462
-0.00509477
-0.00497645
-0.00497637
-0.00497637
-0.00497645
-0.00502926
-0.00502991
-0.00502991
-0.00502926
-0.00539874
-0.00539949
-0.00539949
-0.00539874
-0.00585457
-0.00585629
-0.00585629
-0.00585457
-0.00613092
-0.00613279
-0.00613279
-0.00613092
-0.00622186
-0.00622336
-0.00622336
-0.00622186
-0.00613023
-0.00613199
-0.00613199
-0.00613023
-0.00583565
-0.00583679
-0.00583679
-0.00583565
-0.00545557
-0.00545651
-0.00545651
-0.00545556
-0.00503414
-0.00503502
-0.00503502
-0.00503414
-0.0046624
-0.00466263
-0.00466263
-0.0046624
0.00885879
0.00886269
0.00886269
0.00885879
0.00936599
0.00936475
0.00936475
0.00936599
0.00974407
0.00974118
0.00974118
0.00974407
0.00984457
0.00984524
0.00984524
0.00984457
0.00959984
0.00960217
0.00960217
0.00959984
0.00914675
0.00915633
0.00915633
0.00914675
0.00799486
0.00799178
0.00799178
0.00799486
0.00653051
0.0065368
0.0065368
0.00653051
0.00299941
0.00297257
0.00297257
0.00299941
8.6251e-06
1.70359e-05
1.70359e-05
8.62513e-06
-0.00527791
-0.00532228
-0.00532228
-0.00527791
-0.00773586
-0.00772845
-0.00772845
-0.00773586
-0.0091709
-0.00916301
-0.00916301
-0.0091709
-0.00976216
-0.00976135
-0.00976135
-0.00976216
-0.00989484
-0.00989499
-0.00989499
-0.00989484
-0.00958826
-0.00958637
-0.00958637
-0.00958826
-0.00906072
-0.00905566
-0.00905566
-0.00906072
-0.00848201
-0.00847577
-0.00847577
-0.00848201
-0.00788037
-0.00787344
-0.00787344
-0.00788037
-0.00735045
-0.00734666
-0.00734666
-0.00735045
-0.00685239
-0.00684771
-0.00684771
-0.00685239
-0.0064362
-0.00643481
-0.00643481
-0.0064362
-0.00605098
-0.00604859
-0.00604859
-0.00605098
-0.00572415
-0.00572235
-0.00572235
-0.00572415
-0.00548416
-0.00548622
-0.00548622
-0.00548416
-0.00535412
-0.00535784
-0.00535784
-0.00535412
-0.00524236
-0.00523946
-0.00523946
-0.00524236
-0.00526974
-0.005273
-0.005273
-0.00526974
-0.00533186
-0.00533582
-0.00533582
-0.00533186
-0.0053788
-0.00538096
-0.00538096
-0.0053788
-0.00535436
-0.00535387
-0.00535387
-0.00535436
-0.00529014
-0.00529258
-0.00529258
-0.00529014
-0.00511034
-0.00511215
-0.00511215
-0.00511034
-0.00480793
-0.00480815
-0.00480815
-0.00480793
0.0356785
0.0356771
0.0356771
0.0356785
0.0332939
0.0332949
0.0332949
0.0332939
0.0128683
0.0128715
0.0128715
0.0128683
0.0131066
0.01311
0.01311
0.0131066
0.0130397
0.0130427
0.0130427
0.0130397
0.0126908
0.0126917
0.0126917
0.0126908
0.0120575
0.0120595
0.0120595
0.0120575
0.0112301
0.0112328
0.0112328
0.0112301
0.0102943
0.010298
0.010298
0.0102943
0.00931398
0.00931806
0.00931806
0.00931398
0.00833293
0.00833628
0.00833628
0.00833293
0.0296349
0.0296387
0.0296387
0.0296349
0.0264782
0.0264818
0.0264818
0.0264782
0.0234212
0.0234232
0.0234232
0.0234212
0.0205074
0.0205086
0.0205086
0.0205074
0.0179645
0.0179652
0.0179652
0.0179645
0.0158255
0.0158243
0.0158243
0.0158255
0.0139877
0.0139901
0.0139901
0.0139877
0.0123587
0.012362
0.012362
0.0123587
0.0231954
0.0232299
0.0232299
0.0231954
0.0281406
0.0281647
0.0281647
0.0281406
0.0271525
0.0271625
0.0271625
0.0271525
0.025613
0.0256195
0.0256195
0.025613
0.0234332
0.0234341
0.0234341
0.0234332
0.021146
0.0211457
0.0211457
0.021146
0.018816
0.0188159
0.0188159
0.018816
0.0166717
0.0166726
0.0166726
0.0166717
0.0147663
0.0147662
0.0147662
0.0147663
0.013087
0.0130902
0.0130902
0.013087
0.011623
0.0116253
0.0116253
0.011623
0.0103913
0.0103921
0.0103921
0.0103913
0.0110661
0.0110672
0.0110672
0.0110661
0.0115456
0.011546
0.011546
0.0115456
0.0117733
0.0117745
0.0117745
0.0117733
0.0117707
0.011773
0.011773
0.0117707
0.0115247
0.0115263
0.0115263
0.0115247
0.0110526
0.0110545
0.0110545
0.0110526
0.010406
0.0104089
0.0104089
0.010406
0.00961577
0.00962049
0.00962049
0.00961577
0.00875829
0.00876305
0.00876305
0.00875829
0.00787452
0.00787842
0.00787842
0.00787452
0.00697667
0.00697978
0.00697978
0.00697667
0.00737475
0.007377
0.007377
0.00737475
0.00772844
0.0077293
0.0077293
0.00772844
0.0080308
0.00803298
0.00803298
0.0080308
0.0081535
0.00815635
0.00815635
0.0081535
0.00820958
0.00821498
0.00821498
0.00820958
0.0077982
0.00779451
0.00779451
0.0077982
0.00724362
0.00725019
0.00725019
0.00724362
0.00612508
0.00611776
0.00611776
0.00612508
0.00477583
0.00478017
0.00478017
0.00477583
0.00226198
0.00223986
0.00223986
0.00226198
-8.6438e-05
-8.22562e-05
-8.22562e-05
-8.64379e-05
-0.00330563
-0.00333215
-0.00333215
-0.00330563
-0.00553816
-0.00554509
-0.00554509
-0.00553816
-0.00682805
-0.00682004
-0.00682004
-0.00682805
-0.00750969
-0.00750308
-0.00750308
-0.00750969
-0.00778176
-0.00778043
-0.00778043
-0.00778176
-0.0078129
-0.00780919
-0.00780919
-0.0078129
-0.00756379
-0.00755461
-0.00755461
-0.00756379
-0.00719556
-0.00718511
-0.00718511
-0.00719556
-0.00677396
-0.00676475
-0.00676475
-0.00677396
-0.00636741
-0.0063621
-0.0063621
-0.00636741
-0.00599942
-0.0059963
-0.0059963
-0.00599942
-0.00568033
-0.00567935
-0.00567935
-0.00568033
-0.00539552
-0.00539464
-0.00539464
-0.00539552
-0.00514901
-0.00514806
-0.00514806
-0.00514901
-0.00495818
-0.00495923
-0.00495923
-0.00495818
-0.00482667
-0.00482806
-0.00482806
-0.00482667
-0.00474959
-0.00474898
-0.00474898
-0.00474959
-0.00472846
-0.00472989
-0.00472989
-0.00472846
-0.00474276
-0.00474629
-0.00474629
-0.00474276
-0.00475513
-0.00475798
-0.00475798
-0.00475513
-0.00471642
-0.00471727
-0.00471727
-0.00471642
-0.00461382
-0.00461727
-0.00461727
-0.00461382
-0.00445911
-0.00446124
-0.00446124
-0.00445911
-0.0041777
-0.00417534
-0.00417534
-0.0041777
-0.00439767
-0.00439578
-0.00439578
-0.00439767
-0.00496389
-0.00496326
-0.00496326
-0.00496389
-0.00543454
-0.00543672
-0.00543672
-0.00543454
-0.00573009
-0.00573375
-0.00573375
-0.00573009
-0.00582762
-0.00583073
-0.00583073
-0.00582762
-0.00574053
-0.00574309
-0.00574309
-0.00574053
-0.00546283
-0.00546459
-0.00546459
-0.00546283
-0.00509647
-0.00509772
-0.00509772
-0.00509647
-0.00470638
-0.00470689
-0.00470689
-0.00470638
-0.00440125
-0.00440138
-0.00440138
-0.00440125
-0.00416729
-0.00416676
-0.00416676
-0.00416729
-0.00442393
-0.0044248
-0.0044248
-0.00442393
-0.00459371
-0.00459347
-0.00459347
-0.00459371
-0.00473962
-0.00474046
-0.00474046
-0.00473962
-0.00485971
-0.00486032
-0.00486032
-0.00485971
-0.0049563
-0.00495695
-0.00495695
-0.0049563
-0.00500844
-0.00500913
-0.00500913
-0.00500844
-0.00503264
-0.00503311
-0.00503311
-0.00503264
-0.00504645
-0.00504637
-0.00504637
-0.00504645
-0.00497508
-0.00497561
-0.00497561
-0.00497508
-0.00379149
-0.00378758
-0.00378758
-0.00379149
-0.00514905
-0.00514938
-0.00514938
-0.00514905
-0.00400974
-0.00400874
-0.00400874
-0.00400974
-0.00422497
-0.0042258
-0.0042258
-0.00422497
-0.00435996
-0.00435957
-0.00435957
-0.00435996
-0.00449628
-0.00449662
-0.00449662
-0.00449628
-0.00462265
-0.00462292
-0.00462292
-0.00462265
-0.00474273
-0.00474298
-0.00474298
-0.00474273
-0.00485868
-0.00485912
-0.00485912
-0.00485868
-0.00495361
-0.00495398
-0.00495398
-0.00495361
-0.00502161
-0.00502137
-0.00502137
-0.00502161
-0.00511407
-0.00511517
-0.00511517
-0.00511407
-0.00517892
-0.00517894
-0.00517894
-0.00517892
-0.00529482
-0.00529667
-0.00529667
-0.00529482
-0.0052092
-0.00521142
-0.00521142
-0.0052092
-0.00534239
-0.00534305
-0.00534305
-0.00534239
-0.00334403
-0.00334174
-0.00334174
-0.00334403
-0.00390184
-0.00390064
-0.00390064
-0.00390184
-0.00441537
-0.00441515
-0.00441515
-0.00441537
-0.00483873
-0.00483945
-0.00483945
-0.00483873
-0.00511876
-0.00512064
-0.00512064
-0.00511876
-0.00522025
-0.00522249
-0.00522249
-0.00522025
-0.00513738
-0.00513911
-0.00513911
-0.00513738
-0.00489939
-0.00490072
-0.00490072
-0.00489939
-0.0045967
-0.00459761
-0.00459761
-0.0045967
-0.00430229
-0.00430255
-0.00430255
-0.00430229
-0.00408507
-0.00408462
-0.00408462
-0.00408507
-0.00394435
-0.00394374
-0.00394374
-0.00394435
-0.00388053
-0.00388063
-0.00388063
-0.00388053
0.00604621
0.00604843
0.00604843
0.00604621
0.00633551
0.00633797
0.00633797
0.00633551
0.0065357
0.00653659
0.00653659
0.0065357
0.00669932
0.00670333
0.00670333
0.00669932
0.00672832
0.00673113
0.00673113
0.00672832
0.00666828
0.00667297
0.00667297
0.00666828
0.00626511
0.00626081
0.00626081
0.00626511
0.00569624
0.0057002
0.0057002
0.00569624
0.00467054
0.00466516
0.00466516
0.00467054
0.00352794
0.00353379
0.00353379
0.00352794
0.00176864
0.0017553
0.0017553
0.00176864
-6.91517e-05
-6.96387e-05
-6.96386e-05
-6.91517e-05
-0.00211481
-0.00212956
-0.00212956
-0.00211481
-0.00387167
-0.00388147
-0.00388147
-0.00387167
-0.00505495
-0.00504987
-0.00504987
-0.00505495
-0.00570001
-0.0056908
-0.0056908
-0.00570001
-0.00604417
-0.00603964
-0.00603964
-0.00604417
-0.00618171
-0.00617888
-0.00617888
-0.00618171
-0.00614129
-0.00613508
-0.00613508
-0.00614129
-0.00595512
-0.00594636
-0.00594636
-0.00595512
-0.00569002
-0.00568203
-0.00568203
-0.00569002
-0.00540904
-0.00540436
-0.00540436
-0.00540904
-0.00513753
-0.00513544
-0.00513544
-0.00513753
-0.0048894
-0.00488903
-0.00488903
-0.0048894
-0.00467066
-0.00467126
-0.00467126
-0.00467066
-0.00448609
-0.00448703
-0.00448703
-0.00448609
-0.0043367
-0.00433687
-0.00433687
-0.0043367
-0.00422173
-0.00422167
-0.00422167
-0.00422173
-0.00414724
-0.0041469
-0.0041469
-0.00414724
-0.00410449
-0.00410482
-0.00410482
-0.00410449
-0.00406939
-0.00407191
-0.00407191
-0.00406939
-0.00403758
-0.00404175
-0.00404175
-0.00403758
-0.00398145
-0.00398468
-0.00398468
-0.00398145
-0.00388152
-0.00388333
-0.00388333
-0.00388152
-0.00372842
-0.00372837
-0.00372837
-0.00372842
-0.00350573
-0.00350314
-0.00350314
-0.00350573
-0.00318807
-0.00318408
-0.00318408
-0.00318807
-0.00281161
-0.00280873
-0.00280873
-0.00281161
0.00937531
0.00937438
0.00937438
0.00937531
0.0100205
0.0100198
0.0100198
0.0100205
0.0104691
0.0104687
0.0104687
0.0104691
0.010699
0.0106995
0.0106995
0.010699
0.0107153
0.0107161
0.0107161
0.0107153
0.0105366
0.010537
0.010537
0.0105366
0.0101688
0.0101681
0.0101681
0.0101688
0.00964256
0.00964167
0.00964167
0.00964256
0.00898432
0.00898466
0.00898466
0.00898432
0.00823948
0.0082408
0.0082408
0.00823948
0.00744287
0.00744451
0.00744451
0.00744287
0.0066167
0.00661825
0.00661825
0.0066167
0.00576858
0.00576997
0.00576997
0.00576858
0.0188304
0.0188468
0.0188468
0.0188304
0.0219246
0.0219484
0.0219484
0.0219246
0.0219122
0.0219287
0.0219287
0.0219122
0.0214298
0.0214386
0.0214386
0.0214298
0.0201178
0.0201175
0.0201175
0.0201178
0.0184687
0.0184694
0.0184694
0.0184687
0.0166753
0.0166747
0.0166747
0.0166753
0.0149393
0.0149402
0.0149402
0.0149393
0.0133351
0.0133368
0.0133368
0.0133351
0.0118768
0.0118799
0.0118799
0.0118768
0.0105783
0.0105798
0.0105798
0.0105783
0.00948743
0.00948871
0.00948871
0.00948743
0.00854433
0.00854322
0.00854322
0.00854433
0.0119945
0.0119884
0.0119884
0.0119945
0.000485902
0.000469542
0.000469542
0.000485903
-0.00715939
-0.00714958
-0.00714958
-0.00715939
-0.00543987
-0.00543992
-0.00543992
-0.00543987
-0.00380551
-0.00380547
-0.00380547
-0.00380551
-0.00390362
-0.00390261
-0.00390261
-0.00390362
-0.00406383
-0.00406431
-0.00406431
-0.00406383
-0.00420098
-0.00420116
-0.00420116
-0.00420098
-0.00432594
-0.00432636
-0.00432636
-0.00432594
-0.004449
-0.0044494
-0.0044494
-0.004449
-0.00460991
-0.00461091
-0.00461091
-0.00460991
-0.00474199
-0.00474261
-0.00474261
-0.00474199
-0.00490195
-0.00490323
-0.00490323
-0.00490195
-0.00499698
-0.00499712
-0.00499712
-0.00499698
-0.0051257
-0.00512718
-0.00512718
-0.0051257
-0.00518907
-0.00518863
-0.00518863
-0.00518907
-0.00537371
-0.00537612
-0.00537612
-0.00537371
-0.00535375
-0.00535145
-0.00535145
-0.00535375
0.00195168
0.00195637
0.00195637
0.00195167
0.00865191
0.00862788
0.00862788
0.00865191
0.0142931
0.0143002
0.0143002
0.0142931
0.0167006
0.0167177
0.0167177
0.0167006
0.0173823
0.0173983
0.0173983
0.0173823
0.0173766
0.0173855
0.0173855
0.0173766
0.0166813
0.0166829
0.0166829
0.0166813
0.0155903
0.0155908
0.0155908
0.0155903
0.0142742
0.0142735
0.0142735
0.0142742
0.0129164
0.0129168
0.0129168
0.0129164
0.0115997
0.0116006
0.0116006
0.0115997
0.0103913
0.010393
0.010393
0.0103913
0.00931893
0.00931994
0.00931994
0.00931893
0.00837058
0.0083719
0.0083719
0.00837058
0.0075493
0.00754855
0.00754855
0.0075493
0.0068833
0.00688064
0.00688064
0.0068833
0.00779029
0.00778749
0.00778749
0.00779029
0.00855341
0.00855118
0.00855118
0.00855341
0.00915537
0.00915338
0.00915338
0.00915537
0.00957611
0.00957534
0.00957534
0.00957611
0.00980959
0.00980948
0.00980948
0.00980959
0.00985585
0.0098563
0.0098563
0.00985585
0.00972933
0.00972979
0.00972979
0.00972933
0.0094419
0.00944204
0.00944204
0.0094419
0.00900886
0.00900889
0.00900889
0.00900886
0.00845375
0.00845366
0.00845366
0.00845375
0.00780544
0.00780515
0.00780515
0.00780544
0.0070845
0.00708424
0.00708424
0.0070845
0.00631976
0.00631925
0.00631925
0.00631976
0.00552498
0.00552432
0.00552432
0.00552498
0.00470486
0.00470453
0.00470453
0.00470486
0.00490082
0.00490277
0.00490277
0.00490082
0.00509772
0.00509961
0.00509961
0.00509772
0.00528859
0.00529085
0.00529085
0.00528859
0.00539949
0.00540046
0.00540046
0.00539949
0.00547712
0.00548107
0.00548107
0.00547712
0.00543591
0.00543787
0.00543787
0.00543591
0.00530316
0.0053072
0.0053072
0.00530316
0.00494639
0.00494453
0.00494453
0.00494639
0.00441986
0.00442257
0.00442257
0.00441986
0.00359351
0.0035909
0.0035909
0.00359351
0.00263216
0.0026365
0.0026365
0.00263216
0.00137001
0.00136399
0.00136399
0.00137001
2.96073e-05
2.43683e-05
2.43683e-05
2.96073e-05
-0.00140234
-0.00141339
-0.00141339
-0.00140234
-0.00270769
-0.00271807
-0.00271807
-0.00270769
-0.0036942
-0.00369593
-0.00369593
-0.0036942
-0.00431528
-0.00430911
-0.00430911
-0.00431528
-0.00465223
-0.00464651
-0.00464651
-0.00465223
-0.00483969
-0.0048363
-0.0048363
-0.00483969
-0.00487842
-0.00487376
-0.00487376
-0.00487842
-0.00480392
-0.0047979
-0.0047979
-0.00480392
-0.00465901
-0.00465285
-0.00465285
-0.00465901
-0.00447261
-0.00446837
-0.00446837
-0.00447261
-0.00427627
-0.00427416
-0.00427416
-0.00427627
-0.00408306
-0.0040827
-0.0040827
-0.00408306
-0.003916
-0.00391712
-0.00391712
-0.003916
-0.0037809
-0.00378194
-0.00378194
-0.0037809
-0.00366102
-0.00366043
-0.00366043
-0.00366102
-0.00356028
-0.00355906
-0.00355906
-0.00356028
-0.00348194
-0.0034812
-0.0034812
-0.00348194
-0.00342381
-0.00342466
-0.00342466
-0.00342381
-0.00337658
-0.00337917
-0.00337917
-0.00337658
-0.00333021
-0.00333386
-0.00333386
-0.00333021
-0.00326878
-0.00327167
-0.00327167
-0.00326878
-0.00317642
-0.00317778
-0.00317778
-0.00317642
-0.00304379
-0.00304356
-0.00304356
-0.00304379
-0.00286328
-0.00286123
-0.00286123
-0.00286328
-0.00261264
-0.00260933
-0.00260933
-0.00261264
-0.00231198
-0.00230898
-0.00230898
-0.00231198
-0.00197385
-0.00197126
-0.00197126
-0.00197385
-0.00239532
-0.0023933
-0.0023933
-0.00239532
-0.00284825
-0.00284685
-0.00284685
-0.00284825
-0.00332174
-0.00332066
-0.00332066
-0.00332175
-0.00376093
-0.00376075
-0.00376075
-0.00376093
-0.00412037
-0.00412122
-0.00412122
-0.00412037
-0.00434659
-0.00434787
-0.00434787
-0.00434659
-0.00442398
-0.0044254
-0.0044254
-0.00442398
-0.00435406
-0.00435542
-0.00435542
-0.00435406
-0.0041754
-0.00417654
-0.00417654
-0.0041754
-0.00397317
-0.00397376
-0.00397376
-0.00397317
-0.00382418
-0.00382406
-0.00382406
-0.00382418
-0.00374815
-0.0037479
-0.0037479
-0.00374815
-0.00372663
-0.00372716
-0.00372716
-0.00372663
-0.00371982
-0.00372046
-0.00372046
-0.00371982
-0.00367012
-0.00367034
-0.00367034
-0.00367012
-0.00355029
-0.00355082
-0.00355082
-0.00355029
-0.00367596
-0.003676
-0.003676
-0.00367596
-0.00377259
-0.0037711
-0.0037711
-0.00377259
-0.00390511
-0.00390524
-0.00390524
-0.00390511
-0.00402375
-0.00402347
-0.00402347
-0.00402375
-0.00414437
-0.00414412
-0.00414412
-0.00414437
-0.00427252
-0.0042715
-0.0042715
-0.00427252
-0.00443149
-0.0044314
-0.0044314
-0.00443149
-0.00459135
-0.0045906
-0.0045906
-0.00459135
-0.00477087
-0.00477151
-0.00477151
-0.00477087
-0.00492052
-0.00492025
-0.00492025
-0.00492052
-0.0050892
-0.00509118
-0.00509118
-0.0050892
-0.00520013
-0.00519967
-0.00519967
-0.00520013
-0.00544949
-0.00545403
-0.00545403
-0.00544949
-0.0055638
-0.00556314
-0.00556314
-0.0055638
-0.00599722
-0.00600038
-0.00600038
-0.00599722
-0.00608216
-0.00609085
-0.00609085
-0.00608216
-0.00561307
-0.00560655
-0.00560655
-0.00561307
-0.00628087
-0.00627471
-0.00627471
-0.00628087
-0.00797742
-0.00798409
-0.00798409
-0.00797742
-0.00819841
-0.00821762
-0.00821762
-0.00819841
-0.00726827
-0.00725532
-0.00725532
-0.00726827
0.00386811
0.00386811
0.00386811
0.00386811
0.00401112
0.00401365
0.00401365
0.00401112
0.00414941
0.00415155
0.00415155
0.00414941
0.00426834
0.00427037
0.00427037
0.00426834
0.00432707
0.00432775
0.00432775
0.00432707
0.00434552
0.00434834
0.00434834
0.00434552
0.00427228
0.00427377
0.00427377
0.00427228
0.00411411
0.00411759
0.00411759
0.00411411
0.00380945
0.0038098
0.0038098
0.00380945
0.00336626
0.00336796
0.00336796
0.00336626
0.00272904
0.00272746
0.00272746
0.00272904
0.00196665
0.00196761
0.00196761
0.00196665
0.0010601
0.00105652
0.00105652
0.0010601
6.71288e-05
6.03313e-05
6.03313e-05
6.71288e-05
-0.000956248
-0.000965413
-0.000965413
-0.000956248
-0.00190301
-0.0019116
-0.0019116
-0.00190301
-0.0026662
-0.00266958
-0.00266958
-0.0026662
-0.00319867
-0.00319537
-0.00319537
-0.00319867
-0.00352188
-0.00351612
-0.00351612
-0.00352188
-0.00370332
-0.00369867
-0.00369867
-0.00370332
-0.00377135
-0.00376711
-0.00376711
-0.00377135
-0.00375452
-0.00375021
-0.00375021
-0.00375452
-0.00367475
-0.00367045
-0.00367045
-0.00367475
-0.00355928
-0.00355602
-0.00355602
-0.00355928
-0.00342777
-0.00342589
-0.00342589
-0.00342777
-0.00328985
-0.00328932
-0.00328932
-0.00328985
-0.00316528
-0.00316579
-0.00316579
-0.00316528
-0.00305964
-0.00305982
-0.00305982
-0.00305964
-0.00296539
-0.00296467
-0.00296467
-0.00296539
-0.00288391
-0.00288292
-0.00288292
-0.00288391
-0.00281284
-0.00281241
-0.00281241
-0.00281284
-0.00275615
-0.00275727
-0.00275727
-0.00275615
-0.00270895
-0.00271119
-0.00271119
-0.00270895
-0.00266143
-0.002664
-0.002664
-0.00266143
-0.00260098
-0.00260283
-0.00260283
-0.00260098
-0.00251451
-0.00251543
-0.00251543
-0.00251451
-0.00240275
-0.00240298
-0.00240298
-0.00240275
-0.00225406
-0.00225339
-0.00225339
-0.00225406
-0.00207186
-0.00206977
-0.00206977
-0.00207186
-0.00184579
-0.00184294
-0.00184294
-0.00184579
-0.0015796
-0.00157668
-0.00157668
-0.0015796
-0.00129823
-0.00129627
-0.00129627
-0.00129824
-0.001619
-0.00161758
-0.00161758
-0.001619
-0.00196461
-0.00196369
-0.00196369
-0.00196461
-0.00233026
-0.00232973
-0.00232973
-0.00233026
-0.00269845
-0.00269823
-0.00269823
-0.00269845
-0.00303436
-0.00303456
-0.00303456
-0.00303436
-0.00329926
-0.00330003
-0.00330003
-0.00329926
-0.00345501
-0.00345605
-0.00345605
-0.00345501
-0.00349289
-0.00349393
-0.00349393
-0.00349289
-0.00342592
-0.00342684
-0.00342684
-0.00342592
-0.00331354
-0.00331425
-0.00331425
-0.00331354
-0.00324682
-0.00324699
-0.00324699
-0.00324682
-0.00327217
-0.00327199
-0.00327199
-0.00327217
-0.00336133
-0.00336088
-0.00336088
-0.00336133
-0.00344519
-0.00344434
-0.00344434
-0.00344519
-0.00348774
-0.00348691
-0.00348691
-0.00348774
-0.0034628
-0.00346214
-0.00346214
-0.0034628
-0.00333039
-0.00332975
-0.00332975
-0.00333039
-0.0105857
-0.0105978
-0.0105978
-0.0105857
-0.0122699
-0.0122703
-0.0122703
-0.0122699
-0.0140992
-0.0141044
-0.0141044
-0.0140992
-0.0136997
-0.0137029
-0.0137029
-0.0136997
-0.00964835
-0.00964917
-0.00964917
-0.00964835
-0.00374184
-0.00375148
-0.00375148
-0.00374183
0.00198157
0.00197799
0.00197799
0.00198158
0.00655412
0.00655458
0.00655458
0.00655412
0.0102697
0.0102706
0.0102706
0.0102697
0.0124656
0.0124788
0.0124788
0.0124656
0.0133876
0.0134
0.0134
0.0133876
0.0136659
0.0136757
0.0136757
0.0136659
0.0133425
0.013346
0.013346
0.0133425
0.0126428
0.0126448
0.0126448
0.0126428
0.011712
0.0117119
0.0117119
0.011712
0.0107077
0.0107074
0.0107074
0.0107077
0.00969745
0.00969651
0.00969651
0.00969745
0.00874379
0.0087438
0.0087438
0.00874379
0.00786169
0.00786272
0.00786272
0.00786169
0.00708494
0.00708646
0.00708646
0.00708494
0.00640062
0.00640014
0.00640014
0.00640062
0.00584727
0.00584502
0.00584502
0.00584727
0.00538752
0.00538478
0.00538478
0.00538752
0.00634187
0.00633854
0.00633854
0.00634187
0.00718818
0.00718468
0.00718468
0.00718818
0.00789927
0.00789626
0.00789626
0.00789927
0.00845955
0.00845747
0.00845747
0.00845955
0.00885817
0.00885703
0.00885703
0.00885817
0.00909273
0.0090922
0.0090922
0.00909273
0.00916148
0.00916113
0.00916113
0.00916148
0.00907253