x,y,z,U_0,U_1,U_2
0,0,0,0.299997,-0.000293488,0
0,0.1,0,0.299998,-0.000233404,6.53127e-32
0,0.2,0,0.299998,-0.00017332,1.30625e-31
0,0.3,0,0.299999,-0.000113236,1.95938e-31
0,0.4,0,0.299999,-5.31514e-05,2.61251e-31
0,0.5,0,0.3,-2.97132e-20,6.49631e-31
0,0.6,0,0.3,-3.56559e-20,7.79557e-31
0,0.7,0,0.3,-4.15985e-20,9.09483e-31
0,0.8,0,0.3,-4.75411e-20,1.03941e-30
0,0.9,0,0.3,-5.34838e-20,1.16934e-30
0,1,0,0.3,-5.94264e-20,1.29926e-30
0,1.1,0,0.3,-6.53691e-20,1.42919e-30
0,1.2,0,0.3,-7.13117e-20,1.55911e-30
0,1.3,0,0.3,-7.72544e-20,1.68904e-30
0,1.4,0,0.3,-8.3197e-20,1.81897e-30
0,1.5,0,0.3,-8.58489e-20,9.78387e-31
0,1.6,0,0.3,-9.15722e-20,1.04361e-30
0,1.7,0,0.3,-9.72954e-20,1.10884e-30
0,1.8,0,0.3,-1.03019e-19,1.17406e-30
0,1.9,0,0.3,-1.08742e-19,1.23929e-30
0,2,0,0.3,-1.08982e-19,2.60255e-30
0,2.1,0,0.3,-1.14431e-19,2.73268e-30
0,2.2,0,0.3,-1.1988e-19,2.86281e-30
0,2.3,0,0.3,-1.2533e-19,2.99293e-30
0,2.4,0,0.3,-1.30779e-19,3.12306e-30
0,2.5,0,0.3,-1.27469e-19,8.13633e-30
0,2.6,0,0.3,-1.32567e-19,8.46178e-30
0,2.7,0,0.3,-1.37666e-19,8.78724e-30
0,2.8,0,0.3,-1.42765e-19,9.11269e-30
0,2.9,0,0.3,-1.47864e-19,9.43814e-30
0,3,0,0.3,-1.40111e-19,1.17161e-29
0,3.1,0,0.3,-1.44781e-19,1.21066e-29
0,3.2,0,0.3,-1.49452e-19,1.24972e-29
0,3.3,0,0.3,-1.54122e-19,1.28877e-29
0,3.4,0,0.3,-1.58793e-19,1.32783e-29
0,3.5,0,0.3,-1.45873e-19,1.36688e-29
0,3.6,0,0.3,-1.50041e-19,1.40593e-29
0,3.7,0,0.3,-1.54209e-19,1.44499e-29
0,3.8,0,0.3,-1.58377e-19,1.48404e-29
0,3.9,0,0.3,-1.62544e-19,1.52309e-29
0,4,0,0.3,-1.43875e-19,1.56215e-29
0,4.1,0,0.3,-1.47472e-19,1.6012e-29
0,4.2,0,0.3,-1.51069e-19,1.64026e-29
0,4.3,0,0.3,-1.54666e-19,1.67931e-29
0,4.4,0,0.3,-1.3068e-19,2.14795e-29
0,4.5,0,0.3,-1.3365e-19,2.19677e-29
0,4.6,0,0.3,-1.3662e-19,2.24559e-29
0,4.7,0,0.3,-1.3959e-19,2.2944e-29
0,4.8,0,0.3,-1.4256e-19,2.34322e-29
0,4.9,0,0.3,-1.12406e-19,2.96613e-29
0,5,0,0.3,-1.147e-19,3.02666e-29
0,5.1,0,0.3,-1.16994e-19,3.08719e-29
0,5.2,0,0.3,-1.19288e-19,3.14773e-29
0,5.3,0,0.3,-1.21582e-19,3.20826e-29
0,5.4,0,0.3,-8.53004e-20,3.40939e-29
0,5.5,0,0.3,-8.688e-20,3.47252e-29
0,5.6,0,0.3,-8.84596e-20,3.53566e-29
0,5.7,0,0.3,-9.00393e-20,3.5988e-29
0,5.8,0,0.3,-9.16189e-20,3.66194e-29
0,5.9,0,0.3,-4.95326e-20,3.80188e-29
0,6,0,0.3,-5.03721e-20,3.86632e-29
0,6.1,0,0.3,-5.12116e-20,3.93075e-29
0,6.2,0,0.3,-5.20512e-20,3.99519e-29
0,6.3,0,0.3,-5.28907e-20,4.05963e-29
0,6.4,0,0.3,-5.44795e-21,4.16573e-29
0,6.5,0,0.3,-5.53307e-21,4.23082e-29
0,6.6,0,0.3,-5.6182e-21,4.29591e-29
0,6.7,0,0.3,-5.70332e-21,4.361e-29
0,6.8,0,0.3,-5.78844e-21,4.42609e-29
0,6.9,0,0.3,4.64382e-20,4.53609e-29
0,7,0,0.3,4.71112e-20,4.60183e-29
0,7.1,0,0.3,4.77843e-20,4.66757e-29
0,7.2,0,0.3,4.84573e-20,4.73331e-29
0,7.3,0,0.3,4.91303e-20,4.79905e-29
0,7.4,0,0.3,1.05412e-19,4.86479e-29
0,7.5,0,0.3,1.06836e-19,4.93053e-29
0,7.6,0,0.3,1.08261e-19,4.99627e-29
0,7.7,0,0.3,1.09685e-19,5.06201e-29
0,7.8,0,0.3,1.1111e-19,5.12775e-29
0,7.9,0,0.3,1.70392e-19,5.14207e-29
0,8,0,0.3,1.72549e-19,5.20716e-29
0,8.1,0,0.3,1.74706e-19,5.27225e-29
0,8.2,0,0.3,1.76863e-19,5.33734e-29
0,8.3,0,0.3,1.7902e-19,5.40243e-29
0,8.4,0,0.3,2.40027e-19,5.46752e-29
0,8.5,0,0.3,2.42885e-19,5.53261e-29
0,8.6,0,0.3,2.45742e-19,5.5977e-29
0,8.7,0,0.3,2.486e-19,5.66279e-29
0,8.8,0,0.3,3.08916e-19,5.72788e-29
0,8.9,0,0.3,3.12427e-19,5.79297e-29
0,9,0,0.3,3.15937e-19,5.85805e-29
0,9.1,0,0.3,3.19448e-19,5.92314e-29
0,9.2,0,0.3,3.22958e-19,5.98823e-29
0,9.3,0,0.3,3.82175e-19,6.05332e-29
0,9.4,0,0.3,3.86284e-19,6.11841e-29
0,9.5,0,0.3,3.90394e-19,6.1835e-29
0,9.6,0,0.3,3.94503e-19,6.24859e-29
0,9.7,0,0.3,3.98613e-19,6.31368e-29
0,9.8,0,0.3,4.55563e-19,5.73699e-29
0,9.9,0,0.3,4.60211e-19,5.79553e-29
0,10,0,0.3,4.6486e-19,5.85407e-29
0,10.1,0,0.3,4.69508e-19,5.91261e-29
0,10.2,0,0.3,4.74157e-19,5.97115e-29
0,10.3,0,0.3,5.26561e-19,4.68506e-29
0,10.4,0,0.3,5.31673e-19,4.73055e-29
0,10.5,0,0.3,5.36786e-19,4.77603e-29
0,10.6,0,0.3,5.41898e-19,4.82152e-29
0,10.7,0,0.3,5.4701e-19,4.867e-29
0,10.8,0,0.3,5.98824e-19,3.55409e-29
0,10.9,0,0.3,6.04369e-19,3.587e-29
0,11,0,0.3,6.09914e-19,3.61991e-29
0,11.1,0,0.3,6.15458e-19,3.65282e-29
0,11.2,0,0.3,6.21003e-19,3.68573e-29
0,11.3,0,0.3,6.98299e-19,3.03419e-29
0,11.4,0,0.3,7.04478e-19,3.06104e-29
0,11.5,0,0.3,7.10658e-19,3.08789e-29
0,11.6,0,0.3,7.16838e-19,3.11474e-29
0,11.7,0,0.3,7.23017e-19,3.14159e-29
0,11.8,0,0.3,7.29197e-19,3.16845e-29
0,11.9,0,0.3,7.35377e-19,3.1953e-29
0,12,0,0.3,7.41556e-19,3.22215e-29
0,12.1,0,0.3,7.47736e-19,3.249e-29
0,12.2,0,0.3,7.53916e-19,3.27585e-29
0,12.3,0,0.3,5.3406e-05,1.35696e-15
0,12.4,0,0.3,0.000113778,2.89092e-15
0,12.5,0,0.3,0.00017415,4.42488e-15
0,12.6,0,0.3,0.000234522,5.95883e-15
0,12.7,0,0.3,0.000294894,7.49279e-15
0.1,0,0,0.299997,-0.000472725,0
0.1,0.1,0,0.299996,-0.000468434,2.50857e-15
0.1,0.2,0,0.299997,-0.00040835,2.50857e-15
0.1,0.3,0,0.299997,-0.000348266,2.50857e-15
0.1,0.4,0,0.299998,-0.000288182,2.50857e-15
0.1,0.5,0,0.299998,-0.000234504,2.81483e-15
0.1,0.6,0,0.299997,-0.000228249,4.99029e-15
0.1,0.7,0,0.299997,-0.000228249,4.99029e-15
0.1,0.8,0,0.299997,-0.000228249,4.99029e-15
0.1,0.9,0,0.299997,-0.000228249,4.99029e-15
0.1,1,0,0.299997,-0.000228249,4.99029e-15
0.1,1.1,0,0.299997,-0.000228249,4.99029e-15
0.1,1.2,0,0.299997,-0.000228249,4.99029e-15
0.1,1.3,0,0.299997,-0.000228249,4.99029e-15
0.1,1.4,0,0.299997,-0.000225462,4.16846e-15
0.1,1.5,0,0.299996,-0.000219823,2.50524e-15
0.1,1.6,0,0.299996,-0.000219823,2.50524e-15
0.1,1.7,0,0.299996,-0.000219823,2.50524e-15
0.1,1.8,0,0.299996,-0.000219823,2.50524e-15
0.1,1.9,0,0.299995,-0.000215097,3.62405e-15
0.1,2,0,0.299994,-0.000209293,4.99803e-15
0.1,2.1,0,0.299994,-0.000209293,4.99803e-15
0.1,2.2,0,0.299994,-0.000209293,4.99803e-15
0.1,2.3,0,0.299994,-0.000209293,4.99803e-15
0.1,2.4,0,0.299993,-0.000201664,9.25124e-15
0.1,2.5,0,0.299992,-0.000195836,1.25002e-14
0.1,2.6,0,0.299992,-0.000195836,1.25002e-14
0.1,2.7,0,0.299992,-0.000195836,1.25002e-14
0.1,2.8,0,0.299992,-0.000195836,1.25002e-14
0.1,2.9,0,0.299991,-0.000184565,1.42127e-14
0.1,3,0,0.299991,-0.000179383,1.5e-14
0.1,3.1,0,0.299991,-0.000179383,1.5e-14
0.1,3.2,0,0.299991,-0.000179383,1.5e-14
0.1,3.3,0,0.299991,-0.000179383,1.5e-14
0.1,3.4,0,0.299989,-0.00016388,1.5e-14
0.1,3.5,0,0.299989,-0.00016008,1.5e-14
0.1,3.6,0,0.299989,-0.00016008,1.5e-14
0.1,3.7,0,0.299989,-0.00016008,1.5e-14
0.1,3.8,0,0.299989,-0.00016008,1.5e-14
0.1,3.9,0,0.299988,-0.000139878,1.5e-14
0.1,4,0,0.299988,-0.000138151,1.5e-14
0.1,4.1,0,0.299988,-0.000138151,1.5e-14
0.1,4.2,0,0.299988,-0.000138151,1.5e-14
0.1,4.3,0,0.299988,-0.000137772,1.50591e-14
0.1,4.4,0,0.299987,-0.000114073,1.875e-14
0.1,4.5,0,0.299987,-0.000114073,1.875e-14
0.1,4.6,0,0.299987,-0.000114073,1.875e-14
0.1,4.7,0,0.299987,-0.000114073,1.875e-14
0.1,4.8,0,0.299987,-0.000110598,1.93524e-14
0.1,4.9,0,0.299986,-8.81096e-05,2.325e-14
0.1,5,0,0.299986,-8.81096e-05,2.325e-14
0.1,5.1,0,0.299986,-8.81096e-05,2.325e-14
0.1,5.2,0,0.299986,-8.81096e-05,2.325e-14
0.1,5.3,0,0.299985,-8.11962e-05,2.3502e-14
0.1,5.4,0,0.299985,-6.06717e-05,2.425e-14
0.1,5.5,0,0.299985,-6.06717e-05,2.425e-14
0.1,5.6,0,0.299985,-6.06717e-05,2.425e-14
0.1,5.7,0,0.299985,-6.06717e-05,2.425e-14
0.1,5.8,0,0.299985,-5.01517e-05,2.4435e-14
0.1,5.9,0,0.299984,-3.22454e-05,2.475e-14
0.1,6,0,0.299984,-3.22454e-05,2.475e-14
0.1,6.1,0,0.299984,-3.22454e-05,2.475e-14
0.1,6.2,0,0.299984,-3.22454e-05,2.475e-14
0.1,6.3,0,0.299984,-1.80997e-05,2.4872e-14
0.1,6.4,0,0.299984,-3.2695e-06,2.5e-14
0.1,6.5,0,0.299984,-3.2695e-06,2.5e-14
0.1,6.6,0,0.299984,-3.2695e-06,2.5e-14
0.1,6.7,0,0.299984,-3.2695e-06,2.5e-14
0.1,6.8,0,0.299984,1.43855e-05,2.51516e-14
0.1,6.9,0,0.299984,2.58497e-05,2.525e-14
0.1,7,0,0.299984,2.58497e-05,2.525e-14
0.1,7.1,0,0.299984,2.58497e-05,2.525e-14
0.1,7.2,0,0.299984,2.58497e-05,2.525e-14
0.1,7.3,0,0.299984,4.67582e-05,2.525e-14
0.1,7.4,0,0.299985,5.47125e-05,2.525e-14
0.1,7.5,0,0.299985,5.47125e-05,2.525e-14
0.1,7.6,0,0.299985,5.47125e-05,2.525e-14
0.1,7.7,0,0.299985,5.47125e-05,2.525e-14
0.1,7.8,0,0.299985,7.84125e-05,2.50394e-14
0.1,7.9,0,0.299985,8.28423e-05,2.5e-14
0.1,8,0,0.299985,8.28423e-05,2.5e-14
0.1,8.1,0,0.299985,8.28423e-05,2.5e-14
0.1,8.2,0,0.299985,8.28423e-05,2.5e-14
0.1,8.3,0,0.299986,0.000108692,2.5e-14
0.1,8.4,0,0.299986,0.000109752,2.5e-14
0.1,8.5,0,0.299986,0.000109752,2.5e-14
0.1,8.6,0,0.299986,0.000109752,2.5e-14
0.1,8.7,0,0.299986,0.000111134,2.5e-14
0.1,8.8,0,0.299987,0.00013483,2.5e-14
0.1,8.9,0,0.299987,0.00013483,2.5e-14
0.1,9,0,0.299987,0.00013483,2.5e-14
0.1,9.1,0,0.299987,0.00013483,2.5e-14
0.1,9.2,0,0.299987,0.000138816,2.5e-14
0.1,9.3,0,0.299989,0.000157837,2.5e-14
0.1,9.4,0,0.299989,0.000157837,2.5e-14
0.1,9.5,0,0.299989,0.000157837,2.5e-14
0.1,9.6,0,0.299989,0.000157837,2.5e-14
0.1,9.7,0,0.299989,0.00016387,2.42672e-14
0.1,9.8,0,0.29999,0.000178546,2.24847e-14
0.1,9.9,0,0.29999,0.000178546,2.24847e-14
0.1,10,0,0.29999,0.000178546,2.24847e-14
0.1,10.1,0,0.29999,0.000178546,2.24847e-14
0.1,10.2,0,0.299991,0.000185838,2.04317e-14
0.1,10.3,0,0.299993,0.000196354,1.74706e-14
0.1,10.4,0,0.299993,0.000196354,1.74706e-14
0.1,10.5,0,0.299993,0.000196354,1.74706e-14
0.1,10.6,0,0.299993,0.000196354,1.74706e-14
0.1,10.7,0,0.299994,0.000205152,1.49116e-14
0.1,10.8,0,0.299995,0.000212963,1.26396e-14
0.1,10.9,0,0.299995,0.000212963,1.26396e-14
0.1,11,0,0.299995,0.000212963,1.26396e-14
0.1,11.1,0,0.299995,0.000212963,1.26396e-14
0.1,11.2,0,0.299996,0.000221831,1.10602e-14
0.1,11.3,0,0.299997,0.000233567,1.02727e-14
0.1,11.4,0,0.299997,0.000237352,1.03132e-14
0.1,11.5,0,0.299997,0.000237352,1.03132e-14
0.1,11.6,0,0.299997,0.000237352,1.03132e-14
0.1,11.7,0,0.299997,0.000237352,1.03132e-14
0.1,11.8,0,0.299997,0.000237352,1.03132e-14
0.1,11.9,0,0.299997,0.000237352,1.03132e-14
0.1,12,0,0.299997,0.000237352,1.03132e-14
0.1,12.1,0,0.299997,0.000237352,1.03132e-14
0.1,12.2,0,0.299997,0.000239698,6.82324e-15
0.1,12.3,0,0.299997,0.000293209,7.70922e-15
0.1,12.4,0,0.299997,0.000353581,9.24318e-15
0.1,12.5,0,0.299997,0.000413954,1.07771e-14
0.1,12.6,0,0.299997,0.000474326,1.23111e-14
0.1,12.7,0,0.299999,0.000476626,8.51387e-15
0.2,0,0,0.299996,-0.000651961,0
0.2,0.1,0,0.299995,-0.000649167,2.57585e-15
0.2,0.2,0,0.299995,-0.000643381,5.01715e-15
0.2,0.3,0,0.299995,-0.000583296,5.01715e-15
0.2,0.4,0,0.299996,-0.000523212,5.01715e-15
0.2,0.5,0,0.299996,-0.000469847,5.33831e-15
0.2,0.6,0,0.299995,-0.000462586,7.86339e-15
0.2,0.7,0,0.299994,-0.000456498,9.98058e-15
0.2,0.8,0,0.299994,-0.000456498,9.98058e-15
0.2,0.9,0,0.299994,-0.000456498,9.98058e-15
0.2,1,0,0.299994,-0.000456498,9.98058e-15
0.2,1.1,0,0.299994,-0.000456498,9.98058e-15
0.2,1.2,0,0.299994,-0.000456498,9.98058e-15
0.2,1.3,0,0.299994,-0.00045391,9.21745e-15
0.2,1.4,0,0.299992,-0.000445285,6.6737e-15
0.2,1.5,0,0.299991,-0.000439646,5.01047e-15
0.2,1.6,0,0.299991,-0.000439646,5.01047e-15
0.2,1.7,0,0.299991,-0.000439646,5.01047e-15
0.2,1.8,0,0.29999,-0.000435168,6.0704e-15
0.2,1.9,0,0.299989,-0.00042439,8.62207e-15
0.2,2,0,0.299988,-0.000418586,9.99605e-15
0.2,2.1,0,0.299988,-0.000418586,9.99605e-15
0.2,2.2,0,0.299988,-0.000418586,9.99605e-15
0.2,2.3,0,0.299987,-0.000411275,1.4072e-14
0.2,2.4,0,0.299985,-0.0003975,2.17515e-14
0.2,2.5,0,0.299984,-0.000391672,2.50004e-14
0.2,2.6,0,0.299984,-0.000391672,2.50004e-14
0.2,2.7,0,0.299984,-0.000391672,2.50004e-14
0.2,2.8,0,0.299983,-0.00038079,2.66538e-14
0.2,2.9,0,0.299982,-0.000363947,2.92127e-14
0.2,3,0,0.299981,-0.000358765,3e-14
0.2,3.1,0,0.299981,-0.000358765,3e-14
0.2,3.2,0,0.299981,-0.000358765,3e-14
0.2,3.3,0,0.29998,-0.000343718,3e-14
0.2,3.4,0,0.299978,-0.000323959,3e-14
0.2,3.5,0,0.299978,-0.00032016,3e-14
0.2,3.6,0,0.299978,-0.00032016,3e-14
0.2,3.7,0,0.299978,-0.00032016,3e-14
0.2,3.8,0,0.299977,-0.000300476,3e-14
0.2,3.9,0,0.299976,-0.00027803,3e-14
0.2,4,0,0.299976,-0.000276303,3e-14
0.2,4.1,0,0.299976,-0.000276303,3e-14
0.2,4.2,0,0.299976,-0.000276303,3e-14
0.2,4.3,0,0.299975,-0.000251846,3.38091e-14
0.2,4.4,0,0.299973,-0.000228147,3.75e-14
0.2,4.5,0,0.299973,-0.000228147,3.75e-14
0.2,4.6,0,0.299973,-0.000228147,3.75e-14
0.2,4.7,0,0.299973,-0.000225285,3.79961e-14
0.2,4.8,0,0.299972,-0.000198708,4.26024e-14
0.2,4.9,0,0.299971,-0.000176219,4.65e-14
0.2,5,0,0.299971,-0.000176219,4.65e-14
0.2,5.1,0,0.299971,-0.000176219,4.65e-14
0.2,5.2,0,0.299971,-0.000169954,4.67283e-14
0.2,5.3,0,0.29997,-0.000141868,4.7752e-14
0.2,5.4,0,0.29997,-0.000121343,4.85e-14
0.2,5.5,0,0.29997,-0.000121343,4.85e-14
0.2,5.6,0,0.29997,-0.000121343,4.85e-14
0.2,5.7,0,0.299969,-0.000111495,4.86732e-14
0.2,5.8,0,0.299969,-8.23972e-05,4.9185e-14
0.2,5.9,0,0.299968,-6.44908e-05,4.95e-14
0.2,6,0,0.299968,-6.44908e-05,4.95e-14
0.2,6.1,0,0.299968,-6.44908e-05,4.95e-14
0.2,6.2,0,0.299968,-5.10296e-05,4.96161e-14
0.2,6.3,0,0.299968,-2.13692e-05,4.9872e-14
0.2,6.4,0,0.299968,-6.53901e-06,5e-14
0.2,6.5,0,0.299968,-6.53901e-06,5e-14
0.2,6.6,0,0.299968,-6.53901e-06,5e-14
0.2,6.7,0,0.299968,1.04281e-05,5.01457e-14
0.2,6.8,0,0.299968,4.02352e-05,5.04016e-14
0.2,6.9,0,0.299968,5.16994e-05,5.05e-14
0.2,7,0,0.299968,5.16994e-05,5.05e-14
0.2,7.1,0,0.299968,5.16994e-05,5.05e-14
0.2,7.2,0,0.299969,7.19261e-05,5.05e-14
0.2,7.3,0,0.299969,0.000101471,5.05e-14
0.2,7.4,0,0.299969,0.000109425,5.05e-14
0.2,7.5,0,0.299969,0.000109425,5.05e-14
0.2,7.6,0,0.299969,0.000109425,5.05e-14
0.2,7.7,0,0.299969,0.00013246,5.02953e-14
0.2,7.8,0,0.29997,0.000161255,5.00394e-14
0.2,7.9,0,0.29997,0.000165685,5e-14
0.2,8,0,0.29997,0.000165685,5e-14
0.2,8.1,0,0.29997,0.000165685,5e-14
0.2,8.2,0,0.299971,0.000190899,5e-14
0.2,8.3,0,0.299972,0.000218444,5e-14
0.2,8.4,0,0.299972,0.000219503,5e-14
0.2,8.5,0,0.299972,0.000219503,5e-14
0.2,8.6,0,0.299972,0.000220293,5e-14
0.2,8.7,0,0.299973,0.000245964,5e-14
0.2,8.8,0,0.299974,0.00026966,5e-14
0.2,8.9,0,0.299974,0.00026966,5e-14
0.2,9,0,0.299974,0.00026966,5e-14
0.2,9.1,0,0.299975,0.000273102,5e-14
0.2,9.2,0,0.299976,0.000296652,5e-14
0.2,9.3,0,0.299977,0.000315674,5e-14
0.2,9.4,0,0.299977,0.000315674,5e-14
0.2,9.5,0,0.299977,0.000315674,5e-14
0.2,9.6,0,0.299978,0.000321218,4.93266e-14
0.2,9.7,0,0.29998,0.000342417,4.67519e-14
0.2,9.8,0,0.299981,0.000357093,4.49694e-14
0.2,9.9,0,0.299981,0.000357093,4.49694e-14
0.2,10,0,0.299981,0.000357093,4.49694e-14
0.2,10.1,0,0.299982,0.000363964,4.30348e-14
0.2,10.2,0,0.299984,0.000382192,3.79022e-14
0.2,10.3,0,0.299986,0.000392709,3.49411e-14
0.2,10.4,0,0.299986,0.000392709,3.49411e-14
0.2,10.5,0,0.299986,0.000392709,3.49411e-14
0.2,10.6,0,0.299987,0.000401113,3.24967e-14
0.2,10.7,0,0.29999,0.000418183,2.75316e-14
0.2,10.8,0,0.299991,0.000425927,2.52792e-14
0.2,10.9,0,0.299991,0.000425927,2.52792e-14
0.2,11,0,0.299991,0.000425927,2.52792e-14
0.2,11.1,0,0.299992,0.00043468,2.37202e-14
0.2,11.2,0,0.299993,0.000448418,2.12734e-14
0.2,11.3,0,0.299993,0.000460172,2.04709e-14
0.2,11.4,0,0.299993,0.000470821,2.05849e-14
0.2,11.5,0,0.299993,0.000474703,2.06264e-14
0.2,11.6,0,0.299993,0.000474703,2.06264e-14
0.2,11.7,0,0.299993,0.000474703,2.06264e-14
0.2,11.8,0,0.299993,0.000474703,2.06264e-14
0.2,11.9,0,0.299993,0.000474703,2.06264e-14
0.2,12,0,0.299993,0.000474703,2.06264e-14
0.2,12.1,0,0.299994,0.000477065,1.71135e-14
0.2,12.2,0,0.299995,0.0004797,1.31943e-14
0.2,12.3,0,0.299995,0.000533013,1.40615e-14
0.2,12.4,0,0.299995,0.000593385,1.55954e-14
0.2,12.5,0,0.299995,0.000653757,1.71294e-14
0.2,12.6,0,0.299996,0.000656605,1.33824e-14
0.2,12.7,0,0.299997,0.000658357,9.53495e-15
0.3,0,0,0.299996,-0.000831198,0
0.3,0.1,0,0.299995,-0.000828404,2.57585e-15
0.3,0.2,0,0.299994,-0.00082561,5.1517e-15
0.3,0.3,0,0.299994,-0.000818327,7.52572e-15
0.3,0.4,0,0.299994,-0.000758243,7.52572e-15
0.3,0.5,0,0.299995,-0.000705189,7.86179e-15
0.3,0.6,0,0.299993,-0.000697928,1.03869e-14
0.3,0.7,0,0.299992,-0.000690667,1.2912e-14
0.3,0.8,0,0.299991,-0.000684747,1.49709e-14
0.3,0.9,0,0.299991,-0.000684747,1.49709e-14
0.3,1,0,0.299991,-0.000684747,1.49709e-14
0.3,1.1,0,0.299991,-0.000684747,1.49709e-14
0.3,1.2,0,0.299991,-0.000682358,1.42664e-14
0.3,1.3,0,0.299989,-0.000673733,1.17227e-14
0.3,1.4,0,0.299988,-0.000665108,9.17893e-15
0.3,1.5,0,0.299987,-0.000659468,7.51571e-15
0.3,1.6,0,0.299987,-0.000659468,7.51571e-15
0.3,1.7,0,0.299986,-0.00065524,8.51675e-15
0.3,1.8,0,0.299984,-0.000644461,1.10684e-14
0.3,1.9,0,0.299983,-0.000633683,1.36201e-14
0.3,2,0,0.299982,-0.000627879,1.49941e-14
0.3,2.1,0,0.299982,-0.000627879,1.49941e-14
0.3,2.2,0,0.299981,-0.000620886,1.88929e-14
0.3,2.3,0,0.299979,-0.000607111,2.65723e-14
0.3,2.4,0,0.299977,-0.000593336,3.42517e-14
0.3,2.5,0,0.299977,-0.000587508,3.75007e-14
0.3,2.6,0,0.299977,-0.000587508,3.75007e-14
0.3,2.7,0,0.299976,-0.000577014,3.9095e-14
0.3,2.8,0,0.299974,-0.000560172,4.16538e-14
0.3,2.9,0,0.299972,-0.00054333,4.42127e-14
0.3,3,0,0.299972,-0.000538148,4.5e-14
0.3,3.1,0,0.299972,-0.000538148,4.5e-14
0.3,3.2,0,0.299971,-0.000523557,4.5e-14
0.3,3.3,0,0.299969,-0.000503798,4.5e-14
0.3,3.4,0,0.299967,-0.000484039,4.5e-14
0.3,3.5,0,0.299967,-0.00048024,4.5e-14
0.3,3.6,0,0.299967,-0.00048024,4.5e-14
0.3,3.7,0,0.299966,-0.000461074,4.5e-14
0.3,3.8,0,0.299965,-0.000438627,4.5e-14
0.3,3.9,0,0.299964,-0.000416181,4.5e-14
0.3,4,0,0.299964,-0.000414454,4.5e-14
0.3,4.1,0,0.299964,-0.000414454,4.5e-14
0.3,4.2,0,0.299962,-0.000390566,4.87205e-14
0.3,4.3,0,0.299961,-0.000365919,5.25591e-14
0.3,4.4,0,0.29996,-0.00034222,5.625e-14
0.3,4.5,0,0.29996,-0.00034222,5.625e-14
0.3,4.6,0,0.29996,-0.000339972,5.66398e-14
0.3,4.7,0,0.299959,-0.000313394,6.12461e-14
0.3,4.8,0,0.299958,-0.000286817,6.58524e-14
0.3,4.9,0,0.299957,-0.000264329,6.975e-14
0.3,5,0,0.299957,-0.000264329,6.975e-14
0.3,5.1,0,0.299957,-0.000258712,6.99547e-14
0.3,5.2,0,0.299956,-0.000230626,7.09783e-14
0.3,5.3,0,0.299955,-0.00020254,7.2002e-14
0.3,5.4,0,0.299954,-0.000182015,7.275e-14
0.3,5.5,0,0.299954,-0.000182015,7.275e-14
0.3,5.6,0,0.299954,-0.000172838,7.29114e-14
0.3,5.7,0,0.299953,-0.00014374,7.34232e-14
0.3,5.8,0,0.299953,-0.000114643,7.3935e-14
0.3,5.9,0,0.299952,-9.67362e-05,7.425e-14
0.3,6,0,0.299952,-9.67362e-05,7.425e-14
0.3,6.1,0,0.299952,-8.39595e-05,7.43602e-14
0.3,6.2,0,0.299952,-5.42991e-05,7.46161e-14
0.3,6.3,0,0.299952,-2.46387e-05,7.4872e-14
0.3,6.4,0,0.299952,-9.80851e-06,7.5e-14
0.3,6.5,0,0.299952,-9.80851e-06,7.5e-14
0.3,6.6,0,0.299952,6.47073e-06,7.51398e-14
0.3,6.7,0,0.299952,3.62778e-05,7.53957e-14
0.3,6.8,0,0.299952,6.60849e-05,7.56516e-14
0.3,6.9,0,0.299952,7.75491e-05,7.575e-14
0.3,7,0,0.299952,7.75491e-05,7.575e-14
0.3,7.1,0,0.299953,9.7094e-05,7.575e-14
0.3,7.2,0,0.299953,0.000126639,7.575e-14
0.3,7.3,0,0.299953,0.000156183,7.575e-14
0.3,7.4,0,0.299954,0.000164138,7.575e-14
0.3,7.5,0,0.299954,0.000164138,7.575e-14
0.3,7.6,0,0.299954,0.000186508,7.55512e-14
0.3,7.7,0,0.299955,0.000215303,7.52953e-14
0.3,7.8,0,0.299955,0.000244097,7.50394e-14
0.3,7.9,0,0.299955,0.000248527,7.5e-14
0.3,8,0,0.299955,0.000248527,7.5e-14
0.3,8.1,0,0.299956,0.000273105,7.5e-14
0.3,8.2,0,0.299957,0.00030065,7.5e-14
0.3,8.3,0,0.299958,0.000328195,7.5e-14
0.3,8.4,0,0.299958,0.000329255,7.5e-14
0.3,8.5,0,0.299958,0.000329452,7.5e-14
0.3,8.6,0,0.299959,0.000355123,7.5e-14
0.3,8.7,0,0.299961,0.000380794,7.5e-14
0.3,8.8,0,0.299962,0.000404491,7.5e-14
0.3,8.9,0,0.299962,0.000404491,7.5e-14
0.3,9,0,0.299962,0.000407389,7.5e-14
0.3,9.1,0,0.299963,0.000430939,7.5e-14
0.3,9.2,0,0.299965,0.000454489,7.5e-14
0.3,9.3,0,0.299966,0.000473511,7.5e-14
0.3,9.4,0,0.299966,0.000473511,7.5e-14
0.3,9.5,0,0.299966,0.000478566,7.4386e-14
0.3,9.6,0,0.299968,0.000499764,7.18113e-14
0.3,9.7,0,0.29997,0.000520963,6.92366e-14
0.3,9.8,0,0.299971,0.000535639,6.74541e-14
0.3,9.9,0,0.299971,0.000535639,6.74541e-14
0.3,10,0,0.299972,0.000542089,6.5638e-14
0.3,10.1,0,0.299975,0.000560318,6.05054e-14
0.3,10.2,0,0.299977,0.000578547,5.53728e-14
0.3,10.3,0,0.299979,0.000589063,5.24117e-14
0.3,10.4,0,0.299979,0.000589063,5.24117e-14
0.3,10.5,0,0.29998,0.000597073,5.00819e-14
0.3,10.6,0,0.299983,0.000614144,4.51167e-14
0.3,10.7,0,0.299985,0.000631214,4.01515e-14
0.3,10.8,0,0.299986,0.00063889,3.79189e-14
0.3,10.9,0,0.299986,0.00063889,3.79189e-14
0.3,11,0,0.299987,0.000647528,3.63803e-14
0.3,11.1,0,0.299988,0.000661266,3.39335e-14
0.3,11.2,0,0.29999,0.000675004,3.14866e-14
0.3,11.3,0,0.29999,0.000686777,3.06691e-14
0.3,11.4,0,0.29999,0.000697426,3.07831e-14
0.3,11.5,0,0.29999,0.000708075,3.0897e-14
0.3,11.6,0,0.29999,0.000712055,3.09396e-14
0.3,11.7,0,0.29999,0.000712055,3.09396e-14
0.3,11.8,0,0.29999,0.000712055,3.09396e-14
0.3,11.9,0,0.29999,0.000712055,3.09396e-14
0.3,12,0,0.299991,0.000714432,2.74038e-14
0.3,12.1,0,0.299991,0.000717067,2.34845e-14
0.3,12.2,0,0.299992,0.000719702,1.95653e-14
0.3,12.3,0,0.299992,0.000772816,2.04137e-14
0.3,12.4,0,0.299992,0.000833188,2.19477e-14
0.3,12.5,0,0.299994,0.000836583,1.8251e-14
0.3,12.6,0,0.299995,0.000838336,1.44035e-14
0.3,12.7,0,0.299996,0.000840089,1.0556e-14
0.4,0,0,0.299995,-0.00101043,0
0.4,0.1,0,0.299994,-0.00100764,2.57585e-15
0.4,0.2,0,0.299994,-0.00100485,5.1517e-15
0.4,0.3,0,0.299993,-0.00100205,7.72755e-15
0.4,0.4,0,0.299993,-0.000993273,1.00343e-14
0.4,0.5,0,0.299993,-0.000940531,1.03853e-14
0.4,0.6,0,0.299992,-0.00093327,1.29103e-14
0.4,0.7,0,0.29999,-0.000926009,1.54354e-14
0.4,0.8,0,0.299989,-0.000918749,1.79605e-14
0.4,0.9,0,0.299988,-0.000912996,1.99612e-14
0.4,1,0,0.299988,-0.000912996,1.99612e-14
0.4,1.1,0,0.299988,-0.000910806,1.93154e-14
0.4,1.2,0,0.299986,-0.000902181,1.67717e-14
0.4,1.3,0,0.299985,-0.000893556,1.42279e-14
0.4,1.4,0,0.299983,-0.000884931,1.16842e-14
0.4,1.5,0,0.299982,-0.000879291,1.00209e-14
0.4,1.6,0,0.299982,-0.000875311,1.09631e-14
0.4,1.7,0,0.29998,-0.000864533,1.35148e-14
0.4,1.8,0,0.299978,-0.000853754,1.60665e-14
0.4,1.9,0,0.299976,-0.000842976,1.86181e-14
0.4,2,0,0.299975,-0.000837172,1.99921e-14
0.4,2.1,0,0.299975,-0.000830497,2.37137e-14
0.4,2.2,0,0.299973,-0.000816722,3.13931e-14
0.4,2.3,0,0.299971,-0.000802947,3.90725e-14
0.4,2.4,0,0.29997,-0.000789172,4.67519e-14
0.4,2.5,0,0.299969,-0.000783344,5.00009e-14
0.4,2.6,0,0.299968,-0.000773239,5.15362e-14
0.4,2.7,0,0.299966,-0.000756397,5.4095e-14
0.4,2.8,0,0.299965,-0.000739555,5.66538e-14
0.4,2.9,0,0.299963,-0.000722713,5.92127e-14
0.4,3,0,0.299962,-0.000717531,6e-14
0.4,3.1,0,0.299961,-0.000703395,6e-14
0.4,3.2,0,0.29996,-0.000683637,6e-14
0.4,3.3,0,0.299958,-0.000663878,6e-14
0.4,3.4,0,0.299957,-0.000644119,6e-14
0.4,3.5,0,0.299956,-0.000640319,6e-14
0.4,3.6,0,0.299955,-0.000621672,6e-14
0.4,3.7,0,0.299954,-0.000599225,6e-14
0.4,3.8,0,0.299953,-0.000576779,6e-14
0.4,3.9,0,0.299951,-0.000554333,6e-14
0.4,4,0,0.299951,-0.000552606,6e-14
0.4,4.1,0,0.29995,-0.000529286,6.36319e-14
0.4,4.2,0,0.299949,-0.000504639,6.74705e-14
0.4,4.3,0,0.299948,-0.000479993,7.13091e-14
0.4,4.4,0,0.299947,-0.000456294,7.5e-14
0.4,4.5,0,0.299947,-0.000454658,7.52835e-14
0.4,4.6,0,0.299946,-0.000428081,7.98898e-14
0.4,4.7,0,0.299944,-0.000401504,8.44961e-14
0.4,4.8,0,0.299943,-0.000374927,8.91024e-14
0.4,4.9,0,0.299942,-0.000352439,9.3e-14
0.4,5,0,0.299942,-0.00034747,9.31811e-14
0.4,5.1,0,0.299941,-0.000319383,9.42047e-14
0.4,5.2,0,0.299941,-0.000291297,9.52283e-14
0.4,5.3,0,0.29994,-0.000263211,9.6252e-14
0.4,5.4,0,0.299939,-0.000242687,9.7e-14
0.4,5.5,0,0.299939,-0.000234181,9.71496e-14
0.4,5.6,0,0.299938,-0.000205084,9.76614e-14
0.4,5.7,0,0.299938,-0.000175986,9.81732e-14
0.4,5.8,0,0.299937,-0.000146888,9.8685e-14
0.4,5.9,0,0.299937,-0.000128982,9.9e-14
0.4,6,0,0.299937,-0.000116889,9.91043e-14
0.4,6.1,0,0.299936,-8.7229e-05,9.93602e-14
0.4,6.2,0,0.299936,-5.75686e-05,9.96161e-14
0.4,6.3,0,0.299936,-2.79082e-05,9.9872e-14
0.4,6.4,0,0.299936,-1.3078e-05,1e-13
0.4,6.5,0,0.299936,2.51337e-06,1.00134e-13
0.4,6.6,0,0.299936,3.23204e-05,1.0039e-13
0.4,6.7,0,0.299936,6.21275e-05,1.00646e-13
0.4,6.8,0,0.299937,9.19346e-05,1.00902e-13
0.4,6.9,0,0.299937,0.000103399,1.01e-13
0.4,7,0,0.299937,0.000122262,1.01e-13
0.4,7.1,0,0.299937,0.000151807,1.01e-13
0.4,7.2,0,0.299938,0.000181351,1.01e-13
0.4,7.3,0,0.299938,0.000210896,1.01e-13
0.4,7.4,0,0.299938,0.00021885,1.01e-13
0.4,7.5,0,0.299938,0.000240556,1.00807e-13
0.4,7.6,0,0.299939,0.000269351,1.00551e-13
0.4,7.7,0,0.29994,0.000298145,1.00295e-13
0.4,7.8,0,0.29994,0.00032694,1.00039e-13
0.4,7.9,0,0.29994,0.000331369,1e-13
0.4,8,0,0.299941,0.000355312,1e-13
0.4,8.1,0,0.299942,0.000382857,1e-13
0.4,8.2,0,0.299943,0.000410402,1e-13
0.4,8.3,0,0.299944,0.000437947,1e-13
0.4,8.4,0,0.299944,0.000439006,1e-13
0.4,8.5,0,0.299945,0.000464282,1e-13
0.4,8.6,0,0.299946,0.000489953,1e-13
0.4,8.7,0,0.299948,0.000515625,1e-13
0.4,8.8,0,0.299949,0.000539321,1e-13
0.4,8.9,0,0.299949,0.000541676,1e-13
0.4,9,0,0.299951,0.000565226,1e-13
0.4,9.1,0,0.299952,0.000588776,1e-13
0.4,9.2,0,0.299953,0.000612326,1e-13
0.4,9.3,0,0.299955,0.000631347,1e-13
0.4,9.4,0,0.299955,0.000635913,9.94454e-14
0.4,9.5,0,0.299957,0.000657112,9.68707e-14
0.4,9.6,0,0.299959,0.000678311,9.4296e-14
0.4,9.7,0,0.29996,0.00069951,9.17213e-14
0.4,9.8,0,0.299962,0.000714186,8.99388e-14
0.4,9.9,0,0.299963,0.000720215,8.82411e-14
0.4,10,0,0.299965,0.000738444,8.31085e-14
0.4,10.1,0,0.299968,0.000756672,7.7976e-14
0.4,10.2,0,0.29997,0.000774901,7.28434e-14
0.4,10.3,0,0.299972,0.000785418,6.98823e-14
0.4,10.4,0,0.299973,0.000793034,6.7667e-14
0.4,10.5,0,0.299976,0.000810104,6.27019e-14
0.4,10.6,0,0.299978,0.000827175,5.77367e-14
0.4,10.7,0,0.299981,0.000844245,5.27715e-14
0.4,10.8,0,0.299982,0.000851853,5.05585e-14
0.4,10.9,0,0.299982,0.000860377,4.90403e-14
0.4,11,0,0.299984,0.000874115,4.65935e-14
0.4,11.1,0,0.299985,0.000887853,4.41467e-14
0.4,11.2,0,0.299986,0.000901591,4.16999e-14
0.4,11.3,0,0.299987,0.000913381,4.08673e-14
0.4,11.4,0,0.299987,0.00092403,4.09813e-14
0.4,11.5,0,0.299987,0.000934679,4.10952e-14
0.4,11.6,0,0.299986,0.000945328,4.12092e-14
0.4,11.7,0,0.299986,0.000949406,4.12528e-14
0.4,11.8,0,0.299986,0.000949406,4.12528e-14
0.4,11.9,0,0.299987,0.000951799,3.76941e-14
0.4,12,0,0.299988,0.000954434,3.37748e-14
0.4,12.1,0,0.299989,0.000957069,2.98556e-14
0.4,12.2,0,0.29999,0.000959704,2.59363e-14
0.4,12.3,0,0.29999,0.00101262,2.6766e-14
0.4,12.4,0,0.299991,0.00101656,2.31196e-14
0.4,12.5,0,0.299992,0.00101832,1.92721e-14
0.4,12.6,0,0.299993,0.00102007,1.54246e-14
0.4,12.7,0,0.299995,0.00102182,1.15771e-14
0.5,0,0,0.299994,-0.00118967,0
0.5,0.1,0,0.299994,-0.00118704,2.57153e-15
0.5,0.2,0,0.299993,-0.00118442,5.14306e-15
0.5,0.3,0,0.299993,-0.00118179,7.71459e-15
0.5,0.4,0,0.299992,-0.00117916,1.02861e-14
0.5,0.5,0,0.299991,-0.00117581,1.28482e-14
0.5,0.6,0,0.29999,-0.00116856,1.5386e-14
0.5,0.7,0,0.299989,-0.00116131,1.79237e-14
0.5,0.8,0,0.299987,-0.00115407,2.04615e-14
0.5,0.9,0,0.299986,-0.00114682,2.29993e-14
0.5,1,0,0.299985,-0.00113925,2.43644e-14
0.5,1.1,0,0.299983,-0.00113063,2.18207e-14
0.5,1.2,0,0.299982,-0.001122,1.92769e-14
0.5,1.3,0,0.29998,-0.00111338,1.67332e-14
0.5,1.4,0,0.299979,-0.00110475,1.41894e-14
0.5,1.5,0,0.299977,-0.00109538,1.34095e-14
0.5,1.6,0,0.299976,-0.0010846,1.59611e-14
0.5,1.7,0,0.299974,-0.00107383,1.85128e-14
0.5,1.8,0,0.299972,-0.00106305,2.10645e-14
0.5,1.9,0,0.29997,-0.00105227,2.36162e-14
0.5,2,0,0.299968,-0.00104011,2.85345e-14
0.5,2.1,0,0.299967,-0.00102633,3.62139e-14
0.5,2.2,0,0.299965,-0.00101256,4.38933e-14
0.5,2.3,0,0.299963,-0.000998783,5.15727e-14
0.5,2.4,0,0.299962,-0.000985008,5.92521e-14
0.5,2.5,0,0.29996,-0.000969464,6.39774e-14
0.5,2.6,0,0.299958,-0.000952622,6.65362e-14
0.5,2.7,0,0.299957,-0.00093578,6.9095e-14
0.5,2.8,0,0.299955,-0.000918938,7.16538e-14
0.5,2.9,0,0.299954,-0.000902095,7.42127e-14
0.5,3,0,0.299952,-0.000883234,7.5e-14
0.5,3.1,0,0.29995,-0.000863475,7.5e-14
0.5,3.2,0,0.299949,-0.000843717,7.5e-14
0.5,3.3,0,0.299947,-0.000823958,7.5e-14
0.5,3.4,0,0.299946,-0.000804199,7.5e-14
0.5,3.5,0,0.299944,-0.00078227,7.5e-14
0.5,3.6,0,0.299943,-0.000759823,7.5e-14
0.5,3.7,0,0.299942,-0.000737377,7.5e-14
0.5,3.8,0,0.299941,-0.00071493,7.5e-14
0.5,3.9,0,0.299939,-0.000692484,7.5e-14
0.5,4,0,0.299938,-0.000668007,7.85433e-14
0.5,4.1,0,0.299937,-0.00064336,8.23819e-14
0.5,4.2,0,0.299936,-0.000618713,8.62205e-14
0.5,4.3,0,0.299935,-0.000594066,9.00591e-14
0.5,4.4,0,0.299933,-0.000569345,9.39272e-14
0.5,4.5,0,0.299932,-0.000542768,9.85335e-14
0.5,4.6,0,0.299931,-0.000516191,1.0314e-13
0.5,4.7,0,0.29993,-0.000489614,1.07746e-13
0.5,4.8,0,0.299929,-0.000463037,1.12352e-13
0.5,4.9,0,0.299928,-0.000436227,1.16407e-13
0.5,5,0,0.299927,-0.000408141,1.17431e-13
0.5,5.1,0,0.299926,-0.000380055,1.18455e-13
0.5,5.2,0,0.299925,-0.000351969,1.19478e-13
0.5,5.3,0,0.299924,-0.000323883,1.20502e-13
0.5,5.4,0,0.299924,-0.000295524,1.21388e-13
0.5,5.5,0,0.299923,-0.000266427,1.219e-13
0.5,5.6,0,0.299922,-0.000237329,1.22411e-13
0.5,5.7,0,0.299922,-0.000208231,1.22923e-13
0.5,5.8,0,0.299921,-0.000179133,1.23435e-13
0.5,5.9,0,0.299921,-0.000149819,1.23848e-13
0.5,6,0,0.29992,-0.000120159,1.24104e-13
0.5,6.1,0,0.29992,-9.04985e-05,1.2436e-13
0.5,6.2,0,0.29992,-6.08381e-05,1.24616e-13
0.5,6.3,0,0.29992,-3.11777e-05,1.24872e-13
0.5,6.4,0,0.29992,-1.44399e-06,1.25128e-13
0.5,6.5,0,0.29992,2.83631e-05,1.25384e-13
0.5,6.6,0,0.29992,5.81702e-05,1.2564e-13
0.5,6.7,0,0.29992,8.79772e-05,1.25896e-13
0.5,6.8,0,0.299921,0.000117784,1.26152e-13
0.5,6.9,0,0.299921,0.00014743,1.2625e-13
0.5,7,0,0.299921,0.000176974,1.2625e-13
0.5,7.1,0,0.299922,0.000206519,1.2625e-13
0.5,7.2,0,0.299922,0.000236064,1.2625e-13
0.5,7.3,0,0.299922,0.000265608,1.2625e-13
0.5,7.4,0,0.299923,0.000294605,1.26063e-13
0.5,7.5,0,0.299923,0.000323399,1.25807e-13
0.5,7.6,0,0.299924,0.000352193,1.25551e-13
0.5,7.7,0,0.299925,0.000380988,1.25295e-13
0.5,7.8,0,0.299925,0.000409782,1.25039e-13
0.5,7.9,0,0.299926,0.000437519,1.25e-13
0.5,8,0,0.299927,0.000465064,1.25e-13
0.5,8.1,0,0.299928,0.000492608,1.25e-13
0.5,8.2,0,0.299929,0.000520153,1.25e-13
0.5,8.3,0,0.29993,0.000547698,1.25e-13
0.5,8.4,0,0.299931,0.000573441,1.25e-13
0.5,8.5,0,0.299932,0.000599112,1.25e-13
0.5,8.6,0,0.299934,0.000624784,1.25e-13
0.5,8.7,0,0.299935,0.000650455,1.25e-13
0.5,8.8,0,0.299936,0.000675963,1.25e-13
0.5,8.9,0,0.299938,0.000699513,1.25e-13
0.5,9,0,0.299939,0.000723063,1.25e-13
0.5,9.1,0,0.299941,0.000746613,1.25e-13
0.5,9.2,0,0.299942,0.000770163,1.25e-13
0.5,9.3,0,0.299944,0.000793261,1.24505e-13
0.5,9.4,0,0.299945,0.00081446,1.2193e-13