x,y,z,U_0,U_1,U_2
0,0,0,0.3,-0.000384903,0
0,0.1,0,0.3,-0.000230942,0
0,0.2,0,0.3,-7.69806e-05,0
0,0.3,0,0.3,0,0
0,0.4,0,0.3,0,0
0,0.5,0,0.3,0,0
0,0.6,0,0.3,0,0
0,0.7,0,0.3,0,0
0,0.8,0,0.3,0,0
0,0.9,0,0.3,0,0
0,1,0,0.3,0,0
0,1.1,0,0.3,0,0
0,1.2,0,0.3,0,0
0,1.3,0,0.3,0,0
0,1.4,0,0.3,0,0
0,1.5,0,0.3,0,0
0,1.6,0,0.3,0,0
0,1.7,0,0.3,0,0
0,1.8,0,0.3,0,0
0,1.9,0,0.3,0,0
0,2,0,0.3,0,0
0,2.1,0,0.3,0,0
0,2.2,0,0.3,0,0
0,2.3,0,0.3,0,0
0,2.4,0,0.3,0,0
0,2.5,0,0.3,0,0
0,2.6,0,0.3,0,0
0,2.7,0,0.3,0,0
0,2.8,0,0.3,0,0
0,2.9,0,0.3,0,0
0,3,0,0.3,0,0
0,3.1,0,0.3,0,0
0,3.2,0,0.3,0,0
0,3.3,0,0.3,0,0
0,3.4,0,0.3,0,0
0,3.5,0,0.3,2.36979e-19,0
0,3.6,0,0.3,0,0
0,3.7,0,0.3,0,0
0,3.8,0,0.3,0,0
0,3.9,0,0.3,0,0
0,4,0,0.3,1.9488e-19,0
0,4.1,0,0.3,0,0
0,4.2,0,0.3,0,0
0,4.3,0,0.3,0,0
0,4.4,0,0.3,0,0
0,4.5,0,0.3,0,0
0,4.6,0,0.3,0,0
0,4.7,0,0.3,0,0
0,4.8,0,0.3,0,0
0,4.9,0,0.3,0,0
0,5,0,0.3,0,0
0,5.1,0,0.3,8.0414e-20,0
0,5.2,0,0.3,0,0
0,5.3,0,0.3,5.77261e-20,0
0,5.4,0,0.3,4.63247e-20,0
0,5.5,0,0.3,0,0
0,5.6,0,0.3,2.3503e-20,0
0,5.7,0,0.3,1.21297e-20,0
0,5.8,0,0.3,8.03452e-22,0
0,5.9,0,0.3,-1.04551e-20,0
0,6,0,0.3,0,0
0,6.1,0,0.3,0,0
0,6.2,0,0.3,0,0
0,6.3,0,0.3,0,0
0,6.4,0,0.3,0,0
0,6.5,0,0.3,0,0
0,6.6,0,0.3,0,0
0,6.7,0,0.3,0,0
0,6.8,0,0.3,0,0
0,6.9,0,0.3,0,0
0,7,0,0.3,0,0
0,7.1,0,0.3,0,0
0,7.2,0,0.3,0,0
0,7.3,0,0.3,0,0
0,7.4,0,0.3,0,0
0,7.5,0,0.3,0,0
0,7.6,0,0.3,0,0
0,7.7,0,0.3,0,0
0,7.8,0,0.3,0,0
0,7.9,0,0.3,0,0
0,8,0,0.3,0,0
0,8.1,0,0.3,0,0
0,8.2,0,0.3,0,0
0,8.3,0,0.3,0,0
0,8.4,0,0.3,0,0
0,8.5,0,0.3,0,0
0,8.6,0,0.3,0,0
0,8.7,0,0.3,0,0
0,8.8,0,0.3,0,0
0,8.9,0,0.3,0,0
0,9,0,0.3,0,0
0,9.1,0,0.3,0,0
0,9.2,0,0.3,0,0
0,9.3,0,0.3,0,0
0,9.4,0,0.3,0,0
0,9.5,0,0.3,0,0
0,9.6,0,0.3,0,0
0,9.7,0,0.3,0,0
0,9.8,0,0.3,0,0
0,9.9,0,0.3,0,0
0,10,0,0.3,0,0
0,10.1,0,0.3,0,0
0,10.2,0,0.3,0,0
0,10.3,0,0.3,0,0
0,10.4,0,0.3,0,0
0,10.5,0,0.3,0,0
0,10.6,0,0.3,0,0
0,10.7,0,0.3,0,0
0,10.8,0,0.3,0,0
0,10.9,0,0.3,0,0
0,11,0,0.3,0,0
0,11.1,0,0.3,0,0
0,11.2,0,0.3,0,0
0,11.3,0,0.3,0,0
0,11.4,0,0.3,0,0
0,11.5,0,0.3,0,0
0,11.6,0,0.3,0,0
0,11.7,0,0.3,0,0
0,11.8,0,0.3,0,0
0,11.9,0,0.3,0,0
0,12,0,0.3,0,0
0,12.1,0,0.3,0,0
0,12.2,0,0.3,0,0
0,12.3,0,0.3,0,0
0,12.4,0,0.3,2.99368e-05,0
0,12.5,0,0.3,0.000115471,0
0,12.6,0,0.3,0.000201004,0
0,12.7,0,0.3,0.000286538,0
0.1,0,0,0.3,-0.000721502,0
0.1,0.1,0,0.3,-0.000566984,0
0.1,0.2,0,0.3,-0.000446025,0
0.1,0.3,0,0.3,-0.000445293,0
0.1,0.4,0,0.3,-0.000444969,0
0.1,0.5,0,0.299998,-0.000444484,0
0.1,0.6,0,0.299999,-0.000442842,0
0.1,0.7,0,0.299999,-0.00044254,0
0.1,0.8,0,0.299999,-0.000440252,0
0.1,0.9,0,0.299999,-0.000439573,0
0.1,1,0,0.299997,-0.000438032,0
0.1,1.1,0,0.299999,-0.000435075,0
0.1,1.2,0,0.299998,-0.000434442,0
0.1,1.3,0,0.299998,-0.000430344,0
0.1,1.4,0,0.299999,-0.000429219,0
0.1,1.5,0,0.299995,-0.000426503,0
0.1,1.6,0,0.299999,-0.000421854,0
0.1,1.7,0,0.299997,-0.000420843,0
0.1,1.8,0,0.299997,-0.000414512,0
0.1,1.9,0,0.299999,-0.000412809,0
0.1,2,0,0.299992,-0.00040874,0
0.1,2.1,0,0.299998,-0.000401917,0
0.1,2.2,0,0.299996,-0.00040047,0
0.1,2.3,0,0.299996,-0.00039144,0
0.1,2.4,0,0.299998,-0.000389017,0
0.1,2.5,0,0.299989,-0.000383375,0
0.1,2.6,0,0.299998,-0.000373969,0
0.1,2.7,0,0.299995,-0.000372004,0
0.1,2.8,0,0.299995,-0.000359896,0
0.1,2.9,0,0.299998,-0.000356671,0
0.1,3,0,0.299985,-0.000349087,0
0.1,3.1,0,0.299998,-0.000337061,0
0.1,3.2,0,0.299993,-0.000334425,0
0.1,3.3,0,0.299993,-0.000319061,0
0.1,3.4,0,0.299998,-0.000315112,0
0.1,3.5,0,0.299982,-0.000304931,0
0.1,3.6,0,0.299998,-0.000290835,0
0.1,3.7,0,0.299993,-0.000287304,0
0.1,3.8,0,0.299994,-0.00026871,0
0.1,3.9,0,0.299999,-0.000264273,0
0.1,4,0,0.299978,-0.000250761,0
0.1,4.1,0,0.300001,-0.000235509,0
0.1,4.2,0,0.299993,-0.000230912,0
0.1,4.3,0,0.299994,-0.000209349,0
0.1,4.4,0,0.300002,-0.000204705,0
0.1,4.5,0,0.299974,-0.000187581,0
0.1,4.6,0,0.300003,-0.000172242,0
0.1,4.7,0,0.299994,-0.000166565,0
0.1,4.8,0,0.299995,-0.000143101,0
0.1,4.9,0,0.300005,-0.000138722,0
0.1,5,0,0.299972,-0.00012314,0
0.1,5.1,0,0.299972,-0.000103472,0
0.1,5.2,0,0.299972,-8.89077e-05,0
0.1,5.3,0,0.299972,-7.42786e-05,0
0.1,5.4,0,0.299972,-5.9608e-05,0
0.1,5.5,0,0.299972,-4.4919e-05,0
0.1,5.6,0,0.299972,-3.02424e-05,0
0.1,5.7,0,0.299972,-1.56078e-05,0
0.1,5.8,0,0.299972,-1.03384e-06,0
0.1,5.9,0,0.299972,1.3453e-05,0
0.1,6,0,0.299973,3.57194e-05,0
0.1,6.1,0,0.300004,5.4631e-05,0
0.1,6.2,0,0.300004,5.4631e-05,0
0.1,6.3,0,0.299985,6.703e-05,0
0.1,6.4,0,0.299993,9.00792e-05,0
0.1,6.5,0,0.300002,9.75931e-05,0
0.1,6.6,0,0.299995,0.000103075,0
0.1,6.7,0,0.299984,0.000124371,0
0.1,6.8,0,0.300001,0.000138327,0
0.1,6.9,0,0.300001,0.000138327,0
0.1,7,0,0.29998,0.000157035,0
0.1,7.1,0,0.299999,0.000175275,0
0.1,7.2,0,0.299999,0.000175405,0
0.1,7.3,0,0.299989,0.000186079,0
0.1,7.4,0,0.299992,0.0002029,0
0.1,7.5,0,0.299998,0.00020835,0
0.1,7.6,0,0.299995,0.000211894,0
0.1,7.7,0,0.299988,0.000227904,0
0.1,7.8,0,0.299998,0.000236894,0
0.1,7.9,0,0.299998,0.000236894,0
0.1,8,0,0.299988,0.000249473,0
0.1,8.1,0,0.299998,0.000260347,0
0.1,8.2,0,0.299998,0.000260944,0
0.1,8.3,0,0.299993,0.000267082,0
0.1,8.4,0,0.299994,0.000277161,0
0.1,8.5,0,0.299998,0.000280591,0
0.1,8.6,0,0.299997,0.000282101,0
0.1,8.7,0,0.299993,0.00029111,0
0.1,8.8,0,0.299999,0.000296106,0
0.1,8.9,0,0.299999,0.000296106,0
0.1,9,0,0.299994,0.000302041,0
0.1,9.1,0,0.299998,0.000307372,0
0.1,9.2,0,0.299999,0.000307905,0
0.1,9.3,0,0.299997,0.000310375,0
0.1,9.4,0,0.299998,0.000314861,0
0.1,9.5,0,0.299999,0.000316491,0
0.1,9.6,0,0.299999,0.000316897,0
0.1,9.7,0,0.299997,0.000320476,0
0.1,9.8,0,0.299999,0.000322405,0
0.1,9.9,0,0.299999,0.000322405,0
0.1,10,0,0.299998,0.000324296,0
0.1,10.1,0,0.3,0.000325956,0
0.1,10.2,0,0.3,0.000326184,0
0.1,10.3,0,0.3,0.000326797,0
0.1,10.4,0,0.3,0.000327958,0
0.1,10.5,0,0.3,0.000328334,0
0.1,10.6,0,0.3,0.000328378,0
0.1,10.7,0,0.3,0.000329102,0
0.1,10.8,0,0.3,0.00032931,0
0.1,10.9,0,0.3,0.00032931,0
0.1,11,0,0.3,0.000329508,0
0.1,11.1,0,0.3,0.000329525,0
0.1,11.2,0,0.3,0.00032951,0
0.1,11.3,0,0.3,0.000329501,0
0.1,11.4,0,0.3,0.000329394,0
0.1,11.5,0,0.3,0.000329266,0
0.1,11.6,0,0.3,0.000329265,0
0.1,11.7,0,0.3,0.000329086,0
0.1,11.8,0,0.3,0.000328847,0
0.1,11.9,0,0.3,0.000328847,0
0.1,12,0,0.3,0.000328714,0
0.1,12.1,0,0.3,0.000328508,0
0.1,12.2,0,0.3,0.000328454,0
0.1,12.3,0,0.3,0.000328411,0
0.1,12.4,0,0.3,0.000328286,0
0.1,12.5,0,0.3,0.000361829,0
0.1,12.6,0,0.3,0.000447363,0
0.1,12.7,0,0.3,0.000532868,0
0.2,0,0,0.299999,-0.0010581,0
0.2,0.1,0,0.3,-0.00090336,0
0.2,0.2,0,0.299999,-0.000892075,0
0.2,0.3,0,0.299999,-0.000891343,0
0.2,0.4,0,0.299999,-0.000889647,0
0.2,0.5,0,0.299997,-0.000888967,0
0.2,0.6,0,0.299998,-0.000886669,0
0.2,0.7,0,0.299996,-0.000884376,0
0.2,0.8,0,0.299996,-0.000882087,0
0.2,0.9,0,0.299997,-0.000878221,0
0.2,1,0,0.299993,-0.000876063,0
0.2,1.1,0,0.299997,-0.000871924,0
0.2,1.2,0,0.299994,-0.000867409,0
0.2,1.3,0,0.299994,-0.00086331,0
0.2,1.4,0,0.299996,-0.000856809,0
0.2,1.5,0,0.299989,-0.000853007,0
0.2,1.6,0,0.299995,-0.000846497,0
0.2,1.7,0,0.299991,-0.000839327,0
0.2,1.8,0,0.299991,-0.000832996,0
0.2,1.9,0,0.299994,-0.000823177,0
0.2,2,0,0.299984,-0.00081748,0
0.2,2.1,0,0.299993,-0.000807928,0
0.2,2.2,0,0.299987,-0.000797565,0
0.2,2.3,0,0.299987,-0.000788535,0
0.2,2.4,0,0.299991,-0.000774648,0
0.2,2.5,0,0.299978,-0.000766749,0
0.2,2.6,0,0.29999,-0.000753582,0
0.2,2.7,0,0.299982,-0.000739423,0
0.2,2.8,0,0.299982,-0.000727314,0
0.2,2.9,0,0.299988,-0.000708792,0
0.2,3,0,0.299971,-0.000698173,0
0.2,3.1,0,0.299988,-0.000681337,0
0.2,3.2,0,0.299977,-0.0006627,0
0.2,3.3,0,0.299977,-0.000647336,0
0.2,3.4,0,0.299986,-0.000624115,0
0.2,3.5,0,0.299963,-0.000609861,0
0.2,3.6,0,0.299987,-0.000590128,0
0.2,3.7,0,0.299973,-0.000566367,0
0.2,3.8,0,0.299973,-0.000547774,0
0.2,3.9,0,0.299986,-0.000520439,0
0.2,4,0,0.299956,-0.000501521,0
0.2,4.1,0,0.299988,-0.000480169,0
0.2,4.2,0,0.299969,-0.000451098,0
0.2,4.3,0,0.29997,-0.000429535,0
0.2,4.4,0,0.299988,-0.000399136,0
0.2,4.5,0,0.299949,-0.000375162,0
0.2,4.6,0,0.29999,-0.000353688,0
0.2,4.7,0,0.299967,-0.000319883,0
0.2,4.8,0,0.299968,-0.000296419,0
0.2,4.9,0,0.29999,-0.000268095,0
0.2,5,0,0.299945,-0.00024628,0
0.2,5.1,0,0.299944,-0.000206944,0
0.2,5.2,0,0.299944,-0.000177815,0
0.2,5.3,0,0.299944,-0.000148557,0
0.2,5.4,0,0.299944,-0.000119216,0
0.2,5.5,0,0.299944,-8.98381e-05,0
0.2,5.6,0,0.299944,-6.04847e-05,0
0.2,5.7,0,0.299944,-3.12155e-05,0
0.2,5.8,0,0.299944,-2.06767e-06,0
0.2,5.9,0,0.299945,2.6906e-05,0
0.2,6,0,0.299945,7.14388e-05,0
0.2,6.1,0,0.299978,9.11972e-05,0
0.2,6.2,0,0.29999,0.000120786,0
0.2,6.3,0,0.299959,0.000141208,0
0.2,6.4,0,0.299967,0.000164257,0
0.2,6.5,0,0.299991,0.000193289,0
0.2,6.6,0,0.299971,0.000221074,0
0.2,6.7,0,0.29996,0.00024237,0
0.2,6.8,0,0.299985,0.000263608,0
0.2,6.9,0,0.299981,0.000294478,0
0.2,7,0,0.299958,0.000315101,0
0.2,7.1,0,0.299977,0.000333341,0
0.2,7.2,0,0.299988,0.000360663,0
0.2,7.3,0,0.29997,0.000379823,0
0.2,7.4,0,0.299973,0.000396643,0
0.2,7.5,0,0.299989,0.000414714,0
0.2,7.6,0,0.299979,0.000436619,0
0.2,7.7,0,0.299972,0.000452629,0
0.2,7.8,0,0.299986,0.000465343,0
0.2,7.9,0,0.299986,0.000485738,0
0.2,8,0,0.299974,0.000500413,0
0.2,8.1,0,0.299984,0.000511287,0
0.2,8.2,0,0.299992,0.000527358,0
0.2,8.3,0,0.299983,0.000539609,0
0.2,8.4,0,0.299984,0.000549689,0
0.2,8.5,0,0.299992,0.000559211,0
0.2,8.6,0,0.299989,0.000571891,0
0.2,8.7,0,0.299985,0.0005809,0
0.2,8.8,0,0.299992,0.000587499,0
0.2,8.9,0,0.299994,0.000597832,0
0.2,9,0,0.299988,0.000605184,0
0.2,9.1,0,0.299992,0.000610516,0
0.2,9.2,0,0.299996,0.000617729,0
0.2,9.3,0,0.299993,0.000623453,0
0.2,9.4,0,0.299993,0.000627938,0
0.2,9.5,0,0.299997,0.000631749,0
0.2,9.6,0,0.299996,0.000637015,0
0.2,9.7,0,0.299994,0.000640594,0
0.2,9.8,0,0.299997,0.000642984,0
0.2,9.9,0,0.299998,0.000646594,0
0.2,10,0,0.299997,0.000649092,0
0.2,10.1,0,0.299998,0.000650752,0
0.2,10.2,0,0.299999,0.000652751,0
0.2,10.3,0,0.299999,0.000654422,0
0.2,10.4,0,0.299999,0.000655583,0
0.2,10.5,0,0.3,0.000656335,0
0.2,10.6,0,0.3,0.000657456,0
0.2,10.7,0,0.299999,0.000658181,0
0.2,10.8,0,0.3,0.000658423,0
0.2,10.9,0,0.3,0.000658805,0
0.2,11,0,0.3,0.000659085,0
0.2,11.1,0,0.3,0.000659102,0
0.2,11.2,0,0.3,0.000659024,0
0.2,11.3,0,0.3,0.000658986,0
0.2,11.4,0,0.3,0.000658878,0
0.2,11.5,0,0.3,0.00065865,0
0.2,11.6,0,0.3,0.000658364,0
0.2,11.7,0,0.300001,0.000658185,0
0.2,11.8,0,0.3,0.000657922,0
0.2,11.9,0,0.3,0.00065757,0
0.2,12,0,0.3,0.000657369,0
0.2,12.1,0,0.3,0.000657162,0
0.2,12.2,0,0.3,0.000656916,0
0.2,12.3,0,0.3,0.000656731,0
0.2,12.4,0,0.3,0.000656606,0
0.2,12.5,0,0.3,0.000656509,0
0.2,12.6,0,0.3,0.000693695,0
0.2,12.7,0,0.3,0.000779198,0
0.3,0,0,0.299999,-0.0013947,0
0.3,0.1,0,0.299999,-0.00133897,0
0.3,0.2,0,0.299998,-0.00133824,0
0.3,0.3,0,0.299998,-0.0013373,0
0.3,0.4,0,0.299997,-0.0013351,0
0.3,0.5,0,0.299995,-0.00133345,0
0.3,0.6,0,0.299995,-0.00133025,0
0.3,0.7,0,0.299994,-0.00132654,0
0.3,0.8,0,0.299993,-0.00132361,0
0.3,0.9,0,0.299992,-0.00131829,0
0.3,1,0,0.29999,-0.0013141,0
0.3,1.1,0,0.299991,-0.00130806,0
0.3,1.2,0,0.299989,-0.00130097,0
0.3,1.3,0,0.299989,-0.00129573,0
0.3,1.4,0,0.299987,-0.00128669,0
0.3,1.5,0,0.299984,-0.00127951,0
0.3,1.6,0,0.299985,-0.00126997,0
0.3,1.7,0,0.299983,-0.00125874,0
0.3,1.8,0,0.299983,-0.00125067,0
0.3,1.9,0,0.299981,-0.00123702,0
0.3,2,0,0.299976,-0.00122622,0
0.3,2.1,0,0.299978,-0.00121233,0
0.3,2.2,0,0.299976,-0.00119602,0
0.3,2.3,0,0.299975,-0.0011845,0
0.3,2.4,0,0.299973,-0.00116529,0
0.3,2.5,0,0.299967,-0.00115012,0
0.3,2.6,0,0.29997,-0.00113106,0
0.3,2.7,0,0.299967,-0.00110872,0
0.3,2.8,0,0.299967,-0.00109322,0
0.3,2.9,0,0.299964,-0.00106755,0
0.3,3,0,0.299956,-0.00104726,0
0.3,3.1,0,0.299961,-0.00102252,0
0.3,3.2,0,0.299958,-0.00099338,0
0.3,3.3,0,0.299958,-0.000973575,0
0.3,3.4,0,0.299955,-0.000940893,0
0.3,3.5,0,0.299945,-0.000914792,0
0.3,3.6,0,0.299952,-0.000884464,0
0.3,3.7,0,0.299949,-0.00084825,0
0.3,3.8,0,0.299949,-0.000824135,0
0.3,3.9,0,0.299946,-0.000784511,0
0.3,4,0,0.299934,-0.000752282,0
0.3,4.1,0,0.299943,-0.000717139,0
0.3,4.2,0,0.299941,-0.000674335,0
0.3,4.3,0,0.299941,-0.000646297,0
0.3,4.4,0,0.299939,-0.00060065,0
0.3,4.5,0,0.299924,-0.000562743,0
0.3,4.6,0,0.299937,-0.000524237,0
0.3,4.7,0,0.299935,-0.000476268,0
0.3,4.8,0,0.299935,-0.00044662,0
0.3,4.9,0,0.299934,-0.000404371,0
0.3,5,0,0.299917,-0.00036942,0
0.3,5.1,0,0.299916,-0.000310416,0
0.3,5.2,0,0.299916,-0.000266723,0
0.3,5.3,0,0.299916,-0.000222836,0
0.3,5.4,0,0.299915,-0.000178824,0
0.3,5.5,0,0.299915,-0.000134757,0
0.3,5.6,0,0.299916,-9.07271e-05,0
0.3,5.7,0,0.299916,-4.68233e-05,0
0.3,5.8,0,0.299916,-3.10151e-06,0
0.3,5.9,0,0.299917,4.0359e-05,0
0.3,6,0,0.299918,0.000107158,0
0.3,6.1,0,0.299934,0.000137565,0
0.3,6.2,0,0.299936,0.000177745,0
0.3,6.3,0,0.299933,0.000215385,0
0.3,6.4,0,0.299936,0.000242089,0
0.3,6.5,0,0.299939,0.000287873,0
0.3,6.6,0,0.299941,0.000333657,0
0.3,6.7,0,0.299936,0.000360369,0
0.3,6.8,0,0.299943,0.000398547,0
0.3,6.9,0,0.299945,0.000440408,0
0.3,7,0,0.299937,0.000473167,0
0.3,7.1,0,0.299947,0.00050044,0
0.3,7.2,0,0.29995,0.000537715,0
0.3,7.3,0,0.299951,0.000573566,0
0.3,7.4,0,0.299953,0.000592464,0
0.3,7.5,0,0.299956,0.000624833,0
0.3,7.6,0,0.299958,0.000657203,0
0.3,7.7,0,0.299956,0.000677355,0
0.3,7.8,0,0.299961,0.000701389,0
0.3,7.9,0,0.299964,0.000728778,0
0.3,8,0,0.299961,0.000751354,0
0.3,8.1,0,0.299967,0.000767328,0
0.3,8.2,0,0.29997,0.000789882,0
0.3,8.3,0,0.299972,0.000812137,0
0.3,8.4,0,0.299972,0.000822903,0
0.3,8.5,0,0.299975,0.000840938,0
0.3,8.6,0,0.299977,0.000858973,0
0.3,8.7,0,0.299976,0.00087069,0
0.3,8.8,0,0.29998,0.000882593,0
0.3,8.9,0,0.299982,0.000896545,0
0.3,9,0,0.299982,0.000908328,0
0.3,9.1,0,0.299984,0.000915666,0
0.3,9.2,0,0.299986,0.000926045,0
0.3,9.3,0,0.299988,0.000936424,0
0.3,9.4,0,0.299988,0.000941097,0
0.3,9.5,0,0.29999,0.000948453,0
0.3,9.6,0,0.299991,0.000955808,0
0.3,9.7,0,0.299991,0.000960712,0
0.3,9.8,0,0.299993,0.000964779,0
0.3,9.9,0,0.299994,0.000969666,0
0.3,10,0,0.299995,0.000973888,0
0.3,10.1,0,0.299996,0.000976031,0
0.3,10.2,0,0.299997,0.000978987,0
0.3,10.3,0,0.299998,0.000981943,0
0.3,10.4,0,0.299998,0.000983207,0
0.3,10.5,0,0.299998,0.000984704,0
0.3,10.6,0,0.299999,0.000986223,0
0.3,10.7,0,0.299999,0.000987259,0
0.3,10.8,0,0.299999,0.000987675,0
0.3,10.9,0,0.3,0.000988196,0
0.3,11,0,0.3,0.000988663,0
0.3,11.1,0,0.3,0.000988673,0
0.3,11.2,0,0.3,0.000988576,0
0.3,11.3,0,0.300001,0.000988479,0
0.3,11.4,0,0.300001,0.000988363,0
0.3,11.5,0,0.300001,0.000987974,0
0.3,11.6,0,0.300001,0.000987571,0
0.3,11.7,0,0.300001,0.000987284,0
0.3,11.8,0,0.300001,0.000986906,0
0.3,11.9,0,0.300001,0.000986441,0
0.3,12,0,0.300001,0.000986023,0
0.3,12.1,0,0.300001,0.000985785,0
0.3,12.2,0,0.300001,0.000985436,0
0.3,12.3,0,0.300001,0.000985087,0
0.3,12.4,0,0.300001,0.000984926,0
0.3,12.5,0,0.3,0.000984803,0
0.3,12.6,0,0.3,0.000984675,0
0.3,12.7,0,0.3,0.00102553,0
0.4,0,0,0.299998,-0.00178729,0
0.4,0.1,0,0.299998,-0.00178609,0
0.4,0.2,0,0.299997,-0.00178536,0
0.4,0.3,0,0.299996,-0.00178339,0
0.4,0.4,0,0.299994,-0.00178119,0
0.4,0.5,0,0.299992,-0.00177895,0
0.4,0.6,0,0.299992,-0.00177428,0
0.4,0.7,0,0.29999,-0.00177057,0
0.4,0.8,0,0.299988,-0.00176451,0
0.4,0.9,0,0.299987,-0.00175918,0
0.4,1,0,0.299984,-0.00175329,0
0.4,1.1,0,0.299984,-0.00174464,0
0.4,1.2,0,0.299983,-0.00173755,0
0.4,1.3,0,0.29998,-0.00172672,0
0.4,1.4,0,0.299978,-0.00171767,0
0.4,1.5,0,0.299974,-0.00170739,0
0.4,1.6,0,0.299974,-0.00169392,0
0.4,1.7,0,0.299972,-0.00168269,0
0.4,1.8,0,0.29997,-0.00166599,0
0.4,1.9,0,0.299968,-0.00165235,0
0.4,2,0,0.299961,-0.00163656,0
0.4,2.1,0,0.299962,-0.00161724,0
0.4,2.2,0,0.29996,-0.00160094,0
0.4,2.3,0,0.299957,-0.00157703,0
0.4,2.4,0,0.299954,-0.00155782,0
0.4,2.5,0,0.299946,-0.00153524,0
0.4,2.6,0,0.299948,-0.00150904,0
0.4,2.7,0,0.299946,-0.0014867,0
0.4,2.8,0,0.299942,-0.00145427,0
0.4,2.9,0,0.299939,-0.0014286,0
0.4,3,0,0.299929,-0.00139812,0
0.4,3.1,0,0.299932,-0.00136408,0
0.4,3.2,0,0.29993,-0.00133494,0
0.4,3.3,0,0.299925,-0.00129294,0
0.4,3.4,0,0.299923,-0.00126026,0
0.4,3.5,0,0.299911,-0.00122145,0
0.4,3.6,0,0.299915,-0.00117887,0
0.4,3.7,0,0.299912,-0.00114266,0
0.4,3.8,0,0.299907,-0.00109087,0
0.4,3.9,0,0.299904,-0.00105125,0
0.4,4,0,0.299892,-0.00100468,0
0.4,4.1,0,0.299896,-0.000953662,0
0.4,4.2,0,0.299894,-0.000910857,0
0.4,4.3,0,0.299889,-0.000850304,0
0.4,4.4,0,0.299887,-0.000804657,0
0.4,4.5,0,0.299877,-0.000751811,0
0.4,4.6,0,0.299881,-0.000693607,0
0.4,4.7,0,0.299879,-0.000645638,0
0.4,4.8,0,0.299876,-0.000579557,0
0.4,4.9,0,0.299874,-0.000537308,0
0.4,5,0,0.299867,-0.000493692,0
0.4,5.1,0,0.299866,-0.00041475,0
0.4,5.2,0,0.299865,-0.000356259,0
0.4,5.3,0,0.299865,-0.000297488,0
0.4,5.4,0,0.299864,-0.000238545,0
0.4,5.5,0,0.299864,-0.000179529,0
0.4,5.6,0,0.299865,-0.000120564,0
0.4,5.7,0,0.299865,-6.17711e-05,0
0.4,5.8,0,0.299866,-3.2329e-06,0
0.4,5.9,0,0.299867,5.49281e-05,0
0.4,6,0,0.299869,0.000144291,0
0.4,6.1,0,0.299876,0.000185802,0
0.4,6.2,0,0.299878,0.000225982,0
0.4,6.3,0,0.299878,0.000271036,0
0.4,6.4,0,0.299884,0.000338339,0
0.4,6.5,0,0.299886,0.000384122,0
0.4,6.6,0,0.299888,0.000429906,0
0.4,6.7,0,0.299891,0.000492693,0
0.4,6.8,0,0.299897,0.000538374,0
0.4,6.9,0,0.299899,0.000580235,0
0.4,7,0,0.299896,0.000630948,0
0.4,7.1,0,0.299908,0.000679145,0
0.4,7.2,0,0.299911,0.00071642,0
0.4,7.3,0,0.299913,0.000755054,0
0.4,7.4,0,0.29992,0.000804978,0
0.4,7.5,0,0.299923,0.000837347,0
0.4,7.6,0,0.299926,0.000869716,0
0.4,7.7,0,0.299927,0.000911604,0
0.4,7.8,0,0.299934,0.000942534,0
0.4,7.9,0,0.299937,0.000969922,0
0.4,8,0,0.299936,0.00100183,0
0.4,8.1,0,0.299945,0.00103211,0
0.4,8.2,0,0.299947,0.00105466,0
0.4,8.3,0,0.29995,0.0010775,0
0.4,8.4,0,0.299955,0.0011067,0
0.4,8.5,0,0.299957,0.00112473,0
0.4,8.6,0,0.29996,0.00114277,0
0.4,8.7,0,0.299961,0.00116525,0
0.4,8.8,0,0.299966,0.00118126,0
0.4,8.9,0,0.299969,0.00119521,0
0.4,9,0,0.299969,0.0012112,0
0.4,9.1,0,0.299975,0.00122556,0
0.4,9.2,0,0.299976,0.00123594,0
0.4,9.3,0,0.299978,0.00124632,0
0.4,9.4,0,0.299981,0.00125911,0
0.4,9.5,0,0.299983,0.00126647,0
0.4,9.6,0,0.299985,0.00127383,0
0.4,9.7,0,0.299986,0.00128271,0
0.4,9.8,0,0.299989,0.00128834,0
0.4,9.9,0,0.29999,0.00129322,0
0.4,10,0,0.299991,0.00129871,0
0.4,10.1,0,0.299993,0.00130307,0
0.4,10.2,0,0.299994,0.00130602,0
0.4,10.3,0,0.299995,0.00130898,0
0.4,10.4,0,0.299996,0.00131212,0
0.4,10.5,0,0.299997,0.00131365,0
0.4,10.6,0,0.299998,0.00131517,0
0.4,10.7,0,0.299998,0.00131687,0
0.4,10.8,0,0.299999,0.0013174,0
0.4,10.9,0,0.299999,0.00131792,0
0.4,11,0,0.3,0.00131847,0
0.4,11.1,0,0.3,0.00131844,0
0.4,11.2,0,0.300001,0.00131834,0
0.4,11.3,0,0.300001,0.00131824,0
0.4,11.4,0,0.300001,0.00131781,0
0.4,11.5,0,0.300001,0.00131737,0
0.4,11.6,0,0.300001,0.00131697,0
0.4,11.7,0,0.300001,0.00131642,0
0.4,11.8,0,0.300001,0.00131579,0
0.4,11.9,0,0.300001,0.00131533,0
0.4,12,0,0.300001,0.00131481,0
0.4,12.1,0,0.300001,0.00131422,0
0.4,12.2,0,0.300001,0.00131387,0
0.4,12.3,0,0.300001,0.00131352,0
0.4,12.4,0,0.300001,0.00131312,0
0.4,12.5,0,0.300001,0.00131297,0
0.4,12.6,0,0.300001,0.00131284,0
0.4,12.7,0,0.300001,0.0013127,0
0.5,0,0,0.299996,-0.00223586,0
0.5,0.1,0,0.299997,-0.00223383,0
0.5,0.2,0,0.299995,-0.00223333,0
0.5,0.3,0,0.299993,-0.00223115,0
0.5,0.4,0,0.299992,-0.0022278,0
0.5,0.5,0,0.299988,-0.00222547,0
0.5,0.6,0,0.299988,-0.00221906,0
0.5,0.7,0,0.299985,-0.00221468,0
0.5,0.8,0,0.299982,-0.002208,0
0.5,0.9,0,0.299982,-0.00220056,0
0.5,1,0,0.299975,-0.00219365,0
0.5,1.1,0,0.299977,-0.0021822,0
0.5,1.2,0,0.299972,-0.0021734,0
0.5,1.3,0,0.299969,-0.00216147,0
0.5,1.4,0,0.299969,-0.00214915,0
0.5,1.5,0,0.299959,-0.00213666,0
0.5,1.6,0,0.299963,-0.00211914,0
0.5,1.7,0,0.299956,-0.00210483,0
0.5,1.8,0,0.299953,-0.00208641,0
0.5,1.9,0,0.299954,-0.00206814,0
0.5,2,0,0.299939,-0.0020485,0
0.5,2.1,0,0.299946,-0.00202375,0
0.5,2.2,0,0.299936,-0.00200249,0
0.5,2.3,0,0.299932,-0.00197613,0
0.5,2.4,0,0.299935,-0.00195076,0
0.5,2.5,0,0.299916,-0.00192211,0
0.5,2.6,0,0.299926,-0.00188895,0
0.5,2.7,0,0.299913,-0.0018593,0
0.5,2.8,0,0.299909,-0.0018235,0
0.5,2.9,0,0.299913,-0.00178991,0
0.5,3,0,0.299889,-0.00175076,0
0.5,3.1,0,0.299903,-0.00170788,0
0.5,3.2,0,0.299887,-0.00166893,0
0.5,3.3,0,0.299882,-0.0016225,0
0.5,3.4,0,0.299889,-0.00157967,0
0.5,3.5,0,0.29986,-0.00152983,0
0.5,3.6,0,0.299877,-0.0014758,0
0.5,3.7,0,0.29986,-0.00142774,0
0.5,3.8,0,0.299854,-0.00137041,0
0.5,3.9,0,0.299861,-0.00131778,0
0.5,4,0,0.299832,-0.00125872,0
0.5,4.1,0,0.299848,-0.00119291,0
0.5,4.2,0,0.299833,-0.00113704,0
0.5,4.3,0,0.299828,-0.00106996,0
0.5,4.4,0,0.299834,-0.00100817,0
0.5,4.5,0,0.299809,-0.000942364,0
0.5,4.6,0,0.299823,-0.000865736,0
0.5,4.7,0,0.299811,-0.000804501,0
0.5,4.8,0,0.299807,-0.000730031,0
0.5,4.9,0,0.299813,-0.000665174,0
0.5,5,0,0.299795,-0.000619097,0
0.5,5.1,0,0.299793,-0.000519944,0
0.5,5.2,0,0.299792,-0.000446422,0
0.5,5.3,0,0.299791,-0.000372512,0
0.5,5.4,0,0.299791,-0.000298378,0
0.5,5.5,0,0.29979,-0.000224153,0
0.5,5.6,0,0.299791,-0.000149995,0
0.5,5.7,0,0.299792,-7.60591e-05,0
0.5,5.8,0,0.299793,-2.46184e-06,0
0.5,5.9,0,0.299794,7.06133e-05,0
0.5,6,0,0.299797,0.000182837,0
0.5,6.1,0,0.299812,0.000225799,0
0.5,6.2,0,0.299818,0.000270439,0
0.5,6.3,0,0.299809,0.000348519,0
0.5,6.4,0,0.299818,0.000419482,0
0.5,6.5,0,0.299833,0.000482038,0
0.5,6.6,0,0.299827,0.000545904,0
0.5,6.7,0,0.299827,0.000614133,0
0.5,6.8,0,0.299848,0.000677386,0
0.5,6.9,0,0.299848,0.000730117,0
0.5,7,0,0.299838,0.000792633,0
0.5,7.1,0,0.299859,0.000850346,0
0.5,7.2,0,0.299871,0.000898044,0
0.5,7.3,0,0.299861,0.000952612,0
0.5,7.4,0,0.299871,0.00100474,0
0.5,7.5,0,0.29989,0.00105226,0
0.5,7.6,0,0.299885,0.0010945,0
0.5,7.7,0,0.299883,0.00114029,0
0.5,7.8,0,0.299903,0.00118317,0
0.5,7.9,0,0.299906,0.00121745,0
0.5,8,0,0.299899,0.00125678,0
0.5,8.1,0,0.299914,0.00129238,0
0.5,8.2,0,0.299925,0.0013217,0
0.5,8.3,0,0.29992,0.00135393,0
0.5,8.4,0,0.299926,0.00138384,0
0.5,8.5,0,0.29994,0.0014106,0
0.5,8.6,0,0.299939,0.00143367,0
0.5,8.7,0,0.299938,0.00145871,0
0.5,8.8,0,0.299951,0.00148003,0
0.5,8.9,0,0.299954,0.00149749,0
0.5,9,0,0.299952,0.00151763,0
0.5,9.1,0,0.29996,0.00153395,0
0.5,9.2,0,0.299967,0.00154742,0
0.5,9.3,0,0.299966,0.00156213,0
0.5,9.4,0,0.299969,0.0015751,0
0.5,9.5,0,0.299976,0.0015858,0
0.5,9.6,0,0.299977,0.00159507,0
0.5,9.7,0,0.299977,0.00160518,0
0.5,9.8,0,0.299983,0.0016123,0
0.5,9.9,0,0.299985,0.00161834,0
0.5,10,0,0.299986,0.00162537,0
0.5,10.1,0,0.299989,0.00163012,0
0.5,10.2,0,0.299992,0.00163386,0
0.5,10.3,0,0.299992,0.00163792,0
0.5,10.4,0,0.299994,0.00164115,0
0.5,10.5,0,0.299996,0.00164317,0
0.5,10.6,0,0.299997,0.001645,0
0.5,10.7,0,0.299997,0.00164695,0
0.5,10.8,0,0.299999,0.00164749,0
0.5,10.9,0,0.299999,0.00164805,0
0.5,11,0,0.3,0.0016487,0
0.5,11.1,0,0.300001,0.00164859,0
0.5,11.2,0,0.300001,0.00164832,0
0.5,11.3,0,0.300002,0.0016481,0
0.5,11.4,0,0.300002,0.00164765,0
0.5,11.5,0,0.300002,0.00164686,0
0.5,11.6,0,0.300002,0.00164632,0
0.5,11.7,0,0.300002,0.00164564,0
0.5,11.8,0,0.300002,0.0016448,0
0.5,11.9,0,0.300002,0.00164415,0
0.5,12,0,0.300002,0.00164343,0
0.5,12.1,0,0.300002,0.00164277,0
0.5,12.2,0,0.300002,0.00164221,0
0.5,12.3,0,0.300002,0.00164172,0
0.5,12.4,0,0.300001,0.00164129,0
0.5,12.5,0,0.300001,0.00164103,0
0.5,12.6,0,0.300001,0.00164088,0
0.5,12.7,0,0.300001,0.00164072,0
0.6,0,0,0.299995,-0.00268444,0
0.6,0.1,0,0.299995,-0.00268257,0
0.6,0.2,0,0.299993,-0.00268138,0
0.6,0.3,0,0.299991,-0.0026792,0
0.6,0.4,0,0.299988,-0.00267489,0
0.6,0.5,0,0.299984,-0.00267199,0
0.6,0.6,0,0.299983,-0.00266534,0
0.6,0.7,0,0.299978,-0.00265867,0
0.6,0.8,0,0.299976,-0.00265198,0
0.6,0.9,0,0.299972,-0.00264192,0
0.6,1,0,0.299966,-0.002634,0
0.6,1.1,0,0.299966,-0.00262186,0
0.6,1.2,0,0.29996,-0.0026089,0
0.6,1.3,0,0.299957,-0.00259697,0
0.6,1.4,0,0.299953,-0.00257993,0
0.6,1.5,0,0.299944,-0.00256592,0
0.6,1.6,0,0.299945,-0.00254709,0
0.6,1.7,0,0.299938,-0.0025263,0
0.6,1.8,0,0.299934,-0.00250789,0
0.6,1.9,0,0.29993,-0.00248218,0
0.6,2,0,0.299918,-0.00246044,0
0.6,2.1,0,0.29992,-0.00243351,0
0.6,2.2,0,0.29991,-0.00240296,0
0.6,2.3,0,0.299906,-0.00237659,0
0.6,2.4,0,0.299901,-0.00234037,0
0.6,2.5,0,0.299885,-0.00230897,0
0.6,2.6,0,0.29989,-0.00227255,0
0.6,2.7,0,0.299878,-0.00223027,0
0.6,2.8,0,0.299873,-0.00219446,0
0.6,2.9,0,0.299868,-0.00214603,0
0.6,3,0,0.299848,-0.00210339,0
0.6,3.1,0,0.299855,-0.0020561,0
0.6,3.2,0,0.299842,-0.00200072,0
0.6,3.3,0,0.299837,-0.00195429,0
0.6,3.4,0,0.299832,-0.00189251,0
0.6,3.5,0,0.299809,-0.00183821,0
0.6,3.6,0,0.299818,-0.0017789,0
0.6,3.7,0,0.299804,-0.00171018,0
0.6,3.8,0,0.299798,-0.00165285,0
0.6,3.9,0,0.299795,-0.00157763,0
0.6,4,0,0.299772,-0.00151276,0
0.6,4.1,0,0.299781,-0.00144124,0
0.6,4.2,0,0.299769,-0.00136037,0
0.6,4.3,0,0.299763,-0.00129329,0
0.6,4.4,0,0.299761,-0.00120607,0
0.6,4.5,0,0.299742,-0.00113292,0
0.6,4.6,0,0.29975,-0.00105068,0
0.6,4.7,0,0.299741,-0.000960558,0
0.6,4.8,0,0.299737,-0.000886088,0
0.6,4.9,0,0.299737,-0.000801746,0
0.6,5,0,0.299723,-0.000744502,0
0.6,5.1,0,0.29972,-0.000625139,0
0.6,5.2,0,0.299719,-0.000536585,0
0.6,5.3,0,0.299718,-0.000447537,0
0.6,5.4,0,0.299717,-0.000358211,0
0.6,5.5,0,0.299717,-0.000268777,0
0.6,5.6,0,0.299717,-0.000179426,0
0.6,5.7,0,0.299718,-9.0347e-05,0
0.6,5.8,0,0.29972,-1.69078e-06,0
0.6,5.9,0,0.299722,8.62985e-05,0
0.6,6,0,0.299726,0.000221383,0
0.6,6.1,0,0.29974,0.000265969,0
0.6,6.2,0,0.299744,0.00034683,0
0.6,6.3,0,0.299741,0.000426002,0
0.6,6.4,0,0.299749,0.000496965,0
0.6,6.5,0,0.29976,0.000581125,0
0.6,6.6,0,0.299763,0.000667344,0
0.6,6.7,0,0.299763,0.000735573,0
0.6,6.8,0,0.29978,0.000805908,0
0.6,6.9,0,0.299789,0.000889816,0
0.6,7,0,0.29978,0.000954318,0
0.6,7.1,0,0.299801,0.00101203,0
0.6,7.2,0,0.299811,0.00108666,0
0.6,7.3,0,0.29981,0.00115017,0
0.6,7.4,0,0.299819,0.0012023,0
0.6,7.5,0,0.299834,0.00126205,0
0.6,7.6,0,0.29984,0.00132318,0
0.6,7.7,0,0.299839,0.00136898,0
0.6,7.8,0,0.299856,0.00141536,0
0.6,7.9,0,0.299867,0.00147018,0
0.6,8,0,0.299862,0.00151173,0
0.6,8.1,0,0.299877,0.00154733,0
0.6,8.2,0,0.299888,0.00159177,0
0.6,8.3,0,0.29989,0.00163037,0
0.6,8.4,0,0.299896,0.00166028,0
0.6,8.5,0,0.299908,0.00169286,0
0.6,8.6,0,0.299915,0.00172712,0
0.6,8.7,0,0.299915,0.00175216,0
0.6,8.8,0,0.299927,0.00177498,0
0.6,8.9,0,0.299935,0.0018025,0
0.6,9,0,0.299935,0.00182406,0
0.6,9.1,0,0.299943,0.00184038,0
0.6,9.2,0,0.29995,0.00186017,0
0.6,9.3,0,0.299953,0.00187804,0
0.6,9.4,0,0.299957,0.00189101,0
0.6,9.5,0,0.299963,0.00190372,0
0.6,9.6,0,0.299968,0.00191754,0
0.6,9.7,0,0.299969,0.00192764,0
0.6,9.8,0,0.299974,0.00193518,0
0.6,9.9,0,0.299979,0.00194445,0
0.6,10,0,0.29998,0.00195203,0
0.6,10.1,0,0.299984,0.00195678,0
0.6,10.2,0,0.299987,0.00196202,0
0.6,10.3,0,0.299989,0.00196695,0
0.6,10.4,0,0.299991,0.00197018,0
0.6,10.5,0,0.299993,0.0019725,0
0.6,10.6,0,0.299996,0.00197508,0
0.6,10.7,0,0.299996,0.00197702,0
0.6,10.8,0,0.299998,0.00197759,0
0.6,10.9,0,0.299999,0.00197827,0
0.6,11,0,0.3,0.00197892,0
0.6,11.1,0,0.300001,0.00197882,0
0.6,11.2,0,0.300001,0.00197835,0
0.6,11.3,0,0.300002,0.00197794,0
0.6,11.4,0,0.300003,0.00197749,0
0.6,11.5,0,0.300003,0.00197659,0
0.6,11.6,0,0.300003,0.00197555,0
0.6,11.7,0,0.300003,0.00197487,0
0.6,11.8,0,0.300003,0.001974,0
0.6,11.9,0,0.300003,0.0019729,0
0.6,12,0,0.300003,0.00197204,0
0.6,12.1,0,0.300003,0.00197138,0
0.6,12.2,0,0.300003,0.00197062,0
0.6,12.3,0,0.300002,0.0019699,0
0.6,12.4,0,0.300002,0.00196947,0
0.6,12.5,0,0.300002,0.0019692,0
0.6,12.6,0,0.300001,0.0019689,0
0.6,12.7,0,0.300001,0.00196874,0
0.7,0,0,0.299994,-0.00313302,0
0.7,0.1,0,0.299992,-0.00313155,0
0.7,0.2,0,0.29999,-0.00313008,0
0.7,0.3,0,0.299987,-0.00312718,0
0.7,0.4,0,0.299983,-0.00312284,0
0.7,0.5,0,0.29998,-0.0031185,0
0.7,0.6,0,0.299975,-0.00311125,0
0.7,0.7,0,0.299971,-0.003104,0
0.7,0.8,0,0.299967,-0.00309517,0
0.7,0.9,0,0.299962,-0.00308476,0
0.7,1,0,0.299957,-0.00307436,0
0.7,1.1,0,0.299952,-0.00306047,0
0.7,1.2,0,0.299947,-0.00304658,0
0.7,1.3,0,0.299942,-0.00303075,0
0.7,1.4,0,0.299936,-0.00301297,0
0.7,1.5,0,0.29993,-0.00299519,0
0.7,1.6,0,0.299923,-0.00297305,0
0.7,1.7,0,0.299917,-0.00295092,0
0.7,1.8,0,0.29991,-0.00292636,0
0.7,1.9,0,0.299903,-0.00289937,0
0.7,2,0,0.299896,-0.00287237,0
0.7,2.1,0,0.299888,-0.00284001,0
0.7,2.2,0,0.29988,-0.00280764,0
0.7,2.3,0,0.299871,-0.00277233,0
0.7,2.4,0,0.299863,-0.00273408,0
0.7,2.5,0,0.299855,-0.00269583,0
0.7,2.6,0,0.299845,-0.00265124,0
0.7,2.7,0,0.299836,-0.00260664,0
0.7,2.8,0,0.299827,-0.00255868,0
0.7,2.9,0,0.299817,-0.00250736,0
0.7,3,0,0.299808,-0.00245603,0
0.7,3.1,0,0.299798,-0.0023977,0
0.7,3.2,0,0.299788,-0.00233938,0
0.7,3.3,0,0.299778,-0.00227749,0
0.7,3.4,0,0.299768,-0.00221204,0
0.7,3.5,0,0.299758,-0.00214659,0
0.7,3.6,0,0.299749,-0.00207406,0
0.7,3.7,0,0.299739,-0.00200153,0
0.7,3.8,0,0.29973,-0.00192557,0
0.7,3.9,0,0.299721,-0.00184619,0
0.7,4,0,0.299712,-0.0017668,0
0.7,4.1,0,0.299704,-0.001681,0
0.7,4.2,0,0.299696,-0.0015952,0
0.7,4.3,0,0.299688,-0.00150654,0
0.7,4.4,0,0.299681,-0.001415,0
0.7,4.5,0,0.299674,-0.00132347,0
0.7,4.6,0,0.299668,-0.00122721,0
0.7,4.7,0,0.299663,-0.00113094,0
0.7,4.8,0,0.299658,-0.00104023,0
0.7,4.9,0,0.299655,-0.000955069,0
0.7,5,0,0.299651,-0.000869907,0
0.7,5.1,0,0.299647,-0.000730334,0
0.7,5.2,0,0.299645,-0.000626748,0
0.7,5.3,0,0.299644,-0.000522562,0
0.7,5.4,0,0.299643,-0.000418045,0
0.7,5.5,0,0.299643,-0.000313402,0
0.7,5.6,0,0.299644,-0.000208858,0
0.7,5.7,0,0.299645,-0.000104635,0
0.7,5.8,0,0.299647,-9.19725e-07,0
0.7,5.9,0,0.29965,0.000101984,0
0.7,6,0,0.299655,0.00025993,0
0.7,6.1,0,0.299659,0.00034079,0
0.7,6.2,0,0.299663,0.000421651,0
0.7,6.3,0,0.299667,0.000502512,0
0.7,6.4,0,0.299673,0.000590424,0
0.7,6.5,0,0.29968,0.000682133,0
0.7,6.6,0,0.299688,0.000773841,0
0.7,6.7,0,0.299695,0.00086321,0
0.7,6.8,0,0.299704,0.000947117,0
0.7,6.9,0,0.299713,0.00103103,0
0.7,7,0,0.299721,0.00111493,0
0.7,7.1,0,0.299731,0.00119015,0
0.7,7.2,0,0.299741,0.0012649,0
0.7,7.3,0,0.299751,0.00133965,0
0.7,7.4,0,0.299761,0.00140849,0
0.7,7.5,0,0.299771,0.00147339,0
0.7,7.6,0,0.299782,0.00153828,0
0.7,7.7,0,0.299792,0.00160065,0
0.7,7.8,0,0.299803,0.00165548,0
0.7,7.9,0,0.299813,0.0017103,0
0.7,8,0,0.299823,0.00176513,0
0.7,8.1,0,0.299834,0.00181111,0
0.7,8.2,0,0.299844,0.00185612,0
0.7,8.3,0,0.299854,0.00190113,0
0.7,8.4,0,0.299863,0.00194107,0
0.7,8.5,0,0.299873,0.00197688,0
0.7,8.6,0,0.299882,0.00201269,0
0.7,8.7,0,0.299891,0.00204685,0