x,y,z,p
0,0,0,8.48986e-05
0,0.1,0,0.000184858
0,0.2,0,0.000284817
0,0.3,0,0.0004016
0,0.4,0,0.000535207
0,0.5,0,0.000668814
0,0.6,0,0.000801795
0,0.7,0,0.000934776
0,0.8,0,0.00106728
0,0.9,0,0.0011993
0,1,0,0.00133132
0,1.1,0,0.00146201
0,1.2,0,0.00159271
0,1.3,0,0.00172254
0,1.4,0,0.00185152
0,1.5,0,0.0019805
0,1.6,0,0.00210732
0,1.7,0,0.00223413
0,1.8,0,0.00235962
0,1.9,0,0.00248378
0,2,0,0.00260794
0,2.1,0,0.0027289
0,2.2,0,0.00284986
0,2.3,0,0.00296892
0,2.4,0,0.00308608
0,2.5,0,0.00320324
0,2.6,0,0.00331595
0,2.7,0,0.00342866
0,2.8,0,0.00353881
0,2.9,0,0.00364638
0,3,0,0.00375395
0,3.1,0,0.00385566
0,3.2,0,0.00395737
0,3.3,0,0.00405577
0,3.4,0,0.00415086
0,3.5,0,0.00424596
0,3.6,0,0.00433369
0,3.7,0,0.00442143
0,3.8,0,0.00450511
0,3.9,0,0.00458475
0,4,0,0.00466438
0,4.1,0,0.00473521
0,4.2,0,0.00480603
0,4.3,0,0.00487213
0,4.4,0,0.0049335
0,4.5,0,0.00499487
0,4.6,0,0.00504623
0,4.7,0,0.00509759
0,4.8,0,0.00514116
0,4.9,0,0.00517694
0,5,0,0.00521273
0,5.1,0,0.00525926
0,5.2,0,0.00528829
0,5.3,0,0.00531286
0,5.4,0,0.005333
0,5.5,0,0.0053487
0,5.6,0,0.00535995
0,5.7,0,0.00536675
0,5.8,0,0.00536915
0,5.9,0,0.00536711
0,6,0,0.00535565
0,6.1,0,0.00534145
0,6.2,0,0.00532726
0,6.3,0,0.00531307
0,6.4,0,0.00528917
0,6.5,0,0.00526004
0,6.6,0,0.00523091
0,6.7,0,0.00519801
0,6.8,0,0.00515629
0,6.9,0,0.00511458
0,7,0,0.00507286
0,7.1,0,0.00502036
0,7.2,0,0.0049673
0,7.3,0,0.00491424
0,7.4,0,0.00485518
0,7.5,0,0.00479212
0,7.6,0,0.00472906
0,7.7,0,0.00466386
0,7.8,0,0.00459223
0,7.9,0,0.0045206
0,8,0,0.00444897
0,8.1,0,0.00437089
0,8.2,0,0.00429209
0,8.3,0,0.0042133
0,8.4,0,0.0041313
0,8.5,0,0.00404669
0,8.6,0,0.00396208
0,8.7,0,0.00387656
0,8.8,0,0.00378738
0,8.9,0,0.0036982
0,9,0,0.00360902
0,9.1,0,0.00351689
0,9.2,0,0.00342425
0,9.3,0,0.0033316
0,9.4,0,0.0032377
0,9.5,0,0.00314254
0,9.6,0,0.00304739
0,9.7,0,0.00295197
0,9.8,0,0.0028551
0,9.9,0,0.00275822
0,10,0,0.00266134
0,10.1,0,0.00256359
0,10.2,0,0.00246562
0,10.3,0,0.00236766
0,10.4,0,0.00226942
0,10.5,0,0.00217084
0,10.6,0,0.00207226
0,10.7,0,0.00197366
0,10.8,0,0.00187482
0,10.9,0,0.00177598
0,11,0,0.00167714
0,11.1,0,0.00157827
0,11.2,0,0.0014794
0,11.3,0,0.00138052
0,11.4,0,0.00128168
0,11.5,0,0.0011829
0,11.6,0,0.00108411
0,11.7,0,0.000985338
0,11.8,0,0.000886694
0,11.9,0,0.000788051
0,12,0,0.000689408
0,12.1,0,0.000590853
0,12.2,0,0.000492337
0,12.3,0,0.00039382
0,12.4,0,0.000303961
0,12.5,0,0.000230181
0,12.6,0,0.0001564
0,12.7,0,8.26195e-05
0.1,0,0,6.06418e-05
0.1,0.1,0,0.000160657
0.1,0.2,0,0.000267934
0.1,0.3,0,0.000401774
0.1,0.4,0,0.000535373
0.1,0.5,0,0.000669201
0.1,0.6,0,0.000802077
0.1,0.7,0,0.00093515
0.1,0.8,0,0.00106774
0.1,0.9,0,0.0011997
0.1,1,0,0.00133213
0.1,1.1,0,0.00146255
0.1,1.2,0,0.0015934
0.1,1.3,0,0.00172334
0.1,1.4,0,0.00185221
0.1,1.5,0,0.00198184
0.1,1.6,0,0.00210817
0.1,1.7,0,0.00223523
0.1,1.8,0,0.00236084
0.1,1.9,0,0.00248482
0.1,2,0,0.00260993
0.1,2.1,0,0.00273015
0.1,2.2,0,0.00285144
0.1,2.3,0,0.00297066
0.1,2.4,0,0.00308755
0.1,2.5,0,0.00320601
0.1,2.6,0,0.00331766
0.1,2.7,0,0.00343082
0.1,2.8,0,0.00354114
0.1,2.9,0,0.00364834
0.1,3,0,0.0037576
0.1,3.1,0,0.00385788
0.1,3.2,0,0.00396016
0.1,3.3,0,0.00405875
0.1,3.4,0,0.00415336
0.1,3.5,0,0.00425052
0.1,3.6,0,0.00433646
0.1,3.7,0,0.00442486
0.1,3.8,0,0.00450873
0.1,3.9,0,0.00458777
0.1,4,0,0.00466977
0.1,4.1,0,0.00473847
0.1,4.2,0,0.00481004
0.1,4.3,0,0.00487629
0.1,4.4,0,0.00493699
0.1,4.5,0,0.00500092
0.1,4.6,0,0.0050499
0.1,4.7,0,0.00510204
0.1,4.8,0,0.00514826
0.1,4.9,0,0.0051844
0.1,5,0,0.0052191
0.1,5.1,0,0.00526565
0.1,5.2,0,0.0052947
0.1,5.3,0,0.00531929
0.1,5.4,0,0.00533944
0.1,5.5,0,0.00535514
0.1,5.6,0,0.00536638
0.1,5.7,0,0.00537317
0.1,5.8,0,0.00537554
0.1,5.9,0,0.00537347
0.1,6,0,0.00536199
0.1,6.1,0,0.00534945
0.1,6.2,0,0.00533526
0.1,6.3,0,0.00531991
0.1,6.4,0,0.00529543
0.1,6.5,0,0.00526634
0.1,6.6,0,0.00523707
0.1,6.7,0,0.00520376
0.1,6.8,0,0.00516203
0.1,6.9,0,0.00512032
0.1,7,0,0.00507813
0.1,7.1,0,0.00502548
0.1,7.2,0,0.00497242
0.1,7.3,0,0.00491908
0.1,7.4,0,0.0048597
0.1,7.5,0,0.00479656
0.1,7.6,0,0.00473341
0.1,7.7,0,0.0046678
0.1,7.8,0,0.00459599
0.1,7.9,0,0.00452436
0.1,8,0,0.00445236
0.1,8.1,0,0.004374
0.1,8.2,0,0.00429519
0.1,8.3,0,0.00421619
0.1,8.4,0,0.00413388
0.1,8.5,0,0.00404916
0.1,8.6,0,0.0039645
0.1,8.7,0,0.00387864
0.1,8.8,0,0.00378928
0.1,8.9,0,0.0037001
0.1,9,0,0.00361067
0.1,9.1,0,0.00351832
0.1,9.2,0,0.00342566
0.1,9.3,0,0.00333289
0.1,9.4,0,0.00323877
0.1,9.5,0,0.00314354
0.1,9.6,0,0.00304836
0.1,9.7,0,0.00295273
0.1,9.8,0,0.00285575
0.1,9.9,0,0.00275887
0.1,10,0,0.00266186
0.1,10.1,0,0.002564
0.1,10.2,0,0.00246601
0.1,10.3,0,0.00236799
0.1,10.4,0,0.00226964
0.1,10.5,0,0.00217103
0.1,10.6,0,0.00207245
0.1,10.7,0,0.00197376
0.1,10.8,0,0.00187488
0.1,10.9,0,0.00177604
0.1,11,0,0.00167715
0.1,11.1,0,0.00157825
0.1,11.2,0,0.00147937
0.1,11.3,0,0.00138048
0.1,11.4,0,0.00128162
0.1,11.5,0,0.00118283
0.1,11.6,0,0.00108405
0.1,11.7,0,0.000985259
0.1,11.8,0,0.000886625
0.1,11.9,0,0.000787981
0.1,12,0,0.000689338
0.1,12.1,0,0.000590797
0.1,12.2,0,0.000492285
0.1,12.3,0,0.000393772
0.1,12.4,0,0.000295298
0.1,12.5,0,0.000206557
0.1,12.6,0,0.000132776
0.1,12.7,0,5.90139e-05
0.2,0,0,3.63851e-05
0.2,0.1,0,0.000136423
0.2,0.2,0,0.000268128
0.2,0.3,0,0.000401967
0.2,0.4,0,0.000535671
0.2,0.5,0,0.000669587
0.2,0.6,0,0.000802421
0.2,0.7,0,0.00093574
0.2,0.8,0,0.00106833
0.2,0.9,0,0.00120035
0.2,1,0,0.00133294
0.2,1.1,0,0.00146325
0.2,1.2,0,0.00159446
0.2,1.3,0,0.0017244
0.2,1.4,0,0.00185329
0.2,1.5,0,0.00198318
0.2,1.6,0,0.00210932
0.2,1.7,0,0.00223688
0.2,1.8,0,0.00236249
0.2,1.9,0,0.00248643
0.2,2,0,0.00261193
0.2,2.1,0,0.00273184
0.2,2.2,0,0.00285381
0.2,2.3,0,0.00297303
0.2,2.4,0,0.0030898
0.2,2.5,0,0.00320879
0.2,2.6,0,0.00332001
0.2,2.7,0,0.00343403
0.2,2.8,0,0.00354435
0.2,2.9,0,0.00365132
0.2,3,0,0.00376126
0.2,3.1,0,0.00386097
0.2,3.2,0,0.00396427
0.2,3.3,0,0.00406286
0.2,3.4,0,0.00415709
0.2,3.5,0,0.00425507
0.2,3.6,0,0.00434029
0.2,3.7,0,0.00442984
0.2,3.8,0,0.00451371
0.2,3.9,0,0.00459221
0.2,4,0,0.00467515
0.2,4.1,0,0.00474301
0.2,4.2,0,0.00481578
0.2,4.3,0,0.00488204
0.2,4.4,0,0.00494201
0.2,4.5,0,0.00500697
0.2,4.6,0,0.00505499
0.2,4.7,0,0.00510832
0.2,4.8,0,0.00515454
0.2,4.9,0,0.0051912
0.2,5,0,0.00522547
0.2,5.1,0,0.00527204
0.2,5.2,0,0.00530111
0.2,5.3,0,0.00532572
0.2,5.4,0,0.00534589
0.2,5.5,0,0.00536159
0.2,5.6,0,0.00537282
0.2,5.7,0,0.00537959
0.2,5.8,0,0.00538194
0.2,5.9,0,0.00537984
0.2,6,0,0.00536834
0.2,6.1,0,0.00535587
0.2,6.2,0,0.00534218
0.2,6.3,0,0.00532608
0.2,6.4,0,0.0053016
0.2,6.5,0,0.00527249
0.2,6.6,0,0.00524282
0.2,6.7,0,0.00520952
0.2,6.8,0,0.00516779
0.2,6.9,0,0.00512561
0.2,7,0,0.00508337
0.2,7.1,0,0.00503072
0.2,7.2,0,0.00497728
0.2,7.3,0,0.00492372
0.2,7.4,0,0.00486434
0.2,7.5,0,0.004801
0.2,7.6,0,0.00473742
0.2,7.7,0,0.0046718
0.2,7.8,0,0.00459992
0.2,7.9,0,0.00452777
0.2,8,0,0.00445571
0.2,8.1,0,0.00437735
0.2,8.2,0,0.0042981
0.2,8.3,0,0.0042189
0.2,8.4,0,0.00413659
0.2,8.5,0,0.00405169
0.2,8.6,0,0.00396662
0.2,8.7,0,0.00388076
0.2,8.8,0,0.00379135
0.2,8.9,0,0.00370176
0.2,9,0,0.00361227
0.2,9.1,0,0.00351993
0.2,9.2,0,0.00342697
0.2,9.3,0,0.00333404
0.2,9.4,0,0.00323992
0.2,9.5,0,0.00314458
0.2,9.6,0,0.00304914
0.2,9.7,0,0.00295351
0.2,9.8,0,0.0028565
0.2,9.9,0,0.0027594
0.2,10,0,0.00266234
0.2,10.1,0,0.00256448
0.2,10.2,0,0.00246636
0.2,10.3,0,0.00236825
0.2,10.4,0,0.0022699
0.2,10.5,0,0.00217126
0.2,10.6,0,0.00207255
0.2,10.7,0,0.00197386
0.2,10.8,0,0.00187497
0.2,10.9,0,0.00177605
0.2,11,0,0.00167715
0.2,11.1,0,0.00157825
0.2,11.2,0,0.00147934
0.2,11.3,0,0.00138042
0.2,11.4,0,0.00128156
0.2,11.5,0,0.00118277
0.2,11.6,0,0.00108397
0.2,11.7,0,0.000985179
0.2,11.8,0,0.000886546
0.2,11.9,0,0.000787912
0.2,12,0,0.000689269
0.2,12.1,0,0.000590727
0.2,12.2,0,0.000492233
0.2,12.3,0,0.000393733
0.2,12.4,0,0.000295258
0.2,12.5,0,0.000196837
0.2,12.6,0,0.00010917
0.2,12.7,0,3.54084e-05
0.3,0,0,1.21284e-05
0.3,0.1,0,0.000134121
0.3,0.2,0,0.00026831
0.3,0.3,0,0.000402205
0.3,0.4,0,0.000536082
0.3,0.5,0,0.000669974
0.3,0.6,0,0.000803086
0.3,0.7,0,0.000936352
0.3,0.8,0,0.001069
0.3,0.9,0,0.00120133
0.3,1,0,0.00133375
0.3,1.1,0,0.00146454
0.3,1.2,0,0.00159558
0.3,1.3,0,0.0017256
0.3,1.4,0,0.00185496
0.3,1.5,0,0.00198452
0.3,1.6,0,0.00211137
0.3,1.7,0,0.00223862
0.3,1.8,0,0.00236433
0.3,1.9,0,0.00248897
0.3,2,0,0.00261392
0.3,2.1,0,0.00273484
0.3,2.2,0,0.00285633
0.3,2.3,0,0.00297566
0.3,2.4,0,0.00309339
0.3,2.5,0,0.00321157
0.3,2.6,0,0.00332413
0.3,2.7,0,0.00343745
0.3,2.8,0,0.00354789
0.3,2.9,0,0.00365609
0.3,3,0,0.00376491
0.3,3.1,0,0.00386632
0.3,3.2,0,0.00396866
0.3,3.3,0,0.00406738
0.3,3.4,0,0.0041631
0.3,3.5,0,0.00425963
0.3,3.6,0,0.00434685
0.3,3.7,0,0.00443519
0.3,3.8,0,0.00451917
0.3,3.9,0,0.00459936
0.3,4,0,0.00468054
0.3,4.1,0,0.00475062
0.3,4.2,0,0.00482195
0.3,4.3,0,0.00488829
0.3,4.4,0,0.00495009
0.3,4.5,0,0.00501301
0.3,4.6,0,0.00506339
0.3,4.7,0,0.00511508
0.3,4.8,0,0.00516061
0.3,4.9,0,0.00519652
0.3,5,0,0.00523184
0.3,5.1,0,0.00527843
0.3,5.2,0,0.00530752
0.3,5.3,0,0.00533216
0.3,5.4,0,0.00535233
0.3,5.5,0,0.00536803
0.3,5.6,0,0.00537925
0.3,5.7,0,0.00538601
0.3,5.8,0,0.00538833
0.3,5.9,0,0.00538621
0.3,6,0,0.00537469
0.3,6.1,0,0.00536123
0.3,6.2,0,0.00534685
0.3,6.3,0,0.00533226
0.3,6.4,0,0.00530768
0.3,6.5,0,0.00527811
0.3,6.6,0,0.00524855
0.3,6.7,0,0.00521527
0.3,6.8,0,0.00517311
0.3,6.9,0,0.00513086
0.3,7,0,0.00508861
0.3,7.1,0,0.00503573
0.3,7.2,0,0.00498205
0.3,7.3,0,0.00492837
0.3,7.4,0,0.00486893
0.3,7.5,0,0.0048052
0.3,7.6,0,0.00474147
0.3,7.7,0,0.00467581
0.3,7.8,0,0.00460359
0.3,7.9,0,0.00453128
0.3,8,0,0.00445905
0.3,8.1,0,0.00438053
0.3,8.2,0,0.00430107
0.3,8.3,0,0.00422162
0.3,8.4,0,0.00413928
0.3,8.5,0,0.00405405
0.3,8.6,0,0.00396883
0.3,8.7,0,0.00388289
0.3,8.8,0,0.00379325
0.3,8.9,0,0.00370352
0.3,9,0,0.00361387
0.3,9.1,0,0.00352143
0.3,9.2,0,0.00342831
0.3,9.3,0,0.0033352
0.3,9.4,0,0.00324107
0.3,9.5,0,0.00314552
0.3,9.6,0,0.00304998
0.3,9.7,0,0.00295429
0.3,9.8,0,0.00285716
0.3,9.9,0,0.00275998
0.3,10,0,0.00266283
0.3,10.1,0,0.00256492
0.3,10.2,0,0.00246672
0.3,10.3,0,0.00236852
0.3,10.4,0,0.00227016
0.3,10.5,0,0.00217142
0.3,10.6,0,0.00207268
0.3,10.7,0,0.00197395
0.3,10.8,0,0.00187503
0.3,10.9,0,0.00177608
0.3,11,0,0.00167714
0.3,11.1,0,0.00157823
0.3,11.2,0,0.0014793
0.3,11.3,0,0.00138036
0.3,11.4,0,0.0012815
0.3,11.5,0,0.0011827
0.3,11.6,0,0.00108389
0.3,11.7,0,0.0009851
0.3,11.8,0,0.000886467
0.3,11.9,0,0.000787834
0.3,12,0,0.0006892
0.3,12.1,0,0.000590661
0.3,12.2,0,0.000492175
0.3,12.3,0,0.00039369
0.3,12.4,0,0.000295218
0.3,12.5,0,0.000196814
0.3,12.6,0,9.84123e-05
0.3,12.7,0,1.18028e-05
0.4,0,0,0
0.4,0.1,0,0.000134318
0.4,0.2,0,0.000268507
0.4,0.3,0,0.000402782
0.4,0.4,0,0.000536659
0.4,0.5,0,0.000670756
0.4,0.6,0,0.000804055
0.4,0.7,0,0.000937321
0.4,0.8,0,0.00107039
0.4,0.9,0,0.00120272
0.4,1,0,0.0013354
0.4,1.1,0,0.0014664
0.4,1.2,0,0.00159744
0.4,1.3,0,0.00172798
0.4,1.4,0,0.00185735
0.4,1.5,0,0.00198723
0.4,1.6,0,0.00211434
0.4,1.7,0,0.00224159
0.4,1.8,0,0.00236796
0.4,1.9,0,0.0024926
0.4,2,0,0.00261797
0.4,2.1,0,0.00273919
0.4,2.2,0,0.00286067
0.4,2.3,0,0.00298079
0.4,2.4,0,0.00309851
0.4,2.5,0,0.00321722
0.4,2.6,0,0.0033301
0.4,2.7,0,0.00344342
0.4,2.8,0,0.00355475
0.4,2.9,0,0.00366295
0.4,3,0,0.0037724
0.4,3.1,0,0.00387408
0.4,3.2,0,0.00397642
0.4,3.3,0,0.00407605
0.4,3.4,0,0.00417177
0.4,3.5,0,0.00426905
0.4,3.6,0,0.00435641
0.4,3.7,0,0.00444475
0.4,3.8,0,0.00452956
0.4,3.9,0,0.00460976
0.4,4,0,0.00469179
0.4,4.1,0,0.00476178
0.4,4.2,0,0.0048331
0.4,4.3,0,0.00490011
0.4,4.4,0,0.0049619
0.4,4.5,0,0.00502578
0.4,4.6,0,0.00507576
0.4,4.7,0,0.00512745
0.4,4.8,0,0.00517337
0.4,4.9,0,0.00520928
0.4,5,0,0.00524552
0.4,5.1,0,0.00529226
0.4,5.2,0,0.00532143
0.4,5.3,0,0.00534613
0.4,5.4,0,0.00536633
0.4,5.5,0,0.00538204
0.4,5.6,0,0.00539324
0.4,5.7,0,0.00539994
0.4,5.8,0,0.00540218
0.4,5.9,0,0.00539995
0.4,6,0,0.00538824
0.4,6.1,0,0.00537394
0.4,6.2,0,0.00535956
0.4,6.3,0,0.00534504
0.4,6.4,0,0.00531966
0.4,6.5,0,0.0052901
0.4,6.6,0,0.00526053
0.4,6.7,0,0.00522669
0.4,6.8,0,0.00518416
0.4,6.9,0,0.0051419
0.4,7,0,0.00509951
0.4,7.1,0,0.00504565
0.4,7.2,0,0.00499197
0.4,7.3,0,0.00493824
0.4,7.4,0,0.00487759
0.4,7.5,0,0.00481387
0.4,7.6,0,0.00475014
0.4,7.7,0,0.00468357
0.4,7.8,0,0.00461094
0.4,7.9,0,0.00453862
0.4,8,0,0.004466
0.4,8.1,0,0.00438657
0.4,8.2,0,0.00430711
0.4,8.3,0,0.00422763
0.4,8.4,0,0.00414409
0.4,8.5,0,0.00405887
0.4,8.6,0,0.00397364
0.4,8.7,0,0.00388694
0.4,8.8,0,0.00379694
0.4,8.9,0,0.00370721
0.4,9,0,0.00361725
0.4,9.1,0,0.00352414
0.4,9.2,0,0.00343103
0.4,9.3,0,0.00333791
0.4,9.4,0,0.00324296
0.4,9.5,0,0.00314741
0.4,9.6,0,0.00305187
0.4,9.7,0,0.00295575
0.4,9.8,0,0.00285839
0.4,9.9,0,0.0027612
0.4,10,0,0.0026639
0.4,10.1,0,0.00256563
0.4,10.2,0,0.00246743
0.4,10.3,0,0.00236922
0.4,10.4,0,0.0022705
0.4,10.5,0,0.00217175
0.4,10.6,0,0.00207301
0.4,10.7,0,0.00197411
0.4,10.8,0,0.0018751
0.4,10.9,0,0.00177615
0.4,11,0,0.00167717
0.4,11.1,0,0.00157815
0.4,11.2,0,0.00147921
0.4,11.3,0,0.00138028
0.4,11.4,0,0.00128134
0.4,11.5,0,0.00118254
0.4,11.6,0,0.00108374
0.4,11.7,0,0.000984928
0.4,11.8,0,0.000886306
0.4,11.9,0,0.000787673
0.4,12,0,0.000689043
0.4,12.1,0,0.000590545
0.4,12.2,0,0.000492059
0.4,12.3,0,0.000393574
0.4,12.4,0,0.000295164
0.4,12.5,0,0.000196771
0.4,12.6,0,9.83698e-05
0.4,12.7,0,0
0.5,0,0,0
0.5,0.1,0,0.00013455
0.5,0.2,0,0.00026903
0.5,0.3,0,0.000403401
0.5,0.4,0,0.000537442
0.5,0.5,0,0.000671935
0.5,0.6,0,0.000805293
0.5,0.7,0,0.000939012
0.5,0.8,0,0.00107219
0.5,0.9,0,0.00120458
0.5,1,0,0.00133789
0.5,1.1,0,0.00146879
0.5,1.2,0,0.00160051
0.5,1.3,0,0.00173119
0.5,1.4,0,0.00186051
0.5,1.5,0,0.00199133
0.5,1.6,0,0.00211818
0.5,1.7,0,0.00224639
0.5,1.8,0,0.00237292
0.5,1.9,0,0.00249739
0.5,2,0,0.00262407
0.5,2.1,0,0.00274482
0.5,2.2,0,0.0028676
0.5,2.3,0,0.00298791
0.5,2.4,0,0.00310529
0.5,2.5,0,0.00322575
0.5,2.6,0,0.00333786
0.5,2.7,0,0.00345287
0.5,2.8,0,0.00356442
0.5,2.9,0,0.00367201
0.5,3,0,0.00378372
0.5,3.1,0,0.0038842
0.5,3.2,0,0.00398865
0.5,3.3,0,0.00408852
0.5,3.4,0,0.00418326
0.5,3.5,0,0.00428333
0.5,3.6,0,0.00436894
0.5,3.7,0,0.0044598
0.5,3.8,0,0.00454484
0.5,3.9,0,0.00462356
0.5,4,0,0.00470891
0.5,4.1,0,0.00477649
0.5,4.2,0,0.0048507
0.5,4.3,0,0.00491789
0.5,4.4,0,0.00497765
0.5,4.5,0,0.00504528
0.5,4.6,0,0.00509217
0.5,4.7,0,0.00514698
0.5,4.8,0,0.00519376
0.5,4.9,0,0.00522968
0.5,5,0,0.00526651
0.5,5.1,0,0.00531353
0.5,5.2,0,0.00534285
0.5,5.3,0,0.00536764
0.5,5.4,0,0.0053879
0.5,5.5,0,0.00540361
0.5,5.6,0,0.00541476
0.5,5.7,0,0.00542138
0.5,5.8,0,0.00542348
0.5,5.9,0,0.00542107
0.5,6,0,0.00540898
0.5,6.1,0,0.00539476
0.5,6.2,0,0.00538035
0.5,6.3,0,0.00536484
0.5,6.4,0,0.0053392
0.5,6.5,0,0.00530843
0.5,6.6,0,0.00527886
0.5,6.7,0,0.00524502
0.5,6.8,0,0.00520121
0.5,6.9,0,0.00515862
0.5,7,0,0.00511604
0.5,7.1,0,0.00506146
0.5,7.2,0,0.00500702
0.5,7.3,0,0.00495276
0.5,7.4,0,0.00489194
0.5,7.5,0,0.00482699
0.5,7.6,0,0.00476276
0.5,7.7,0,0.00469599
0.5,7.8,0,0.0046223
0.5,7.9,0,0.00454946
0.5,8,0,0.00447632
0.5,8.1,0,0.00439636
0.5,8.2,0,0.00431623
0.5,8.3,0,0.00423596
0.5,8.4,0,0.00415234
0.5,8.5,0,0.00406612
0.5,8.6,0,0.00398039
0.5,8.7,0,0.00389344
0.5,8.8,0,0.00380273
0.5,8.9,0,0.00371257
0.5,9,0,0.00362212
0.5,9.1,0,0.00352871
0.5,9.2,0,0.00343511
0.5,9.3,0,0.00334141
0.5,9.4,0,0.00324643
0.5,9.5,0,0.00315026
0.5,9.6,0,0.00305441
0.5,9.7,0,0.00295809
0.5,9.8,0,0.00286038
0.5,9.9,0,0.00276295
0.5,10,0,0.00266533
0.5,10.1,0,0.00256694
0.5,10.2,0,0.00246849
0.5,10.3,0,0.00237
0.5,10.4,0,0.00227125
0.5,10.5,0,0.00217224
0.5,10.6,0,0.00207337
0.5,10.7,0,0.00197438
0.5,10.8,0,0.00187526
0.5,10.9,0,0.00177622
0.5,11,0,0.00167712
0.5,11.1,0,0.00157808
0.5,11.2,0,0.00147908
0.5,11.3,0,0.00138007
0.5,11.4,0,0.00128113
0.5,11.5,0,0.0011823
0.5,11.6,0,0.00108348
0.5,11.7,0,0.000984663
0.5,11.8,0,0.000886054
0.5,11.9,0,0.000787433
0.5,12,0,0.000688815
0.5,12.1,0,0.000590329
0.5,12.2,0,0.000491885
0.5,12.3,0,0.000393436
0.5,12.4,0,0.000295034
0.5,12.5,0,0.000196702
0.5,12.6,0,9.83349e-05
0.5,12.7,0,0
0.6,0,0,0
0.6,0.1,0,0.000134682
0.6,0.2,0,0.00026962
0.6,0.3,0,0.00040399
0.6,0.4,0,0.000538561
0.6,0.5,0,0.000673113
0.6,0.6,0,0.000806694
0.6,0.7,0,0.000940814
0.6,0.8,0,0.00107399
0.6,0.9,0,0.00120707
0.6,1,0,0.00134037
0.6,1.1,0,0.00147162
0.6,1.2,0,0.00160376
0.6,1.3,0,0.00173443
0.6,1.4,0,0.00186468
0.6,1.5,0,0.00199542
0.6,1.6,0,0.00212277
0.6,1.7,0,0.00225144
0.6,1.8,0,0.00237797
0.6,1.9,0,0.00250365
0.6,2,0,0.00263017
0.6,2.1,0,0.00275159
0.6,2.2,0,0.00287487
0.6,2.3,0,0.00299518
0.6,2.4,0,0.0031141
0.6,2.5,0,0.00323428
0.6,2.6,0,0.00334728
0.6,2.7,0,0.00346276
0.6,2.8,0,0.00357431
0.6,2.9,0,0.00368376
0.6,3,0,0.00379504
0.6,3.1,0,0.00389664
0.6,3.2,0,0.00400145
0.6,3.3,0,0.00410131
0.6,3.4,0,0.00419818
0.6,3.5,0,0.00429761
0.6,3.6,0,0.00438458
0.6,3.7,0,0.00447554
0.6,3.8,0,0.00456058
0.6,3.9,0,0.0046416
0.6,4,0,0.00472604
0.6,4.1,0,0.00479519
0.6,4.2,0,0.00486909
0.6,4.3,0,0.00493628
0.6,4.4,0,0.00499837
0.6,4.5,0,0.00506477
0.6,4.6,0,0.0051134
0.6,4.7,0,0.00516737
0.6,4.8,0,0.00521415
0.6,4.9,0,0.00525069
0.6,5,0,0.0052875
0.6,5.1,0,0.00533479
0.6,5.2,0,0.00536426
0.6,5.3,0,0.00538915
0.6,5.4,0,0.00540946
0.6,5.5,0,0.00542518
0.6,5.6,0,0.00543629
0.6,5.7,0,0.00544282
0.6,5.8,0,0.00544478
0.6,5.9,0,0.00544219
0.6,6,0,0.00542972
0.6,6.1,0,0.00541545
0.6,6.2,0,0.0054001
0.6,6.3,0,0.00538465
0.6,6.4,0,0.00535901
0.6,6.5,0,0.0053279
0.6,6.6,0,0.00529719
0.6,6.7,0,0.00526334
0.6,6.8,0,0.00521942
0.6,6.9,0,0.00517529
0.6,7,0,0.00513257
0.6,7.1,0,0.00507799
0.6,7.2,0,0.00502221
0.6,7.3,0,0.00496728
0.6,7.4,0,0.00490646
0.6,7.5,0,0.0048408
0.6,7.6,0,0.00477517
0.6,7.7,0,0.00470841
0.6,7.8,0,0.00463448
0.6,7.9,0,0.00455998
0.6,8,0,0.00448665
0.6,8.1,0,0.00440669
0.6,8.2,0,0.00432519
0.6,8.3,0,0.00424429
0.6,8.4,0,0.00416067
0.6,8.5,0,0.00407385
0.6,8.6,0,0.00398689
0.6,8.7,0,0.00389993
0.6,8.8,0,0.00380905
0.6,8.9,0,0.00371763
0.6,9,0,0.003627
0.6,9.1,0,0.00353358
0.6,9.2,0,0.00343909
0.6,9.3,0,0.0033449
0.6,9.4,0,0.00324992
0.6,9.5,0,0.00315342
0.6,9.6,0,0.00305675
0.6,9.7,0,0.00296043
0.6,9.8,0,0.00286264
0.6,9.9,0,0.00276451
0.6,10,0,0.00266677
0.6,10.1,0,0.00256837
0.6,10.2,0,0.00246951
0.6,10.3,0,0.00237075
0.6,10.4,0,0.002272
0.6,10.5,0,0.00217287
0.6,10.6,0,0.00207364
0.6,10.7,0,0.00197464
0.6,10.8,0,0.0018755
0.6,10.9,0,0.00177622
0.6,11,0,0.00167707
0.6,11.1,0,0.00157803
0.6,11.2,0,0.00147894
0.6,11.3,0,0.00137986
0.6,11.4,0,0.00128091
0.6,11.5,0,0.00118207
0.6,11.6,0,0.00108322
0.6,11.7,0,0.000984397
0.6,11.8,0,0.00088579
0.6,11.9,0,0.000787196
0.6,12,0,0.000688587
0.6,12.1,0,0.000590101
0.6,12.2,0,0.000491706
0.6,12.3,0,0.000393306
0.6,12.4,0,0.000294904
0.6,12.5,0,0.000196598
0.6,12.6,0,9.8332e-05
0.6,12.7,0,0
0.7,0,0,0
0.7,0.1,0,0.000135014
0.7,0.2,0,0.000270029
0.7,0.3,0,0.000404887
0.7,0.4,0,0.000539589
0.7,0.5,0,0.000674292
0.7,0.6,0,0.000808431
0.7,0.7,0,0.000942569
0.7,0.8,0,0.00107628
0.7,0.9,0,0.00120957
0.7,1,0,0.00134286
0.7,1.1,0,0.00147496
0.7,1.2,0,0.00160707
0.7,1.3,0,0.0017384
0.7,1.4,0,0.00186896
0.7,1.5,0,0.00199952
0.7,1.6,0,0.0021281
0.7,1.7,0,0.00225668
0.7,1.8,0,0.00238403
0.7,1.9,0,0.00251015
0.7,2,0,0.00263627
0.7,2.1,0,0.00275939
0.7,2.2,0,0.0028825
0.7,2.3,0,0.00300381
0.7,2.4,0,0.00312331
0.7,2.5,0,0.00324282
0.7,2.6,0,0.00335803
0.7,2.7,0,0.00347325
0.7,2.8,0,0.00358596
0.7,2.9,0,0.00369616
0.7,3,0,0.00380636
0.7,3.1,0,0.00391076
0.7,3.2,0,0.00401517
0.7,3.3,0,0.00411628
0.7,3.4,0,0.00421408
0.7,3.5,0,0.00431189
0.7,3.6,0,0.00440226
0.7,3.7,0,0.00449264
0.7,3.8,0,0.00457889
0.7,3.9,0,0.00466103
0.7,4,0,0.00474316
0.7,4.1,0,0.00481626
0.7,4.2,0,0.00488936
0.7,4.3,0,0.00495758
0.7,4.4,0,0.00502092
0.7,4.5,0,0.00508426
0.7,4.6,0,0.00513721
0.7,4.7,0,0.00519016
0.7,4.8,0,0.00523501
0.7,4.9,0,0.00527175
0.7,5,0,0.00530848
0.7,5.1,0,0.00535606
0.7,5.2,0,0.00538567
0.7,5.3,0,0.00541066
0.7,5.4,0,0.00543102
0.7,5.5,0,0.00544675
0.7,5.6,0,0.00545781
0.7,5.7,0,0.00546426
0.7,5.8,0,0.00546608
0.7,5.9,0,0.00546331
0.7,6,0,0.00545046
0.7,6.1,0,0.00543511
0.7,6.2,0,0.00541976
0.7,6.3,0,0.0054044
0.7,6.4,0,0.00537881
0.7,6.5,0,0.0053477
0.7,6.6,0,0.00531659
0.7,6.7,0,0.00528157
0.7,6.8,0,0.00523744
0.7,6.9,0,0.00519331
0.7,7,0,0.00514918
0.7,7.1,0,0.00509398
0.7,7.2,0,0.00503819
0.7,7.3,0,0.00498241
0.7,7.4,0,0.00492054
0.7,7.5,0,0.00485461
0.7,7.6,0,0.00478869
0.7,7.7,0,0.00472062
0.7,7.8,0,0.00464612
0.7,7.9,0,0.00457161
0.7,8,0,0.00449711
0.7,8.1,0,0.00441627
0.7,8.2,0,0.00433473
0.7,8.3,0,0.00425318
0.7,8.4,0,0.00416856
0.7,8.5,0,0.00408142
0.7,8.6,0,0.00399428
0.7,8.7,0,0.00390629
0.7,8.8,0,0.00381486
0.7,8.9,0,0.00372344
0.7,9,0,0.00363202
0.7,9.1,0,0.00353793
0.7,9.2,0,0.00344336
0.7,9.3,0,0.0033488
0.7,9.4,0,0.00325314
0.7,9.5,0,0.0031564
0.7,9.6,0,0.00305966
0.7,9.7,0,0.00296271
0.7,9.8,0,0.00286458
0.7,9.9,0,0.00276644
0.7,10,0,0.00266831
0.7,10.1,0,0.00256955
0.7,10.2,0,0.00247063
0.7,10.3,0,0.00237171
0.7,10.4,0,0.00227264
0.7,10.5,0,0.00217339
0.7,10.6,0,0.00207414
0.7,10.7,0,0.00197489
0.7,10.8,0,0.00187561
0.7,10.9,0,0.00177634
0.7,11,0,0.00167706
0.7,11.1,0,0.00157791
0.7,11.2,0,0.0014788
0.7,11.3,0,0.0013797
0.7,11.4,0,0.00128069
0.7,11.5,0,0.00118183
0.7,11.6,0,0.00108298
0.7,11.7,0,0.000984132
0.7,11.8,0,0.000885539
0.7,11.9,0,0.000786946
0.7,12,0,0.000688352
0.7,12.1,0,0.000589906
0.7,12.2,0,0.000491523
0.7,12.3,0,0.000393139
0.7,12.4,0,0.000294797
0.7,12.5,0,0.000196531
0.7,12.6,0,9.82657e-05
0.7,12.7,0,0
0.8,0,0,0
0.8,0.1,0,0.000135487
0.8,0.2,0,0.000270652
0.8,0.3,0,0.000406113
0.8,0.4,0,0.000540923
0.8,0.5,0,0.000676245
0.8,0.6,0,0.000810666
0.8,0.7,0,0.000945033
0.8,0.8,0,0.00107943
0.8,0.9,0,0.00121279
0.8,1,0,0.001347
0.8,1.1,0,0.00147927
0.8,1.2,0,0.00161172
0.8,1.3,0,0.0017439
0.8,1.4,0,0.00187449
0.8,1.5,0,0.00200639
0.8,1.6,0,0.002135
0.8,1.7,0,0.00226406
0.8,1.8,0,0.00239248
0.8,1.9,0,0.00251858
0.8,2,0,0.00264658
0.8,2.1,0,0.00276953
0.8,2.2,0,0.0028933
0.8,2.3,0,0.00301593
0.8,2.4,0,0.00313534
0.8,2.5,0,0.00325735
0.8,2.6,0,0.0033721
0.8,2.7,0,0.00348817
0.8,2.8,0,0.00360241
0.8,2.9,0,0.00371241
0.8,3,0,0.00382578
0.8,3.1,0,0.00392931
0.8,3.2,0,0.00403476
0.8,3.3,0,0.00413752
0.8,3.4,0,0.00423499
0.8,3.5,0,0.00433654
0.8,3.6,0,0.00442554
0.8,3.7,0,0.00451711
0.8,3.8,0,0.00460499
0.8,3.9,0,0.00468663
0.8,4,0,0.0047729
0.8,4.1,0,0.00484405
0.8,4.2,0,0.00491842
0.8,4.3,0,0.00498802
0.8,4.4,0,0.00505069
0.8,4.5,0,0.00511829
0.8,4.6,0,0.00516866
0.8,4.7,0,0.00522287
0.8,4.8,0,0.00527131
0.8,4.9,0,0.00530833
0.8,5,0,0.0053452
0.8,5.1,0,0.00539325
0.8,5.2,0,0.00542313
0.8,5.3,0,0.0054483
0.8,5.4,0,0.00546875
0.8,5.5,0,0.00548448
0.8,5.6,0,0.00549547
0.8,5.7,0,0.00550175
0.8,5.8,0,0.00550333
0.8,5.9,0,0.00550023
0.8,6,0,0.00548671
0.8,6.1,0,0.00547186
0.8,6.2,0,0.00545651
0.8,6.3,0,0.00543977
0.8,6.4,0,0.00541222
0.8,6.5,0,0.00538057
0.8,6.6,0,0.00534919
0.8,6.7,0,0.00531282
0.8,6.8,0,0.00526731
0.8,6.9,0,0.00522318
0.8,7,0,0.00517788
0.8,7.1,0,0.00512042
0.8,7.2,0,0.00506462
0.8,7.3,0,0.00500804
0.8,7.4,0,0.00494417
0.8,7.5,0,0.00487739
0.8,7.6,0,0.00481115
0.8,7.7,0,0.00474136
0.8,7.8,0,0.00466521
0.8,7.9,0,0.00459071
0.8,8,0,0.0045149
0.8,8.1,0,0.00443195
0.8,8.2,0,0.00435028
0.8,8.3,0,0.00426799
0.8,8.4,0,0.00418162
0.8,8.5,0,0.00409369
0.8,8.6,0,0.00400633
0.8,8.7,0,0.0039169
0.8,8.8,0,0.00382419
0.8,8.9,0,0.00373276
0.8,9,0,0.00364035
0.8,9.1,0,0.00354486
0.8,9.2,0,0.00345014
0.8,9.3,0,0.00335509
0.8,9.4,0,0.00325833
0.8,9.5,0,0.00316105
0.8,9.6,0,0.00306422
0.8,9.7,0,0.00296639
0.8,9.8,0,0.00286752
0.8,9.9,0,0.00276938
0.8,10,0,0.00267072
0.8,10.1,0,0.00257127
0.8,10.2,0,0.00247225
0.8,10.3,0,0.00237312
0.8,10.4,0,0.00227355
0.8,10.5,0,0.00217405
0.8,10.6,0,0.00207478
0.8,10.7,0,0.00197516
0.8,10.8,0,0.00187563
0.8,10.9,0,0.00177636
0.8,11,0,0.00167692
0.8,11.1,0,0.00157759
0.8,11.2,0,0.00147845
0.8,11.3,0,0.0013793
0.8,11.4,0,0.0012802
0.8,11.5,0,0.00118133
0.8,11.6,0,0.00108247
0.8,11.7,0,0.000983607
0.8,11.8,0,0.000885049
0.8,11.9,0,0.000786456
0.8,12,0,0.000687898
0.8,12.1,0,0.000589535
0.8,12.2,0,0.000491176
0.8,12.3,0,0.000392825
0.8,12.4,0,0.000294594
0.8,12.5,0,0.000196403
0.8,12.6,0,9.81377e-05
0.8,12.7,0,0
0.9,0,0,0
0.9,0.1,0,0.000135676
0.9,0.2,0,0.000271625
0.9,0.3,0,0.000407087
0.9,0.4,0,0.000542629
0.9,0.5,0,0.000678198
0.9,0.6,0,0.000812733
0.9,0.7,0,0.000948029
0.9,0.8,0,0.00108243
0.9,0.9,0,0.00121656
0.9,1,0,0.00135114
0.9,1.1,0,0.00148348
0.9,1.2,0,0.00161714
0.9,1.3,0,0.00174933
0.9,1.4,0,0.00188083
0.9,1.5,0,0.00201326
0.9,1.6,0,0.00214188
0.9,1.7,0,0.00227255
0.9,1.8,0,0.00240098
0.9,1.9,0,0.00252815
0.9,2,0,0.0026569
0.9,2.1,0,0.00277978
0.9,2.2,0,0.00290563
0.9,2.3,0,0.00302826
0.9,2.4,0,0.00314887
0.9,2.5,0,0.00327188
0.9,2.6,0,0.00338645
0.9,2.7,0,0.00350508
0.9,2.8,0,0.00361931
0.9,2.9,0,0.00373056
0.9,3,0,0.00384519
0.9,3.1,0,0.00394838
0.9,3.2,0,0.00405678
0.9,3.3,0,0.00415954
0.9,3.4,0,0.00425815
0.9,3.5,0,0.0043612
0.9,3.6,0,0.00444965
0.9,3.7,0,0.00454437
0.9,3.8,0,0.00463225
0.9,3.9,0,0.00471472
0.9,4,0,0.00480264
0.9,4.1,0,0.00487301
0.9,4.2,0,0.00495045
0.9,4.3,0,0.00502005
0.9,4.4,0,0.00508301
0.9,4.5,0,0.00515231
0.9,4.6,0,0.00520165
0.9,4.7,0,0.00525853
0.9,4.8,0,0.00530697
0.9,4.9,0,0.00534499
0.9,5,0,0.00538191
0.9,5.1,0,0.00543044
0.9,5.2,0,0.00546058
0.9,5.3,0,0.00548593
0.9,5.4,0,0.00550648
0.9,5.5,0,0.00552222
0.9,5.6,0,0.00553313
0.9,5.7,0,0.00553925
0.9,5.8,0,0.00554058
0.9,5.9,0,0.00553714
0.9,6,0,0.00552296
0.9,6.1,0,0.00550813
0.9,6.2,0,0.00549197
0.9,6.3,0,0.00547434
0.9,6.4,0,0.00544679
0.9,6.5,0,0.00541369
0.9,6.6,0,0.00538108
0.9,6.7,0,0.00534471
0.9,6.8,0,0.00529847
0.9,6.9,0,0.00525194
0.9,7,0,0.00520653
0.9,7.1,0,0.00514907
0.9,7.2,0,0.00509032
0.9,7.3,0,0.00503309
0.9,7.4,0,0.00496922
0.9,7.5,0,0.00490067
0.9,7.6,0,0.00483247
0.9,7.7,0,0.00476268
0.9,7.8,0,0.00468585
0.9,7.9,0,0.00460856
0.9,8,0,0.00453253
0.9,8.1,0,0.00444958
0.9,8.2,0,0.00436518
0.9,8.3,0,0.00428212
0.9,8.4,0,0.00419576
0.9,8.5,0,0.00410651
0.9,8.6,0,0.00401728
0.9,8.7,0,0.00392785
0.9,8.8,0,0.00383472
0.9,8.9,0,0.00374115
0.9,9,0,0.0036485
0.9,9.1,0,0.003553
0.9,9.2,0,0.00345657
0.9,9.3,0,0.00336085
0.9,9.4,0,0.00326409
0.9,9.5,0,0.00316613
0.9,9.6,0,0.00306803
0.9,9.7,0,0.00297019
0.9,9.8,0,0.00287115
0.9,9.9,0,0.00277182
0.9,10,0,0.00267299
0.9,10.1,0,0.00257354
0.9,10.2,0,0.00247376
0.9,10.3,0,0.00237423
0.9,10.4,0,0.00227466
0.9,10.5,0,0.00217493
0.9,10.6,0,0.00207509
0.9,10.7,0,0.00197547
0.9,10.8,0,0.00187589
0.9,10.9,0,0.00177622
0.9,11,0,0.00167671
0.9,11.1,0,0.00157739
0.9,11.2,0,0.00147809
0.9,11.3,0,0.00137883
0.9,11.4,0,0.00127974
0.9,11.5,0,0.00118084
0.9,11.6,0,0.00108194
0.9,11.7,0,0.00098308
0.9,11.8,0,0.000884526
0.9,11.9,0,0.000785999
0.9,12,0,0.00068746
0.9,12.1,0,0.000589097
0.9,12.2,0,0.000490837
0.9,12.3,0,0.000392577
0.9,12.4,0,0.000294346
0.9,12.5,0,0.000196205
0.9,12.6,0,9.81319e-05
0.9,12.7,0,0
1,0,0,0
1,0.1,0,0.000136127
1,0.2,0,0.000272505
1,0.3,0,0.000408184
1,0.4,0,0.000544258
1,0.5,0,0.000680151
1,0.6,0,0.00081537
1,0.7,0,0.000950969
1,0.8,0,0.00108561
1,0.9,0,0.00122051
1,1,0,0.00135529
1,1.1,0,0.00148863
1,1.2,0,0.00162254
1,1.3,0,0.00175503
1,1.4,0,0.00188761
1,1.5,0,0.00202013
1,1.6,0,0.00215019
1,1.7,0,0.00228104
1,1.8,0,0.00240985
1,1.9,0,0.00253852
1,2,0,0.00266721
1,2.1,0,0.00279206
1,2.2,0,0.002918
1,2.3,0,0.00304109
1,2.4,0,0.00316368
1,2.5,0,0.00328642
1,2.6,0,0.00340354
1,2.7,0,0.00352208
1,2.8,0,0.00363685
1,2.9,0,0.00375057
1,3,0,0.00386461
1,3.1,0,0.00397093
1,3.2,0,0.00407898
1,3.3,0,0.00418231
1,3.4,0,0.00428381
1,3.5,0,0.00438586
1,3.6,0,0.00447789
1,3.7,0,0.00457191
1,3.8,0,0.00466034
1,3.9,0,0.00474595
1,4,0,0.00483238
1,4.1,0,0.00490656
1,4.2,0,0.00498286
1,4.3,0,0.00505293
1,4.4,0,0.00511907
1,4.5,0,0.00518634
1,4.6,0,0.00523947
1,4.7,0,0.00529471
1,4.8,0,0.00534266
1,4.9,0,0.00538087
1,5,0,0.00541862
1,5.1,0,0.00546763
1,5.2,0,0.00549803
1,5.3,0,0.00552356
1,5.4,0,0.00554421
1,5.5,0,0.00555995
1,5.6,0,0.00557079
1,5.7,0,0.00557674
1,5.8,0,0.00557783
1,5.9,0,0.00557406
1,6,0,0.00555921
1,6.1,0,0.0055432
1,6.2,0,0.00552609
1,6.3,0,0.00550891
1,6.4,0,0.00548119
1,6.5,0,0.00544727
1,6.6,0,0.00541336
1,6.7,0,0.0053766
1,6.8,0,0.00532931
1,6.9,0,0.00528179
1,7,0,0.00523517
1,7.1,0,0.00517703
1,7.2,0,0.0051175
1,7.3,0,0.00505815
1,7.4,0,0.00499409
1,7.5,0,0.00492426
1,7.6,0,0.00485444
1,7.7,0,0.004784
1,7.8,0,0.00470599
1,7.9,0,0.00462764
1,8,0,0.00455016
1,8.1,0,0.00446659
1,8.2,0,0.00438139
1,8.3,0,0.00429626
1,8.4,0,0.0042098
1,8.5,0,0.00411933
1,8.6,0,0.00402886
1,8.7,0,0.0039388
1,8.8,0,0.00384479
1,8.9,0,0.00375044
1,9,0,0.00365665
1,9.1,0,0.00356076
1,9.2,0,0.0034637
1,9.3,0,0.00336665
1,9.4,0,0.00326984
1,9.5,0,0.00317105
1,9.6,0,0.00307227
1,9.7,0,0.002974
1,9.8,0,0.00287449
1,9.9,0,0.00277475
1,10,0,0.00267526
1,10.1,0,0.00257564
1,10.2,0,0.00247552
1,10.3,0,0.00237539
1,10.4,0,0.00227577
1,10.5,0,0.00217569
1,10.6,0,0.00207559
1,10.7,0,0.00197577
1,10.8,0,0.00187605
1,10.9,0,0.00177624
1,11,0,0.0016765
1,11.1,0,0.00157715
1,11.2,0,0.00147777
1,11.3,0,0.00137839
1,11.4,0,0.00127927
1,11.5,0,0.00118035
1,11.6,0,0.00108143
1,11.7,0,0.000982553
1,11.8,0,0.000884029
1,11.9,0,0.000785529
1,12,0,0.000687021
1,12.1,0,0.000588681
1,12.2,0,0.000490497
1,12.3,0,0.000392314
1,12.4,0,0.000294099
1,12.5,0,0.000196074
1,12.6,0,9.8067e-05
1,12.7,0,0
1.1,0,0,0
1.1,0.1,0,0.000136711
1.1,0.2,0,0.000273089
1.1,0.3,0,0.000409911
1.1,0.4,0,0.000545985
1.1,0.5,0,0.000682425
1.1,0.6,0,0.000818289
1.1,0.7,0,0.000953888
1.1,0.8,0,0.00108983
1.1,0.9,0,0.00122473
1.1,1,0,0.00136014
1.1,1.1,0,0.0014943
1.1,1.2,0,0.00162821
1.1,1.3,0,0.00176234
1.1,1.4,0,0.00189491
1.1,1.5,0,0.00202824
1.1,1.6,0,0.00215935
1.1,1.7,0,0.0022902
1.1,1.8,0,0.0024211
1.1,1.9,0,0.00254976
1.1,2,0,0.00267946
1.1,2.1,0,0.00280564
1.1,2.2,0,0.00293157
1.1,2.3,0,0.00305724
1.1,2.4,0,0.00317983
1.1,2.5,0,0.0033038
1.1,2.6,0,0.00342249
1.1,2.7,0,0.00354103
1.1,2.8,0,0.00365879
1.1,2.9,0,0.00377251
1.1,3,0,0.003888
1.1,3.1,0,0.003996
1.1,3.2,0,0.00410405
1.1,3.3,0,0.00421059
1.1,3.4,0,0.00431209
1.1,3.5,0,0.00441575
1.1,3.6,0,0.00450936
1.1,3.7,0,0.00460338
1.1,3.8,0,0.0046949
1.1,3.9,0,0.00478051
1.1,4,0,0.00486864
1.1,4.1,0,0.00494402
1.1,4.2,0,0.00502032
1.1,4.3,0,0.00509298
1.1,4.4,0,0.00515912
1.1,4.5,0,0.00522801
1.1,4.6,0,0.00528172
1.1,4.7,0,0.00533696