/*--------------------------------*- C++ -*----------------------------------*\
| =========                 |                                                 |
| \\      /  F ield         | OpenFOAM: The Open Source CFD Toolbox           |
|  \\    /   O peration     | Version:  v1806                                 |
|   \\  /    A nd           | Web:      www.OpenFOAM.com                      |
|    \\/     M anipulation  |                                                 |
\*---------------------------------------------------------------------------*/
FoamFile
{
    version     2.0;
    format      ascii;
    class       surfaceScalarField;
    location    "5";
    object      phi;
}
// * * * * * * * * * * * * * * * * * * * * * * * * * * * * * * * * * * * * * //

dimensions      [0 3 -1 0 0 0 0];
oriented        oriented;


internalField   nonuniform List<scalar> 
4680
(
1.05212
-0.00515145
1.05628
0.0114514
1.04605
-0.0889436
1.03795
-0.173353
1.04679
-0.0787318
1.06319
-0.0157209
1.05731
-0.18223
1.03117
-0.416781
1.01953
-0.513441
1.02112
-0.491895
1.00656
-0.54713
0.957297
-0.790708
0.865218
-1.11277
0.737801
-1.35725
0.596628
-1.46952
0.461611
-1.46918
0.344142
-1.39145
0.248802
-1.26685
0.175779
-1.11778
-0.962204
0.121009
1.05337
-0.00851667
1.0532
0.0116188
1.04526
-0.0810103
1.03851
-0.166599
1.04281
-0.0830319
1.05589
-0.0288041
1.04859
-0.174928
1.0275
-0.395686
1.01099
-0.496932
0.988402
-0.46931
0.958063
-0.516791
0.912179
-0.744824
0.832553
-1.03315
0.724808
-1.2495
0.608217
-1.35293
0.495699
-1.35666
0.393202
-1.28895
0.304408
-1.17806
0.231208
-1.04458
-0.904043
0.173047
1.05082
-0.00934075
1.04979
0.0126482
1.04789
-0.0791024
1.03696
-0.155668
1.04031
-0.0863836
1.05175
-0.0402462
1.04278
-0.165956
1.02304
-0.375945
0.995521
-0.469415
0.973427
-0.447216
0.96171
-0.505074
0.918762
-0.701876
0.827043
-0.941427
0.711783
-1.13424
0.593505
-1.23465
0.480653
-1.24381
0.379506
-1.1878
0.294193
-1.09274
0.225894
-0.976283
-0.851553
0.173404
1.04775
-0.00709154
1.05141
0.00899145
1.04758
-0.0752767
1.03679
-0.144877
1.04353
-0.0931272
1.04477
-0.0414851
1.03519
-0.156375
1.01928
-0.360034
0.990948
-0.441081
0.966903
-0.423172
0.935777
-0.473948
0.87218
-0.638279
0.789233
-0.858481
0.703061
-1.04807
0.614016
-1.1456
0.521838
-1.15163
0.431117
-1.09708
0.347128
-1.00875
0.27326
-0.902415
-0.789884
0.21159
1.04902
-0.00611597
1.0552
0.00282002
1.04605
-0.0661334
1.03803
-0.136854
1.03832
-0.0934137
1.03664
-0.0398047
1.03532
-0.155059
1.01336
-0.338072
0.978169
-0.405894
0.955214
-0.400217
0.928516
-0.44725
0.879213
-0.588977
0.806506
-0.785773
0.711776
-0.95334
0.605032
-1.03886
0.500813
-1.04742
0.408717
-1.00498
0.332616
-0.932653
0.270565
-0.840364
-0.738866
0.219547
1.05281
-0.00892524
1.05353
0.00210106
1.04314
-0.0557409
1.03739
-0.131107
1.0327
-0.0887288
1.03447
-0.0415732
1.02995
-0.150538
1.00326
-0.311383
0.978224
-0.380856
0.954264
-0.376257
0.909963
-0.402949
0.852751
-0.531764
0.792033
-0.725055
0.721279
-0.882586
0.639057
-0.956639
0.551037
-0.959396
0.461809
-0.915756
0.377154
-0.847998
0.303477
-0.766687
-0.678595
0.243207
1.05127
-0.0101953
1.04792
0.00545557
1.04552
-0.0533424
1.03643
-0.122015
1.03104
-0.0833408
1.03769
-0.0482215
1.025
-0.137848
0.996362
-0.282749
0.971799
-0.356292
0.942544
-0.347001
0.909915
-0.370321
0.875909
-0.497758
0.81699
-0.666136
0.724514
-0.79011
0.61682
-0.848946
0.517038
-0.859614
0.435172
-0.833891
0.367305
-0.780131
0.307703
-0.707084
-0.626295
0.255402
1.04691
-0.00710544
1.05001
0.00235379
1.04955
-0.0528767
1.034
-0.106466
1.03173
-0.0810781
1.03259
-0.0490757
1.01572
-0.120985
0.998243
-0.265267
0.973655
-0.331704
0.933544
-0.30689
0.896587
-0.333364
0.858966
-0.460137
0.802712
-0.609882
0.731853
-0.719251
0.654227
-0.771319
0.568518
-0.773906
0.479086
-0.744458
0.397128
-0.698173
0.327939
-0.637896
-0.569616
0.27126
1.04912
-0.00622241
1.05359
-0.00211928
1.04468
-0.0439639
1.03319
-0.0949785
1.0315
-0.0793841
1.02647
-0.0440482
1.01732
-0.111838
0.995137
-0.243082
0.95665
-0.293218
0.927053
-0.277293
0.90779
-0.314101
0.865051
-0.417397
0.785399
-0.53023
0.68864
-0.622493
0.597737
-0.680416
0.522364
-0.698532
0.456239
-0.678334
0.39403
-0.635964
0.335287
-0.579152
-0.517355
0.283026
1.0509
-0.00712263
1.04869
9.01758e-05
1.04372
-0.0389922
1.03745
-0.0887091
1.02632
-0.0682495
1.02383
-0.0415673
1.01961
-0.107612
0.989956
-0.21343
0.956638
-0.259899
0.929962
-0.250617
0.882101
-0.26624
0.81696
-0.352256
0.762608
-0.475878
0.714082
-0.573968
0.65126
-0.617594
0.570962
-0.618233
0.487387
-0.594759
0.412451
-0.561027
0.348384
-0.515085
-0.464058
0.295087
1.04871
-0.00583045
1.04837
0.000424778
1.04652
-0.0371358
1.03463
-0.0768264
1.02617
-0.0597888
1.02687
-0.0422617
1.01051
-0.0912519
0.978924
-0.181847
0.957543
-0.238518
0.936879
-0.229953
0.897532
-0.226894
0.842993
-0.297717
0.774047
-0.406932
0.692872
-0.492792
0.613522
-0.538244
0.542478
-0.54719
0.476347
-0.528628
0.413866
-0.498547
0.355542
-0.456761
-0.413727
0.305211
1.04914
-0.00496773
1.05071
-0.00114603
1.04452
-0.0309507
1.0327
-0.065005
1.02681
-0.0539021
1.02122
-0.0366646
1.01036
-0.0803975
0.989889
-0.161373
0.950272
-0.1989
0.906711
-0.186392
0.884033
-0.204216
0.87389
-0.287575
0.845982
-0.379024
0.781803
-0.428612
0.687274
-0.443715
0.587636
-0.447552
0.499165
-0.440157
0.426038
-0.42542
0.364487
-0.39521
-0.364304
0.315064
1.04966
-0.00463002
1.04864
-0.000120448
1.04353
-0.0258432
1.03526
-0.056738
1.02641
-0.0450473
1.01925
-0.0295037
1.00795
-0.0690965
0.982498
-0.135925
0.951149
-0.167551
0.925697
-0.16094
0.885696
-0.164215
0.809673
-0.211552
0.719396
-0.288747
0.646844
-0.35606
0.59404
-0.390911
0.541987
-0.395499
0.484276
-0.382446
0.425474
-0.366618
0.369087
-0.338823
-0.318906
0.323689
1.04894
-0.00357266
1.04936
-0.000535486
1.04493
-0.0214123
1.03278
-0.0445942
1.02383
-0.0360962
1.02089
-0.0265572
1.00811
-0.0563191
0.978662
-0.106479
0.945179
-0.134068
0.917357
-0.133118
0.892382
-0.13924
0.860671
-0.179842
0.812478
-0.240553
0.744133
-0.287715
0.660779
-0.307557
0.576621
-0.311342
0.499545
-0.30537
0.432829
-0.299902
0.374182
-0.280175
-0.277057
0.332333
1.04933
-0.00290603
1.04896
-0.000162088
1.04355
-0.0160066
1.03356
-0.0345998
1.02551
-0.0280432
1.01795
-0.0190037
1.00412
-0.0424897
0.981449
-0.0838037
0.950209
-0.102828
0.913497
-0.0964065
0.875545
-0.101288
0.833349
-0.137645
0.778276
-0.185481
0.709696
-0.219134
0.637017
-0.234879
0.56497
-0.239294
0.496106
-0.236506
0.43339
-0.237186
0.376406
-0.223191
-0.241607
0.340956
1.04902
-0.00192853
1.04899
-0.000129697
1.04421
-0.011231
1.03294
-0.0233203
1.02355
-0.0186537
1.01837
-0.0138308
1.00558
-0.0296939
0.977389
-0.0556154
0.943806
-0.0692456
0.916488
-0.0690888
0.888254
-0.0730535
0.842975
-0.0923665
0.780364
-0.12287
0.710542
-0.149312
0.639184
-0.16352
0.566975
-0.167086
0.497779
-0.167309
0.434014
-0.173422
0.37708
-0.166257
-0.21484
0.350313
1.04917
-0.00109954
1.04889
0.00015625
1.04374
-0.00608541
1.03296
-0.01254
1.02424
-0.00993022
1.01753
-0.00712346
1.00349
-0.015652
0.978326
-0.0304553
0.946718
-0.0376369
0.91299
-0.0353609
0.877309
-0.0373724
0.836273
-0.0513303
0.783564
-0.0701614
0.716873
-0.0826213
0.643369
-0.0900157
0.568265
-0.091982
0.497968
-0.0970127
0.432728
-0.108182
0.374612
-0.108141
-0.199684
0.359455
1.04904
-0.000141687
1.0489
0.000297578
1.04393
-0.0011164
1.03279
-0.00139625
1.02355
-0.000687438
1.01744
-0.00101993
1.00395
-0.0021592
0.977117
-0.00362326
0.944297
-0.00481727
0.914066
-0.00512964
0.882649
-0.00595529
0.839041
-0.00772231
0.780639
-0.0117594
0.71226
-0.0142426
0.640443
-0.0181982
0.566217
-0.0177563
0.496624
-0.02742
0.426819
-0.0383767
0.372878
-0.0541997
-0.199823
0.373017
1.04909
0.000763814
1.04892
0.000473975
1.0438
0.00399947
1.03278
0.00962576
1.02383
0.00826173
1.01734
0.00546853
1.00343
0.0117506
0.977429
0.0223809
0.945301
0.0273107
0.913054
0.0271165
0.87894
0.028159
0.836594
0.0346235
0.781689
0.0431458
0.7143
0.053147
0.641822
0.0542794
0.565257
0.0588084
0.495574
0.0422628
0.419406
0.0377913
0.357143
0.00806382
-0.223254
0.380574
1.0491
0.00166154
1.04896
0.000613643
1.04386
0.00910629
1.0328
0.0206809
1.02382
0.0172453
1.01751
0.0117777
1.00376
0.0254949
0.977452
0.0486922
0.945006
0.0597571
0.913488
0.0586346
0.880353
0.0612933
0.837378
0.0775985
0.781094
0.0994305
0.713519
0.120722
0.64071
0.127089
0.564273
0.135245
0.491125
0.115411
0.414073
0.114844
0.357588
0.0645488
0.361403
-0.227069
0.115551
-0.103169
0.110536
-0.101172
0.105718
-0.0990877
0.101095
-0.0970258
0.0966632
-0.0949867
0.0924182
-0.0929719
0.0883562
-0.0909821
0.0844738
-0.0890176
0.0807683
-0.0870788
-0.0851686
0.0772403
0.167117
-0.0972379
0.161268
-0.0953237
0.155608
-0.0934274
0.150128
-0.0915464
0.144825
-0.0896834
0.139692
-0.0878392
0.134725
-0.0860148
0.129918
-0.0842109
0.125268
-0.0824285
-0.0806687
0.120768
0.16819
-0.0920237
0.163081
-0.0902146
0.15815
-0.0884968
0.153385
-0.0867812
0.148775
-0.0850737
0.144314
-0.0833775
0.139993
-0.0816938
0.135805
-0.0800234
0.131744
-0.0783672
-0.0767187
0.127794
0.205041
-0.0854743
0.198874
-0.0840479
0.192873
-0.0824952
0.187047
-0.0809555
0.181397
-0.079424
0.17592
-0.0779004
0.170613
-0.0763865
0.165473
-0.0748834
0.160498
-0.0733925
-0.071922
0.155702
0.214269
-0.0801958
0.208886
-0.0786647
0.203629
-0.0772388
0.198485
-0.075811
0.193449
-0.0743886
0.188523
-0.0729737
0.183703
-0.0715669
0.178989
-0.0701688
0.174377
-0.0687806
-0.0673968
0.169852
0.236811
-0.0737995
0.230789
-0.072643
0.224922
-0.0713717
0.219215
-0.0701043
0.213664
-0.0688373
0.208261
-0.067571
0.203002
-0.0663071
0.19788
-0.065047
0.192892
-0.0637924
-0.0625499
0.188045
0.249807
-0.0682043
0.244163
-0.0669988
0.238625
-0.0658339
0.233186
-0.0646648
0.227845
-0.0634969
0.222606
-0.0623313
0.217467
-0.0611684
0.212429
-0.0600089
0.20749
-0.0588538
-0.0577033
0.202644
0.265181
-0.0621254
0.259347
-0.0611648
0.253632
-0.0601192
0.248038
-0.0590708
0.242561
-0.0580194
0.237195
-0.0569657
0.231938
-0.0559108
0.226785
-0.054856
0.221733
-0.0538024
-0.0527554
0.216785
0.277336
-0.0564357
0.271673
-0.0555017
0.2661
-0.0545465
0.260613
-0.0535838
0.255212
-0.0526179
0.249896
-0.05165
0.244665
-0.0506802
0.239519
-0.0497098
0.234456
-0.0487388
-0.0477719
0.229472
0.28929
-0.0506388
0.283629
-0.0498412
0.278056
-0.048973
0.272567
-0.0480955
0.267161
-0.0472118
0.261835
-0.0463233
0.256585
-0.0454303
0.25141
-0.0445348
0.246307
-0.0436359
-0.0427413
0.241276
0.299662
-0.0450902
0.294153
-0.0443321
0.288708
-0.0435285
0.283323
-0.0427105
0.277996
-0.0418843
0.272725
-0.0410526
0.267509
-0.0402143
0.262347
-0.039373
0.257237
-0.0385255
-0.0376819
0.252178
0.309578
-0.0396049
0.304182
-0.0389355
0.298832
-0.0381791
0.293528
-0.037406
0.288265
-0.0366215
0.283041
-0.0358283
0.277851
-0.0350247
0.272695
-0.0342168
0.267568
-0.0333986
-0.0325859
0.262472
0.318615
-0.0345308
0.313458
-0.0337787
0.308315
-0.0330354
0.303178
-0.0322695
0.298046
-0.0314888
0.292915
-0.0306983
0.287784
-0.029893
0.282652
-0.0290848
0.277513
-0.0282598
-0.0274496
0.272377
0.327519
-0.0297171
0.322643
-0.0289021
0.317745
-0.0281376
0.312816
-0.027341
0.307849
-0.0265213
0.30284
-0.0256891
0.297781
-0.0248345
0.292678
-0.0239813
0.287517
-0.0230991
-0.022236
0.282303
0.336365
-0.0251259
0.331899
-0.0244365
0.327337
-0.0235748
0.322685
-0.0226891
0.317939
-0.0217753
0.313097
-0.0208474
0.308141
-0.0198788
0.303081
-0.0189212
0.297888
-0.0179056
-0.0169848
0.292637
0.346692
-0.0215043
0.342707
-0.0204523
0.338552
-0.0194195
0.334226
-0.0183626
0.329713
-0.0172625
0.325024
-0.016158
0.32012
-0.0149757
0.315039
-0.0138394
0.309699
-0.0125661
-0.0114562
0.304171
0.35651
-0.0185587
0.353468
-0.0174108
0.350151
-0.0161017
0.346587
-0.0147995
0.342745
-0.01342
0.338642
-0.012055
0.334184
-0.0105179
0.329456
-0.0091112
0.324258
-0.00736806
-0.00606932
0.318871
0.370587
-0.016128
0.367485
-0.014309
0.364048
-0.0126648
0.360405
-0.0111562
0.356493
-0.00950862
0.352411
-0.00797252
0.347911
-0.00601822
0.343267
-0.00446722
0.337858
-0.00195872
-0.000541042
0.332329
0.379266
-0.0148203
0.377511
-0.0125543
0.37537
-0.0105237
0.372981
-0.0087668
0.370271
-0.00679884
0.367537
-0.00523863
0.364359
-0.00284005
0.361689
-0.0017969
0.357736
0.0019935
0.0015603
0.355635
0.346582
0.334028
0.323504
0.314738
0.307939
0.3027
0.29986
0.298063
0.300057
0.301617
0.0651094
-0.302522
0.054896
-0.277291
0.0463365
-0.253392
0.039177
-0.23085
0.0331991
-0.209663
0.0282157
-0.189803
0.0240666
-0.171221
0.0206153
-0.153855
0.0177464
-0.137628
0.0153631
-0.122457
0.0133845
-0.108251
0.0117439
-0.0949144
0.0103868
-0.082346
0.0092692
-0.0704427
0.0083569
-0.0590968
0.00762539
-0.048195
0.00706161
-0.0376149
0.00666851
-0.02722
0.00646339
-0.0168943
-0.00703286
0.105255
-0.287009
0.0916358
-0.263672
0.0797259
-0.241482
0.0693633
-0.220487
0.0603882
-0.200688
0.0526462
-0.182061
0.0459925
-0.164568
0.040293
-0.148155
0.0354257
-0.132761
0.0312816
-0.118313
0.027765
-0.104735
0.0247926
-0.091942
0.0222938
-0.0798472
0.0202101
-0.068359
0.0184954
-0.0573821
0.0171174
-0.0468171
0.0160614
-0.0365589
0.0153383
-0.0264969
0.0149854
-0.0165415
-0.00693918
0.114125
-0.27334
0.101925
-0.251472
0.0910398
-0.230597
0.0813356
-0.210783
0.0726996
-0.192052
0.0650351
-0.174397
0.0582564
-0.157789
0.0522851
-0.142184
0.0470485
-0.127524
0.042479
-0.113744
0.0385145
-0.10077
0.0350989
-0.0885264
0.0321828
-0.0769312
0.0297247
-0.0659009
0.0276923
-0.0553497
0.0260649
-0.0451896
0.0248375
-0.0353316
0.024027
-0.0256863
0.0236689
-0.0161834
-0.00685925
0.138947
-0.256585
0.124135
-0.23666
0.11105
-0.217512
0.0994919
-0.199225
0.0892847
-0.181845
0.0802768
-0.165389
0.0723384
-0.149851
0.0653577
-0.135203
0.0592374
-0.121404
0.0538927
-0.108399
0.0492498
-0.0961274
0.0452448
-0.0845214
0.0418235
-0.0735099
0.0389417
-0.063019
0.0365655
-0.0529735
0.0346733
-0.0432975
0.0332578
-0.0339161
0.0323289
-0.0247574
0.0319133
-0.0157677
-0.00676085
0.153893
-0.240626
0.139329
-0.222096
0.126092
-0.204275
0.114116
-0.18725
0.10333
-0.171059
0.0936582
-0.155717
0.0850229
-0.141215
0.077348
-0.127528
0.07056
-0.114616
0.0645899
-0.102429
0.0593737
-0.0909112
0.054854
-0.0800017
0.0509805
-0.0696364
0.047711
-0.0597496
0.0450127
-0.0502751
0.042863
-0.0411477
0.0412513
-0.0323044
0.0401795
-0.0236856
0.0396671
-0.0152553
-0.00661905
0.170893
-0.223475
0.15531
-0.206512
0.141166
-0.190131
0.128349
-0.174433
0.116766
-0.159476
0.106333
-0.145284
0.0969747
-0.131857
0.0886185
-0.119172
0.0811958
-0.107193
0.0746416
-0.0958747
0.0688952
-0.0851648
0.0639011
-0.0750077
0.0596104
-0.0653457
0.0559812
-0.0561204
0.0529799
-0.0472738
0.0505818
-0.0387496
0.0487721
-0.0304947
0.0475453
-0.0224588
0.0469153
-0.0146254
-0.00641934
0.185373
-0.206205
0.16943
-0.190569
0.15477
-0.175471
0.141349
-0.161012
0.12912
-0.147247
0.118034
-0.134198
0.108035
-0.121859
0.0990673
-0.110204
0.0910709
-0.0991967
0.0839872
-0.088791
0.0777593
-0.0789369
0.0723339
-0.0695822
0.0676624
-0.0606742
0.0637026
-0.0521606
0.0604196
-0.0439908
0.0577861
-0.0361161
0.0557831
-0.0284917
0.0543988
-0.0210745
0.053642
-0.0138686
-0.00615399
0.199062
-0.188481
0.182604
-0.174111
0.167373
-0.16024
0.153346
-0.146984
0.140497
-0.134398
0.128795
-0.122496
0.118202
-0.111266
0.108672
-0.100673
0.100151
-0.0906765
0.0925871
-0.0812267
0.0859237
-0.0722736
0.0801086
-0.0637671
0.0750928
-0.0556584
0.070833
-0.0479008
0.0672919
-0.0404498
0.0644397
-0.0332639
0.0622533
-0.0263053
0.0607157
-0.0195369
0.0598306
-0.0129835
-0.00581983
0.211509
-0.170518
0.194647
-0.157249
0.178905
-0.144499
0.164309
-0.132389
0.150873
-0.120962
0.138592
-0.110216
0.127445
-0.100119
0.117397
-0.0906247
0.1084
-0.0816795
0.100402
-0.0732289
0.0933486
-0.0652203
0.0871859
-0.0576045
0.0818635
-0.050336
0.0773356
-0.0433728
0.0735626
-0.0366768
0.0705116
-0.0302129
0.0681561
-0.0239498
0.0664747
-0.0178555
0.0654654
-0.0119742
-0.00541724
0.223022
-0.152263
0.205722
-0.139948
0.189444
-0.128221
0.174268
-0.117213
0.160248
-0.106942
0.147406
-0.0973732
0.135735
-0.0884483
0.125208
-0.0800971
0.115779
-0.0722503
0.107394
-0.0648444
0.099997
-0.0578232
0.0935304
-0.0511379
0.0879406
-0.0447462
0.083179
-0.0386112
0.0792029
-0.0327008
0.0759763
-0.0269862
0.0734694
-0.021443
0.0716577
-0.0160437
0.0705323
-0.0108488
-0.00494982
0.233658
-0.133744
0.215885
-0.122175
0.199022
-0.111358
0.183228
-0.101419
0.168606
-0.0923193
0.155206
-0.0839736
0.143035
-0.0762773
0.132065
-0.0691275
0.122249
-0.0624339
0.113526
-0.0561218
0.105834
-0.050131
0.0991098
-0.0444136
0.0932948
-0.0389312
0.0883365
-0.0336529
0.0841887
-0.028553
0.0808124
-0.0236099
0.078175
-0.0188056
0.0762492
-0.0141178
0.0750193
-0.00961899
-0.00442281
0.243607
-0.114879
0.22524
-0.103808
0.207678
-0.0937961
0.191182
-0.0849229
0.175913
-0.0770503
0.161947
-0.0700082
0.149296
-0.0636254
0.137923
-0.0577544
0.127768
-0.0522796
0.118761
-0.0471148
0.110827
-0.0421972
0.103896
-0.0374819
0.0979011
-0.0329366
0.0927861
-0.0285378
0.0885008
-0.0242678
0.0850033
-0.0201124
0.0822585
-0.0160608
0.0802373
-0.0120966
0.0789169
-0.00829866
-0.00384287
0.25304
-0.0955424
0.233872
-0.0846393
0.215421
-0.0753453
0.198091
-0.0675929
0.182107
-0.0610663
0.167561
-0.0554627
0.154452
-0.0505166
0.142723
-0.046025
0.13229
-0.0418464
0.123061
-0.0378858
0.114946
-0.0340826
0.107863
-0.0303991
0.101739
-0.0268125
0.0965108
-0.0233095
0.0921248
-0.0198818
0.0885367
-0.0165243
0.0857097
-0.0132337
0.0836135
-0.0100004
0.0822187
-0.00690394
-0.00321803
0.262225
-0.0754638
0.241887
-0.0643018
0.222241
-0.0556992
0.20387
-0.0492221
0.187075
-0.0442714
0.171939
-0.0403264
0.158415
-0.0369922
0.146397
-0.0340072
0.135762
-0.0312111
0.126387
-0.0285115
0.118163
-0.0258585
0.110993
-0.0232285
0.104794
-0.0206138
0.0994992
-0.0180145
0.0950517
-0.0154343
0.0914054
-0.0128781
0.0885226
-0.0103509
0.0863729
-0.00785077
0.0849214
-0.00545242
-0.00255748
0.271421
-0.0542477
0.249361
-0.0422424
0.22807
-0.034408
0.208391
-0.0295436
0.190671
-0.0265509
0.174945
-0.0246006
0.161075
-0.023122
0.148867
-0.0217997
0.138133
-0.0204768
0.128709
-0.0190871
0.120459
-0.0176087
0.113272
-0.0160418
0.107059
-0.0144003
0.101746
-0.0127024
0.0972781
-0.0109659
0.093607
-0.00920698
0.0906957
-0.0074395
0.0885146
-0.00566971
0.0870248
-0.00396261
-0.00187121
0.280697
-0.0307741
0.255804
-0.0173497
0.232278
-0.0108821
0.211167
-0.00843237
0.192636
-0.00802006
0.176469
-0.00843302
0.162379
-0.00903231
0.150096
-0.00951641
0.139375
-0.00975625
0.130008
-0.00971982
0.121825
-0.00942584
0.114699
-0.00891597
0.108534
-0.00823503
0.103256
-0.00742405
0.0988073
-0.00651774
0.0951446
-0.00554429
0.0922317
-0.00452656
0.0900411
-0.00347912
0.0885318
-0.00245327
-0.00116955
0.292524
-0.00442715
0.263663
0.0115118
0.236343
0.0164377
0.212457
0.0154538
0.192449
0.0119875
0.175798
0.00821819
0.161767
0.00499816
0.149752
0.00249881
0.139326
0.000669547
0.13022
-0.000613791
0.122244
-0.00144937
0.115276
-0.00194832
0.109229
-0.00218789
0.104037
-0.00223175
0.0996491
-0.00213009
0.0960267
-0.00192192
0.093138
-0.00163781
0.0909587
-0.00129983
0.0894482
-0.000942781
-0.000462746
0.299526
0.0283764
0.263686
0.0473516
0.233295
0.0468289
0.209508
0.0392404
0.190174
0.0313214
0.173954
0.0244389
0.160212
0.0187399
0.148477
0.0142337
0.138352
0.0107948
0.129528
0.00821004
0.121809
0.00626988
0.115055
0.00480546
0.109177
0.00369038
0.104113
0.00283188
0.0998208
0.00216225
0.0962669
0.00163191
0.0934256
0.00120356
0.0912765
0.000849201
0.0897824
0.000551401
0.000239471
0.316996
0.0670157
0.270274
0.0940732
0.230438
0.0866654
0.202076
0.0676016
0.182054
0.0513439
0.167142
0.0393504
0.155144
0.0307386
0.144871
0.0245061
0.135794
0.0198717
0.127687
0.0163172
0.120455
0.0135023
0.11404
0.0112206
0.108402
0.00932816
0.103512
0.00772191
0.0993461
0.00632805
0.0958845
0.00509353
0.0931098
0.00397819
0.0910069
0.00295217
0.0895449
0.00201333
0.000928685
0.301155
0.0674774
0.27376
0.121469
0.235192
0.125234
0.203407
0.0993862
0.180069
0.0746815
0.16362
0.0557995
0.15135
0.0430084
0.141397
0.0344592
0.132835
0.0284342
0.125246
0.0239065
0.118446
0.0203023
0.112366
0.0173002
0.106982
0.0147123
0.102282
0.0124215
0.0982594
0.0103508
0.0949052
0.00844773
0.0922114
0.00667203
0.090167
0.00499657
0.0887515
0.00342879
0.00159985
0.0413023
0.0261751
0.0497798
0.112991
0.0511042
0.123909
0.0494517
0.101039
0.0467854
0.0773479
0.0441447
0.0584402
0.0416631
0.0454899
0.0393482
0.036774
0.0371919
0.0305906
0.0351923
0.025906
0.0333555
0.0221391
0.0316896
0.0189662
0.0302014
0.0162004
0.0288956
0.0137274
0.027774
0.0114723
0.0268371
0.00938463
0.0260837
0.0074254
0.0255128
0.00556752
0.0251159
0.00382562
0.00178365
0.0252128
0.000962317
0.0381359
0.100068
0.0439769
0.118068
0.0453398
0.0996757
0.0445755
0.0781122
0.0429195
0.0600962
0.0409287
0.0474807
0.0388638
0.0388389
0.0368401
0.0326143
0.0349161
0.02783
0.033126
0.0239293
0.0314912
0.020601
0.030025
0.0176666
0.0287353
0.0150171
0.027626
0.0125816
0.0266986
0.010312
0.0259525
0.00817154
0.0253876
0.00613239
0.0249944
0.00421881
0.00196386
0.0119468
-0.0109845
0.0279302
0.0840846
0.0374688
0.10853
0.04156
0.0955845
0.0425022
0.07717
0.0417495
0.060849
0.0402151
0.049015
0.0383832
0.0406708
0.036484
0.0345135
0.0346312
0.0296828
0.0328853
0.0256751
0.0312801
0.0222062
0.029835
0.0191117
0.028561
0.0162912
0.0274637
0.0136789
0.0265458
0.0112299
0.0258071
0.00891022
0.025248
0.00669147
0.02486
0.00460683
0.00214201
0.00461413
-0.0155986
0.0204431
0.0682556
0.0323004
0.0966725
0.0384185
0.0894664
0.0406997
0.0748887
0.0406874
0.0608613
0.0395423
0.0501601
0.0379152
0.0422979
0.0361277
0.036301
0.0343401
0.0314703
0.0326354
0.0273799
0.0310581
0.0237835
0.0296332
0.0205367
0.0283743
0.01755
0.0272889
0.0147643
0.0263803
0.0121385
0.0256492
0.00964141
0.025096
0.00724465
0.0247131
0.00498968
0.00231778
0.000650885
-0.0162495
0.0156207
0.0532858
0.0287285
0.0835647
0.0360694
0.0821256
0.0392442
0.0717139
0.0397686
0.0603369
0.0389257
0.0510031
0.0374663
0.0437572
0.0357744
0.037993
0.0340445
0.0332002
0.0323771
0.0290473
0.0308257
0.0253349
0.0294197
0.0219426
0.0281755
0.0187942
0.0271016
0.0158382
0.0262023
0.0130378
0.0254787
0.0103651
0.0249315
0.0077918
0.0245539
0.0053673
0.00249093
-0.000770977
-0.0154785
0.0132727
0.0392421
0.0266771
0.0701603
0.0345084
0.0742943
0.0381505
0.0680717
0.0390069
0.0594805
0.0383738
0.0516362
0.0370414
0.0450896
0.0354266
0.0396078
0.0337455
0.0348813
0.032111
0.0306818
0.0305832
0.0268627
0.029195
0.0233308
0.0279647
0.0200245
0.026902
0.0169009
0.0260118
0.0139279
0.0252957
0.0110812
0.0247547
0.00833282
0.0243823
0.00573965
0.00266123
-0.000328591
-0.01515
0.0128263
0.0260872
0.0258688
0.0571178
0.0336338
0.0665293
0.0373934
0.0643121
0.0384
0.0584739
0.0378893
0.0521468
0.036643
0.0463359
0.035086
0.0411648
0.0334444
0.0365229
0.0318379
0.0322883
0.030331
0.0283696
0.0289592
0.0247026
0.027742
0.0212417
0.0266902
0.0179528
0.025809
0.0148091
0.0251004
0.0117899
0.0245656
0.00886763
0.0241985
0.00610667
0.00282849
0.00159097
-0.0167409
0.0137729
0.0139052
0.0260061
0.0448846
0.033318
0.0592175
0.0369309
0.0606991
0.0379371
0.0574678
0.0374713
0.0526126
0.0362722
0.0475349
0.0347538
0.0426833
0.0331418
0.0381349
0.0315582
0.0338719
0.0300695
0.0298583
0.0287125
0.0260597
0.0275077
0.0224465
0.0264662
0.0189942
0.0255939
0.0156814
0.0248928
0.012491
0.0243643
0.00939613
0.0240026
0.00646836
0.00299249
0.00543995
-0.0221809
0.015952
0.00339324
0.0269069
0.0339297
0.033464
0.0526604
0.0367241
0.0574391
0.0376057
0.0565861
0.0371166
0.0531018
0.0359289
0.0487226
0.0344304
0.0441818
0.0328383
0.039727
0.0312724
0.0354378
0.029799
0.0313317
0.0284552
0.0274034
0.0272619
0.0236398
0.0262304
0.0200257
0.0253667
0.0165451
0.024673
0.0131847
0.0241509
0.00991823
0.0237945
0.00682474
0.00315301
0.0116912
-0.0338721
0.0195254
-0.00444097
0.0285437
0.0249115
0.0340359
0.0471681
0.0367491
0.0547259
0.0373968
0.0559385
0.0368225
0.0536761
0.0356124
0.0499327
0.0341157
0.0456785
0.0325338
0.0413089
0.0309802
0.0369913
0.0295192
0.0327928
0.0281869
0.0287357
0.0270041
0.0248226
0.025982
0.0210478
0.0251267
0.0174004
0.0244403
0.0138711
0.0239244
0.0104342
0.0235742
0.00717495
0.00331076
0.0625601
-0.0353414
-0.0610908
0.0672228
-0.00910368
0.0768226
0.0153117
0.0841268
0.039864
0.0874034
0.0514492
0.0875526
0.0557893
0.0856174
0.0556112
0.0825462
0.0530039
0.0789635
0.0492613
0.0752469
0.0450254
0.071623
0.0406152
0.0682257
0.0361901
0.0651333
0.031828
0.0623911
0.0275648
0.0600242
0.0234146
0.0580458
0.0193789
0.0564622
0.0154546
0.0552729
0.0116234
0.0544805
0.00796744
0.00367397
0.111852
-0.0128648
-0.134329
0.099473
0.00327527
0.0936486
0.021136
0.0919449
0.0415677
0.0902677
0.0531265
0.0878909
0.058166
0.0847691
0.0587331
0.0811527
0.0566203
0.077333
0.053081
0.0735293
0.0488291
0.0698909
0.0442537
0.0665141
0.039567
0.0634584
0.0348837
0.0607593
0.0302639
0.058437
0.025737
0.0565015
0.0213143
0.0549578
0.0169984
0.0538049
0.0127763
0.0530446
0.00872771
0.00401551
0.140544
0.0181
-0.171509
0.120643
0.0231761
0.106845
0.0349342
0.0988493
0.0495631
0.0931702
0.0588055
0.088478
0.0628583
0.084108
0.0631031
0.0798466
0.0608818
0.0757054
0.0572222
0.0717541
0.0527803
0.0680616
0.0479462
0.0646805
0.042948
0.0616468
0.0379175
0.0589825
0.0329282
0.0567001
0.0280194
0.0548056
0.0232088
0.0533012
0.0185028
0.0521851
0.0138924
0.0514586
0.00945419
0.00433566
0.157336
0.0510354
-0.190272
0.133212
0.0473003
0.115366
0.0527797
0.103588
0.061342
0.0952472
0.0671459
0.0888035
0.069302
0.0833612
0.0685453
0.0784818
0.0657612
0.074002
0.0617019
0.0698786
0.0569037
0.0661114
0.0517134
0.0627117
0.0463477
0.0596908
0.0409384
0.057056
0.035563
0.0548111
0.0302643
0.0529568
0.0250632
0.0514919
0.0199676
0.0504133
0.0149711
0.0497223
0.0101451
0.00463423
0.164195
0.0825131
-0.195673
0.139166
0.0723289
0.119941
0.0720051
0.106263
0.0750201
0.0963044
0.0771043
0.0886358
0.0769706
0.0823531
0.074828
0.0769442
0.0711701
0.0721532
0.0664929
0.0678617
0.0611953
0.0640166
0.0555585
0.0605944
0.0497699
0.0575834
0.0439494
0.0549767
0.0381697
0.0527689
0.0324721
0.050955
0.0268771
0.0495307
0.021392
0.0484907
0.0160111
0.0478368
0.010799
0.00491076
0.164714
0.11089
-0.193091
0.140641
0.0964022
0.12151
0.0911364
0.107141
0.0893889
0.0963129
0.0879323
0.0878566
0.0854269
0.0809694
0.0817152
0.0751481
0.0769914
0.0701009
0.0715402
0.0656661
0.06563
0.0617545
0.0594701
0.0583151
0.0532094
0.0553171
0.0469473
0.0527407
0.0407461
0.0505719
0.0346409
0.0488003
0.0286486
0.0474181
0.0227742
0.0464184
0.0170108
0.0458031
0.0114142
0.00516469
0.161288
0.135811
-0.186209
0.139085
0.118605
0.120827
0.109395
0.106493
0.103723
0.0953147
0.0991104
0.0864183
0.0943233
0.0791425
0.0889911
0.0730337
0.0831001
0.0678002
0.0767737
0.0632612
0.070169
0.059305
0.0634263
0.0558613
0.056653
0.0528846
0.049924
0.0503442
0.0432865
0.0482186
0.0367666
0.0464925
0.0303747
0.045155
0.0241117
0.0441975
0.0179683
0.0436223
0.0119894
0.00539536
0.155584
0.157522
-0.177295
0.135516
0.138673
0.118461
0.12645
0.104566
0.117617
0.0933884
0.110288
0.0843186
0.103393
0.0768397
0.09647
0.0705641
0.0893757
0.0652198
0.0821179
0.0606232
0.0747656
0.0566517
0.0673978
0.0532228
0.060082
0.05028
0.0528668
0.0477843
0.0457822
0.045708
0.0388428
0.0440318
0.032051
0.0427421
0.0254014
0.0418291
0.0188813
0.0412954
0.0125231
0.00560224
0.148651
0.176548
-0.167676
0.130607
0.156717
0.114827
0.14223
0.101573
0.130871
0.0906247
0.121236
0.0815811
0.112437
0.0740526
0.103998
0.0677198
0.0957086
0.0623397
0.0874981
0.0577359
0.0793693
0.0537829
0.0713508
0.0503917
0.0634733
0.0474988
0.0557597
0.0450589
0.0482221
0.0430399
0.0408619
0.0414189
0.0336719
0.0401808
0.0266396
0.0393148
0.0197472
0.0388239
0.0130141
0.00578504
0.141065
0.193462
-0.157979
0.124783
0.172999
0.110219
0.156794
0.0976886
0.143402
0.0871137
0.131811
0.0782422
0.121308
0.0707886
0.111452
0.0644949
0.102002
0.0591497
0.0928432
0.0545896
0.0839295
0.0506912
0.0752491
0.0473633
0.0668012
0.0445384
0.0585845
0.0421674
0.0505931
0.0402147
0.0428146
0.0386553
0.0352313
0.0374727
0.0278222
0.0366562
0.0205637
0.036209
0.0134613
0.0059437
0.133123
0.208781
-0.148443
0.118304
0.187818
0.104844
0.170253
0.0930542
0.155192
0.0829386
0.141927
0.0743446
0.129902
0.0670647
0.118732
0.0608929
0.108174
0.0556477
0.0980884
0.0511803
0.0883968
0.0473733
0.0790562
0.0441357
0.0700387
0.0413987
0.0613215
0.0391108
0.052881
0.0372344
0.044691
0.0357432
0.0367225
0.0346202
0.0289453
0.0338554
0.0213284
0.0334524
0.0138643
0.00607849
0.124922
0.222868
-0.139008
0.111314
0.201426
0.098841
0.182726
0.087779
0.166253
0.0781726
0.151533
0.0699311
0.138144
0.0629034
0.12576
0.0569239
0.114154
0.0518372
0.103175
0.0475094
0.0927247
0.0438297
0.0827358
0.04071
0.0731584
0.0380815
0.0639501
0.0358917
0.0550708
0.0341022
0.0464805
0.032686
0.0381387
0.0316265
0.0300048
0.030915
0.0220399
0.0305561
0.0142233
0.00619014
0.116556
0.236068
-0.129756
0.103921
0.214061
0.0923136
0.194334
0.081949
0.176618
0.0728779
0.160604
0.065043
0.145979
0.0583297
0.132473
0.0526022
0.119881
0.0477266
0.108051
0.0435818
0.0968695
0.0400645
0.0862531
0.0370901
0.0761329
0.0345908
0.0664494
0.0325145
0.0571471
0.0308224
0.0481726
0.029488
0.0394731
0.0284954
0.0309974
0.0278382
0.0226971
0.0275219
0.0145396
0.00628002
0.107822
0.248394
-0.120148
0.0960898
0.225793
0.0852953
0.205128
0.0756153
0.186298
0.0671013
0.169118
0.0597159
0.153364
0.0533684
0.13882
0.0479448
0.125305
0.0433273
0.112668
0.0394061
0.100791
0.0360847
0.0895745
0.0332822
0.0789354
0.0309328
0.0687987
0.0289853
0.0590946
0.0274014
0.0497564
0.0261552
0.0407193
0.025232
0.0319206
0.0246285
0.0233006
0.0243521
0.0148159
0.00635046
0.0992422
0.260371
-0.111219
0.0880859
0.236949
0.0779311
0.215283
0.0688649
0.195364
0.0608994
0.177084
0.0539882
0.160275
0.0480464
0.144762
0.0429707
0.13038
0.0386536
0.116985
0.0349936
0.104451
0.0318998
0.0926682
0.0292951
0.0815401
0.027116
0.0709778
0.0253124
0.0608982
0.023847
0.0512219
0.0226946
0.0418717
0.0218424
0.0327727
0.0212903
0.0238528
0.0210487
0.0150574
0.00640512
0.0892847
0.271237
-0.100151
0.0791448
0.247089
0.0698744
0.224554
0.0615602