x,y,z,p
0,0,0,0.000279611
0,0.1,0,0.000615477
0,0.2,0,0.000951343
0,0.3,0,0.00134376
0,0.4,0,0.00179273
0,0.5,0,0.00224171
0,0.6,0,0.00269308
0,0.7,0,0.00314445
0,0.8,0,0.00359752
0,0.9,0,0.00405228
0,1,0,0.00450704
0,1.1,0,0.00496596
0,1.2,0,0.00542488
0,1.3,0,0.00588613
0,1.4,0,0.00634971
0,1.5,0,0.00681329
0,1.6,0,0.00728171
0,1.7,0,0.00775013
0,1.8,0,0.00822085
0,1.9,0,0.00869388
0,2,0,0.0091669
0,2.1,0,0.00964383
0,2.2,0,0.0101208
0,2.3,0,0.010599
0,2.4,0,0.0110785
0,2.5,0,0.0115581
0,2.6,0,0.0120384
0,2.7,0,0.0125187
0,2.8,0,0.0129981
0,2.9,0,0.0134765
0,3,0,0.0139549
0,3.1,0,0.0144281
0,3.2,0,0.0149012
0,3.3,0,0.0153697
0,3.4,0,0.0158334
0,3.5,0,0.0162972
0,3.6,0,0.0167467
0,3.7,0,0.0171961
0,3.8,0,0.0176356
0,3.9,0,0.0180651
0,4,0,0.0184947
0,4.1,0,0.018898
0,4.2,0,0.0193014
0,4.3,0,0.0196884
0,4.4,0,0.0200591
0,4.5,0,0.0204297
0,4.6,0,0.020761
0,4.7,0,0.0210922
0,4.8,0,0.0213942
0,4.9,0,0.0216671
0,5,0,0.02194
0,5.1,0,0.0221947
0,5.2,0,0.0224493
0,5.3,0,0.0226434
0,5.4,0,0.0228375
0,5.5,0,0.0229839
0,5.6,0,0.0231302
0,5.7,0,0.0232268
0,5.8,0,0.0233234
0,5.9,0,0.023369
0,6,0,0.0234145
0,6.1,0,0.0234085
0,6.2,0,0.0234026
0,6.3,0,0.0233455
0,6.4,0,0.0232885
0,6.5,0,0.0231816
0,6.6,0,0.0230747
0,6.7,0,0.02292
0,6.8,0,0.0227653
0,6.9,0,0.0225432
0,7,0,0.0223211
0,7.1,0,0.0220873
0,7.2,0,0.0218535
0,7.3,0,0.0216097
0,7.4,0,0.0213089
0,7.5,0,0.0210081
0,7.6,0,0.0206944
0,7.7,0,0.0203507
0,7.8,0,0.020007
0,7.9,0,0.019648
0,8,0,0.0192702
0,8.1,0,0.0188924
0,8.2,0,0.0184992
0,8.3,0,0.0180957
0,8.4,0,0.0176923
0,8.5,0,0.0172754
0,8.6,0,0.016854
0,8.7,0,0.0164327
0,8.8,0,0.0160013
0,8.9,0,0.0155689
0,9,0,0.0151362
0,9.1,0,0.0146983
0,9.2,0,0.0142604
0,9.3,0,0.0138224
0,9.4,0,0.0133836
0,9.5,0,0.0129449
0,9.6,0,0.0125071
0,9.7,0,0.012071
0,9.8,0,0.0116349
0,9.9,0,0.0112013
0,10,0,0.0107704
0,10.1,0,0.0103394
0,10.2,0,0.00991282
0,10.3,0,0.0094886
0,10.4,0,0.00906439
0,10.5,0,0.00864627
0,10.6,0,0.00822968
0,10.7,0,0.00781308
0,10.8,0,0.00740397
0,10.9,0,0.00699526
0,11,0,0.0065873
0,11.1,0,0.00618621
0,11.2,0,0.00578511
0,11.3,0,0.00538576
0,11.4,0,0.00499163
0,11.5,0,0.00459749
0,11.6,0,0.00420574
0,11.7,0,0.00381757
0,11.8,0,0.00342941
0,11.9,0,0.00304384
0,12,0,0.0026604
0,12.1,0,0.00227696
0,12.2,0,0.00189583
0,12.3,0,0.00151568
0,12.4,0,0.00113554
0,12.5,0,0.000836825
0,12.6,0,0.000552479
0,12.7,0,0.000268133
0.1,0,0,0.000167766
0.1,0.1,0,0.000503299
0.1,0.2,0,0.000894979
0.1,0.3,0,0.00134302
0.1,0.4,0,0.00179181
0.1,0.5,0,0.00224067
0.1,0.6,0,0.00269161
0.1,0.7,0,0.00314299
0.1,0.8,0,0.00359583
0.1,0.9,0,0.00405037
0.1,1,0,0.00450525
0.1,1.1,0,0.00496372
0.1,1.2,0,0.00542275
0.1,1.3,0,0.00588391
0.1,1.4,0,0.00634729
0.1,1.5,0,0.00681118
0.1,1.6,0,0.00727929
0.1,1.7,0,0.0077479
0.1,1.8,0,0.00821874
0.1,1.9,0,0.00869168
0.1,2,0,0.00916517
0.1,2.1,0,0.00964212
0.1,2.2,0,0.0101193
0.1,2.3,0,0.0105979
0.1,2.4,0,0.0110776
0.1,2.5,0,0.0115577
0.1,2.6,0,0.0120386
0.1,2.7,0,0.0125191
0.1,2.8,0,0.0129993
0.1,2.9,0,0.0134782
0.1,3,0,0.013957
0.1,3.1,0,0.0144316
0.1,3.2,0,0.0149049
0.1,3.3,0,0.0153745
0.1,3.4,0,0.0158393
0.1,3.5,0,0.0163032
0.1,3.6,0,0.0167551
0.1,3.7,0,0.0172045
0.1,3.8,0,0.0176455
0.1,3.9,0,0.0180766
0.1,4,0,0.0185057
0.1,4.1,0,0.0189127
0.1,4.2,0,0.0193157
0.1,4.3,0,0.0197044
0.1,4.4,0,0.0200772
0.1,4.5,0,0.0204465
0.1,4.6,0,0.0207824
0.1,4.7,0,0.0211126
0.1,4.8,0,0.0214224
0.1,4.9,0,0.021704
0.1,5,0,0.0219619
0.1,5.1,0,0.0222245
0.1,5.2,0,0.0224731
0.1,5.3,0,0.022662
0.1,5.4,0,0.0228627
0.1,5.5,0,0.0230034
0.1,5.6,0,0.0231565
0.1,5.7,0,0.023247
0.1,5.8,0,0.0233504
0.1,5.9,0,0.0233895
0.1,6,0,0.0234417
0.1,6.1,0,0.0234291
0.1,6.2,0,0.0234296
0.1,6.3,0,0.0233657
0.1,6.4,0,0.0233148
0.1,6.5,0,0.0232012
0.1,6.6,0,0.0231
0.1,6.7,0,0.0229386
0.1,6.8,0,0.0227891
0.1,6.9,0,0.0225784
0.1,7,0,0.022343
0.1,7.1,0,0.0221333
0.1,7.2,0,0.0218953
0.1,7.3,0,0.02163
0.1,7.4,0,0.0213359
0.1,7.5,0,0.0210308
0.1,7.6,0,0.020712
0.1,7.7,0,0.0203727
0.1,7.8,0,0.0200242
0.1,7.9,0,0.0196623
0.1,8,0,0.0192871
0.1,8.1,0,0.0189045
0.1,8.2,0,0.0185102
0.1,8.3,0,0.018108
0.1,8.4,0,0.0177001
0.1,8.5,0,0.017283
0.1,8.6,0,0.016862
0.1,8.7,0,0.0164371
0.1,8.8,0,0.0160058
0.1,8.9,0,0.015573
0.1,9,0,0.0151381
0.1,9.1,0,0.0146999
0.1,9.2,0,0.0142616
0.1,9.3,0,0.0138224
0.1,9.4,0,0.013383
0.1,9.5,0,0.012944
0.1,9.6,0,0.0125056
0.1,9.7,0,0.0120686
0.1,9.8,0,0.0116327
0.1,9.9,0,0.0111987
0.1,10,0,0.0107669
0.1,10.1,0,0.0103365
0.1,10.2,0,0.00990931
0.1,10.3,0,0.00948441
0.1,10.4,0,0.00906124
0.1,10.5,0,0.00864224
0.1,10.6,0,0.0082253
0.1,10.7,0,0.00781001
0.1,10.8,0,0.00739974
0.1,10.9,0,0.00699111
0.1,11,0,0.00658429
0.1,11.1,0,0.00618204
0.1,11.2,0,0.00578144
0.1,11.3,0,0.00538289
0.1,11.4,0,0.0049879
0.1,11.5,0,0.00459446
0.1,11.6,0,0.0042032
0.1,11.7,0,0.00381449
0.1,11.8,0,0.00342711
0.1,11.9,0,0.0030418
0.1,12,0,0.00265809
0.1,12.1,0,0.00227544
0.1,12.2,0,0.00189446
0.1,12.3,0,0.00151424
0.1,12.4,0,0.00113479
0.1,12.5,0,0.000756307
0.1,12.6,0,0.000444776
0.1,12.7,0,0.00016088
0.2,0,0,5.59221e-05
0.2,0.1,0,0.000447269
0.2,0.2,0,0.000894431
0.2,0.3,0,0.00134247
0.2,0.4,0,0.00179096
0.2,0.5,0,0.00223963
0.2,0.6,0,0.00269057
0.2,0.7,0,0.00314153
0.2,0.8,0,0.00359437
0.2,0.9,0,0.0040488
0.2,1,0,0.00450345
0.2,1.1,0,0.00496203
0.2,1.2,0,0.00542072
0.2,1.3,0,0.00588188
0.2,1.4,0,0.00634538
0.2,1.5,0,0.00680907
0.2,1.6,0,0.00727737
0.2,1.7,0,0.00774588
0.2,1.8,0,0.00821671
0.2,1.9,0,0.00869003
0.2,2,0,0.00916343
0.2,2.1,0,0.00964064
0.2,2.2,0,0.0101181
0.2,2.3,0,0.0105967
0.2,2.4,0,0.0110771
0.2,2.5,0,0.0115573
0.2,2.6,0,0.0120384
0.2,2.7,0,0.0125198
0.2,2.8,0,0.013
0.2,2.9,0,0.0134798
0.2,3,0,0.0139591
0.2,3.1,0,0.0144339
0.2,3.2,0,0.0149088
0.2,3.3,0,0.0153784
0.2,3.4,0,0.0158443
0.2,3.5,0,0.0163092
0.2,3.6,0,0.0167611
0.2,3.7,0,0.0172129
0.2,3.8,0,0.0176539
0.2,3.9,0,0.0180861
0.2,4,0,0.0185167
0.2,4.1,0,0.0189233
0.2,4.2,0,0.0193295
0.2,4.3,0,0.0197182
0.2,4.4,0,0.0200918
0.2,4.5,0,0.0204632
0.2,4.6,0,0.0207981
0.2,4.7,0,0.0211321
0.2,4.8,0,0.0214419
0.2,4.9,0,0.0217172
0.2,5,0,0.0219838
0.2,5.1,0,0.0222438
0.2,5.2,0,0.0224969
0.2,5.3,0,0.0226895
0.2,5.4,0,0.022888
0.2,5.5,0,0.0230323
0.2,5.6,0,0.0231829
0.2,5.7,0,0.0232769
0.2,5.8,0,0.0233774
0.2,5.9,0,0.0234199
0.2,6,0,0.023469
0.2,6.1,0,0.0234595
0.2,6.2,0,0.0234566
0.2,6.3,0,0.0233957
0.2,6.4,0,0.0233412
0.2,6.5,0,0.0232301
0.2,6.6,0,0.0231253
0.2,6.7,0,0.0229662
0.2,6.8,0,0.022813
0.2,6.9,0,0.0225951
0.2,7,0,0.0223649
0.2,7.1,0,0.0221439
0.2,7.2,0,0.0219078
0.2,7.3,0,0.0216492
0.2,7.4,0,0.0213496
0.2,7.5,0,0.021046
0.2,7.6,0,0.020728
0.2,7.7,0,0.0203836
0.2,7.8,0,0.0200369
0.2,7.9,0,0.019675
0.2,8,0,0.0192952
0.2,8.1,0,0.018914
0.2,8.2,0,0.0185195
0.2,8.3,0,0.0181135
0.2,8.4,0,0.0177067
0.2,8.5,0,0.0172889
0.2,8.6,0,0.0168653
0.2,8.7,0,0.0164411
0.2,8.8,0,0.0160091
0.2,8.9,0,0.0155748
0.2,9,0,0.01514
0.2,9.1,0,0.0147012
0.2,9.2,0,0.0142619
0.2,9.3,0,0.0138226
0.2,9.4,0,0.0133829
0.2,9.5,0,0.012943
0.2,9.6,0,0.0125045
0.2,9.7,0,0.0120675
0.2,9.8,0,0.0116307
0.2,9.9,0,0.0111966
0.2,10,0,0.0107651
0.2,10.1,0,0.0103339
0.2,10.2,0,0.00990679
0.2,10.3,0,0.00948229
0.2,10.4,0,0.00905831
0.2,10.5,0,0.00863961
0.2,10.6,0,0.00822295
0.2,10.7,0,0.007807
0.2,10.8,0,0.00739725
0.2,10.9,0,0.00698863
0.2,11,0,0.00658139
0.2,11.1,0,0.00617987
0.2,11.2,0,0.00577901
0.2,11.3,0,0.00538025
0.2,11.4,0,0.00498604
0.2,11.5,0,0.00459224
0.2,11.6,0,0.00420094
0.2,11.7,0,0.003813
0.2,11.8,0,0.00342533
0.2,11.9,0,0.00304002
0.2,12,0,0.00265703
0.2,12.1,0,0.00227419
0.2,12.2,0,0.00189331
0.2,12.3,0,0.00151369
0.2,12.4,0,0.00113414
0.2,12.5,0,0.000755783
0.2,12.6,0,0.000377926
0.2,12.7,0,5.36266e-05
0.3,0,0,0
0.3,0.1,0,0.000446691
0.3,0.2,0,0.000893852
0.3,0.3,0,0.00134086
0.3,0.4,0,0.00178934
0.3,0.5,0,0.00223747
0.3,0.6,0,0.00268804
0.3,0.7,0,0.00313899
0.3,0.8,0,0.00359107
0.3,0.9,0,0.00404549
0.3,1,0,0.00449969
0.3,1.1,0,0.00495815
0.3,1.2,0,0.00541684
0.3,1.3,0,0.00587767
0.3,1.4,0,0.00634116
0.3,1.5,0,0.00680463
0.3,1.6,0,0.00727314
0.3,1.7,0,0.00774165
0.3,1.8,0,0.00821284
0.3,1.9,0,0.00868616
0.3,2,0,0.00915975
0.3,2.1,0,0.00963757
0.3,2.2,0,0.010115
0.3,2.3,0,0.010595
0.3,2.4,0,0.0110753
0.3,2.5,0,0.0115564
0.3,2.6,0,0.0120386
0.3,2.7,0,0.01252
0.3,2.8,0,0.0130026
0.3,2.9,0,0.0134824
0.3,3,0,0.0139634
0.3,3.1,0,0.0144397
0.3,3.2,0,0.0149147
0.3,3.3,0,0.0153881
0.3,3.4,0,0.015854
0.3,3.5,0,0.0163215
0.3,3.6,0,0.0167753
0.3,3.7,0,0.0172272
0.3,3.8,0,0.0176732
0.3,3.9,0,0.0181054
0.3,4,0,0.0185395
0.3,4.1,0,0.0189481
0.3,4.2,0,0.0193543
0.3,4.3,0,0.0197488
0.3,4.4,0,0.0201223
0.3,4.5,0,0.0204979
0.3,4.6,0,0.0208345
0.3,4.7,0,0.0211685
0.3,4.8,0,0.0214837
0.3,4.9,0,0.021759
0.3,5,0,0.0220295
0.3,5.1,0,0.0222898
0.3,5.2,0,0.0225465
0.3,5.3,0,0.0227386
0.3,5.4,0,0.0229407
0.3,5.5,0,0.0230841
0.3,5.6,0,0.0232379
0.3,5.7,0,0.0233305
0.3,5.8,0,0.0234339
0.3,5.9,0,0.0234744
0.3,6,0,0.0235259
0.3,6.1,0,0.023514
0.3,6.2,0,0.0235131
0.3,6.3,0,0.0234493
0.3,6.4,0,0.0233962
0.3,6.5,0,0.023282
0.3,6.6,0,0.0231781
0.3,6.7,0,0.0230155
0.3,6.8,0,0.0228628
0.3,6.9,0,0.0226413
0.3,7,0,0.0224105
0.3,7.1,0,0.0221855
0.3,7.2,0,0.0219494
0.3,7.3,0,0.021688
0.3,7.4,0,0.021385
0.3,7.5,0,0.0210813
0.3,7.6,0,0.0207588
0.3,7.7,0,0.0204122
0.3,7.8,0,0.0200654
0.3,7.9,0,0.019698
0.3,8,0,0.0193173
0.3,8.1,0,0.0189353
0.3,8.2,0,0.0185354
0.3,8.3,0,0.0181294
0.3,8.4,0,0.0177213
0.3,8.5,0,0.0172994
0.3,8.6,0,0.0168758
0.3,8.7,0,0.0164498
0.3,8.8,0,0.0160148
0.3,8.9,0,0.0155805
0.3,9,0,0.0151437
0.3,9.1,0,0.0147032
0.3,9.2,0,0.0142638
0.3,9.3,0,0.0138224
0.3,9.4,0,0.0133818
0.3,9.5,0,0.0129419
0.3,9.6,0,0.0125016
0.3,9.7,0,0.0120642
0.3,9.8,0,0.0116273
0.3,9.9,0,0.0111919
0.3,10,0,0.0107603
0.3,10.1,0,0.0103289
0.3,10.2,0,0.00990112
0.3,10.3,0,0.00947662
0.3,10.4,0,0.00905234
0.3,10.5,0,0.00863357
0.3,10.6,0,0.00821691
0.3,10.7,0,0.00780074
0.3,10.8,0,0.00739126
0.3,10.9,0,0.00698264
0.3,11,0,0.00657542
0.3,11.1,0,0.00617427
0.3,11.2,0,0.00577341
0.3,11.3,0,0.005375
0.3,11.4,0,0.00498109
0.3,11.5,0,0.00458729
0.3,11.6,0,0.00419668
0.3,11.7,0,0.00380892
0.3,11.8,0,0.00342133
0.3,11.9,0,0.00303694
0.3,12,0,0.00265398
0.3,12.1,0,0.00227136
0.3,12.2,0,0.00189139
0.3,12.3,0,0.00151177
0.3,12.4,0,0.00113264
0.3,12.5,0,0.000755098
0.3,12.6,0,0.000377241
0.3,12.7,0,0
0.4,0,0,0
0.4,0.1,0,0.00044622
0.4,0.2,0,0.000892112
0.4,0.3,0,0.00133912
0.4,0.4,0,0.00178641
0.4,0.5,0,0.00223417
0.4,0.6,0,0.00268437
0.4,0.7,0,0.00313435
0.4,0.8,0,0.00358642
0.4,0.9,0,0.00403999
0.4,1,0,0.00449396
0.4,1.1,0,0.00495219
0.4,1.2,0,0.00541037
0.4,1.3,0,0.0058712
0.4,1.4,0,0.00633442
0.4,1.5,0,0.00679786
0.4,1.6,0,0.00726639
0.4,1.7,0,0.00773512
0.4,1.8,0,0.00820632
0.4,1.9,0,0.00868026
0.4,2,0,0.00915411
0.4,2.1,0,0.0096323
0.4,2.2,0,0.010111
0.4,2.3,0,0.010591
0.4,2.4,0,0.0110732
0.4,2.5,0,0.0115549
0.4,2.6,0,0.012038
0.4,2.7,0,0.012522
0.4,2.8,0,0.0130046
0.4,2.9,0,0.0134877
0.4,3,0,0.0139698
0.4,3.1,0,0.0144476
0.4,3.2,0,0.0149266
0.4,3.3,0,0.0154001
0.4,3.4,0,0.0158709
0.4,3.5,0,0.0163401
0.4,3.6,0,0.0167959
0.4,3.7,0,0.0172534
0.4,3.8,0,0.0176994
0.4,3.9,0,0.018138
0.4,4,0,0.0185741
0.4,4.1,0,0.0189851
0.4,4.2,0,0.0193979
0.4,4.3,0,0.0197923
0.4,4.4,0,0.020173
0.4,4.5,0,0.0205506
0.4,4.6,0,0.0208898
0.4,4.7,0,0.0212301
0.4,4.8,0,0.0215453
0.4,4.9,0,0.0218332
0.4,5,0,0.0220989
0.4,5.1,0,0.022364
0.4,5.2,0,0.0226219
0.4,5.3,0,0.0228115
0.4,5.4,0,0.0230208
0.4,5.5,0,0.0231608
0.4,5.6,0,0.0233216
0.4,5.7,0,0.0234099
0.4,5.8,0,0.0235198
0.4,5.9,0,0.0235552
0.4,6,0,0.0236126
0.4,6.1,0,0.0235948
0.4,6.2,0,0.023599
0.4,6.3,0,0.0235287
0.4,6.4,0,0.02348
0.4,6.5,0,0.0233588
0.4,6.6,0,0.0232584
0.4,6.7,0,0.0230886
0.4,6.8,0,0.0229384
0.4,6.9,0,0.0227184
0.4,7,0,0.02248
0.4,7.1,0,0.0222633
0.4,7.2,0,0.0220177
0.4,7.3,0,0.0217486
0.4,7.4,0,0.0214464
0.4,7.5,0,0.021133
0.4,7.6,0,0.0208091
0.4,7.7,0,0.0204612
0.4,7.8,0,0.0201052
0.4,7.9,0,0.0197378
0.4,8,0,0.0193539
0.4,8.1,0,0.018965
0.4,8.2,0,0.0185651
0.4,8.3,0,0.0181546
0.4,8.4,0,0.0177418
0.4,8.5,0,0.0173195
0.4,8.6,0,0.016891
0.4,8.7,0,0.0164623
0.4,8.8,0,0.0160266
0.4,8.9,0,0.0155877
0.4,9,0,0.0151494
0.4,9.1,0,0.0147079
0.4,9.2,0,0.0142648
0.4,9.3,0,0.0138229
0.4,9.4,0,0.0133808
0.4,9.5,0,0.0129384
0.4,9.6,0,0.0124979
0.4,9.7,0,0.012059
0.4,9.8,0,0.0116208
0.4,9.9,0,0.0111854
0.4,10,0,0.0107523
0.4,10.1,0,0.0103205
0.4,10.2,0,0.00989264
0.4,10.3,0,0.00946701
0.4,10.4,0,0.00904302
0.4,10.5,0,0.00862398
0.4,10.6,0,0.00820689
0.4,10.7,0,0.00779118
0.4,10.8,0,0.00738137
0.4,10.9,0,0.00697305
0.4,11,0,0.00656623
0.4,11.1,0,0.00616476
0.4,11.2,0,0.00576482
0.4,11.3,0,0.00536665
0.4,11.4,0,0.00497268
0.4,11.5,0,0.00458012
0.4,11.6,0,0.00418955
0.4,11.7,0,0.0038021
0.4,11.8,0,0.0034157
0.4,11.9,0,0.00303131
0.4,12,0,0.00264908
0.4,12.1,0,0.00226744
0.4,12.2,0,0.00188753
0.4,12.3,0,0.00150904
0.4,12.4,0,0.00113058
0.4,12.5,0,0.000753248
0.4,12.6,0,0.000376776
0.4,12.7,0,0
0.5,0,0,0
0.5,0.1,0,0.000445421
0.5,0.2,0,0.000890841
0.5,0.3,0,0.00133702
0.5,0.4,0,0.00178395
0.5,0.5,0,0.00223087
0.5,0.6,0,0.00268048
0.5,0.7,0,0.00313008
0.5,0.8,0,0.00358155
0.5,0.9,0,0.00403489
0.5,1,0,0.00448823
0.5,1.1,0,0.00494618
0.5,1.2,0,0.00540413
0.5,1.3,0,0.00586471
0.5,1.4,0,0.0063279
0.5,1.5,0,0.0067911
0.5,1.6,0,0.00725985
0.5,1.7,0,0.00772859
0.5,1.8,0,0.00820007
0.5,1.9,0,0.00867427
0.5,2,0,0.00914848
0.5,2.1,0,0.00962758
0.5,2.2,0,0.0101067
0.5,2.3,0,0.0105877
0.5,2.4,0,0.0110705
0.5,2.5,0,0.0115534
0.5,2.6,0,0.0120382
0.5,2.7,0,0.0125231
0.5,2.8,0,0.0130076
0.5,2.9,0,0.013492
0.5,3,0,0.0139763
0.5,3.1,0,0.0144568
0.5,3.2,0,0.0149372
0.5,3.3,0,0.0154137
0.5,3.4,0,0.0158862
0.5,3.5,0,0.0163587
0.5,3.6,0,0.0168181
0.5,3.7,0,0.0172776
0.5,3.8,0,0.0177276
0.5,3.9,0,0.0181681
0.5,4,0,0.0186087
0.5,4.1,0,0.0190238
0.5,4.2,0,0.019439
0.5,4.3,0,0.0198379
0.5,4.4,0,0.0202206
0.5,4.5,0,0.0206033
0.5,4.6,0,0.0209463
0.5,4.7,0,0.0212892
0.5,4.8,0,0.0216022
0.5,4.9,0,0.0218853
0.5,5,0,0.0221683
0.5,5.1,0,0.0224329
0.5,5.2,0,0.0226974
0.5,5.3,0,0.0228992
0.5,5.4,0,0.023101
0.5,5.5,0,0.0232532
0.5,5.6,0,0.0234053
0.5,5.7,0,0.0235055
0.5,5.8,0,0.0236057
0.5,5.9,0,0.0236525
0.5,6,0,0.0236992
0.5,6.1,0,0.0236921
0.5,6.2,0,0.0236849
0.5,6.3,0,0.0236244
0.5,6.4,0,0.0235638
0.5,6.5,0,0.0234513
0.5,6.6,0,0.0233387
0.5,6.7,0,0.0231764
0.5,6.8,0,0.0230141
0.5,6.9,0,0.0227817
0.5,7,0,0.0225494
0.5,7.1,0,0.0223056
0.5,7.2,0,0.0220618
0.5,7.3,0,0.0218077
0.5,7.4,0,0.021495
0.5,7.5,0,0.0211822
0.5,7.6,0,0.0208566
0.5,7.7,0,0.0205007
0.5,7.8,0,0.0201449
0.5,7.9,0,0.0197739
0.5,8,0,0.0193845
0.5,8.1,0,0.018995
0.5,8.2,0,0.0185908
0.5,8.3,0,0.0181767
0.5,8.4,0,0.0177626
0.5,8.5,0,0.0173362
0.5,8.6,0,0.0169056
0.5,8.7,0,0.0164749
0.5,8.8,0,0.0160357
0.5,8.9,0,0.0155955
0.5,9,0,0.0151551
0.5,9.1,0,0.014711
0.5,9.2,0,0.0142669
0.5,9.3,0,0.013823
0.5,9.4,0,0.0133796
0.5,9.5,0,0.0129361
0.5,9.6,0,0.0124941
0.5,9.7,0,0.0120547
0.5,9.8,0,0.0116152
0.5,9.9,0,0.0111789
0.5,10,0,0.0107458
0.5,10.1,0,0.0103127
0.5,10.2,0,0.00988466
0.5,10.3,0,0.00945932
0.5,10.4,0,0.00903398
0.5,10.5,0,0.00861542
0.5,10.6,0,0.00819855
0.5,10.7,0,0.00778168
0.5,10.8,0,0.00737296
0.5,10.9,0,0.00696466
0.5,11,0,0.00655718
0.5,11.1,0,0.00615706
0.5,11.2,0,0.00575693
0.5,11.3,0,0.00535866
0.5,11.4,0,0.00496592
0.5,11.5,0,0.00457319
0.5,11.6,0,0.00418297
0.5,11.7,0,0.00379653
0.5,11.8,0,0.00341009
0.5,11.9,0,0.00302639
0.5,12,0,0.00264492
0.5,12.1,0,0.00226345
0.5,12.2,0,0.00188442
0.5,12.3,0,0.00150644
0.5,12.4,0,0.00112846
0.5,12.5,0,0.000752116
0.5,12.6,0,0.000376058
0.5,12.7,0,0
0.6,0,0,0
0.6,0.1,0,0.000443706
0.6,0.2,0,0.000888444
0.6,0.3,0,0.0013332
0.6,0.4,0,0.00177938
0.6,0.5,0,0.00222503
0.6,0.6,0,0.00267333
0.6,0.7,0,0.00312237
0.6,0.8,0,0.00357275
0.6,0.9,0,0.00402556
0.6,1,0,0.00447799
0.6,1.1,0,0.00493517
0.6,1.2,0,0.00539283
0.6,1.3,0,0.00585291
0.6,1.4,0,0.0063159
0.6,1.5,0,0.00677889
0.6,1.6,0,0.00724769
0.6,1.7,0,0.00771658
0.6,1.8,0,0.00818849
0.6,1.9,0,0.00866299
0.6,2,0,0.00913805
0.6,2.1,0,0.00961838
0.6,2.2,0,0.0100982
0.6,2.3,0,0.010581
0.6,2.4,0,0.0110648
0.6,2.5,0,0.01155
0.6,2.6,0,0.0120376
0.6,2.7,0,0.012524
0.6,2.8,0,0.013012
0.6,2.9,0,0.0134981
0.6,3,0,0.0139865
0.6,3.1,0,0.0144717
0.6,3.2,0,0.0149546
0.6,3.3,0,0.0154364
0.6,3.4,0,0.0159117
0.6,3.5,0,0.0163901
0.6,3.6,0,0.0168561
0.6,3.7,0,0.017319
0.6,3.8,0,0.017776
0.6,3.9,0,0.0182202
0.6,4,0,0.0186683
0.6,4.1,0,0.0190914
0.6,4.2,0,0.0195105
0.6,4.3,0,0.0199175
0.6,4.4,0,0.0203044
0.6,4.5,0,0.0206951
0.6,4.6,0,0.0210463
0.6,4.7,0,0.021393
0.6,4.8,0,0.0217202
0.6,4.9,0,0.0220136
0.6,5,0,0.0222901
0.6,5.1,0,0.0225635
0.6,5.2,0,0.0228301
0.6,5.3,0,0.0230255
0.6,5.4,0,0.0232422
0.6,5.5,0,0.0233863
0.6,5.6,0,0.0235529
0.6,5.7,0,0.0236434
0.6,5.8,0,0.0237573
0.6,5.9,0,0.0237928
0.6,6,0,0.0238522
0.6,6.1,0,0.0238325
0.6,6.2,0,0.0238366
0.6,6.3,0,0.0237624
0.6,6.4,0,0.0237116
0.6,6.5,0,0.0235846
0.6,6.6,0,0.0234801
0.6,6.7,0,0.023303
0.6,6.8,0,0.023147
0.6,6.9,0,0.0229183
0.6,7,0,0.0226709
0.6,7.1,0,0.0224442
0.6,7.2,0,0.0221938
0.6,7.3,0,0.0219131
0.6,7.4,0,0.0215982
0.6,7.5,0,0.0212793
0.6,7.6,0,0.0209428
0.6,7.7,0,0.0205839
0.6,7.8,0,0.0202206
0.6,7.9,0,0.0198406
0.6,8,0,0.019448
0.6,8.1,0,0.0190504
0.6,8.2,0,0.0186388
0.6,8.3,0,0.018222
0.6,8.4,0,0.0177997
0.6,8.5,0,0.0173673
0.6,8.6,0,0.0169345
0.6,8.7,0,0.0164965
0.6,8.8,0,0.0160523
0.6,8.9,0,0.0156099
0.6,9,0,0.015164
0.6,9.1,0,0.0147157
0.6,9.2,0,0.0142699
0.6,9.3,0,0.0138222
0.6,9.4,0,0.0133753
0.6,9.5,0,0.0129307
0.6,9.6,0,0.012486
0.6,9.7,0,0.0120442
0.6,9.8,0,0.0116039
0.6,9.9,0,0.0111658
0.6,10,0,0.0107311
0.6,10.1,0,0.0102977
0.6,10.2,0,0.0098684
0.6,10.3,0,0.00944217
0.6,10.4,0,0.00901723
0.6,10.5,0,0.00859775
0.6,10.6,0,0.00818054
0.6,10.7,0,0.00776466
0.6,10.8,0,0.00735525
0.6,10.9,0,0.00694714
0.6,11,0,0.00654089
0.6,11.1,0,0.00614045
0.6,11.2,0,0.00574096
0.6,11.3,0,0.00534395
0.6,11.4,0,0.0049513
0.6,11.5,0,0.00455954
0.6,11.6,0,0.0041706
0.6,11.7,0,0.00378449
0.6,11.8,0,0.00339935
0.6,11.9,0,0.00301691
0.6,12,0,0.00263589
0.6,12.1,0,0.002256
0.6,12.2,0,0.00187828
0.6,12.3,0,0.00150076
0.6,12.4,0,0.0011246
0.6,12.5,0,0.000749622
0.6,12.6,0,0.000374199
0.6,12.7,0,0
0.7,0,0,0
0.7,0.1,0,0.000443023
0.7,0.2,0,0.000885364
0.7,0.3,0,0.00133012
0.7,0.4,0,0.00177428
0.7,0.5,0,0.00221918
0.7,0.6,0,0.00266692
0.7,0.7,0,0.0031141
0.7,0.8,0,0.00356448
0.7,0.9,0,0.00401585
0.7,1,0,0.00446775
0.7,1.1,0,0.00492464
0.7,1.2,0,0.00538123
0.7,1.3,0,0.0058413
0.7,1.4,0,0.00630389
0.7,1.5,0,0.00676669
0.7,1.6,0,0.00723562
0.7,1.7,0,0.0077047
0.7,1.8,0,0.00817661
0.7,1.9,0,0.00865226
0.7,2,0,0.00912761
0.7,2.1,0,0.00960871
0.7,2.2,0,0.0100906
0.7,2.3,0,0.0105733
0.7,2.4,0,0.0110604
0.7,2.5,0,0.0115465
0.7,2.6,0,0.0120357
0.7,2.7,0,0.0125265
0.7,2.8,0,0.0130145
0.7,2.9,0,0.0135066
0.7,3,0,0.0139968
0.7,3.1,0,0.0144844
0.7,3.2,0,0.0149746
0.7,3.3,0,0.0154564
0.7,3.4,0,0.0159404
0.7,3.5,0,0.0164216
0.7,3.6,0,0.016891
0.7,3.7,0,0.0173637
0.7,3.8,0,0.0178208
0.7,3.9,0,0.0182762
0.7,4,0,0.0187279
0.7,4.1,0,0.019155
0.7,4.2,0,0.019586
0.7,4.3,0,0.019993
0.7,4.4,0,0.020392
0.7,4.5,0,0.0207868
0.7,4.6,0,0.0211418
0.7,4.7,0,0.0215007
0.7,4.8,0,0.0218279
0.7,4.9,0,0.022125
0.7,5,0,0.0224118
0.7,5.1,0,0.022689
0.7,5.2,0,0.0229628
0.7,5.3,0,0.0231678
0.7,5.4,0,0.0233835
0.7,5.5,0,0.0235364
0.7,5.6,0,0.0237005
0.7,5.7,0,0.0237989
0.7,5.8,0,0.0239089
0.7,5.9,0,0.0239511
0.7,6,0,0.0240052
0.7,6.1,0,0.0239908
0.7,6.2,0,0.0239883
0.7,6.3,0,0.023918
0.7,6.4,0,0.0238594
0.7,6.5,0,0.0237348
0.7,6.6,0,0.0236216
0.7,6.7,0,0.0234455
0.7,6.8,0,0.02328
0.7,6.9,0,0.0230409
0.7,7,0,0.0227925
0.7,7.1,0,0.0225525
0.7,7.2,0,0.0222948
0.7,7.3,0,0.0220189
0.7,7.4,0,0.0216959
0.7,7.5,0,0.021367
0.7,7.6,0,0.0210302
0.7,7.7,0,0.0206614
0.7,7.8,0,0.0202893
0.7,7.9,0,0.0199093
0.7,8,0,0.0195056
0.7,8.1,0,0.0191013
0.7,8.2,0,0.0186894
0.7,8.3,0,0.0182612
0.7,8.4,0,0.0178345
0.7,8.5,0,0.0174008
0.7,8.6,0,0.0169578
0.7,8.7,0,0.0165172
0.7,8.8,0,0.0160712
0.7,8.9,0,0.0156208
0.7,9,0,0.0151731
0.7,9.1,0,0.014723
0.7,9.2,0,0.0142708
0.7,9.3,0,0.013822
0.7,9.4,0,0.0133734
0.7,9.5,0,0.0129239
0.7,9.6,0,0.0124789
0.7,9.7,0,0.0120354
0.7,9.8,0,0.0115919
0.7,9.9,0,0.0111538
0.7,10,0,0.0107179
0.7,10.1,0,0.0102826
0.7,10.2,0,0.00985334
0.7,10.3,0,0.00942662
0.7,10.4,0,0.00900056
0.7,10.5,0,0.00858131
0.7,10.6,0,0.00816417
0.7,10.7,0,0.00774768
0.7,10.8,0,0.00733881
0.7,10.9,0,0.00693114
0.7,11,0,0.00652463
0.7,11.1,0,0.00612507
0.7,11.2,0,0.00572629
0.7,11.3,0,0.00532923
0.7,11.4,0,0.00493782
0.7,11.5,0,0.00454698
0.7,11.6,0,0.00415804
0.7,11.7,0,0.00377361
0.7,11.8,0,0.00338945
0.7,11.9,0,0.00300701
0.7,12,0,0.00262815
0.7,12.1,0,0.00224912
0.7,12.2,0,0.00187163
0.7,12.3,0,0.00149654
0.7,12.4,0,0.00112101
0.7,12.5,0,0.000746553
0.7,12.6,0,0.000373644
0.7,12.7,0,0
0.8,0,0,0
0.8,0.1,0,0.000441042
0.8,0.2,0,0.000883383
0.8,0.3,0,0.00132455
0.8,0.4,0,0.00176871
0.8,0.5,0,0.00221193
0.8,0.6,0,0.00265813
0.8,0.7,0,0.00310531
0.8,0.8,0,0.00355293
0.8,0.9,0,0.0040043
0.8,1,0,0.00445498
0.8,1.1,0,0.00491097
0.8,1.2,0,0.00536755
0.8,1.3,0,0.00582633
0.8,1.4,0,0.00628893
0.8,1.5,0,0.00675131
0.8,1.6,0,0.00722038
0.8,1.7,0,0.00768945
0.8,1.8,0,0.00816232
0.8,1.9,0,0.00863797
0.8,2,0,0.00911415
0.8,2.1,0,0.00959686
0.8,2.2,0,0.0100787
0.8,2.3,0,0.0105656
0.8,2.4,0,0.0110527
0.8,2.5,0,0.0115413
0.8,2.6,0,0.0120341
0.8,2.7,0,0.0125249
0.8,2.8,0,0.0130211
0.8,2.9,0,0.0135132
0.8,3,0,0.014008
0.8,3.1,0,0.0145016
0.8,3.2,0,0.0149917
0.8,3.3,0,0.0154864
0.8,3.4,0,0.0159705
0.8,3.5,0,0.0164586
0.8,3.6,0,0.0169363
0.8,3.7,0,0.017409
0.8,3.8,0,0.0178834
0.8,3.9,0,0.0183388
0.8,4,0,0.0187994
0.8,4.1,0,0.0192365
0.8,4.2,0,0.0196675
0.8,4.3,0,0.0200945
0.8,4.4,0,0.0204934
0.8,4.5,0,0.0208981
0.8,4.6,0,0.0212634
0.8,4.7,0,0.0216222
0.8,4.8,0,0.0219685
0.8,4.9,0,0.0222657
0.8,5,0,0.0225604
0.8,5.1,0,0.0228451
0.8,5.2,0,0.0231252
0.8,5.3,0,0.0233357
0.8,5.4,0,0.0235565
0.8,5.5,0,0.0237136
0.8,5.6,0,0.0238816
0.8,5.7,0,0.0239826
0.8,5.8,0,0.0240949
0.8,5.9,0,0.0241381
0.8,6,0,0.024193
0.8,6.1,0,0.0241779
0.8,6.2,0,0.0241745
0.8,6.3,0,0.0241019
0.8,6.4,0,0.0240407
0.8,6.5,0,0.0239123
0.8,6.6,0,0.0237949
0.8,6.7,0,0.0236137
0.8,6.8,0,0.0234427
0.8,6.9,0,0.0231974
0.8,7,0,0.022941
0.8,7.1,0,0.0226923
0.8,7.2,0,0.0224347
0.8,7.3,0,0.0221447
0.8,7.4,0,0.0218135
0.8,7.5,0,0.0214846
0.8,7.6,0,0.0211301
0.8,7.7,0,0.020756
0.8,7.8,0,0.0203834
0.8,7.9,0,0.0199836
0.8,8,0,0.0195775
0.8,8.1,0,0.01917
0.8,8.2,0,0.0187405
0.8,8.3,0,0.0183122
0.8,8.4,0,0.01788
0.8,8.5,0,0.0174333
0.8,8.6,0,0.0169904
0.8,8.7,0,0.0165428
0.8,8.8,0,0.0160881
0.8,8.9,0,0.0156377
0.8,9,0,0.0151825
0.8,9.1,0,0.0147272
0.8,9.2,0,0.014275
0.8,9.3,0,0.0138193
0.8,9.4,0,0.0133679
0.8,9.5,0,0.0129184
0.8,9.6,0,0.0124674
0.8,9.7,0,0.0120228
0.8,9.8,0,0.0115789
0.8,9.9,0,0.0111367
0.8,10,0,0.0107006
0.8,10.1,0,0.0102647
0.8,10.2,0,0.00983331
0.8,10.3,0,0.00940659
0.8,10.4,0,0.00898002
0.8,10.5,0,0.00856026
0.8,10.6,0,0.00814312
0.8,10.7,0,0.0077266
0.8,10.8,0,0.00731813
0.8,10.9,0,0.00691046
0.8,11,0,0.00650468
0.8,11.1,0,0.00610587
0.8,11.2,0,0.00570709
0.8,11.3,0,0.00531163
0.8,11.4,0,0.00492095
0.8,11.5,0,0.00453012
0.8,11.6,0,0.00414371
0.8,11.7,0,0.00375975
0.8,11.8,0,0.00337594
0.8,11.9,0,0.0029966
0.8,12,0,0.0026178
0.8,12.1,0,0.00223967
0.8,12.2,0,0.00186516
0.8,12.3,0,0.00149007
0.8,12.4,0,0.00111607
0.8,12.5,0,0.000744268
0.8,12.6,0,0.000371359
0.8,12.7,0,0
0.9,0,0,0
0.9,0.1,0,0.000439742
0.9,0.2,0,0.000878842
0.9,0.3,0,0.00132001
0.9,0.4,0,0.00176099
0.9,0.5,0,0.00220327
0.9,0.6,0,0.0026485
0.9,0.7,0,0.00309301
0.9,0.8,0,0.00354063
0.9,0.9,0,0.00398968
0.9,1,0,0.00443968
0.9,1.1,0,0.00489506
0.9,1.2,0,0.0053501
0.9,1.3,0,0.00580888
0.9,1.4,0,0.00627059
0.9,1.5,0,0.00673277
0.9,1.6,0,0.00720182
0.9,1.7,0,0.00767113
0.9,1.8,0,0.00814401
0.9,1.9,0,0.00862095
0.9,2,0,0.00909764
0.9,2.1,0,0.0095812
0.9,2.2,0,0.0100659
0.9,2.3,0,0.0105528
0.9,2.4,0,0.0110442
0.9,2.5,0,0.0115343
0.9,2.6,0,0.0120291
0.9,2.7,0,0.0125262
0.9,2.8,0,0.0130224
0.9,2.9,0,0.0135227
0.9,3,0,0.0140203
0.9,3.1,0,0.0145172
0.9,3.2,0,0.0150177
0.9,3.3,0,0.0155124
0.9,3.4,0,0.0160089
0.9,3.5,0,0.0165012
0.9,3.6,0,0.0169837
0.9,3.7,0,0.0174709
0.9,3.8,0,0.0179453
0.9,3.9,0,0.018417
0.9,4,0,0.018883
0.9,4.1,0,0.019326
0.9,4.2,0,0.0197743
0.9,4.3,0,0.0202013
0.9,4.4,0,0.0206186
0.9,4.5,0,0.021029
0.9,4.6,0,0.0214006
0.9,4.7,0,0.0217768
0.9,4.8,0,0.0221231
0.9,4.9,0,0.0224436
0.9,5,0,0.022736
0.9,5.1,0,0.0230313
0.9,5.2,0,0.0233172
0.9,5.3,0,0.0235291
0.9,5.4,0,0.0237614
0.9,5.5,0,0.0239179
0.9,5.6,0,0.0240962
0.9,5.7,0,0.0241944
0.9,5.8,0,0.0243155
0.9,5.9,0,0.0243539
0.9,6,0,0.0244156
0.9,6.1,0,0.0243938
0.9,6.2,0,0.0243952
0.9,6.3,0,0.0243139
0.9,6.4,0,0.0242555
0.9,6.5,0,0.0241168
0.9,6.6,0,0.0240002
0.9,6.7,0,0.0238074
0.9,6.8,0,0.0236352
0.9,6.9,0,0.0233869
0.9,7,0,0.0231163
0.9,7.1,0,0.0228744
0.9,7.2,0,0.0225967
0.9,7.3,0,0.0222965
0.9,7.4,0,0.0219618
0.9,7.5,0,0.0216115
0.9,7.6,0,0.0212546
0.9,7.7,0,0.0208725
0.9,7.8,0,0.0204805
0.9,7.9,0,0.0200806
0.9,8,0,0.0196629
0.9,8.1,0,0.019241
0.9,8.2,0,0.0188112
0.9,8.3,0,0.0183691
0.9,8.4,0,0.0179276
0.9,8.5,0,0.0174794
0.9,8.6,0,0.017023
0.9,8.7,0,0.0165701
0.9,8.8,0,0.0161131
0.9,8.9,0,0.0156512
0.9,9,0,0.0151933
0.9,9.1,0,0.014735
0.9,9.2,0,0.0142739
0.9,9.3,0,0.013817
0.9,9.4,0,0.0133622
0.9,9.5,0,0.0129066
0.9,9.6,0,0.0124554
0.9,9.7,0,0.0120072
0.9,9.8,0,0.0115601
0.9,9.9,0,0.0111179
0.9,10,0,0.0106788
0.9,10.1,0,0.0102417
0.9,10.2,0,0.00981016
0.9,10.3,0,0.00938148
0.9,10.4,0,0.00895504
0.9,10.5,0,0.00853497
0.9,10.6,0,0.00811736
0.9,10.7,0,0.00770142
0.9,10.8,0,0.00729268
0.9,10.9,0,0.00688592
0.9,11,0,0.00648072
0.9,11.1,0,0.00608187
0.9,11.2,0,0.0056851
0.9,11.3,0,0.00529003
0.9,11.4,0,0.00489992
0.9,11.5,0,0.00451169
0.9,11.6,0,0.00412535
0.9,11.7,0,0.00374282
0.9,11.8,0,0.00336151
0.9,11.9,0,0.00298217
0.9,12,0,0.00260572
0.9,12.1,0,0.00222967
0.9,12.2,0,0.00185538
0.9,12.3,0,0.00148336
0.9,12.4,0,0.00111087
0.9,12.5,0,0.000739587
0.9,12.6,0,0.00037019
0.9,12.7,0,0
1,0,0,0
1,0.1,0,0.0004378
1,0.2,0,0.0008756
1,0.3,0,0.00131452
1,0.4,0,0.00175456
1,0.5,0,0.00219461
1,0.6,0,0.00263815
1,0.7,0,0.00308169
1,0.8,0,0.00352764
1,0.9,0,0.00397601
1,1,0,0.00442438
1,1.1,0,0.00487882
1,1.2,0,0.00533325
1,1.3,0,0.00579122
1,1.4,0,0.00625272
1,1.5,0,0.00671423
1,1.6,0,0.00718353
1,1.7,0,0.00765283
1,1.8,0,0.00812621
1,1.9,0,0.00860368
1,2,0,0.00908114
1,2.1,0,0.00956667
1,2.2,0,0.0100522
1,2.3,0,0.0105414
1,2.4,0,0.0110344
1,2.5,0,0.0115273
1,2.6,0,0.0120264
1,2.7,0,0.0125255
1,2.8,0,0.0130265
1,2.9,0,0.0135295
1,3,0,0.0140325
1,3.1,0,0.0145364
1,3.2,0,0.0150403
1,3.3,0,0.0155426
1,3.4,0,0.0160432
1,3.5,0,0.0165438
1,3.6,0,0.0170359
1,3.7,0,0.0175279
1,3.8,0,0.0180125
1,3.9,0,0.0184895
1,4,0,0.0189665
1,4.1,0,0.0194208
1,4.2,0,0.0198751
1,4.3,0,0.0203138
1,4.4,0,0.0207369
1,4.5,0,0.0211599
1,4.6,0,0.0215424
1,4.7,0,0.021925
1,4.8,0,0.0222753
1,4.9,0,0.0225934
1,5,0,0.0229116
1,5.1,0,0.0232104
1,5.2,0,0.0235093
1,5.3,0,0.0237378
1,5.4,0,0.0239663
1,5.5,0,0.0241385
1,5.6,0,0.0243107
1,5.7,0,0.0244234
1,5.8,0,0.0245361
1,5.9,0,0.0245872
1,6,0,0.0246383
1,6.1,0,0.0246271
1,6.2,0,0.0246159
1,6.3,0,0.0245431
1,6.4,0,0.0244703
1,6.5,0,0.0243378
1,6.6,0,0.0242054
1,6.7,0,0.0240165
1,6.8,0,0.0238277
1,6.9,0,0.0235597
1,7,0,0.0232917
1,7.1,0,0.0230134
1,7.2,0,0.022735
1,7.3,0,0.0224455
1,7.4,0,0.0220927
1,7.5,0,0.0217399
1,7.6,0,0.021374
1,7.7,0,0.0209777
1,7.8,0,0.0205815
1,7.9,0,0.020171
1,8,0,0.0197431
1,8.1,0,0.0193152
1,8.2,0,0.0188748
1,8.3,0,0.018426
1,8.4,0,0.0179772
1,8.5,0,0.0175195
1,8.6,0,0.0170589
1,8.7,0,0.0165982
1,8.8,0,0.0161337
1,8.9,0,0.0156687
1,9,0,0.0152037
1,9.1,0,0.0147401
1,9.2,0,0.0142765
1,9.3,0,0.0138139
1,9.4,0,0.0133559
1,9.5,0,0.0128978
1,9.6,0,0.0124426
1,9.7,0,0.011993
1,9.8,0,0.0115433
1,9.9,0,0.0110988
1,10,0,0.0106593
1,10.1,0,0.0102198
1,10.2,0,0.00978745
1,10.3,0,0.00935898
1,10.4,0,0.0089305
1,10.5,0,0.00851095
1,10.6,0,0.00809362
1,10.7,0,0.0076763
1,10.8,0,0.00726917
1,10.9,0,0.00686257
1,11,0,0.00645697
1,11.1,0,0.00606026
1,11.2,0,0.00566355
1,11.3,0,0.00526903
1,11.4,0,0.00488105
1,11.5,0,0.00449306
1,11.6,0,0.00410801
1,11.7,0,0.00372734
1,11.8,0,0.00334667
1,11.9,0,0.00296915
1,12,0,0.00259421
1,12.1,0,0.00221927
1,12.2,0,0.00184718
1,12.3,0,0.00147631
1,12.4,0,0.00110543
1,12.5,0,0.000736703
1,12.6,0,0.000368351
1,12.7,0,0
1.1,0,0,0
1.1,0.1,0,0.000434194
1.1,0.2,0,0.000870712
1.1,0.3,0,0.00130681
1.1,0.4,0,0.00174531
1.1,0.5,0,0.0021828
1.1,0.6,0,0.00262363
1.1,0.7,0,0.003066
1.1,0.8,0,0.00350963
1.1,0.9,0,0.00395685
1.1,1,0,0.00440327
1.1,1.1,0,0.00485594
1.1,1.2,0,0.00530966
1.1,1.3,0,0.00576638
1.1,1.4,0,0.00622734
1.1,1.5,0,0.00668808
1.1,1.6,0,0.00715716
1.1,1.7,0,0.00762648
1.1,1.8,0,0.0081003
1.1,1.9,0,0.00857816
1.1,2,0,0.00905666
1.1,2.1,0,0.00954424
1.1,2.2,0,0.0100309
1.1,2.3,0,0.0105229
1.1,2.4,0,0.0110176
1.1,2.5,0,0.0115142
1.1,2.6,0,0.0120184
1.1,2.7,0,0.01252
1.1,2.8,0,0.0130272
1.1,2.9,0,0.0135337
1.1,3,0,0.0140435
1.1,3.1,0,0.0145565
1.1,3.2,0,0.0150647
1.1,3.3,0,0.0155768
1.1,3.4,0,0.0160831
1.1,3.5,0,0.0165941
1.1,3.6,0,0.0170996
1.1,3.7,0,0.0175977
1.1,3.8,0,0.0180959
1.1,3.9,0,0.0185806
1.1,4,0,0.0190711
1.1,4.1,0,0.0195423
1.1,4.2,0,0.0200039
1.1,4.3,0,0.0204588
1.1,4.4,0,0.0208909
1.1,4.5,0,0.0213286
1.1,4.6,0,0.0217295
1.1,4.7,0,0.0221191
1.1,4.8,0,0.0224926
1.1,4.9,0,0.0228269
1.1,5,0,0.0231418
1.1,5.1,0,0.0234585
1.1,5.2,0,0.0237623
1.1,5.3,0,0.02399
1.1,5.4,0,0.0242373
1.1,5.5,0,0.0244057
1.1,5.6,0,0.0245952
1.1,5.7,0,0.0247011
1.1,5.8,0,0.024829
1.1,5.9,0,0.0248702
1.1,6,0,0.0249341
1.1,6.1,0,0.0249102
1.1,6.2,0,0.024909
1.1,6.3,0,0.024821
1.1,6.4,0,0.0247552
1.1,6.5,0,0.0246055
1.1,6.6,0,0.024477
1.1,6.7,0,0.0242694
1.1,6.8,0,0.0240814
1.1,6.9,0,0.0238154
1.1,7,0,0.0235217
1.1,7.1,0,0.0232585
1.1,7.2,0,0.0229696
1.1,7.3,0,0.0226418
1.1,7.4,0,0.0222801
1.1,7.5,0,0.0219168
1.1,7.6,0,0.021531
1.1,7.7,0,0.0211256
1.1,7.8,0,0.0207165
1.1,7.9,0,0.0202888
1.1,8,0,0.0198529
1.1,8.1,0,0.0194109
1.1,8.2,0,0.0189561
1.1,8.3,0,0.0185011
1.1,8.4,0,0.0180382
1.1,8.5,0,0.0175686
1.1,8.6,0,0.0171033
1.1,8.7,0,0.0166301
1.1,8.8,0,0.0161559
1.1,8.9,0,0.0156868
1.1,9,0,0.0152125
1.1,9.1,0,0.014741
1.1,9.2,0,0.0142744
1.1,9.3,0,0.0138053
1.1,9.4,0,0.0133412
1.1,9.5,0,0.0128811
1.1,9.6,0,0.0124214
1.1,9.7,0,0.0119679
1.1,9.8,0,0.0115168
1.1,9.9,0,0.0110693
1.1,10,0,0.0106275
1.1,10.1,0,0.0101875
1.1,10.2,0,0.00975332
1.1,10.3,0,0.00932366