/*--------------------------------*- C++ -*----------------------------------*\
| =========                 |                                                 |
| \\      /  F ield         | OpenFOAM: The Open Source CFD Toolbox           |
|  \\    /   O peration     | Version:  v1806                                 |
|   \\  /    A nd           | Web:      www.OpenFOAM.com                      |
|    \\/     M anipulation  |                                                 |
\*---------------------------------------------------------------------------*/
FoamFile
{
    version     2.0;
    format      ascii;
    class       surfaceScalarField;
    location    "70";
    object      phi;
}
// * * * * * * * * * * * * * * * * * * * * * * * * * * * * * * * * * * * * * //

dimensions      [0 3 -1 0 0 0 0];
oriented        oriented;


internalField   nonuniform List<scalar> 
15538
(
-1.69908e-07
-0.07234
0.0601344
0.0292864
-0.0170806
1.09304e-07
-0.0723752
0.0601323
0.0292905
-0.0170479
-1.09297e-07
-0.0723786
0.0601326
0.0292929
-0.0170468
1.69916e-07
-0.0723752
0.0601323
0.0292905
-0.0170479
-0.07234
0.0601344
0.0292864
-0.0170806
-1.00271e-07
-0.0581181
-0.04907
0.0348481
6.73604e-08
-0.0581749
-0.0490731
0.0348726
-6.73606e-08
-0.0581838
-0.0490741
0.0348794
1.00286e-07
-0.0581749
-0.0490731
0.0348726
-0.0581181
-0.04907
0.0348481
8.2057e-07
-0.0396007
-0.0401866
0.0216684
2.84706e-08
-0.0396225
-0.0402036
0.021652
-2.84707e-08
-0.039626
-0.0402048
0.021647
-8.20566e-07
-0.0396225
-0.0402036
0.021652
-0.0396007
-0.0401866
0.0216684
-8.48431e-07
0.0470854
-0.00167487
-0.0448939
-0.000515839
-1.72838e-08
0.0470495
-0.00167045
-0.0448729
-0.000506977
1.73231e-08
0.0470459
-0.00167008
-0.0448704
-0.000505465
8.48454e-07
0.0470495
-0.00167045
-0.0448729
-0.000506977
0.0470854
-0.00167487
-0.0448939
-0.000515839
-7.15054e-07
-0.00513816
0.029427
0.0227973
6.97107e-09
-0.00513497
0.0294006
0.0227832
-6.96221e-09
-0.00513492
0.0293979
0.0227829
7.15061e-07
-0.00513497
0.0294006
0.0227832
-0.00513816
0.029427
0.0227973
-7.50102e-07
-0.0407014
0.0333336
0.00223042
1.31509e-08
-0.040677
0.0333074
0.00223385
-1.3148e-08
-0.0406743
0.0333052
0.00223428
7.50105e-07
-0.040677
0.0333074
0.00223385
-0.0407014
0.0333336
0.00223042
-5.96114e-07
0.00396567
-0.0463414
-1.48553e-08
0.00397018
-0.0463182
1.48743e-08
0.0039712
-0.0463156
5.96127e-07
0.00397018
-0.0463182
0.00396567
-0.0463414
-4.84996e-07
-0.00153392
0.00401465
0.0466292
-0.0491094
-4.06187e-08
-0.00154307
0.0040179
0.0466241
-0.0490994
4.07609e-08
-0.00154446
0.00401926
0.0466224
-0.0490973
4.85045e-07
-0.00154307
0.0040179
0.0466241
-0.0490994
-0.00153392
0.00401465
0.0466292
-0.0491094
-6.21844e-07
0.00134074
-0.0477679
-4.20214e-08
0.00133299
-0.0477496
4.21466e-08
0.00133226
-0.0477472
6.21895e-07
0.00133299
-0.0477496
0.00134074
-0.0477679
1.32428e-07
-0.000104675
0.0399413
-0.0431482
0.00331139
3.01608e-07
-6.3997e-05
0.0399607
-0.0432083
0.00331151
-3.01456e-07
-5.4188e-05
0.0399647
-0.0432173
0.0033074
-1.32328e-07
-6.39969e-05
0.0399607
-0.0432083
0.00331151
-0.000104675
0.0399413
-0.0431482
0.00331139
-4.05595e-07
0.0380445
-0.0471182
0.00896941
1.23802e-07
0.0380726
-0.0471433
0.00900613
-1.23256e-07
0.0380784
-0.0471451
0.00901275
4.05696e-07
0.0380726
-0.0471433
0.00900613
0.0380445
-0.0471182
0.00896941
9.51668e-07
0.0127719
0.0401179
-0.0148462
1.27528e-07
0.0128032
0.0401233
-0.0148531
-1.25923e-07
0.0128037
0.0401271
-0.0148523
-9.5196e-07
0.0128032
0.0401233
-0.0148531
0.0127719
0.0401179
-0.0148462
1.53758e-06
0.0461845
0.00652717
1.66827e-07
0.046175
0.00659018
-1.66318e-07
0.046177
0.00659173
-1.53743e-06
0.046175
0.00659018
0.0461845
0.00652717
-1.19765e-08
-0.001015
3.81877e-05
0.000976824
-3.18629e-08
-0.00101016
3.95586e-05
0.000970619
3.19026e-08
-0.00100934
3.97426e-05
0.000969534
1.19974e-08
-0.00101016
3.95586e-05
0.000970619
-0.001015
3.81876e-05
0.000976824
6.90486e-09
-0.000473481
-0.000541525
-1.33613e-08
-0.000474334
-0.000535804
1.33915e-08
-0.000473976
-0.000535391
-6.90505e-09
-0.000474334
-0.000535804
-0.000473481
-0.000541525
-3.10066e-08
0.000648305
-0.00126793
0.000146171
-9.0465e-09
0.000646203
-0.00126437
0.000143808
9.12253e-09
0.000646224
-0.00126393
0.00014371
3.10126e-08
0.000646203
-0.00126437
0.000143808
0.000648305
-0.00126793
0.000146171
-3.56633e-09
0.000427943
-0.000551137
0.00120869
-0.00108549
-9.28134e-09
0.000429769
-0.000550493
0.00120801
-0.00108728
9.3079e-09
0.000429915
-0.000550396
0.00120797
-0.0010875
3.57278e-09
0.000429769
-0.000550493
0.00120801
-0.00108728
0.000427943
-0.000551137
0.00120869
-0.00108549
-4.02889e-09
-0.000701843
0.00105473
7.50591e-05
-1.29179e-08
-0.000701624
0.00105292
7.84843e-05
1.29553e-08
-0.000701493
0.0010527
7.86777e-05
4.038e-09
-0.000701624
0.00105292
7.84842e-05
-0.000701843
0.00105473
7.5059e-05
-2.16029e-08
-0.00109318
-0.00015978
-8.08516e-09
-0.00109415
-0.000157976
8.14245e-09
-0.00109403
-0.000157871
2.16004e-08
-0.00109415
-0.000157976
-0.00109318
-0.00015978
-1.99147e-06
-0.0207397
-0.0182927
0.021789
0.0172454
3.60248e-07
-0.0206982
-0.0181821
0.0218266
0.0170513
-3.60238e-07
-0.0206978
-0.0181744
0.0218314
0.0170415
1.99148e-06
-0.0206982
-0.0181821
0.0218266
0.0170513
-0.0207397
-0.0182927
0.021789
0.0172454
-1.44585e-06
-0.0165393
-0.0252659
0.0210669
2.10149e-07
-0.0164964
-0.0252255
0.021022
-2.10147e-07
-0.0164953
-0.0252242
0.0210222
1.44585e-06
-0.0164964
-0.0252255
0.021022
-0.0165393
-0.0252659
0.0210669
-7.12029e-07
0.0170118
-0.017293
-0.0162574
6.86294e-08
0.0169967
-0.0172607
-0.0162331
-6.86278e-08
0.0169954
-0.0172589
-0.0162317
7.12031e-07
0.0169967
-0.0172607
-0.0162331
0.0170118
-0.017293
-0.0162574
-1.17706e-06
-0.0237774
0.0224977
1.4201e-07
-0.0237054
0.0225187
-1.41998e-07
-0.0237001
0.0225214
1.17707e-06
-0.0237054
0.0225187
-0.0237774
0.0224977
-2.87025e-09
-0.000706579
0.000322043
0.00120281
-0.000818275
-7.94331e-09
-0.000706384
0.000323551
0.00120263
-0.000819792
7.95753e-09
-0.000706386
0.000323703
0.0012027
-0.000820036
2.86589e-09
-0.000706384
0.000323551
0.00120263
-0.000819792
-0.000706579
0.000322043
0.00120281
-0.000818276
-1.78545e-08
0.000664189
-0.00115522
-0.000215529
-9.15536e-09
0.00066438
-0.00115739
-0.000213383
9.13393e-09
0.000664338
-0.00115749
-0.000213249
1.78492e-08
0.00066438
-0.00115739
-0.000213383
0.000664189
-0.00115522
-0.000215529
-1.40361e-08
0.000950544
3.57025e-05
-1.32734e-08
0.000949148
3.87823e-05
1.33206e-08
0.000949068
3.89464e-05
1.40528e-08
0.000949148
3.87823e-05
0.000950544
3.57025e-05
1.07604e-06
0.0333835
0.00925761
-0.0405228
-0.00211944
3.76196e-08
0.0333526
0.00922763
-0.040507
-0.00207218
-3.76195e-08
0.0333462
0.00922789
-0.0405026
-0.00207138
-1.07605e-06
0.0333526
0.00922763
-0.040507
-0.00207218
0.0333835
0.00925761
-0.0405228
-0.00211944
3.88873e-07
-0.0271619
0.0464031
0.014142
6.6583e-09
-0.027174
0.046381
0.014146
-6.65093e-09
-0.0271719
0.0463771
0.0141411
-3.88861e-07
-0.027174
0.046381
0.014146
-0.0271619
0.0464031
0.014142
8.35234e-07
-0.0517215
0.0338163
2.87726e-08
-0.05175
0.0338044
-2.87741e-08
-0.0517509
0.0338069
-8.35238e-07
-0.05175
0.0338044
-0.0517215
0.0338163
2.96299e-07
0.0114198
0.0214424
-0.0309455
-0.00191703
-3.03914e-08
0.011389
0.0214116
-0.0309191
-0.00188108
3.03939e-08
0.0113854
0.0214063
-0.0309139
-0.00187784
-2.96298e-07
0.011389
0.0214116
-0.0309191
-0.00188108
0.0114198
0.0214424
-0.0309455
-0.00191703
2.12181e-07
0.0174909
-0.0427359
0.0366646
-1.63943e-08
0.0174972
-0.0427491
0.036641
1.63972e-08
0.0174974
-0.0427499
0.0366379
-2.12182e-07
0.0174972
-0.0427491
0.036641
0.0174909
-0.0427359
0.0366646
-3.15848e-07
0.040053
-0.00111938
-3.25667e-08
0.0399997
-0.00109117
3.25682e-08
0.0399912
-0.00108758
3.15857e-07
0.0399997
-0.00109117
0.040053
-0.00111938
-6.01134e-07
-0.0393228
0.0546086
0.0106484
-0.0259337
-1.14338e-08
-0.0393236
0.0545941
0.0106252
-0.0258963
1.14394e-08
-0.0393227
0.0545937
0.010622
-0.0258931
6.01141e-07
-0.0393236
0.0545941
0.0106252
-0.0258963
-0.0393228
0.0546086
0.0106484
-0.0259337
-3.61949e-07
-0.057897
0.00340726
0.0151673
-2.79697e-08
-0.0578984
0.00339616
0.0151784
2.80356e-08
-0.0578969
0.00339435
0.0151798
3.61965e-07
-0.0578984
0.00339616
0.0151784
-0.057897
0.00340726
0.0151673
-4.01662e-07
-0.000999912
-0.052882
-4.0515e-08
-0.000992145
-0.0528887
4.08314e-08
-0.00099032
-0.0528874
4.01635e-07
-0.000992145
-0.0528887
-0.000999912
-0.052882
-1.03696e-08
-0.00111471
0.000400427
0.00118183
-0.000467536
-1.10195e-08
-0.0011142
0.000400387
0.00118167
-0.000467849
1.10286e-08
-0.00111417
0.000400415
0.0011817
-0.000467959
1.03711e-08
-0.0011142
0.000400387
0.00118167
-0.000467849
-0.00111471
0.000400427
0.00118183
-0.000467536
-1.40715e-08
-0.00116425
0.000613198
-0.000563638
-1.30015e-08
-0.00116312
0.000613165
-0.000564246
1.30229e-08
-0.00116299
0.000613195
-0.000564403
1.40832e-08
-0.00116312
0.000613164
-0.000564246
-0.00116425
0.000613198
-0.000563638
-1.04e-08
0.000318158
-0.0014017
0.00130147
-0.000217915
-9.96807e-09
0.0003183
-0.00140134
0.00130127
-0.000218233
9.99972e-09
0.000318421
-0.00140144
0.00130139
-0.000218389
1.04088e-08
0.0003183
-0.00140134
0.00130127
-0.000218233
0.000318158
-0.0014017
0.00130147
-0.000217915
-1.64227e-08
0.00050448
-0.00123083
0.00104452
-1.02542e-08
0.000504786
-0.00123088
0.00104439
1.0268e-08
0.000504922
-0.00123097
0.00104445
1.64333e-08
0.000504786
-0.00123088
0.00104439
0.00050448
-0.00123083
0.00104452
-1.74531e-08
0.000680849
-0.000405915
-0.000316175
4.12586e-05
-1.20025e-08
0.000680359
-0.000405426
-0.000315885
4.09468e-05
1.19728e-08
0.000680357
-0.000405352
-0.000315903
4.08736e-05
1.7452e-08
0.000680359
-0.000405426
-0.000315885
4.09468e-05
0.000680849
-0.000405915
-0.000316175
4.12585e-05
-8.68676e-09
0.000847308
9.30563e-05
-0.000259506
-1.1542e-08
0.000847182
9.2567e-05
-0.000259387
1.14955e-08
0.000847199
9.24874e-05
-0.000259353
8.66864e-09
0.000847182
9.2567e-05
-0.000259387
0.000847308
9.30562e-05
-0.000259506
-1.90619e-08
0.000503269
-0.000612772
-1.48456e-08
0.000503644
-0.000613852
1.48935e-08
0.000503734
-0.00061405
1.9084e-08
0.000503643
-0.000613852
0.000503269
-0.000612772
-8.53508e-09
0.00048314
-0.000385778
-2.16882e-08
0.000482276
-0.000384046
2.16745e-08
0.000482228
-0.00038389
8.51739e-09
0.000482276
-0.000384046
0.00048314
-0.000385778
-1.16587e-08
8.64112e-05
0.00101272
-0.000251814
-9.67873e-09
8.62576e-05
0.0010126
-0.000251675
9.61927e-09
8.6213e-05
0.00101263
-0.000251659
1.16346e-08
8.62576e-05
0.0010126
-0.000251674
8.64111e-05
0.00101272
-0.000251814
-7.78372e-09
0.000354033
-0.00035774
-0.00031246
-1.52488e-08
0.000353426
-0.000358215
-0.000311089
1.52382e-08
0.000353382
-0.00035837
-0.000310945
7.77486e-09
0.000353426
-0.000358215
-0.000311089
0.000354033
-0.00035774
-0.00031246
-1.3758e-09
0.000803243
-0.000407951
-9.16277e-09
0.000803014
-0.000408633
9.15024e-09
0.000803056
-0.000408818
1.36853e-09
0.000803014
-0.000408633
0.000803243
-0.000407951
-1.23671e-08
0.00113325
-0.000236938
-1.22329e-08
0.0011328
-0.000237215
1.21946e-08
0.00113286
-0.000237346
1.23559e-08
0.0011328
-0.000237215
0.00113325
-0.000236938
-3.10997e-10
0.000621204
0.000598458
-7.0112e-09
0.000620772
0.000598288
6.98339e-09
0.000620738
0.000598325
2.9765e-10
0.000620772
0.000598288
0.000621204
0.000598458
-1.12861e-08
0.000134048
0.000991648
-7.77558e-09
0.000134279
0.000991276
7.75212e-09
0.000134351
0.000991294
1.1281e-08
0.000134279
0.000991276
0.000134048
0.000991648
-9.77378e-09
-0.000272982
0.0010055
-6.71183e-09
-0.000272704
0.00100527
6.66898e-09
-0.000272641
0.0010053
9.75846e-09
-0.000272703
0.00100527
-0.000272982
0.0010055
-1.11634e-08
-0.00021976
0.000959511
-9.34294e-09
-0.000219509
0.0009594
9.27364e-09
-0.000219482
0.000959448
1.11214e-08
-0.000219509
0.0009594
-0.00021976
0.000959511
-1.51822e-08
0.000990016
-0.000397197
-1.38077e-08
0.0009895
-0.000398569
1.38522e-08
0.000989508
-0.000398838
1.51928e-08
0.0009895
-0.000398569
0.000990016
-0.000397197
-6.09873e-09
-0.000985455
-0.000299424
0.00106513
-9.24601e-09
-0.000984779
-0.000299364
0.00106464
9.21969e-09
-0.00098478
-0.000299381
0.00106466
6.07254e-09
-0.000984779
-0.000299364
0.00106464
-0.000985455
-0.000299424
0.00106513
-4.43333e-09
-0.000836837
-1.0691e-08
-0.000836061
1.06621e-08
-0.000836045
4.42862e-09
-0.000836061
-0.000836837
-5.3655e-09
-1.24255e-08
1.2406e-08
5.35642e-09
-1.96684e-08
0.00105675
-0.00047467
-1.23398e-08
0.00105652
-0.000475661
1.23748e-08
0.00105658
-0.000475916
1.96823e-08
0.00105652
-0.000475661
0.00105675
-0.00047467
-1.18266e-08
-0.000410998
-1.19378e-08
-0.000411575
1.19586e-08
-0.000411761
1.18281e-08
-0.000411575
-0.000410998
-9.79759e-09
0.00118982
-0.000307409
-9.7235e-09
0.00118974
-0.000307442
9.73772e-09
0.0011898
-0.000307501
9.81438e-09
0.00118974
-0.000307442
0.00118982
-0.000307409
-7.20963e-09
0.000201649
-0.000178731
0.00116691
-8.24926e-09
0.000201768
-0.000178783
0.00116676
8.28772e-09
0.000201791
-0.000178826
0.00116681
7.21511e-09
0.000201768
-0.000178783
0.00116676
0.000201649
-0.000178731
0.00116691
-6.27679e-09
0.000156593
0.00111019
-8.19347e-09
0.000156568
0.00110984
8.20514e-09
0.000156569
0.00110987
6.28745e-09
0.000156568
0.00110984
0.000156593
0.00111019
-7.19918e-09
4.66216e-05
0.00106949
-7.83359e-09
4.66536e-05
0.00106932
7.8052e-09
4.66371e-05
0.00106936
7.20253e-09
4.66535e-05
0.00106932
4.66215e-05
0.00106949
-4.56079e-09
-1.36379e-05
0.00106576
-7.57287e-09
-1.37229e-05
0.00106565
7.53059e-09
-1.37727e-05
0.0010657
4.5377e-09
-1.3723e-05
0.00106565
-1.3638e-05
0.00106576
-4.22608e-09
-8.89317e-05
0.00106695
-7.85546e-09
-8.92675e-05
0.00106682
7.82893e-09
-8.93732e-05
0.00106688
4.2027e-09
-8.92676e-05
0.00106682
-8.89318e-05
0.00106695
-7.05078e-09
-0.000165278
0.00112087
-8.70185e-09
-0.000165697
0.00112082
8.70203e-09
-0.000165842
0.0011209
7.04612e-09
-0.000165697
0.00112082
-0.000165278
0.00112087
-7.14881e-09
0.00139445
-0.000588821
-1.03388e-08
0.00139412
-0.000590053
1.03861e-08
0.0013942
-0.000590354
7.16652e-09
0.00139412
-0.000590053
0.00139445
-0.000588821
-7.79254e-09
0.00141351
-0.000493724
-1.08166e-08
0.00141298
-0.000494517
1.087e-08
0.00141304
-0.000494775
7.81786e-09
0.00141298
-0.000494517
0.00141351
-0.000493724
-7.60076e-09
-0.000399181
-1.12803e-08
-0.000399938
1.13304e-08
-0.000400185
7.63252e-09
-0.000399938
-0.000399181
-9.28655e-09
0.00122117
-8.49726e-05
-9.17321e-09
0.00122104
-8.54615e-05
9.2021e-09
0.00122113
-8.56082e-05
9.30315e-09
0.00122104
-8.54615e-05
0.00122117
-8.49728e-05
-7.6281e-09
0.00143723
-0.0014157
-0.000585159
-1.12462e-08
0.00143664
-0.00141508
-0.0005858
1.12637e-08
0.00143668
-0.00141509
-0.000586009
7.63332e-09
0.00143664
-0.00141508
-0.0005858
0.00143723
-0.0014157
-0.000585159
-6.9763e-09
0.00140457
-0.00043487
-1.0958e-08
0.00140406
-0.000435265
1.09645e-08
0.00140411
-0.000435414
6.97629e-09
0.00140406
-0.000435265
0.00140457
-0.00043487
-5.7908e-09
0.00133793
-0.000240759
-9.57682e-09
0.00133756
-0.000240938
9.58487e-09
0.00133762
-0.000241027
5.80112e-09
0.00133756
-0.000240938
0.00133793
-0.000240759
-5.21982e-09
0.00127155
-0.000112354
-8.23469e-09
0.0012713
-0.000112522
8.25842e-09
0.00127136
-0.000112585
5.23603e-09
0.0012713
-0.000112522
0.00127155
-0.000112354
-5.20525e-09
7.2633e-05
-9.00267e-06
0.00120793
-7.08314e-09
7.27067e-05
-9.14567e-06
0.00120774
7.11522e-09
7.27341e-05
-9.1871e-06
0.0012078
5.19043e-09
7.27066e-05
-9.14567e-06
0.00120774
7.26329e-05
-9.00267e-06
0.00120793
-6.07362e-09
7.5648e-05
0.0011639
-7.16475e-09
7.56885e-05
0.00116378
7.22392e-09
7.56994e-05
0.00116383
6.08651e-09
7.56884e-05
0.00116378
7.56479e-05
0.0011639
-5.70907e-09
7.75308e-05
0.00110831
-7.0937e-09
7.7439e-05
0.00110809
7.12803e-09
7.74224e-05
0.00110813
5.74833e-09
7.74389e-05
0.00110809
7.75307e-05
0.00110831
-6.96328e-09
5.57164e-05
0.00109131
-7.13677e-09
5.55791e-05
0.00109118
7.1221e-09
5.55451e-05
0.00109123
6.97263e-09
5.55791e-05
0.00109118
5.57163e-05
0.00109131
-7.14562e-09
3.26223e-05
0.00108886
-7.19855e-09
3.24568e-05
0.00108877
7.16056e-09
3.24091e-05
0.00108882
7.12062e-09
3.24568e-05
0.00108877
3.26222e-05
0.00108886
-8.06467e-09
-1.5422e-05
0.001115
-7.26857e-09
-1.56172e-05
0.0011149
7.24424e-09
-1.56799e-05
0.00111495
8.04325e-09
-1.56172e-05
0.0011149
-1.54221e-05
0.001115
-8.53331e-09
-1.71436e-05
0.0011226
-7.33143e-09
-1.73044e-05
0.00112251
7.33418e-09
-1.73746e-05
0.00112258
8.53413e-09
-1.73044e-05
0.00112251
-1.71437e-05
0.0011226
-7.9633e-09
3.44182e-05
0.00116962
-7.41302e-09
3.41501e-05
0.00116958
7.43207e-09
3.40673e-05
0.00116968
7.97668e-09
3.415e-05
0.00116958
3.44181e-05
0.00116962
-1.17688e-08
-0.000819771
-1.1448e-08
-0.000820926
1.14722e-08
-0.000821201
1.17691e-08
-0.000820926
-0.000819771
-8.61434e-09
-0.0013137
0.00119225
0.000155869
-7.33115e-09
-0.00131377
0.00119231
0.000155604
7.34574e-09
-0.00131392
0.00119243
0.000155538
8.62456e-09
-0.00131377
0.00119231
0.000155604
-0.0013137
0.00119225
0.000155869
-1.17262e-08
-0.00148742
8.8765e-05
-9.28552e-09
-0.00148781
8.85797e-05
9.31054e-09
-0.00148804
8.84965e-05
1.17411e-08
-0.00148781
8.85796e-05
-0.00148742
8.87649e-05
-1.3523e-08
-0.00166833
-3.69957e-05
-1.14126e-08
-0.00166874
-3.7306e-05
1.1443e-08
-0.00166903
-3.74223e-05
1.35423e-08
-0.00166874
-3.73061e-05
-0.00166833
-3.69959e-05
-2.04154e-08
-0.00181798
-0.000249506
-1.22286e-08
-0.00181874
-0.000249947
1.2246e-08
-0.00181913
-0.000250111
2.04267e-08
-0.00181874
-0.000249947
-0.00181798
-0.000249506
-2.61964e-08
-0.00181171
-0.000499973
-1.09949e-08
-0.00181264
-0.000500625
1.09854e-08
-0.00181308
-0.00050084
2.61847e-08
-0.00181264
-0.000500625
-0.00181171
-0.000499973
-3.15752e-08
-0.00160134
-0.000799157
-7.70373e-09
-0.00160269
-0.00080003
7.65995e-09
-0.00160317
-0.000800281
3.15352e-08
-0.00160269
-0.00080003
-0.00160134
-0.000799158
-2.53568e-08
0.00180648
-0.00169657
-0.000929654
-1.12803e-08
0.00180673
-0.00169727
-0.000930402
1.12818e-08
0.00180699
-0.0016976
-0.000930613
2.53493e-08
0.00180673
-0.00169727
-0.000930402
0.00180648
-0.00169657
-0.000929654
-1.83884e-08
0.00179194
-0.000570601
-1.2401e-08
0.00179192
-0.000570996
1.23832e-08
0.00179212
-0.000571162
1.83774e-08
0.00179192
-0.000570996
0.00179194
-0.000570601
-1.38874e-08
0.00165316
-0.000296077
-1.18453e-08
0.00165303
-0.000296375
1.17988e-08
0.00165318
-0.000296499
1.38661e-08
0.00165303
-0.000296375
0.00165316
-0.000296077
-8.61022e-09
0.00151772
-0.000105308
-1.01167e-08
0.0015176
-0.000105508
1.00605e-08
0.00151772
-0.000105585
8.57978e-09
0.0015176
-0.000105508
0.00151772
-0.000105308
-6.54121e-09
0.00136979
3.55744e-05
-8.45654e-09
0.0013697
3.53781e-05
8.40413e-09
0.0013698
3.53187e-05
6.50469e-09
0.0013697
3.53781e-05
0.00136979
3.55744e-05
-5.96887e-09
0.0012748
8.59929e-05
-6.97191e-09
0.00127471
8.58411e-05
6.93433e-09
0.00127479
8.58032e-05
5.9515e-09
0.00127471
8.58411e-05
0.0012748
8.59929e-05
-4.69602e-09
-7.78121e-05
0.000160546
0.00119207
-5.73827e-09
-7.7695e-05
0.000160384
0.00119203
5.70618e-09
-7.7674e-05
0.000160363
0.00119209
4.64922e-09
-7.7695e-05
0.000160384
0.00119203
-7.78121e-05
0.000160546
0.00119207
-4.71767e-09
-2.03775e-05
0.0011505
-5.81023e-09
-2.0339e-05
0.00115039
5.83666e-09
-2.03262e-05
0.00115044
4.68985e-09
-2.0339e-05
0.00115039
-2.03775e-05
0.0011505
-5.39964e-09
9.19468e-06
0.00113433
-6.07563e-09
9.20217e-06
0.00113424
6.13184e-09
9.20607e-06
0.00113429
5.44056e-09
9.20212e-06
0.00113424
9.19457e-06
0.00113433
-5.2494e-09
2.52396e-05
0.00109227
-6.0546e-09
2.51732e-05
0.00109212
6.07139e-09
2.51614e-05
0.00109216
5.2841e-09
2.51731e-05
0.00109212
2.52395e-05
0.00109227
-5.71634e-09
2.86339e-05
0.00108792
-6.17958e-09
2.8534e-05
0.00108782
6.15319e-09
2.8512e-05
0.00108786
5.70668e-09
2.8534e-05
0.00108782
2.86338e-05
0.00108792
-5.84776e-09
1.78901e-05
0.00109961
-6.13128e-09
1.77767e-05
0.00109953
6.10006e-09
1.77437e-05
0.00109958
5.81977e-09
1.77767e-05
0.00109953
1.789e-05
0.00109961
-6.01781e-09
4.00031e-05
0.00109289
-6.02267e-09
3.98663e-05
0.00109281
6.01254e-09
3.98216e-05
0.00109286
6.00408e-09
3.98662e-05
0.00109281
4.0003e-05
0.00109289
-6.39172e-09
7.30838e-05
0.00108953
-5.95177e-09
7.28904e-05
0.00108948
5.96201e-09
7.28388e-05
0.00108955
6.39774e-09
7.28904e-05
0.00108948
7.30837e-05
0.00108953
-6.57954e-09
0.00013101
0.0011117
-5.98082e-09
0.000130773
0.0011117
5.99804e-09
0.00013072
0.00111178
6.59376e-09
0.000130773
0.0011117
0.00013101
0.0011117
-3.40269e-08
-0.00135899
-0.00142304
-7.35272e-09
-0.0013605
-0.00142408
7.41527e-09
-0.00136084
-0.00142427
3.40371e-08
-0.0013605
-0.00142408
-0.00135899
-0.00142304
-6.83007e-09
0.00112523
0.000198043
-5.84753e-09
0.00112529
0.000197797
5.85989e-09
0.00112539
0.000197753
6.84303e-09
0.00112529
0.000197796
0.00112523
0.000198043
-4.18033e-07
0.000822121
0.00887337
-0.0269881
3.30109e-08
0.000815779
0.00887632
-0.0269532
-3.30116e-08
0.000815161
0.00887706
-0.0269511
4.18034e-07
0.00081578
0.00887632
-0.0269532
0.000822121
0.00887337
-0.0269881
-5.41465e-07
0.0109039
-0.0263386
3.24822e-08
0.01089
-0.0263079
-3.24843e-08
0.0108885
-0.0263049
5.41464e-07
0.01089
-0.0263079
0.0109039
-0.0263386
-1.00668e-06
-0.0277117
0.0128087
5.14952e-08
-0.0276794
0.0128492
-5.1491e-08
-0.027677
0.0128541
1.00668e-06
-0.0276794
0.0128492
-0.0277117
0.0128087
-9.28315e-07
-0.0254842
0.0111231
9.79683e-08
-0.0254443
0.0111078
-9.79722e-08
-0.0254418
0.0111062
9.28315e-07
-0.0254443
0.0111078
-0.0254842
0.0111231
-7.7041e-07
0.00167816
0.00617198
4.81355e-08
0.00167966
0.00618261
-4.81392e-08
0.0016793
0.00618415
7.7041e-07
0.00167966
0.00618261
0.00167816
0.00617198
-5.38931e-07
0.00476708
2.23625e-08
0.00477173
-2.23667e-08
0.00477233
5.3893e-07
0.00477173
0.00476708
-3.85343e-07
-0.00199167
-0.020229
1.87892e-08
-0.00197676
-0.0202052
-1.87913e-08
-0.00197525
-0.0202035
3.85343e-07
-0.00197676
-0.0202052
-0.00199167
-0.020229
-4.427e-07
-0.023457
-0.00624598
1.45534e-08
-0.0234438
-0.00621283
-1.45535e-08
-0.0234425
-0.00620967
4.42702e-07
-0.0234438
-0.00621283
-0.023457
-0.00624598
-4.61912e-07
-0.0208882
1.43985e-08
-0.0208662
-1.4397e-08
-0.0208631
4.61912e-07
-0.0208662
-0.0208882
-1.68079e-06
-0.0272613
0.0206529
0.0177332
1.41817e-07
-0.0272064
0.0205566
0.0177558
-1.4182e-07
-0.0272013
0.0205502
0.0177577
1.68079e-06
-0.0272064
0.0205566
0.0177558
-0.0272613
0.0206529
0.0177332
-1.03383e-06
-0.0350354
0.0139472
5.15423e-08
-0.0349962
0.0139712
-5.15424e-08
-0.0349922
0.0139751
1.03383e-06
-0.0349962
0.0139712
-0.0350354
0.0139472
-9.11024e-07
-0.0413214
0.00851735
9.13328e-09
-0.0412888
0.00852561
-9.12829e-09
-0.0412852
0.00852736
9.11029e-07
-0.0412888
0.00852561
-0.0413214
0.00851735
-2.48171e-06
0.0156986
0.0260237
4.86029e-07
0.0158074
0.0257683
-4.8603e-07
0.0158167
0.0257566
2.48171e-06
0.0158074
0.0257683
0.0156986
0.0260237
-4.54383e-07
0.0308244
-0.0350427
0.0170275
5.37667e-08
0.0308271
-0.0350456
0.0170673
-5.37496e-08
0.0308272
-0.0350462
0.0170732
4.54397e-07
0.0308271
-0.0350456
0.0170673
0.0308244
-0.0350427
0.0170275
-3.85103e-07
0.0297873
0.0235352
1.59437e-07
0.0297706
0.0235746
-1.59375e-07
0.0297703
0.0235786
3.85136e-07
0.0297706
0.0235746
0.0297873
0.0235352
6.2551e-07
0.00842746
3.17833e-07
0.0083891
-3.1779e-07
0.00838507
-6.25477e-07
0.0083891
0.00842746
-2.66088e-07
-0.00200617
-0.0392823
1.41108e-08
-0.00198795
-0.0392708
-1.41051e-08
-0.00198565
-0.0392702
2.66093e-07
-0.00198795
-0.0392708
-0.00200617
-0.0392823
-1.97389e-07
0.0417651
0.0108375
-2.55477e-09
0.0417685
0.0108374
2.56032e-09
0.0417684
0.0108397
1.97394e-07
0.0417685
0.0108374
0.0417651
0.0108375
-6.23963e-07
0.0398106
0.0189827
2.37234e-08
0.039816
0.0190192
-2.36792e-08
0.0398157
0.0190259
6.23991e-07
0.039816
0.0190192
0.0398106
0.0189827
-6.22848e-07
0.0162282
9.00989e-08
0.0162466
-8.99191e-08
0.0162494
6.22932e-07
0.0162466
0.0162282
-6.86185e-07
-0.0495214
1.26013e-08
-0.0495125
-1.25887e-08
-0.0495112
6.86189e-07
-0.0495125
-0.0495214
-7.85422e-07
-1.69076e-08
1.69564e-08
7.85446e-07
-7.10997e-07
0.00766002
-0.0450151
-1.63072e-08
0.00767056
-0.0449899
1.63289e-08
0.00767294
-0.044987
7.11009e-07
0.00767056
-0.0449899
0.00766002
-0.0450151
-4.02179e-08
-0.00113066
-0.00128892
-7.53864e-09
-0.00113301
-0.00128951
7.35302e-09
-0.00113352
-0.0012897
4.01501e-08
-0.00113301
-0.00128951
-0.00113066
-0.00128892
-6.55143e-07
-0.0364003
0.0382734
0.0158607
9.15417e-08
-0.036398
0.0382577
0.0158954
-9.15379e-08
-0.036397
0.0382553
0.0158996
6.55145e-07
-0.036398
0.0382577
0.0158954
-0.0364003
0.0382734
0.0158607
-3.74212e-07
-0.0379728
0.01552
4.77808e-08
-0.0379643
0.0155371
-4.77752e-08
-0.0379624
0.0155405
3.74216e-07
-0.0379643
0.0155371
-0.0379728
0.01552
-6.27471e-07
-0.0415128
0.0120579
1.7533e-08
-0.0415055
0.0120662
-1.75267e-08
-0.0415039
0.0120689
6.27477e-07
-0.0415055
0.0120662
-0.0415128
0.0120579
-5.13309e-07
-0.0455683
0.0117161
-9.63696e-09
-0.0455558
0.0117203
9.64265e-09
-0.0455534
0.0117225
5.13317e-07
-0.0455558
0.0117203
-0.0455683
0.0117161
-2.0367e-07
0.0376822
0.0162901
1.48496e-07
0.0377252
0.0163395
-1.48493e-07
0.0377282
0.0163441
2.03675e-07
0.0377252
0.0163395
0.0376822
0.0162901
-5.50487e-08
-0.00191434
-0.000537775
-8.54565e-09
-0.00191403
-0.000540669
7.81496e-09
-0.001914
-0.000540895
5.48563e-08
-0.00191403
-0.000540669
-0.00191434
-0.000537775
-6.7304e-07
0.0028606
-0.0478606
-3.67272e-08
0.00285912
-0.047845
3.67746e-08
0.00285933
-0.0478428
6.73077e-07
0.00285912
-0.047845
0.0028606
-0.0478606
-6.89191e-07
0.00669913
-0.0488529
-3.79031e-08
0.00670379
-0.0488352
3.7984e-08
0.00670519
-0.0488329
6.8922e-07
0.00670379
-0.0488352
0.00669913
-0.0488529
-6.41286e-07
0.0100372
-0.0489057
-3.65489e-08
0.0100467
-0.0488993
3.65278e-08
0.010049
-0.0488974
6.41302e-07
0.0100467
-0.0488993
0.0100372
-0.0489057
-6.41565e-08
-0.001806
-0.000479821
-9.19093e-09
-0.00180674
-0.000483709
9.90365e-09
-0.00180695
-0.000484088
6.4306e-08
-0.00180674
-0.000483709
-0.001806
-0.000479821
-2.24922e-09
0.00246057
-0.00253906
-0.00134454
-7.60251e-09
0.00246142
-0.00254088
-0.00134461
7.62249e-09
0.0024618
-0.00254134
-0.00134475
2.27846e-09
0.00246142
-0.00254088
-0.00134461
0.00246057
-0.00253906
-0.00134454
-4.90649e-09
0.00241794
-0.000887017
-8.32837e-09
0.00241816
-0.00088713
8.3281e-09
0.00241846
-0.000887285
4.90278e-09
0.00241816
-0.00088713
0.00241794
-0.000887017
-2.00838e-10
0.00220765
-0.000360311
-8.07972e-09
0.00220761
-0.000360443
8.08166e-09
0.00220784
-0.000360555
2.04775e-10
0.00220761
-0.000360443
0.00220765
-0.000360311
4.0065e-10
0.00196865
-5.70751e-05
-8.13987e-09
0.0019685
-5.7251e-05
8.133e-09
0.00196865
-5.73288e-05
-3.76365e-10
0.0019685
-5.72509e-05
0.00196865
-5.7075e-05
-2.14385e-09
0.00174247
0.000120875
-8.07234e-09
0.0017423
0.000120699
8.053e-09
0.00174242
0.000120631
2.17167e-09
0.0017423
0.000120699
0.00174247
0.000120875
-3.35936e-09
0.00156104
0.000217002
-7.54926e-09
0.00156089
0.000216783
7.5185e-09
0.001561
0.000216721
3.37935e-09
0.00156089
0.000216784
0.00156104
0.000217002
-4.55349e-09
0.00137351
0.000273529
-6.57773e-09
0.00137345
0.000273291
6.52622e-09
0.00137353
0.000273258
4.56669e-09
0.00137345
0.000273291
0.00137351
0.000273529
-4.33487e-09
0.00121653
0.000317536
-5.45984e-09
0.00121649
0.000317346
5.39588e-09
0.00121656
0.000317329
4.34287e-09
0.00121649
0.000317346
0.00121653
0.000317536
-3.6056e-09
-0.000221721
0.000341574
0.00109668
-4.39228e-09
-0.000221587
0.000341427
0.00109665
4.33929e-09
-0.000221577
0.000341419
0.0010967
3.5909e-09
-0.000221587
0.000341427
0.00109665
-0.000221721
0.000341574
0.00109668
-3.99267e-09
-0.000140016
0.00111037
-4.68822e-09
-0.000139902
0.00111034
4.66823e-09
-0.000139891
0.0011104
3.96635e-09
-0.000139902
0.00111034
-0.000140016
0.00111037
-4.08112e-09
-8.65608e-05
0.00109705
-4.81197e-09
-8.64955e-05
0.00109698
4.84024e-09
-8.64903e-05
0.00109703
4.10546e-09
-8.64955e-05
0.00109698
-8.65608e-05
0.00109705
-4.4814e-09
-3.71805e-05
0.00108496
-5.07197e-09
-3.7145e-05
0.00108489
5.0907e-09
-3.71444e-05
0.00108493
4.51789e-09
-3.7145e-05
0.00108489
-3.71806e-05
0.00108496
-4.49081e-09
-1.53069e-05
0.0010704
-5.18401e-09
-1.53295e-05
0.00107031
5.16519e-09
-1.53389e-05
0.00107035
4.49189e-09
-1.53295e-05
0.00107031
-1.5307e-05
0.0010704
-4.68975e-09
8.35355e-06
0.00106427
-5.32395e-09
8.2994e-06
0.00106419
5.29126e-09
8.28244e-06
0.00106423
4.66314e-09
8.2994e-06
0.00106419
8.35356e-06
0.00106427
-4.62622e-09
4.10499e-05
0.00106692
-5.335e-09
4.09615e-05
0.00106687
5.31952e-09
4.09357e-05
0.00106691
4.60411e-09
4.09614e-05
0.00106687
4.10499e-05
0.00106692
-4.8891e-09
7.73942e-05
0.00105655
-5.23392e-09
7.72707e-05
0.0010565
5.24137e-09
7.72366e-05
0.00105655
4.88783e-09
7.72707e-05
0.0010565
7.73941e-05
0.00105655
-5.48394e-09
0.000112453
0.00105448
-5.09177e-09
0.000112279
0.00105447
5.10999e-09
0.000112243
0.00105454
5.49661e-09
0.000112279
0.00105447
0.000112453
0.00105448
-5.45581e-09
0.000161866
0.00106229
-4.96617e-09
0.000161675
0.00106231
4.98048e-09
0.000161641
0.00106238
5.46927e-09
0.000161675
0.00106231
0.000161866
0.00106229
-5.58278e-09
0.000229586
0.00105751
-4.79476e-09
0.000229403
0.00105756
4.79983e-09
0.000229378
0.00105764
5.5914e-09
0.000229403
0.00105756
0.000229586
0.00105751
-5.12439e-09
-0.00110584
0.000268975
0.00106645
-4.52351e-09
-0.00110589
0.000268777
0.00106652
4.52303e-09
-0.00110599
0.000268757
0.00106661
5.12603e-09
-0.00110589
0.000268777
0.00106652
-0.00110584
0.000268975
0.00106645
-6.47165e-09
-0.00121217
0.000304382
-5.37845e-09
-0.00121223
0.000304136
5.38231e-09
-0.00121236
0.000304104
6.46956e-09
-0.00121223
0.000304136
-0.00121217
0.000304382
-7.43252e-09
-0.00136202
0.000305722
-6.5737e-09
-0.00136203
0.000305398
6.57687e-09
-0.00136218
0.000305349
7.43224e-09
-0.00136203
0.000305398
-0.00136202
0.000305722
-7.23863e-09
-0.00166667
0.00039343
-8.02375e-09
-0.0016668
0.000393355
8.01905e-09
-0.00166699
0.000393296
7.24111e-09
-0.0016668
0.000393355
-0.00166667
0.00039343
-7.10863e-09
-0.00193471
0.000231044
-9.58064e-09
-0.0019348
0.000230693
9.55917e-09
-0.00193503
0.000230593
7.10043e-09
-0.0019348
0.000230693
-0.00193471