x,y,z,U_0,U_1,U_2
0,0,0,2.99579,-0.108379,0
0,0.1,0,2.99747,-0.0650276,0
0,0.2,0,2.99916,-0.0216759,0
0,0.3,0,3,0,0
0,0.4,0,3,0,0
0,0.5,0,3,0,0
0,0.6,0,3,0,0
0,0.7,0,3,0,0
0,0.8,0,3,0,0
0,0.9,0,3,0,0
0,1,0,3,0,0
0,1.1,0,3,0,0
0,1.2,0,3,0,0
0,1.3,0,3,0,0
0,1.4,0,3,0,0
0,1.5,0,3,0,0
0,1.6,0,3,0,0
0,1.7,0,3,0,0
0,1.8,0,3,0,0
0,1.9,0,3,0,0
0,2,0,3,0,0
0,2.1,0,3,0,0
0,2.2,0,3,0,0
0,2.3,0,3,0,0
0,2.4,0,3,0,0
0,2.5,0,3,0,0
0,2.6,0,3,0,0
0,2.7,0,3,0,0
0,2.8,0,3,0,0
0,2.9,0,3,0,0
0,3,0,3,0,0
0,3.1,0,3,0,0
0,3.2,0,3,0,0
0,3.3,0,3,0,0
0,3.4,0,3,0,0
0,3.5,0,3,0,0
0,3.6,0,3,0,0
0,3.7,0,3,0,0
0,3.8,0,3,0,0
0,3.9,0,3,0,0
0,4,0,3,0,0
0,4.1,0,3,0,0
0,4.2,0,3,0,0
0,4.3,0,3,0,0
0,4.4,0,3,0,0
0,4.5,0,3,0,0
0,4.6,0,3,0,0
0,4.7,0,3,0,0
0,4.8,0,3,0,0
0,4.9,0,3,0,0
0,5,0,3,0,0
0,5.1,0,3,0,0
0,5.2,0,3,0,0
0,5.3,0,3,0,0
0,5.4,0,3,0,0
0,5.5,0,3,0,0
0,5.6,0,3,0,0
0,5.7,0,3,0,0
0,5.8,0,3,0,0
0,5.9,0,3,0,0
0,6,0,3,0,0
0,6.1,0,3,0,0
0,6.2,0,3,0,0
0,6.3,0,3,0,0
0,6.4,0,3,0,0
0,6.5,0,3,0,0
0,6.6,0,3,0,0
0,6.7,0,3,0,0
0,6.8,0,3,0,0
0,6.9,0,3,0,0
0,7,0,3,0,0
0,7.1,0,3,0,0
0,7.2,0,3,0,0
0,7.3,0,3,0,0
0,7.4,0,3,0,0
0,7.5,0,3,0,0
0,7.6,0,3,0,0
0,7.7,0,3,0,0
0,7.8,0,3,0,0
0,7.9,0,3,0,0
0,8,0,3,0,0
0,8.1,0,3,0,0
0,8.2,0,3,0,0
0,8.3,0,3,0,0
0,8.4,0,3,0,0
0,8.5,0,3,0,0
0,8.6,0,3,0,0
0,8.7,0,3,0,0
0,8.8,0,3,0,0
0,8.9,0,3,0,0
0,9,0,3,0,0
0,9.1,0,3,0,0
0,9.2,0,3,0,0
0,9.3,0,3,0,0
0,9.4,0,3,0,0
0,9.5,0,3,0,0
0,9.6,0,3,0,0
0,9.7,0,3,0,0
0,9.8,0,3,0,0
0,9.9,0,3,0,0
0,10,0,3,0,0
0,10.1,0,3,0,0
0,10.2,0,3,0,0
0,10.3,0,3,0,0
0,10.4,0,3,0,0
0,10.5,0,3,0,0
0,10.6,0,3,0,0
0,10.7,0,3,0,0
0,10.8,0,3,0,0
0,10.9,0,3,0,0
0,11,0,3,0,0
0,11.1,0,3,0,0
0,11.2,0,3,0,0
0,11.3,0,3,0,0
0,11.4,0,3,0,0
0,11.5,0,3,0,0
0,11.6,0,3,0,0
0,11.7,0,3,0,0
0,11.8,0,3,0,0
0,11.9,0,3,0,0
0,12,0,3,0,0
0,12.1,0,3,0,0
0,12.2,0,3,0,0
0,12.3,0,3,0,0
0,12.4,0,3,0,0
0,12.5,0,2.99941,0.0326016,0
0,12.6,0,2.99872,0.0709564,0
0,12.7,0,2.99803,0.109311,0
0.1,0,0,2.98641,-0.127919,0
0.1,0.1,0,2.99455,-0.140356,0
0.1,0.2,0,2.99555,-0.0936917,0
0.1,0.3,0,2.99169,-0.0765529,0
0.1,0.4,0,2.99184,-0.0803693,0
0.1,0.5,0,2.99199,-0.0412634,0
0.1,0.6,0,2.98929,-0.0860596,0
0.1,0.7,0,2.9897,-0.0814543,0
0.1,0.8,0,3.00279,-0.0661355,0
0.1,0.9,0,3.00383,-0.0690387,0
0.1,1,0,2.9921,-0.0383699,0
0.1,1.1,0,2.996,-0.0753836,0
0.1,1.2,0,2.99561,-0.0715326,0
0.1,1.3,0,2.99406,-0.054321,0
0.1,1.4,0,2.99427,-0.0562596,0
0.1,1.5,0,2.99405,-0.0355789,0
0.1,1.6,0,3.00064,-0.0634067,0
0.1,1.7,0,2.99993,-0.0604318,0
0.1,1.8,0,2.99805,-0.0494678,0
0.1,1.9,0,2.99855,-0.0512244,0
0.1,2,0,2.99379,-0.0316389,0
0.1,2.1,0,2.99874,-0.0507329,0
0.1,2.2,0,2.99831,-0.0486791,0
0.1,2.3,0,2.99939,-0.0440619,0
0.1,2.4,0,2.99995,-0.0456027,0
0.1,2.5,0,2.99434,-0.0280308,0
0.1,2.6,0,2.99968,-0.0421834,0
0.1,2.7,0,2.99917,-0.040607,0
0.1,2.8,0,2.99961,-0.0375706,0
0.1,2.9,0,3.00016,-0.0388096,0
0.1,3,0,2.99476,-0.0244867,0
0.1,3.1,0,3.00018,-0.0354216,0
0.1,3.2,0,2.99966,-0.0341496,0
0.1,3.3,0,2.99975,-0.0314506,0
0.1,3.4,0,3.00029,-0.0324228,0
0.1,3.5,0,2.99507,-0.0208587,0
0.1,3.6,0,3.00027,-0.0294661,0
0.1,3.7,0,2.99976,-0.0284256,0
0.1,3.8,0,2.99966,-0.0259807,0
0.1,3.9,0,3.00015,-0.0267495,0
0.1,4,0,2.99532,-0.0172668,0
0.1,4.1,0,2.9999,-0.024221,0
0.1,4.2,0,2.99945,-0.0233474,0
0.1,4.3,0,2.99909,-0.0212896,0
0.1,4.4,0,2.9995,-0.0219346,0
0.1,4.5,0,2.99557,-0.0136704,0
0.1,4.6,0,2.9989,-0.0197165,0
0.1,4.7,0,2.99857,-0.0189264,0
0.1,4.8,0,2.99806,-0.0178705,0
0.1,4.9,0,2.99832,-0.0185433,0
0.1,5,0,2.99571,-0.0102433,0
0.1,5.1,0,2.99575,-0.00909892,0
0.1,5.2,0,2.99578,-0.00840183,0
0.1,5.3,0,2.99582,-0.00768028,0
0.1,5.4,0,2.99586,-0.00694554,0
0.1,5.5,0,2.99589,-0.00620124,0
0.1,5.6,0,2.99592,-0.00545053,0
0.1,5.7,0,2.99595,-0.00469565,0
0.1,5.8,0,2.99597,-0.00393828,0
0.1,5.9,0,2.99599,-0.00317963,0
0.1,6,0,2.996,-0.00242067,0
0.1,6.1,0,2.996,-0.00166227,0
0.1,6.2,0,2.996,-0.000905256,0
0.1,6.3,0,2.99599,-0.000150637,0
0.1,6.4,0,2.99597,0.000600304,0
0.1,6.5,0,2.99595,0.00134592,0
0.1,6.6,0,2.99593,0.00208389,0
0.1,6.7,0,2.9959,0.00281109,0
0.1,6.8,0,2.99588,0.00352334,0
0.1,6.9,0,2.99588,0.00421195,0
0.1,7,0,2.99583,0.00539155,0
0.1,7.1,0,2.99872,0.0115169,0
0.1,7.2,0,2.99872,0.0115169,0
0.1,7.3,0,2.99663,0.00846475,0
0.1,7.4,0,2.9994,0.012808,0
0.1,7.5,0,2.9994,0.012808,0
0.1,7.6,0,2.99774,0.0120502,0
0.1,7.7,0,3.00002,0.0152512,0
0.1,7.8,0,2.99944,0.0147162,0
0.1,7.9,0,2.999,0.0158419,0
0.1,8,0,3.0004,0.017739,0
0.1,8.1,0,2.99858,0.0160577,0
0.1,8.2,0,3.00035,0.0201195,0
0.1,8.3,0,3.00063,0.0205052,0
0.1,8.4,0,2.99743,0.017288,0
0.1,8.5,0,3.00072,0.0234736,0
0.1,8.6,0,3.00072,0.0234736,0
0.1,8.7,0,2.99611,0.0182106,0
0.1,8.8,0,3.00074,0.0266308,0
0.1,8.9,0,3.00074,0.0266308,0
0.1,9,0,2.99556,0.0201289,0
0.1,9.1,0,3.00066,0.0298988,0
0.1,9.2,0,3.00066,0.0298988,0
0.1,9.3,0,2.99675,0.0251701,0
0.1,9.4,0,3.00057,0.033447,0
0.1,9.5,0,3.00057,0.033447,0
0.1,9.6,0,2.99783,0.0309823,0
0.1,9.7,0,3.00024,0.0370535,0
0.1,9.8,0,2.99906,0.0346121,0
0.1,9.9,0,2.99909,0.0376849,0
0.1,10,0,3.00028,0.0409457,0
0.1,10.1,0,2.99773,0.0350673,0
0.1,10.2,0,2.99924,0.0454836,0
0.1,10.3,0,2.99924,0.0454836,0
0.1,10.4,0,2.99565,0.0345328,0
0.1,10.5,0,2.99989,0.048032,0
0.1,10.6,0,2.99989,0.048032,0
0.1,10.7,0,2.99463,0.0332539,0
0.1,10.8,0,2.99925,0.05802,0
0.1,10.9,0,2.99925,0.05802,0
0.1,11,0,2.99402,0.0368,0
0.1,11.1,0,2.99517,0.0524578,0
0.1,11.2,0,2.99517,0.0524578,0
0.1,11.3,0,2.99575,0.0507805,0
0.1,11.4,0,3.00116,0.0742489,0
0.1,11.5,0,3.00076,0.0723278,0
0.1,11.6,0,2.99716,0.0540108,0
0.1,11.7,0,2.99928,0.0634969,0
0.1,11.8,0,2.99754,0.0565534,0
0.1,11.9,0,2.98737,0.0777285,0
0.1,12,0,2.98648,0.0835191,0
0.1,12.1,0,2.98888,0.0608121,0
0.1,12.2,0,2.99669,0.0788036,0
0.1,12.3,0,2.99669,0.0788036,0
0.1,12.4,0,2.99195,0.05037,0
0.1,12.5,0,2.99805,0.108128,0
0.1,12.6,0,2.99737,0.146483,0
0.1,12.7,0,2.98866,0.128421,0
0.2,0,0,2.97703,-0.147458,0
0.2,0.1,0,2.99033,-0.204526,0
0.2,0.2,0,2.98586,-0.135897,0
0.2,0.3,0,2.98199,-0.118758,0
0.2,0.4,0,2.98372,-0.152917,0
0.2,0.5,0,2.98398,-0.0825268,0
0.2,0.6,0,2.97912,-0.16316,0
0.2,0.7,0,2.98313,-0.121461,0
0.2,0.8,0,2.99622,-0.106143,0
0.2,0.9,0,3.00532,-0.131944,0
0.2,1,0,2.98421,-0.0767399,0
0.2,1.1,0,2.99121,-0.143364,0
0.2,1.2,0,2.98778,-0.108407,0
0.2,1.3,0,2.98622,-0.0911955,0
0.2,1.4,0,2.98849,-0.108383,0
0.2,1.5,0,2.98811,-0.0711578,0
0.2,1.6,0,2.99997,-0.121248,0
0.2,1.7,0,2.99345,-0.0940897,0
0.2,1.8,0,2.99156,-0.0831257,0
0.2,1.9,0,2.99615,-0.0985318,0
0.2,2,0,2.98759,-0.0632778,0
0.2,2.1,0,2.99649,-0.097647,0
0.2,2.2,0,2.99269,-0.0788737,0
0.2,2.3,0,2.99377,-0.0742565,0
0.2,2.4,0,2.99877,-0.087691,0
0.2,2.5,0,2.98868,-0.0560615,0
0.2,2.6,0,2.99828,-0.0815363,0
0.2,2.7,0,2.99384,-0.0670262,0
0.2,2.8,0,2.99427,-0.0639897,0
0.2,2.9,0,2.99924,-0.0747546,0
0.2,3,0,2.98952,-0.0489735,0
0.2,3.1,0,2.99928,-0.0686562,0
0.2,3.2,0,2.99459,-0.0568507,0
0.2,3.3,0,2.99469,-0.0541517,0
0.2,3.4,0,2.99953,-0.0625327,0
0.2,3.5,0,2.99014,-0.0417173,0
0.2,3.6,0,2.99949,-0.0572108,0
0.2,3.7,0,2.99496,-0.0474867,0
0.2,3.8,0,2.99485,-0.0450417,0
0.2,3.9,0,2.99934,-0.0516025,0
0.2,4,0,2.99064,-0.0345336,0
0.2,4.1,0,2.99888,-0.0470511,0
0.2,4.2,0,2.99489,-0.0388323,0
0.2,4.3,0,2.99453,-0.0367746,0
0.2,4.4,0,2.99821,-0.0422163,0
0.2,4.5,0,2.99113,-0.0273408,0
0.2,4.6,0,2.99713,-0.0382238,0
0.2,4.7,0,2.99423,-0.0307419,0
0.2,4.8,0,2.99372,-0.029686,0
0.2,4.9,0,2.99613,-0.0354267,0
0.2,5,0,2.99142,-0.0204866,0
0.2,5.1,0,2.9915,-0.0181978,0
0.2,5.2,0,2.99155,-0.0168037,0
0.2,5.3,0,2.99163,-0.0153606,0
0.2,5.4,0,2.99171,-0.0138911,0
0.2,5.5,0,2.99178,-0.0124025,0
0.2,5.6,0,2.99185,-0.0109011,0
0.2,5.7,0,2.9919,-0.0093913,0
0.2,5.8,0,2.99194,-0.00787657,0
0.2,5.9,0,2.99197,-0.00635926,0
0.2,6,0,2.99199,-0.00484134,0
0.2,6.1,0,2.992,-0.00332454,0
0.2,6.2,0,2.99199,-0.00181051,0
0.2,6.3,0,2.99197,-0.000301275,0
0.2,6.4,0,2.99194,0.00120061,0
0.2,6.5,0,2.9919,0.00269185,0
0.2,6.6,0,2.99186,0.00416777,0
0.2,6.7,0,2.99181,0.00562218,0
0.2,6.8,0,2.99177,0.00704669,0
0.2,6.9,0,2.99175,0.0084239,0
0.2,7,0,2.99166,0.0107831,0
0.2,7.1,0,2.99622,0.0204548,0
0.2,7.2,0,2.9955,0.0201391,0
0.2,7.3,0,2.99241,0.0155816,0
0.2,7.4,0,2.99813,0.0245677,0
0.2,7.5,0,2.99548,0.0223604,0
0.2,7.6,0,2.99343,0.0212195,0
0.2,7.7,0,3.00004,0.0305024,0
0.2,7.8,0,2.995,0.0259015,0
0.2,7.9,0,2.99456,0.0270272,0
0.2,8,0,3.00079,0.035478,0
0.2,8.1,0,2.99404,0.0292331,0
0.2,8.2,0,2.99582,0.0332949,0
0.2,8.3,0,3.00111,0.0408706,0
0.2,8.4,0,2.99279,0.0324778,0
0.2,8.5,0,2.99707,0.0401894,0
0.2,8.6,0,3.00001,0.0453026,0
0.2,8.7,0,2.99135,0.0354343,0
0.2,8.8,0,2.99829,0.0478154,0
0.2,8.9,0,2.99867,0.0495919,0
0.2,9,0,2.99068,0.0394204,0
0.2,9.1,0,2.99942,0.0561689,0
0.2,9.2,0,2.99713,0.0534985,0
0.2,9.3,0,2.99173,0.04652,0
0.2,9.4,0,3.00055,0.0656206,0
0.2,9.5,0,2.99557,0.0571917,0
0.2,9.6,0,2.99269,0.0544648,0
0.2,9.7,0,3.00049,0.074107,0
0.2,9.8,0,2.99367,0.0600688,0
0.2,9.9,0,2.99371,0.0631416,0
0.2,10,0,3.00057,0.0818915,0
0.2,10.1,0,2.99229,0.0628729,0
0.2,10.2,0,2.99393,0.0737544,0
0.2,10.3,0,2.99793,0.0892824,0
0.2,10.4,0,2.98965,0.0640115,0
0.2,10.5,0,2.99544,0.0823931,0
0.2,10.6,0,2.99783,0.090575,0
0.2,10.7,0,2.98881,0.065241,0
0.2,10.8,0,2.99597,0.103024,0
0.2,10.9,0,2.99535,0.102055,0
0.2,11,0,2.98783,0.0706643,0
0.2,11.1,0,2.98998,0.100023,0
0.2,11.2,0,2.98793,0.0910612,0
0.2,11.3,0,2.98796,0.0862556,0
0.2,11.4,0,3.00209,0.147477,0
0.2,11.5,0,2.99429,0.110077,0
0.2,11.6,0,2.99069,0.0917597,0
0.2,11.7,0,2.99857,0.126994,0
0.2,11.8,0,2.99078,0.0960638,0
0.2,11.9,0,2.98061,0.117239,0
0.2,12,0,2.97295,0.167038,0
0.2,12.1,0,2.97991,0.101188,0
0.2,12.2,0,2.98833,0.123224,0
0.2,12.3,0,2.99224,0.150744,0
0.2,12.4,0,2.98242,0.0919158,0
0.2,12.5,0,2.99132,0.161299,0
0.2,12.6,0,2.99263,0.198255,0
0.2,12.7,0,2.97929,0.14753,0
0.3,0,0,2.96766,-0.166997,0
0.3,0.1,0,2.97892,-0.214129,0
0.3,0.2,0,2.97616,-0.178102,0
0.3,0.3,0,2.9723,-0.160963,0
0.3,0.4,0,2.97525,-0.182732,0
0.3,0.5,0,2.97597,-0.12379,0
0.3,0.6,0,2.97235,-0.190608,0
0.3,0.7,0,2.97655,-0.161469,0
0.3,0.8,0,2.98964,-0.14615,0
0.3,0.9,0,2.9943,-0.161604,0
0.3,1,0,2.97631,-0.11511,0
0.3,1.1,0,2.98217,-0.170182,0
0.3,1.2,0,2.97994,-0.145282,0
0.3,1.3,0,2.97839,-0.12807,0
0.3,1.4,0,2.98191,-0.138146,0
0.3,1.5,0,2.98216,-0.106737,0
0.3,1.6,0,2.99189,-0.147902,0
0.3,1.7,0,2.98696,-0.127748,0
0.3,1.8,0,2.98508,-0.116784,0
0.3,1.9,0,2.98843,-0.124901,0
0.3,2,0,2.98138,-0.0949167,0
0.3,2.1,0,2.98898,-0.123124,0
0.3,2.2,0,2.98707,-0.109068,0
0.3,2.3,0,2.98816,-0.104451,0
0.3,2.4,0,2.99144,-0.111099,0
0.3,2.5,0,2.98302,-0.0840923,0
0.3,2.6,0,2.99112,-0.104838,0
0.3,2.7,0,2.9885,-0.0934454,0
0.3,2.8,0,2.98894,-0.0904089,0
0.3,2.9,0,2.99235,-0.0955242,0
0.3,3,0,2.98428,-0.0734602,0
0.3,3.1,0,2.99246,-0.0893268,0
0.3,3.2,0,2.98952,-0.0795518,0
0.3,3.3,0,2.98962,-0.0768528,0
0.3,3.4,0,2.993,-0.0804749,0
0.3,3.5,0,2.98521,-0.062576,0
0.3,3.6,0,2.99304,-0.0749479,0
0.3,3.7,0,2.99015,-0.0665478,0
0.3,3.8,0,2.99005,-0.0641028,0
0.3,3.9,0,2.99317,-0.0665627,0
0.3,4,0,2.98596,-0.0518003,0
0.3,4.1,0,2.99286,-0.0616971,0
0.3,4.2,0,2.99033,-0.0543173,0
0.3,4.3,0,2.98997,-0.0522595,0
0.3,4.4,0,2.99256,-0.0539518,0
0.3,4.5,0,2.9867,-0.0410111,0
0.3,4.6,0,2.99172,-0.0495238,0
0.3,4.7,0,2.98989,-0.0425574,0
0.3,4.8,0,2.98938,-0.0415015,0
0.3,4.9,0,2.99104,-0.0436516,0
0.3,5,0,2.98713,-0.0307299,0
0.3,5.1,0,2.98726,-0.0272968,0
0.3,5.2,0,2.98733,-0.0252055,0
0.3,5.3,0,2.98745,-0.0230408,0
0.3,5.4,0,2.98757,-0.0208366,0
0.3,5.5,0,2.98767,-0.0186037,0
0.3,5.6,0,2.98777,-0.0163516,0
0.3,5.7,0,2.98785,-0.014087,0
0.3,5.8,0,2.98792,-0.0118149,0
0.3,5.9,0,2.98796,-0.00953889,0
0.3,6,0,2.98799,-0.00726202,0
0.3,6.1,0,2.988,-0.00498681,0
0.3,6.2,0,2.98799,-0.00271577,0
0.3,6.3,0,2.98796,-0.000451913,0
0.3,6.4,0,2.98791,0.00180091,0
0.3,6.5,0,2.98785,0.00403777,0
0.3,6.6,0,2.98779,0.00625166,0
0.3,6.7,0,2.98771,0.00843327,0
0.3,6.8,0,2.98765,0.01057,0
0.3,6.9,0,2.98763,0.0126358,0
0.3,7,0,2.98749,0.0161747,0
0.3,7.1,0,2.99182,0.0254989,0
0.3,7.2,0,2.99128,0.0272559,0
0.3,7.3,0,2.98818,0.0226984,0
0.3,7.4,0,2.99273,0.0305355,0
0.3,7.5,0,2.99117,0.0315297,0
0.3,7.6,0,2.98912,0.0303888,0
0.3,7.7,0,2.9935,0.0377449,0
0.3,7.8,0,2.99057,0.0370869,0
0.3,7.9,0,2.99013,0.0382125,0
0.3,8,0,2.99386,0.0449576,0
0.3,8.1,0,2.9895,0.0424085,0
0.3,8.2,0,2.99128,0.0464703,0
0.3,8.3,0,2.99402,0.0525884,0
0.3,8.4,0,2.98814,0.0476676,0
0.3,8.5,0,2.99242,0.0553792,0
0.3,8.6,0,2.99398,0.0605643,0
0.3,8.7,0,2.9866,0.052658,0
0.3,8.8,0,2.99354,0.0650391,0
0.3,8.9,0,2.99379,0.0688834,0
0.3,9,0,2.9858,0.0587119,0
0.3,9.1,0,2.99365,0.0741105,0
0.3,9.2,0,2.99211,0.0748485,0
0.3,9.3,0,2.98671,0.06787,0
0.3,9.4,0,2.99327,0.0830372,0
0.3,9.5,0,2.99042,0.0806742,0
0.3,9.6,0,2.98754,0.0779473,0
0.3,9.7,0,2.9925,0.0920509,0
0.3,9.8,0,2.98829,0.0855256,0
0.3,9.9,0,2.98832,0.0885984,0
0.3,10,0,2.9923,0.101644,0
0.3,10.1,0,2.98685,0.0906785,0
0.3,10.2,0,2.98849,0.10156,0
0.3,10.3,0,2.99008,0.111783,0
0.3,10.4,0,2.98365,0.0934902,0
0.3,10.5,0,2.98944,0.111872,0
0.3,10.6,0,2.99108,0.119633,0
0.3,10.7,0,2.98299,0.0972282,0
0.3,10.8,0,2.99015,0.135011,0
0.3,10.9,0,2.98916,0.135919,0
0.3,11,0,2.98163,0.104528,0
0.3,11.1,0,2.98309,0.129865,0
0.3,11.2,0,2.98014,0.126536,0
0.3,11.3,0,2.98018,0.121731,0
0.3,11.4,0,2.99069,0.165663,0
0.3,11.5,0,2.98781,0.147826,0
0.3,11.6,0,2.98421,0.129509,0
0.3,11.7,0,2.98902,0.15312,0
0.3,11.8,0,2.98403,0.135574,0
0.3,11.9,0,2.97386,0.156749,0
0.3,12,0,2.96749,0.185364,0
0.3,12.1,0,2.97095,0.141564,0
0.3,12.2,0,2.97936,0.1636,0
0.3,12.3,0,2.98093,0.180155,0
0.3,12.4,0,2.97289,0.133462,0
0.3,12.5,0,2.98179,0.202844,0
0.3,12.6,0,2.98262,0.214681,0
0.3,12.7,0,2.96992,0.166639,0
0.4,0,0,2.95828,-0.186537,0
0.4,0.1,0,2.96277,-0.200545,0
0.4,0.2,0,2.96388,-0.197991,0
0.4,0.3,0,2.96266,-0.187526,0
0.4,0.4,0,2.9657,-0.185831,0
0.4,0.5,0,2.96796,-0.165054,0
0.4,0.6,0,2.96848,-0.185818,0
0.4,0.7,0,2.97106,-0.183557,0
0.4,0.8,0,2.97838,-0.173889,0
0.4,0.9,0,2.976,-0.170942,0
0.4,1,0,2.96842,-0.15348,0
0.4,1.1,0,2.97044,-0.170042,0
0.4,1.2,0,2.97055,-0.167351,0
0.4,1.3,0,2.97046,-0.156672,0
0.4,1.4,0,2.97387,-0.15434,0
0.4,1.5,0,2.97622,-0.142316,0
0.4,1.6,0,2.97881,-0.153732,0
0.4,1.7,0,2.97784,-0.150275,0
0.4,1.8,0,2.97669,-0.142607,0
0.4,1.9,0,2.97719,-0.138973,0
0.4,2,0,2.97518,-0.126556,0
0.4,2.1,0,2.97842,-0.134225,0
0.4,2.2,0,2.97948,-0.131625,0
0.4,2.3,0,2.9803,-0.127617,0
0.4,2.4,0,2.98022,-0.123722,0
0.4,2.5,0,2.97736,-0.112123,0
0.4,2.6,0,2.98044,-0.117104,0
0.4,2.7,0,2.98103,-0.114203,0
0.4,2.8,0,2.98144,-0.111099,0
0.4,2.9,0,2.98161,-0.107621,0
0.4,3,0,2.97903,-0.0979469,0
0.4,3.1,0,2.98197,-0.101093,0
0.4,3.2,0,2.98229,-0.0978789,0
0.4,3.3,0,2.98246,-0.0949283,0
0.4,3.4,0,2.98271,-0.0916119,0
0.4,3.5,0,2.98028,-0.0834347,0
0.4,3.6,0,2.98304,-0.0854015,0
0.4,3.7,0,2.98327,-0.0821658,0
0.4,3.8,0,2.98331,-0.0793708,0
0.4,3.9,0,2.98354,-0.0761411,0
0.4,4,0,2.98128,-0.0690671,0
0.4,4.1,0,2.98372,-0.0702278,0
0.4,4.2,0,2.98394,-0.0670205,0
0.4,4.3,0,2.98384,-0.0644388,0
0.4,4.4,0,2.98407,-0.0611726,0
0.4,4.5,0,2.98227,-0.0546815,0
0.4,4.6,0,2.98405,-0.0552932,0
0.4,4.7,0,2.98422,-0.0519544,0
0.4,4.8,0,2.98399,-0.049997,0
0.4,4.9,0,2.98408,-0.0471671,0
0.4,5,0,2.98285,-0.0409732,0
0.4,5.1,0,2.98301,-0.0363957,0
0.4,5.2,0,2.98311,-0.0336073,0
0.4,5.3,0,2.98326,-0.0307211,0
0.4,5.4,0,2.98342,-0.0277822,0
0.4,5.5,0,2.98357,-0.024805,0
0.4,5.6,0,2.98369,-0.0218021,0
0.4,5.7,0,2.9838,-0.0187826,0
0.4,5.8,0,2.98389,-0.0157531,0
0.4,5.9,0,2.98395,-0.0127185,0
0.4,6,0,2.98398,-0.00968269,0
0.4,6.1,0,2.984,-0.00664908,0
0.4,6.2,0,2.98398,-0.00362103,0
0.4,6.3,0,2.98394,-0.00060255,0
0.4,6.4,0,2.98388,0.00240121,0
0.4,6.5,0,2.9838,0.0053837,0
0.4,6.6,0,2.98371,0.00833554,0
0.4,6.7,0,2.98362,0.0112444,0
0.4,6.8,0,2.98354,0.0140934,0
0.4,6.9,0,2.9835,0.0168478,0
0.4,7,0,2.98332,0.0215662,0
0.4,7.1,0,2.98471,0.0264904,0
0.4,7.2,0,2.98462,0.0292145,0
0.4,7.3,0,2.98396,0.0298152,0
0.4,7.4,0,2.9848,0.0340135,0
0.4,7.5,0,2.98466,0.0372543,0
0.4,7.6,0,2.98481,0.0395581,0
0.4,7.7,0,2.98473,0.0428483,0
0.4,7.8,0,2.98454,0.0460315,0
0.4,7.9,0,2.98466,0.0484371,0
0.4,8,0,2.98449,0.0515794,0
0.4,8.1,0,2.98432,0.0547216,0
0.4,8.2,0,2.98438,0.0572678,0
0.4,8.3,0,2.98421,0.0604484,0
0.4,8.4,0,2.98349,0.0628574,0
0.4,8.5,0,2.98402,0.0662928,0
0.4,8.6,0,2.98385,0.0695042,0
0.4,8.7,0,2.98184,0.0698817,0
0.4,8.8,0,2.98361,0.0755029,0
0.4,8.9,0,2.98342,0.0787678,0
0.4,9,0,2.98092,0.0780034,0
0.4,9.1,0,2.98309,0.0848531,0
0.4,9.2,0,2.98287,0.0881033,0
0.4,9.3,0,2.98169,0.0892199,0
0.4,9.4,0,2.98254,0.0944227,0
0.4,9.5,0,2.98234,0.0977899,0
0.4,9.6,0,2.98209,0.100819,0
0.4,9.7,0,2.98172,0.103937,0
0.4,9.8,0,2.98134,0.107054,0
0.4,9.9,0,2.98128,0.110251,0
0.4,10,0,2.9812,0.11396,0
0.4,10.1,0,2.98112,0.117669,0
0.4,10.2,0,2.9803,0.120942,0
0.4,10.3,0,2.97941,0.123584,0
0.4,10.4,0,2.97765,0.122969,0
0.4,10.5,0,2.97908,0.129106,0
0.4,10.6,0,2.97937,0.133067,0
0.4,10.7,0,2.97717,0.129215,0
0.4,10.8,0,2.97888,0.142842,0
0.4,10.9,0,2.97829,0.145806,0
0.4,11,0,2.97544,0.138393,0
0.4,11.1,0,2.97394,0.146746,0
0.4,11.2,0,2.97143,0.149289,0
0.4,11.3,0,2.97239,0.157206,0
0.4,11.4,0,2.97526,0.164638,0
0.4,11.5,0,2.97733,0.168228,0
0.4,11.6,0,2.97694,0.164102,0
0.4,11.7,0,2.9765,0.166883,0
0.4,11.8,0,2.97607,0.169664,0
0.4,11.9,0,2.96879,0.180365,0
0.4,12,0,2.9653,0.181731,0
0.4,12.1,0,2.96199,0.181939,0
0.4,12.2,0,2.96663,0.181425,0
0.4,12.3,0,2.96574,0.183273,0
0.4,12.4,0,2.96336,0.175007,0
0.4,12.5,0,2.96552,0.196881,0
0.4,12.6,0,2.96508,0.19981,0
0.4,12.7,0,2.96055,0.185748,0
0.5,0,0,2.95686,-0.174274,0
0.5,0.1,0,2.94601,-0.18838,0
0.5,0.2,0,2.94712,-0.185826,0
0.5,0.3,0,2.95265,-0.188729,0
0.5,0.4,0,2.95569,-0.187034,0
0.5,0.5,0,2.96689,-0.170079,0
0.5,0.6,0,2.96531,-0.18324,0
0.5,0.7,0,2.96789,-0.180978,0
0.5,0.8,0,2.96213,-0.181398,0
0.5,0.9,0,2.95975,-0.178452,0
0.5,1,0,2.96574,-0.160933,0
0.5,1.1,0,2.95528,-0.171591,0
0.5,1.2,0,2.95539,-0.168899,0
0.5,1.3,0,2.96402,-0.170978,0
0.5,1.4,0,2.96742,-0.168646,0
0.5,1.5,0,2.97335,-0.15142,0
0.5,1.6,0,2.96656,-0.162075,0
0.5,1.7,0,2.96559,-0.158618,0
0.5,1.8,0,2.9638,-0.154265,0
0.5,1.9,0,2.9643,-0.150631,0
0.5,2,0,2.97231,-0.135995,0
0.5,2.1,0,2.96919,-0.147166,0
0.5,2.2,0,2.97025,-0.144566,0
0.5,2.3,0,2.96837,-0.139119,0
0.5,2.4,0,2.96829,-0.135224,0
0.5,2.5,0,2.97419,-0.120909,0
0.5,2.6,0,2.97011,-0.129939,0
0.5,2.7,0,2.97069,-0.127038,0
0.5,2.8,0,2.97059,-0.122948,0
0.5,2.9,0,2.97076,-0.11947,0
0.5,3,0,2.97587,-0.105904,0
0.5,3.1,0,2.97151,-0.11296,0
0.5,3.2,0,2.97182,-0.109746,0
0.5,3.3,0,2.97219,-0.106022,0
0.5,3.4,0,2.97243,-0.102705,0
0.5,3.5,0,2.97722,-0.0903581,0
0.5,3.6,0,2.97304,-0.095854,0
0.5,3.7,0,2.97327,-0.0926183,0
0.5,3.8,0,2.97369,-0.0889469,0
0.5,3.9,0,2.97391,-0.0857172,0
0.5,4,0,2.97836,-0.0747911,0
0.5,4.1,0,2.97458,-0.0787483,0
0.5,4.2,0,2.9748,-0.075541,0
0.5,4.3,0,2.97534,-0.0717025,0
0.5,4.4,0,2.97557,-0.0684363,0
0.5,4.5,0,2.97952,-0.0590336,0
0.5,4.6,0,2.97642,-0.06106,0
0.5,4.7,0,2.97659,-0.0577212,0
0.5,4.8,0,2.97703,-0.0532324,0
0.5,4.9,0,2.97713,-0.0504025,0
0.5,5,0,2.97993,-0.0438863,0
0.5,5.1,0,2.97998,-0.0389883,0
0.5,5.2,0,2.98004,-0.0360374,0
0.5,5.3,0,2.98017,-0.0329752,0
0.5,5.4,0,2.98032,-0.0298514,0
0.5,5.5,0,2.98046,-0.0266816,0
0.5,5.6,0,2.98059,-0.0234801,0
0.5,5.7,0,2.9807,-0.0202571,0
0.5,5.8,0,2.98079,-0.0170207,0
0.5,5.9,0,2.98086,-0.0137768,0
0.5,6,0,2.98089,-0.0105305,0
0.5,6.1,0,2.98091,-0.00728634,0
0.5,6.2,0,2.98089,-0.00404875,0
0.5,6.3,0,2.98085,-0.000822837,0
0.5,6.4,0,2.98079,0.00238511,0
0.5,6.5,0,2.98071,0.00556729,0
0.5,6.6,0,2.98063,0.00871304,0
0.5,6.7,0,2.98055,0.0118084,0
0.5,6.8,0,2.9805,0.0148357,0
0.5,6.9,0,2.98052,0.0177568,0
0.5,7,0,2.98047,0.0228216,0
0.5,7.1,0,2.97757,0.0271609,0
0.5,7.2,0,2.97748,0.029885,0
0.5,7.3,0,2.97879,0.0325082,0
0.5,7.4,0,2.97691,0.0374854,0
0.5,7.5,0,2.97677,0.0407261,0
0.5,7.6,0,2.97634,0.044586,0
0.5,7.7,0,2.97595,0.0479944,0
0.5,7.8,0,2.97576,0.0511776,0
0.5,7.9,0,2.97529,0.0550421,0
0.5,8,0,2.97512,0.0581844,0
0.5,8.1,0,2.97495,0.0613266,0
0.5,8.2,0,2.97457,0.0651203,0
0.5,8.3,0,2.9744,0.0683009,0
0.5,8.4,0,2.97511,0.0701534,0
0.5,8.5,0,2.9739,0.0752206,0
0.5,8.6,0,2.97372,0.0784321,0
0.5,8.7,0,2.97653,0.0767347,0
0.5,8.8,0,2.97325,0.0853655,0
0.5,8.9,0,2.97305,0.0886304,0
0.5,9,0,2.97663,0.0852126,0
0.5,9.1,0,2.97255,0.0956268,0
0.5,9.2,0,2.97232,0.098877,0
0.5,9.3,0,2.97373,0.0989811,0
0.5,9.4,0,2.97178,0.105703,0
0.5,9.5,0,2.97158,0.10907,0
0.5,9.6,0,2.97145,0.112969,0
0.5,9.7,0,2.97107,0.116086,0
0.5,9.8,0,2.9707,0.119203,0
0.5,9.9,0,2.96985,0.12193,0
0.5,10,0,2.96977,0.125639,0
0.5,10.1,0,2.96969,0.129347,0
0.5,10.2,0,2.97045,0.134057,0
0.5,10.3,0,2.96956,0.136698,0
0.5,10.4,0,2.97032,0.134628,0
0.5,10.5,0,2.9658,0.14039,0
0.5,10.6,0,2.96608,0.144351,0
0.5,10.7,0,2.97236,0.137992,0
0.5,10.8,0,2.96975,0.153454,0
0.5,10.9,0,2.96915,0.156418,0
0.5,11,0,2.97045,0.149466,0
0.5,11.1,0,2.96388,0.161113,0
0.5,11.2,0,2.96137,0.163656,0
0.5,11.3,0,2.9581,0.159586,0
0.5,11.4,0,2.95785,0.165465,0
0.5,11.5,0,2.95992,0.169055,0
0.5,11.6,0,2.96799,0.176525,0
0.5,11.7,0,2.96756,0.179306,0
0.5,11.8,0,2.96712,0.182087,0
0.5,11.9,0,2.96496,0.178967,0
0.5,12,0,2.96147,0.180333,0
0.5,12.1,0,2.95832,0.180887,0
0.5,12.2,0,2.95144,0.182003,0
0.5,12.3,0,2.95055,0.183851,0
0.5,12.4,0,2.95511,0.177006,0
0.5,12.5,0,2.9477,0.183865,0
0.5,12.6,0,2.94726,0.186793,0
0.5,12.7,0,2.95857,0.172974,0
0.6,0,0,2.9634,-0.130209,0
0.6,0.1,0,2.92863,-0.177633,0
0.6,0.2,0,2.94401,-0.16008,0
0.6,0.3,0,2.95232,-0.167005,0
0.6,0.4,0,2.94523,-0.186342,0
0.6,0.5,0,2.97274,-0.138865,0
0.6,0.6,0,2.96285,-0.182871,0
0.6,0.7,0,2.96814,-0.164965,0
0.6,0.8,0,2.95768,-0.167804,0
0.6,0.9,0,2.94555,-0.184131,0
0.6,1,0,2.96827,-0.137469,0
0.6,1.1,0,2.93669,-0.174827,0
0.6,1.2,0,2.95022,-0.158151,0
0.6,1.3,0,2.96435,-0.163904,0
0.6,1.4,0,2.96258,-0.181065,0
0.6,1.5,0,2.97357,-0.13405,0
0.6,1.6,0,2.95513,-0.172931,0
0.6,1.7,0,2.96111,-0.15296,0
0.6,1.8,0,2.95807,-0.147962,0
0.6,1.9,0,2.94977,-0.159873,0
0.6,2,0,2.97278,-0.123234,0
0.6,2.1,0,2.96131,-0.161946,0
0.6,2.2,0,2.96678,-0.142703,0
0.6,2.3,0,2.963,-0.135497,0
0.6,2.4,0,2.95566,-0.145606,0
0.6,2.5,0,2.97351,-0.11045,0
0.6,2.6,0,2.96011,-0.143342,0
0.6,2.7,0,2.96623,-0.126493,0
0.6,2.8,0,2.96575,-0.121682,0
0.6,2.9,0,2.95981,-0.131071,0
0.6,3,0,2.97477,-0.09733,0
0.6,3.1,0,2.96108,-0.124927,0
0.6,3.2,0,2.96698,-0.109838,0
0.6,3.3,0,2.96741,-0.105747,0
0.6,3.4,0,2.96216,-0.113755,0
0.6,3.5,0,2.97603,-0.0833463,0
0.6,3.6,0,2.96304,-0.106305,0
0.6,3.7,0,2.96856,-0.0929783,0
0.6,3.8,0,2.96912,-0.0889559,0
0.6,3.9,0,2.96428,-0.0952911,0
0.6,4,0,2.9772,-0.0689723,0
0.6,4.1,0,2.96544,-0.0872585,0
0.6,4.2,0,2.97048,-0.0757227,0
0.6,4.3,0,2.97127,-0.0714028,0
0.6,4.4,0,2.96706,-0.0757429,0
0.6,4.5,0,2.97845,-0.0540674,0
0.6,4.6,0,2.96884,-0.0668241,0
0.6,4.7,0,2.97282,-0.0572044,0
0.6,4.8,0,2.97351,-0.0515921,0
0.6,4.9,0,2.97016,-0.0533578,0
0.6,5,0,2.97838,-0.0394692,0
0.6,5.1,0,2.97818,-0.0350745,0
0.6,5.2,0,2.97813,-0.0324957,0
0.6,5.3,0,2.97817,-0.0298031,0
0.6,5.4,0,2.97825,-0.0270444,0
0.6,5.5,0,2.97835,-0.0242337,0
0.6,5.6,0,2.97845,-0.0213854,0
0.6,5.7,0,2.97855,-0.0185103,0
0.6,5.8,0,2.97862,-0.0156174,0
0.6,5.9,0,2.97868,-0.0127137,0
0.6,6,0,2.97871,-0.00980541,0
0.6,6.1,0,2.97873,-0.00689859,0
0.6,6.2,0,2.97871,-0.00399895,0
0.6,6.3,0,2.97868,-0.00111277,0
0.6,6.4,0,2.97863,0.00175259,0
0.6,6.5,0,2.97857,0.00458856,0
0.6,6.6,0,2.97853,0.00738416,0
0.6,6.7,0,2.9785,0.0101255,0
0.6,6.8,0,2.97853,0.012797,0
0.6,6.9,0,2.97867,0.0153628,0
0.6,7,0,2.97892,0.0199407,0
0.6,7.1,0,2.97042,0.0275105,0
0.6,7.2,0,2.97126,0.0296847,0
0.6,7.3,0,2.97756,0.0293752,0
0.6,7.4,0,2.96907,0.0409509,0
0.6,7.5,0,2.97158,0.0414935,0
0.6,7.6,0,2.97519,0.0412162,0
0.6,7.7,0,2.96715,0.0531833,0
0.6,7.8,0,2.97173,0.0507103,0
0.6,7.9,0,2.97234,0.0534553,0
0.6,8,0,2.96575,0.0647726,0
0.6,8.1,0,2.97257,0.0585356,0
0.6,8.2,0,2.96945,0.0663021,0
0.6,8.3,0,2.96459,0.0761459,0
0.6,8.4,0,2.97373,0.0653821,0
0.6,8.5,0,2.96653,0.0798142,0
0.6,8.6,0,2.9636,0.0873479,0
0.6,8.7,0,2.97513,0.0713018,0
0.6,8.8,0,2.9636,0.0940005,0
0.6,8.9,0,2.9627,0.0984712,0
0.6,9,0,2.97526,0.0790029,0
0.6,9.1,0,2.96201,0.106432,0
0.6,9.2,0,2.96397,0.105456,0
0.6,9.3,0,2.9724,0.0919449,0
0.6,9.4,0,2.96101,0.116878,0
0.6,9.5,0,2.9654,0.11109,0
0.6,9.6,0,2.96987,0.105899,0
0.6,9.7,0,2.96056,0.128499,0
0.6,9.8,0,2.96691,0.116388,0
0.6,9.9,0,2.96571,0.118718,0
0.6,10,0,2.95803,0.136679,0
0.6,10.1,0,2.96841,0.119482,0
0.6,10.2,0,2.96537,0.136427,0
0.6,10.3,0,2.96055,0.151127,0
0.6,10.4,0,2.97025,0.123479,0
0.6,10.5,0,2.95444,0.144721,0
0.6,10.6,0,2.95121,0.153486,0
0.6,10.7,0,2.97172,0.122616,0
0.6,10.8,0,2.96274,0.166847,0
0.6,10.9,0,2.96277,0.167589,0
0.6,11,0,2.97133,0.134706,0
0.6,11.1,0,2.95291,0.172965,0
0.6,11.2,0,2.95468,0.165746,0
0.6,11.3,0,2.9607,0.140522,0
0.6,11.4,0,2.93846,0.168143,0
0.6,11.5,0,2.95133,0.157877,0
0.6,11.6,0,2.96742,0.158535,0
0.6,11.7,0,2.96218,0.19039,0
0.6,11.8,0,2.96888,0.164834,0
0.6,11.9,0,2.96526,0.163606,0
0.6,12,0,2.95601,0.181171,0
0.6,12.1,0,2.96569,0.150839,0
0.6,12.2,0,2.94515,0.168955,0
0.6,12.3,0,2.93535,0.181889,0
0.6,12.4,0,2.96062,0.142014,0
0.6,12.5,0,2.93333,0.16894,0
0.6,12.6,0,2.92917,0.175632,0
0.6,12.7,0,2.96397,0.128315,0
0.7,0,0,2.96995,-0.0861446,0
0.7,0.1,0,2.92799,-0.143564,0
0.7,0.2,0,2.95042,-0.124335,0
0.7,0.3,0,2.95873,-0.131259,0
0.7,0.4,0,2.94619,-0.164285,0
0.7,0.5,0,2.9786,-0.107652,0
0.7,0.6,0,2.96621,-0.160911,0
0.7,0.7,0,2.97019,-0.138521,0
0.7,0.8,0,2.95973,-0.141361,0
0.7,0.9,0,2.94307,-0.169411,0
0.7,1,0,2.97081,-0.114005,0
0.7,1.1,0,2.93288,-0.159373,0
0.7,1.2,0,2.954,-0.138081,0
0.7,1.3,0,2.96813,-0.143834,0
0.7,1.4,0,2.96128,-0.172631,0
0.7,1.5,0,2.97379,-0.116679,0
0.7,1.6,0,2.95186,-0.164029,0
0.7,1.7,0,2.96126,-0.136294,0
0.7,1.8,0,2.95822,-0.131296,0
0.7,1.9,0,2.94573,-0.153714,0
0.7,2,0,2.97324,-0.110473,0
0.7,2.1,0,2.95927,-0.157448,0
0.7,2.2,0,2.96625,-0.129744,0
0.7,2.3,0,2.96247,-0.122538,0
0.7,2.4,0,2.95139,-0.141399,0
0.7,2.5,0,2.97284,-0.0999911,0
0.7,2.6,0,2.95663,-0.140042,0
0.7,2.7,0,2.96547,-0.116649,0
0.7,2.8,0,2.96499,-0.111838,0
0.7,2.9,0,2.95576,-0.12855,0
0.7,3,0,2.97368,-0.0887565,0
0.7,3.1,0,2.95718,-0.122516,0
0.7,3.2,0,2.96587,-0.102013,0
0.7,3.3,0,2.9663,-0.0979218,0
0.7,3.4,0,2.95825,-0.112161,0
0.7,3.5,0,2.97484,-0.0763345,0
0.7,3.6,0,2.95921,-0.104533,0
0.7,3.7,0,2.96737,-0.0866108,0
0.7,3.8,0,2.96793,-0.0825884,0
0.7,3.9,0,2.96059,-0.0940902,0
0.7,4,0,2.97605,-0.0631536,0
0.7,4.1,0,2.96189,-0.0857385,0
0.7,4.2,0,2.96937,-0.0703521,0
0.7,4.3,0,2.97016,-0.0660322,0
0.7,4.4,0,2.96376,-0.0744586,0
0.7,4.5,0,2.97739,-0.0491011,0
0.7,4.6,0,2.96582,-0.065077,0
0.7,4.7,0,2.9716,-0.0525004,0
0.7,4.8,0,2.97229,-0.0468881,0
0.7,4.9,0,2.96699,-0.0511524,0
0.7,5,0,2.97684,-0.0350521,0
0.7,5.1,0,2.97638,-0.0311607,0
0.7,5.2,0,2.97621,-0.0289541,0
0.7,5.3,0,2.97616,-0.026631,0
0.7,5.4,0,2.97619,-0.0242375,0
0.7,5.5,0,2.97624,-0.0217859,0
0.7,5.6,0,2.97631,-0.0192907,0
0.7,5.7,0,2.97639,-0.0167636,0
0.7,5.8,0,2.97646,-0.0142142,0
0.7,5.9,0,2.97651,-0.0116505,0
0.7,6,0,2.97654,-0.00908033,0
0.7,6.1,0,2.97655,-0.00651083,0
0.7,6.2,0,2.97654,-0.00394915,0
0.7,6.3,0,2.97651,-0.00140271,0
0.7,6.4,0,2.97647,0.00112006,0
0.7,6.5,0,2.97644,0.00360983,0
0.7,6.6,0,2.97643,0.00605527,0
0.7,6.7,0,2.97645,0.00844262,0
0.7,6.8,0,2.97657,0.0107583,0
0.7,6.9,0,2.97682,0.0129688,0
0.7,7,0,2.97737,0.0170599,0
0.7,7.1,0,2.96843,0.0248847,0
0.7,7.2,0,2.97003,0.0265518,0
0.7,7.3,0,2.97633,0.0262423,0
0.7,7.4,0,2.96576,0.0399017,0
0.7,7.5,0,2.97042,0.0381238,0
0.7,7.6,0,2.97404,0.0378465,0
0.7,7.7,0,2.96217,0.0540719,0
0.7,7.8,0,2.97049,0.0469435,0
0.7,7.9,0,2.97109,0.0496885,0
0.7,8,0,2.96042,0.0660544,0
0.7,8.1,0,2.97125,0.0543234,0
0.7,8.2,0,2.96812,0.0620899,0
0.7,8.3,0,2.95921,0.0773507,0
0.7,8.4,0,2.97235,0.0606107,0
0.7,8.5,0,2.96515,0.0750428,0
0.7,8.6,0,2.96013,0.0853133,0
0.7,8.7,0,2.97372,0.0658688,0
0.7,8.8,0,2.9622,0.0885676,0
0.7,8.9,0,2.96134,0.0922616,0
0.7,9,0,2.97389,0.0727932,0
0.7,9.1,0,2.95919,0.102908,0
0.7,9.2,0,2.96264,0.0984202,0
0.7,9.3,0,2.97108,0.0849088,0
0.7,9.4,0,2.95595,0.117031,0
0.7,9.5,0,2.96432,0.102938,0
0.7,9.6,0,2.96879,0.0977465,0
0.7,9.7,0,2.95476,0.130515,0
0.7,9.8,0,2.96587,0.10737,0
0.7,9.9,0,2.96467,0.109699,0
0.7,10,0,2.95176,0.13695,0
0.7,10.1,0,2.9677,0.108455,0
0.7,10.2,0,2.96467,0.125401,0
0.7,10.3,0,2.95695,0.150074,0
0.7,10.4,0,2.97019,0.11233,0
0.7,10.5,0,2.95437,0.133572,0
0.7,10.6,0,2.94834,0.141981,0
0.7,10.7,0,2.97109,0.107241,0
0.7,10.8,0,2.9621,0.151472,0
0.7,10.9,0,2.96365,0.152829,0
0.7,11,0,2.97222,0.119947,0
0.7,11.1,0,2.95098,0.164509,0
0.7,11.2,0,2.95727,0.146682,0
0.7,11.3,0,2.96329,0.121458,0
0.7,11.4,0,2.93063,0.159378,0
0.7,11.5,0,2.95148,0.135483,0
0.7,11.6,0,2.96758,0.136141,0
0.7,11.7,0,2.96031,0.184227,0
0.7,11.8,0,2.97254,0.140024,0
0.7,11.9,0,2.96892,0.138796,0
0.7,12,0,2.95677,0.166841,0
0.7,12.1,0,2.97307,0.120791,0
0.7,12.2,0,2.95252,0.138907,0
0.7,12.3,0,2.93432,0.157328,0
0.7,12.4,0,2.96613,0.107022,0
0.7,12.5,0,2.93884,0.133948,0
0.7,12.6,0,2.93271,0.133618,0
0.7,12.7,0,2.96937,0.0836566,0
0.8,0,0,2.97649,-0.0420798,0
0.8,0.1,0,2.95357,-0.0794999,0
0.8,0.2,0,2.95684,-0.088589,0
0.8,0.3,0,2.96514,-0.0955138,0
0.8,0.4,0,2.96555,-0.105029,0
0.8,0.5,0,2.98445,-0.0764391,0
0.8,0.6,0,2.97568,-0.108838,0
0.8,0.7,0,2.97224,-0.112077,0
0.8,0.8,0,2.96178,-0.114917,0
0.8,0.9,0,2.9586,-0.120248,0
0.8,1,0,2.97334,-0.0905406,0
0.8,1.1,0,2.95332,-0.117264,0
0.8,1.2,0,2.95778,-0.118011,0
0.8,1.3,0,2.97191,-0.123763,0
0.8,1.4,0,2.9684,-0.12927,0
0.8,1.5,0,2.97401,-0.0993089,0
0.8,1.6,0,2.96134,-0.124641,0
0.8,1.7,0,2.96141,-0.119628,0
0.8,1.8,0,2.95837,-0.11463,0
0.8,1.9,0,2.95795,-0.120225,0
0.8,2,0,2.97371,-0.0977115,0
0.8,2.1,0,2.96562,-0.122495,0
0.8,2.2,0,2.96572,-0.116786,0
0.8,2.3,0,2.96194,-0.109579,0
0.8,2.4,0,2.9604,-0.112268,0
0.8,2.5,0,2.97217,-0.0895322,0
0.8,2.6,0,2.96335,-0.110985,0
0.8,2.7,0,2.9647,-0.106805,0
0.8,2.8,0,2.96422,-0.101994,0
0.8,2.9,0,2.96282,-0.10282,0
0.8,3,0,2.97259,-0.080183,0
0.8,3.1,0,2.96355,-0.0981086,0
0.8,3.2,0,2.96476,-0.0941882,0
0.8,3.3,0,2.96519,-0.090097,0
0.8,3.4,0,2.96439,-0.0900501,0
0.8,3.5,0,2.97365,-0.0693226,0
0.8,3.6,0,2.96507,-0.0840656,0
0.8,3.7,0,2.96618,-0.0802432,0
0.8,3.8,0,2.96674,-0.0762208,0
0.8,3.9,0,2.96617,-0.0755182,0