/*--------------------------------*- C++ -*----------------------------------*\
| =========                 |                                                 |
| \\      /  F ield         | OpenFOAM: The Open Source CFD Toolbox           |
|  \\    /   O peration     | Version:  v1806                                 |
|   \\  /    A nd           | Web:      www.OpenFOAM.com                      |
|    \\/     M anipulation  |                                                 |
\*---------------------------------------------------------------------------*/
FoamFile
{
    version     2.0;
    format      ascii;
    class       volScalarField;
    location    "450";
    object      p;
}
// * * * * * * * * * * * * * * * * * * * * * * * * * * * * * * * * * * * * * //

dimensions      [0 2 -2 0 0 0 0];


internalField   nonuniform List<scalar> 
6205
(
0.0449232
0.0449679
0.0449648
0.0449679
0.0449232
0.0502864
0.0502945
0.0502897
0.0502945
0.0502864
0.0469283
0.0469564
0.0469518
0.0469564
0.0469283
0.0406844
0.0406925
0.0406916
0.0406925
0.0406844
0.00156083
0.00155944
0.00155967
0.00155944
0.00156083
0.00147905
0.00147839
0.00147843
0.00147839
0.00147905
0.00123259
0.00123254
0.00123258
0.00123254
0.00123259
0.00174705
0.00174886
0.00174891
0.00174886
0.00174705
0.00174092
0.00174051
0.00174065
0.00174051
0.00174092
0.00176097
0.00176296
0.00176299
0.00176296
0.00176097
0.00169098
0.00169197
0.00169207
0.00169197
0.00169098
0.00165804
0.00165793
0.00165805
0.00165793
0.00165804
0.00174075
0.00174083
0.001741
0.00174083
0.00174075
0.00173967
0.00174026
0.00174043
0.00174026
0.00173967
0.00183023
0.00183187
0.00183197
0.00183187
0.00183023
0.00177253
0.0017724
0.00177257
0.00177239
0.00177253
0.0242056
0.0242204
0.0242193
0.0242204
0.0242056
0.0329993
0.0330249
0.0330214
0.0330249
0.0329993
0.0242323
0.0242423
0.0242421
0.0242423
0.0242323
0.0241034
0.024113
0.0241132
0.024113
0.0241034
0.0270771
0.027083
0.0270826
0.027083
0.0270771
0.0269403
0.0269471
0.0269471
0.0269471
0.0269403
0.0302534
0.0302606
0.0302604
0.0302606
0.0302534
0.0301082
0.0301198
0.0301195
0.0301198
0.0301082
0.0336056
0.0336095
0.0336096
0.0336095
0.0336056
0.0335378
0.0335458
0.0335454
0.0335458
0.0335378
0.0372458
0.0372654
0.0372648
0.0372654
0.0372458
0.0371943
0.0372131
0.0372121
0.0372131
0.0371943
0.0405912
0.0405966
0.0405957
0.0405966
0.0405912
0.0498742
0.0498817
0.0498771
0.0498817
0.0498742
0.0466543
0.0466815
0.0466769
0.0466815
0.0466543
0.0413505
0.0413671
0.0413653
0.0413671
0.0413505
0.0369176
0.0369335
0.0369327
0.0369335
0.0369176
0.0329916
0.0330034
0.0330032
0.0330034
0.0329916
0.0295549
0.029564
0.0295638
0.029564
0.0295549
0.0264722
0.0264798
0.0264795
0.0264798
0.0264722
0.0237327
0.0237404
0.0237401
0.0237404
0.0237327
0.0212828
0.0212923
0.0212922
0.0212923
0.0212828
0.0216959
0.0217055
0.0217056
0.0217055
0.0216959
0.0216355
0.0216424
0.021643
0.0216424
0.0216355
0.0212123
0.0212184
0.0212193
0.0212184
0.0212123
0.0236209
0.0236311
0.0236316
0.0236311
0.0236209
0.026356
0.0263646
0.0263647
0.0263646
0.026356
0.0294837
0.0294994
0.029499
0.0294994
0.0294837
0.0329608
0.0329722
0.0329715
0.0329722
0.0329608
0.0370034
0.0370225
0.0370211
0.0370225
0.0370034
0.0416761
0.0416877
0.0416859
0.0416877
0.0416761
0.0227317
0.0227386
0.0227393
0.0227386
0.0227317
0.0252185
0.0252238
0.0252242
0.0252238
0.0252185
0.0279946
0.0280031
0.0280033
0.0280031
0.0279946
0.0310328
0.0310352
0.0310352
0.0310352
0.0310328
0.0343143
0.0343245
0.0343243
0.0343245
0.0343143
0.037333
0.037343
0.0373421
0.037343
0.037333
0.040077
0.0400919
0.04009
0.0400919
0.040077
0.0429369
0.0429632
0.0429596
0.0429632
0.0429369
0.0423042
0.0423286
0.0423251
0.0423286
0.0423042
0.0397161
0.03973
0.039728
0.03973
0.0397161
0.0204763
0.0204804
0.0204814
0.0204804
0.0204763
0.0369771
0.0369878
0.0369869
0.0369878
0.0369771
0.034068
0.0340773
0.0340774
0.0340773
0.034068
0.031195
0.0311985
0.0311987
0.0311985
0.031195
0.0281717
0.0281746
0.0281747
0.0281746
0.0281717
0.0253243
0.0253269
0.0253267
0.0253269
0.0253243
0.0228121
0.0228209
0.0228206
0.0228209
0.0228121
0.00179415
0.0017943
0.00179445
0.0017943
0.00179415
0.00181061
0.00181105
0.00181121
0.00181105
0.00181061
0.00179006
0.00179043
0.00179058
0.00179044
0.00179006
0.00177213
0.00177249
0.00177265
0.00177249
0.00177213
0.00177311
0.00177391
0.00177406
0.00177391
0.00177311
0.00161766
0.00161874
0.00161875
0.00161874
0.00161766
0.00160542
0.00160652
0.00160654
0.00160652
0.00160542
0.0204976
0.0205075
0.0205076
0.0205075
0.0204976
0.018462
0.0184709
0.0184716
0.0184709
0.0184619
0.0191343
0.0191441
0.0191446
0.0191441
0.0191343
0.0195125
0.0195216
0.0195222
0.0195216
0.0195125
0.0195191
0.0195243
0.0195251
0.0195243
0.0195191
0.0191526
0.0191566
0.0191576
0.0191566
0.0191526
0.0185098
0.0185132
0.0185142
0.0185132
0.0185098
0.0175706
0.0175741
0.0175751
0.0175741
0.0175706
0.0194061
0.0194083
0.0194092
0.0194083
0.0194061
0.0214381
0.0214422
0.0214431
0.0214422
0.0214381
0.0236136
0.0236162
0.0236171
0.0236162
0.0236136
0.0259253
0.0259286
0.0259295
0.0259286
0.0259253
0.0283248
0.0283289
0.0283299
0.0283289
0.0283248
0.030708
0.0307177
0.0307185
0.0307177
0.030708
0.0325935
0.0326075
0.0326077
0.0326075
0.0325935
0.0336998
0.03372
0.0337186
0.03372
0.0336998
0.0334731
0.0335028
0.033499
0.0335028
0.0334731
0.0166984
0.0167039
0.016705
0.0167039
0.0166984
0.0172937
0.0172993
0.0173002
0.0172992
0.0172937
0.0176289
0.017634
0.0176349
0.0176341
0.0176289
0.0176614
0.0176653
0.0176662
0.0176653
0.0176614
0.0173669
0.0173689
0.01737
0.0173689
0.0173669
0.0167852
0.0167875
0.0167886
0.0167875
0.0167852
0.0159254
0.0159277
0.0159289
0.0159277
0.0159254
0.0334289
0.033452
0.0334504
0.033452
0.0334289
0.032069
0.0320832
0.0320835
0.0320832
0.032069
0.0303537
0.0303618
0.0303627
0.0303618
0.0303537
0.0283017
0.0283059
0.028307
0.0283059
0.0283017
0.0260949
0.0260962
0.026097
0.0260962
0.0260949
0.0237344
0.0237342
0.0237344
0.0237342
0.0237344
0.0214708
0.0214766
0.0214766
0.0214766
0.0214708
0.019384
0.019392
0.0193924
0.019392
0.019384
0.0175062
0.0175118
0.0175126
0.0175117
0.0175062
0.015879
0.0158819
0.015883
0.0158819
0.015879
0.00181009
0.0018099
0.00181013
0.0018099
0.00181009
0.00185459
0.00185552
0.00185564
0.00185552
0.0018546
0.00161522
0.00161601
0.00161605
0.00161601
0.00161522
0.00167222
0.00167312
0.00167319
0.00167312
0.00167222
0.00171845
0.00171976
0.00171983
0.00171976
0.00171845
0.00173821
0.00173846
0.00173861
0.00173846
0.00173821
0.00177171
0.00177265
0.00177278
0.00177265
0.00177171
0.00176681
0.00176767
0.00176782
0.00176768
0.00176681
0.00178955
0.00179005
0.0017902
0.00179005
0.00178956
0.00177212
0.00177312
0.00177327
0.00177312
0.00177213
0.00175134
0.00175175
0.00175191
0.00175176
0.00175134
0.00173436
0.00173561
0.00173573
0.00173561
0.00173436
0.00168689
0.00168691
0.00168703
0.00168691
0.00168689
0.00162871
0.00162986
0.00162988
0.00162986
0.00162871
0.00154114
0.001542
0.00154197
0.001542
0.00154114
0.0015307
0.00153164
0.00153161
0.00153164
0.0015307
0.0015262
0.00152705
0.00152702
0.00152705
0.0015262
0.00153753
0.00153845
0.00153844
0.00153845
0.00153753
0.00156033
0.00156118
0.0015612
0.00156118
0.00156033
0.00163469
0.0016354
0.00163547
0.0016354
0.00163469
0.00168979
0.00169054
0.00169064
0.00169054
0.00168979
0.00172614
0.00172647
0.00172661
0.00172647
0.00172614
0.00175047
0.00175087
0.00175102
0.00175087
0.00175047
0.00176382
0.0017643
0.00176441
0.0017643
0.00176382
0.00175946
0.00176006
0.00176018
0.00176006
0.00175946
0.00172777
0.00172745
0.00172765
0.00172745
0.00172777
0.00177781
0.00177988
0.00177994
0.00177988
0.00177781
0.00144041
0.00144146
0.00144141
0.00144146
0.00144041
0.00143211
0.00143312
0.00143307
0.00143312
0.00143211
0.00143194
0.00143295
0.00143289
0.00143295
0.00143194
0.00144332
0.00144435
0.0014443
0.00144435
0.00144332
0.00146517
0.00146613
0.0014661
0.00146613
0.00146517
0.00175629
0.0017569
0.00175708
0.0017569
0.00175629
0.00176245
0.00176271
0.0017629
0.00176272
0.00176245
0.00175341
0.00175372
0.00175392
0.00175373
0.00175341
0.0017311
0.00173159
0.00173177
0.00173159
0.0017311
0.00169262
0.00169317
0.00169334
0.00169317
0.00169263
0.00163906
0.00164005
0.00164013
0.00164005
0.00163906
0.00155897
0.00155993
0.00155993
0.00155993
0.00155897
0.00145686
0.00145785
0.00145782
0.00145785
0.00145686
0.00170126
0.00170017
0.00170041
0.00170017
0.00170126
0.00149893
0.00149984
0.00149981
0.00149984
0.00149893
0.00159735
0.00159797
0.00159796
0.00159797
0.00159735
0.00167381
0.00167431
0.00167433
0.00167431
0.00167381
0.00172782
0.00172829
0.00172834
0.00172829
0.00172782
0.00175924
0.00175969
0.0017598
0.00175969
0.00175924
0.00177316
0.00177369
0.00177381
0.00177369
0.00177316
0.00177278
0.00177387
0.00177397
0.00177387
0.00177278
0.00175815
0.00175887
0.00175896
0.00175887
0.00175815
0.00159102
0.00159054
0.00159062
0.00159054
0.00159102
0.00134158
0.00134263
0.00134259
0.00134263
0.00134158
0.00132716
0.00132814
0.00132809
0.00132814
0.00132716
0.00132195
0.00132293
0.00132288
0.00132293
0.00132195
0.00132362
0.00132461
0.00132455
0.00132461
0.00132362
0.00133329
0.00133427
0.00133422
0.00133427
0.00133329
0.00135171
0.00135266
0.00135262
0.00135266
0.00135171
0.00137779
0.0013787
0.00137866
0.0013787
0.00137779
0.00171226
0.00171391
0.00171402
0.00171391
0.00171226
0.00175677
0.0017587
0.00175877
0.0017587
0.00175677
0.00175913
0.00175979
0.00175993
0.00175979
0.00175913
0.00177222
0.00177311
0.00177327
0.00177312
0.00177223
0.00177353
0.00177404
0.0017742
0.00177404
0.00177353
0.00176161
0.00176215
0.00176228
0.00176215
0.00176161
0.00172747
0.00172785
0.00172793
0.00172785
0.00172747
0.00167084
0.0016714
0.00167142
0.0016714
0.00167084
0.00158945
0.00159016
0.00159014
0.00159016
0.00158945
0.00148695
0.00148787
0.00148784
0.00148787
0.00148695
0.00136555
0.00136652
0.0013665
0.00136652
0.00136555
0.00167786
0.00167849
0.00167866
0.00167849
0.00167786
0.00166283
0.00166237
0.00166252
0.00166237
0.00166283
0.0017359
0.00173629
0.00173642
0.00173629
0.0017359
0.00178231
0.0017829
0.00178308
0.0017829
0.00178232
0.00180843
0.0018093
0.00180952
0.0018093
0.00180843
0.00181367
0.00181511
0.00181532
0.00181511
0.00181367
0.00179072
0.00179252
0.00179269
0.00179252
0.00179072
0.00173641
0.00173817
0.00173834
0.00173817
0.00173641
0.00165384
0.00165538
0.00165552
0.00165538
0.00165384
0.00154445
0.00154574
0.00154585
0.00154574
0.00154445
0.00140991
0.00141101
0.00141109
0.00141101
0.00140991
0.00149272
0.00149152
0.00149173
0.00149152
0.00149272
0.00159893
0.00159887
0.00159909
0.00159887
0.00159893
0.00167712
0.00167644
0.00167664
0.00167644
0.00167712
0.00174176
0.00174223
0.00174244
0.00174223
0.00174176
0.00178612
0.00178693
0.00178714
0.00178694
0.00178612
0.00181047
0.00181149
0.00181172
0.00181149
0.00181047
0.0018137
0.0018152
0.00181545
0.00181521
0.00181371
0.00178702
0.0017888
0.00178901
0.00178881
0.00178702
0.00172978
0.00173172
0.0017319
0.00173172
0.00172978
0.00164288
0.00164457
0.00164471
0.00164457
0.00164288
0.00153143
0.00153279
0.00153289
0.00153279
0.00153143
0.00139848
0.00139966
0.00139974
0.00139966
0.00139848
0.00124565
0.00124646
0.00124653
0.00124646
0.00124564
0.00122954
0.00123028
0.00123028
0.00123028
0.00122954
0.00121531
0.00121617
0.00121615
0.00121617
0.00121531
0.00120603
0.00120693
0.0012069
0.00120693
0.00120603
0.00120191
0.0012028
0.00120277
0.0012028
0.00120191
0.00120352
0.00120439
0.00120437
0.00120439
0.00120352
0.00121101
0.00121191
0.00121188
0.00121191
0.00121101
0.00122328
0.00122416
0.00122414
0.00122416
0.00122328
0.0012401
0.00124095
0.00124094
0.00124095
0.0012401
0.00125802
0.00125889
0.00125896
0.00125889
0.00125802
0.027089
0.0270935
0.0270927
0.0270935
0.027089
0.027077
0.0270795
0.0270805
0.0270795
0.027077
0.0263704
0.026374
0.0263753
0.026374
0.0263704
0.0250421
0.0250414
0.0250429
0.0250414
0.0250421
0.0234609
0.0234593
0.0234603
0.0234593
0.0234609
0.0216402
0.02164
0.0216405
0.02164
0.0216402
0.0197664
0.0197706
0.0197711
0.0197706
0.0197664
0.0179753
0.01798
0.0179807
0.01798
0.0179753
0.0163456
0.0163491
0.0163501
0.0163491
0.0163456
0.0148629
0.0148646
0.0148657
0.0148646
0.0148629
0.0135502
0.0135516
0.0135528
0.0135516
0.0135502
0.0144691
0.0144708
0.014472
0.0144708
0.0144691
0.015208
0.0152108
0.0152121
0.0152108
0.015208
0.015743
0.0157467
0.0157479
0.0157467
0.015743
0.0160335
0.0160379
0.0160389
0.0160379
0.0160335
0.0160499
0.016052
0.016053
0.016052
0.0160499
0.0158054
0.0158075
0.0158086
0.0158075
0.0158054
0.0152669
0.0152697
0.0152709
0.0152697
0.0152669
0.014499
0.0145013
0.0145026
0.0145013
0.014499
0.0135615
0.0135626
0.0135639
0.0135626
0.0135615
0.0148698
0.0148711
0.0148723
0.0148711
0.0148698
0.0163847
0.0163876
0.0163887
0.0163876
0.0163847
0.0180113
0.018013
0.018014
0.018013
0.0180113
0.0197551
0.0197562
0.0197573
0.0197562
0.0197551
0.0215135
0.0215136
0.0215149
0.0215136
0.0215135
0.0233752
0.0233764
0.0233778
0.0233764
0.0233752
0.0251409
0.0251419
0.0251434
0.0251419
0.0251409
0.0266886
0.0266941
0.0266953
0.0266941
0.0266886
0.0274017
0.0274057
0.0274065
0.0274057
0.0274017
0.0272049
0.0272108
0.02721
0.0272108
0.0272049
0.0244048
0.0244202
0.0244188
0.0244202
0.0244048
0.0181378
0.0181851
0.0181801
0.0181851
0.0181378
0.00734832
0.00731005
0.00730563
0.00731005
0.00734833
0.0185493
0.0186022
0.018597
0.0186022
0.0185493
0.00764292
0.00760807
0.00760313
0.00760807
0.00764292
0.00127186
0.0012718
0.00127182
0.0012718
0.00127186
0.0014362
0.00143575
0.00143572
0.00143575
0.0014362
0.00158182
0.00158107
0.00158101
0.00158107
0.00158182
0.00170114
0.00170003
0.00169997
0.00170003
0.00170114
0.00178979
0.00178851
0.00178845
0.00178851
0.00178979
0.00184518
0.00184415
0.00184409
0.00184415
0.00184518
0.00186522
0.00186425
0.00186425
0.00186425
0.00186522
0.00185309
0.00185246
0.00185252
0.00185247
0.0018531
0.00181377
0.00181381
0.00181388
0.00181381
0.00181377
0.00175058
0.00175136
0.00175147
0.00175136
0.00175058
0.00167188
0.00167237
0.00167241
0.00167237
0.00167188
0.00161327
0.00161671
0.00161669
0.00161671
0.00161327
0.00143997
0.00144058
0.00144049
0.00144058
0.00143997
0.00108551
0.00108616
0.00108625
0.00108616
0.00108551
0.0010847
0.00108546
0.0010855
0.00108546
0.0010847
0.00108004
0.00108082
0.00108083
0.00108082
0.00108004
0.00107481
0.00107558
0.00107559
0.00107558
0.00107481
0.00107191
0.00107265
0.00107266
0.00107265
0.00107191
0.00107357
0.00107432
0.00107433
0.00107432
0.00107357
0.0010778
0.00107852
0.00107853
0.00107852
0.0010778
0.00108548
0.00108619
0.00108621
0.00108619
0.00108548
0.00109343
0.0010941
0.00109413
0.0010941
0.00109343
0.00109857
0.00109915
0.00109923
0.00109915
0.00109857
0.00109677
0.00109694
0.00109701
0.00109694
0.00109677
0.00137859
0.00137808
0.00137828
0.00137808
0.00137859
0.00157889
0.00158141
0.00158155
0.00158141
0.00157889
0.00166197
0.0016622
0.00166238
0.0016622
0.00166197
0.00174806
0.0017486
0.00174878
0.0017486
0.00174806
0.00181345
0.00181351
0.00181362
0.00181351
0.00181345
0.00185194
0.00185131
0.00185139
0.00185131
0.00185194
0.00186236
0.00186157
0.00186159
0.00186158
0.00186236
0.00183947
0.00183844
0.0018384
0.00183844
0.00183947
0.00178266
0.00178167
0.00178161
0.00178167
0.00178266
0.00169117
0.00169022
0.00169015
0.00169022
0.00169117
0.00156925
0.00156866
0.00156861
0.00156866
0.00156925
0.00142213
0.00142172
0.0014217
0.00142172
0.00142213
0.00125709
0.00125703
0.00125705
0.00125703
0.00125709
0.0010804
0.00108066
0.00108075
0.00108066
0.0010804
0.0124572
0.0124585
0.0124598
0.0124585
0.0124572
0.0136481
0.0136492
0.0136504
0.0136492
0.0136481
0.0149432
0.0149455
0.0149466
0.0149455
0.0149432
0.016331
0.0163315
0.0163325
0.0163315
0.016331
0.0177271
0.017726
0.0177272
0.017726
0.0177271
0.0191585
0.0191573
0.0191588
0.0191573
0.0191584
0.0205803
0.0205803
0.020582
0.0205803
0.0205803
0.0217828
0.0217849
0.0217868
0.0217849
0.0217828
0.0226467
0.0226518
0.0226533
0.0226518
0.0226467
0.0227642
0.0227763
0.0227774
0.0227763
0.0227642
0.0216859
0.0217084
0.021708
0.0217084
0.0216859
0.0197937
0.0198441
0.0198407
0.0198441
0.0197937
0.0151705
0.01517
0.0151649
0.01517
0.0151705
0.00856816
0.00853413
0.00853087
0.00853413
0.00856816
0.000321137
0.000280377
0.000282021
0.000280377
0.000321137
0.0123991
0.0124012
0.0124026
0.0124012
0.0123991
0.0132574
0.0132589
0.0132604
0.0132589
0.0132574
0.0139387
0.0139393
0.0139407
0.0139393
0.0139387
0.0144122
0.0144127
0.014414
0.0144127
0.0144122
0.0146526
0.0146537
0.0146548
0.0146537
0.0146526
0.0146667
0.0146679
0.0146689
0.0146679
0.0146667
0.0144294
0.0144305
0.0144316
0.0144305
0.0144294
0.0139475
0.013948
0.0139493
0.013948
0.0139475
0.0132654
0.0132654
0.0132668
0.0132654
0.0132654
0.0124069
0.0124074
0.0124089
0.0124074
0.0124069
0.0113917
0.0113915
0.0113931
0.0113915
0.0113917
0.000637787
0.000601542
0.00060334
0.000601544
0.000637791
0.00838628
0.00834563
0.00834303
0.00834563
0.00838629
0.015177
0.0151669
0.0151618
0.0151669
0.015177
0.0202007
0.0202553
0.0202513
0.0202553
0.0202007
0.021793
0.021821
0.0218206
0.021821
0.021793
0.0225908
0.0226033
0.0226049
0.0226033
0.0225908
0.0224252
0.0224253
0.0224269
0.0224253
0.0224252
0.0217018
0.0216972
0.0216986
0.0216972
0.0217018
0.0206503
0.0206489
0.0206496
0.0206489
0.0206503
0.0192663
0.0192687
0.0192691
0.0192687
0.0192663
0.0177823
0.0177875
0.017788
0.0177875
0.0177823
0.0162759
0.0162815
0.0162824
0.0162815
0.0162759
0.0148822
0.0148862
0.0148874
0.0148862
0.0148822
0.0136079
0.0136087
0.0136098
0.0136087
0.0136079
0.0124505
0.0124506
0.0124518
0.0124506
0.0124505
0.0113969
0.0113982
0.0113995
0.0113982
0.0113969
0.00144713
0.00145272
0.0014524
0.00145272
0.00144713
0.000701708
0.000703371
0.000703279
0.000703371
0.000701708
0.0104881
0.0104884
0.0104899
0.0104884
0.0104881
0.0114218
0.0114215
0.0114231
0.0114215
0.0114218
0.0122206
0.0122198
0.0122213
0.0122198
0.0122206
0.0128464
0.0128452
0.0128466
0.0128452
0.0128464
0.01327
0.0132693
0.0132704
0.0132693
0.01327
0.0134824
0.0134824
0.0134834
0.0134824
0.0134824
0.0134855
0.0134853
0.0134863
0.0134853
0.0134855
0.0132698
0.0132693
0.0132703
0.0132693
0.0132698
0.0128459
0.0128446
0.0128459
0.0128446
0.0128459
0.0122335
0.0122313
0.0122328
0.0122313
0.0122335
0.011438
0.0114367
0.0114382
0.0114367
0.011438
0.0104933
0.0104917
0.0104933
0.0104917
0.0104933
0.00942695
0.00942483
0.00942647
0.00942483
0.00942695
0.0102247
0.0102238
0.0102254
0.0102238
0.0102247
0.011145
0.0111461
0.0111475
0.0111461
0.011145
0.0121467
0.0121487
0.0121499
0.0121487
0.0121467
0.013246
0.0132488
0.0132498
0.0132488
0.013246
0.0143962
0.0143965
0.0143975
0.0143965
0.0143962
0.0155492
0.0155462
0.0155474
0.0155462
0.0155492
0.0166557
0.0166537
0.0166553
0.0166537
0.0166557
0.0176715
0.0176728
0.0176746
0.0176728
0.0176715
0.0184669
0.0184723
0.0184741
0.0184723
0.0184669
0.0188781
0.0188868
0.0188881
0.0188868
0.0188781
0.0187071
0.0187241
0.0187245
0.0187241
0.0187071
0.0175499
0.0175662
0.0175653
0.0175662
0.0175499
0.0155848
0.0156065
0.015603
0.0156065
0.0155848
0.0119438
0.0119364
0.0119323
0.0119364
0.0119438
0.00616136
0.00613344
0.00613172
0.00613344
0.00616136
-0.000606543
-0.000612861
-0.000609906
-0.000612861
-0.000606544
-0.00457138
-0.00454013
-0.00453888
-0.00454013
-0.00457138
-0.00519696
-0.00519769
-0.00519812
-0.00519769
-0.00519696
-0.00308601
-0.00308952
-0.0030895
-0.00308952
-0.00308601
-0.00102228
-0.0010321
-0.00103188
-0.00103209
-0.00102228
0.00102626
0.00103804
0.00103633
0.00103804
0.00102627
-6.47548e-05
-7.82867e-05
-7.81491e-05
-7.82867e-05
-6.47534e-05
0.00126974
0.00127332
0.00127337
0.00127332
0.00126974
0.00126086
0.00125583
0.00125612
0.00125583
0.00126086
0.00158154
0.00158348
0.0015837
0.00158348
0.00158154
0.00166267
0.00166201
0.0016623
0.00166201
0.00166267
0.00178468
0.00178568
0.001786
0.00178568
0.00178468
0.00188953
0.0018915
0.0018918
0.00189149
0.00188953
0.00197452
0.00197739
0.0019777
0.00197738
0.00197452
0.00202937
0.00203352
0.0020338
0.00203352
0.00202937
0.00202619
0.00203108
0.00203132
0.00203108
0.00202619
0.00196008
0.00196527
0.0019655
0.00196527
0.00196008
0.00183375
0.0018385
0.00183873
0.0018385
0.00183375
0.0016673
0.00167158
0.00167182
0.00167158
0.0016673
0.00147226
0.0014756
0.00147586
0.0014756
0.00147226
0.0012678
0.00127005
0.00127032
0.00127005
0.0012678
0.00106379
0.00106501
0.00106527
0.00106501
0.00106379
0.000868651
0.000869113
0.000869365
0.000869113
0.000868651
0.000906049
0.000906273
0.000906408
0.000906273
0.000906049
0.000925039
0.00092539
0.000925506
0.000925389
0.000925038
0.000933791
0.000934258
0.000934337
0.000934251
0.000933788
0.000936206
0.000936749
0.000936808
0.000936748
0.000936205
0.000935182
0.000935772
0.000935821
0.000935772
0.000935181
0.000934411
0.000935001
0.000935052
0.000935001
0.000934411
0.000935237
0.0009358
0.000935855
0.0009358
0.000935237
0.000938367
0.00093896
0.000939012
0.00093896
0.000938367
0.000942061
0.000942682
0.000942731
0.000942682
0.000942061
0.000943689
0.000944259
0.000944322
0.000944259
0.000943689
0.000938704
0.000939199
0.000939296
0.000939199
0.000938704
0.000921863
0.000922156
0.000922275
0.000922156
0.000921863
0.000892354
0.000892903
0.000893124
0.000892902
0.000892353
0.00108551
0.00108681
0.00108705
0.00108681
0.00108551
0.00128907
0.0012914
0.00129165
0.0012914
0.00128907
0.00149212
0.00149546
0.0014957
0.00149546
0.00149212
0.00168464
0.00168884
0.00168907
0.00168884
0.00168464
0.00184822
0.00185286
0.00185309
0.00185286
0.00184822
0.00197026
0.0019752
0.00197544
0.0019752
0.00197026
0.00203594
0.00204075
0.00204097
0.00204075
0.00203594
0.00203702
0.00204106
0.00204131
0.00204106
0.00203702
0.0019817
0.0019846
0.0019849
0.0019846
0.0019817
0.00189094
0.00189254
0.00189284
0.00189255
0.00189095
0.0017834
0.00178462
0.0017849
0.00178462
0.0017834
0.00164324
0.00164249
0.00164274
0.00164249
0.00164324
0.00152542
0.00152611
0.00152642
0.00152611
0.00152542
0.0011578
0.00115162
0.00115187
0.00115162
0.0011578
0.00152035
0.00152677
0.00152647
0.00152677
0.00152035
0.00104629
0.00104806
0.00104796
0.00104806
0.00104629
0.0012726
0.00127645
0.00127644
0.00127645
0.0012726
-0.000333781
-0.000350329
-0.000350026
-0.000350329
-0.000333781
0.00121171
0.00122499
0.00122333
0.00122499
0.00121171
-0.00107221
-0.00108324
-0.00108294
-0.00108324
-0.00107221
-0.00296671
-0.00297023
-0.00297064
-0.00297023
-0.00296671
-0.00474619
-0.00474755
-0.00474934
-0.00474755
-0.00474619
-0.00390541
-0.00385759
-0.00385727
-0.00385759
-0.00390541
7.75337e-05
8.32999e-05
8.64275e-05
8.33057e-05
7.75431e-05
0.00671168
0.0066835
0.00668232
0.00668352
0.0067117
0.0122969
0.0122795
0.0122752
0.0122795
0.012297
0.0158845
0.0159066
0.015902
0.0159067
0.0158845
0.0175082
0.0175312
0.0175305
0.0175312
0.0175082
0.0185736
0.0185869
0.0185877
0.0185869
0.0185736
0.0187617
0.018763
0.0187642
0.018763
0.0187617
0.0184356
0.0184347
0.0184355
0.0184347
0.0184356
0.017705
0.0177075
0.0177078
0.0177075
0.017705
0.0167273
0.0167322
0.0167326
0.0167322
0.0167273
0.0155499
0.0155563
0.0155569
0.0155563
0.0155499
0.0143558
0.0143595
0.0143604
0.0143595
0.0143558
0.0132174
0.0132191
0.0132202
0.0132191
0.0132174
0.0121458
0.0121461
0.0121471
0.0121461
0.0121458
0.0111599
0.0111609
0.011162
0.0111609
0.0111599
0.0102378
0.0102396
0.0102409
0.0102396
0.0102378
0.00941234
0.00941296
0.00941452
0.00941296
0.00941234
0.00874708
0.00874488
0.00874657
0.00874488
0.00874708
0.00974409
0.00974206
0.00974371
0.00974206
0.00974409
0.0106259
0.010623
0.0106246
0.010623
0.0106259
0.0113575
0.0113545
0.0113558
0.0113545
0.0113575
0.0119239
0.011921
0.0119222
0.011921
0.0119239
0.0123052
0.012303
0.012304
0.012303
0.0123052
0.0124976
0.0124961
0.012497
0.0124961
0.0124976
0.0124998
0.0124987
0.0124995
0.0124987
0.0124998
0.0123068
0.0123052
0.0123061
0.0123052
0.0123068
0.0119262
0.0119233
0.0119244
0.0119233
0.0119262
0.0113666
0.0113629
0.0113642
0.0113629
0.0113666
0.0106363
0.0106327
0.0106341
0.0106327
0.0106363
0.00975755
0.00975411
0.00975572
0.00975411
0.00975755
0.00874655
0.00874262
0.00874425
0.00874262
0.00874655
0.00764745
0.0076436
0.00764512
0.0076436
0.00764745
0.00823467
0.00823293
0.00823448
0.00823293
0.00823467
0.00891433
0.00891332
0.00891479
0.00891332
0.00891433
0.00966382
0.00966369
0.00966504
0.00966369
0.00966382
0.01049
0.0104913
0.0104925
0.0104913
0.01049
0.0113852
0.0113862
0.0113873
0.0113862
0.0113852
0.0123154
0.0123147
0.0123158
0.0123147
0.0123154
0.0132232
0.0132208
0.0132221
0.0132208
0.0132232
0.0140618
0.0140611
0.0140627
0.0140611
0.0140618
0.0147726
0.0147756
0.0147773
0.0147756
0.0147726
0.0152765
0.0152852
0.0152866
0.0152851
0.0152765
0.0154297
0.0154407
0.0154415
0.0154407
0.0154296
0.0151075
0.0151233
0.0151228
0.0151233
0.0151075
0.014036
0.0140446
0.0140433
0.0140446
0.014036
0.0122508
0.0122611
0.0122585
0.0122611
0.0122508
0.00939502
0.00939211
0.00938943
0.00939211
0.00939502
0.00528313
0.0052756
0.00527397
0.0052756
0.00528313
0.00164181
0.00165229
0.0016526
0.00165229
0.00164181
-0.00114191
-0.0011446
-0.00114468
-0.0011446
-0.00114191
-0.00239205
-0.0024075
-0.00240808
-0.0024075
-0.00239205
-0.00224133
-0.00227257
-0.00227189
-0.00227257
-0.00224133
-0.000957027
-0.000961711
-0.000960307
-0.000961711
-0.000957026
0.000643272
0.000660857
0.000660182
0.000660856
0.000643272
0.00117072
0.00117247
0.0011717
0.00117247
0.00117072
0.00149978
0.00150362
0.0015033
0.00150362
0.00149978
0.00155912
0.00155672
0.00155692
0.00155672
0.00155912
0.00166288
0.00166347
0.00166382
0.00166347
0.00166288
0.00174623
0.00174514
0.00174548
0.00174514
0.00174623
0.00184437
0.00184306
0.00184332
0.00184306
0.00184437
0.00194776
0.00194585
0.00194586
0.00194585
0.00194775
0.00201365
0.00201067
0.00201055
0.00201067
0.00201365
0.00203726
0.00203369
0.00203348
0.00203369
0.00203726
0.0020013
0.00199702
0.0019968
0.00199702
0.00200131
0.00191245
0.00190755
0.00190737
0.00190755
0.00191245
0.00177782
0.00177283
0.0017727
0.00177283
0.00177782
0.00160646
0.00160193
0.00160184
0.00160193
0.00160646
0.00141025
0.00140626
0.0014062
0.00140626
0.00141025
0.00120527
0.00120237
0.00120236
0.00120237
0.00120527
0.000998849
0.000996914
0.000996984
0.000996913
0.000998849
0.000800806
0.000799619
0.000799768
0.000799618
0.000800805
0.000622151
0.000621615
0.000621821
0.000621615
0.00062215
0.000692174
0.000692235
0.000692467
0.000692234
0.000692174
0.000739435
0.000739626
0.000739787
0.000739626
0.000739435
0.000768746
0.000769036
0.000769169
0.000769036
0.000768746
0.000783626
0.000783974
0.000784084
0.000783972
0.000783625
0.000789416
0.000789836
0.00078993
0.000789836
0.000789416
0.000791396
0.000791855
0.000791941
0.000791856
0.000791396
0.000791419
0.000791846
0.000791933
0.000791846
0.000791419
0.000792153
0.000792573
0.000792663
0.000792573
0.000792153
0.000793661
0.000794073
0.000794161
0.000794073
0.000793662
0.000794748
0.000795184
0.000795268
0.000795184
0.000794748
0.000791369
0.000791769
0.000791862
0.000791769
0.000791369
0.000780116
0.000780355
0.000780468
0.000780355
0.000780116
0.000755777
0.000755922
0.000756053
0.000755922
0.000755777
0.000714471
0.000714624
0.000714819
0.000714624
0.00071447
0.000650327
0.000649808
0.000649965
0.000649806
0.000650326
0.000829955
0.00082881
0.000828922
0.000828808
0.000829952
0.00102697
0.00102501
0.00102505
0.00102501
0.00102697
0.00123208
0.00122917
0.00122914
0.00122917
0.00123208
0.00143528
0.00143136
0.00143127
0.00143136
0.00143528
0.00162728
0.00162269
0.00162256
0.00162269
0.00162728
0.00179303
0.00178793
0.00178778
0.00178793
0.00179303
0.00192371
0.00191872
0.00191853
0.00191872
0.00192371
0.00200685
0.00200229
0.00200206
0.00200229
0.00200685
0.00204261
0.00203896
0.00203873
0.00203896
0.00204261
0.00201388
0.00201077
0.00201066
0.00201077
0.00201388
0.00194183
0.00193925
0.00193929
0.00193925
0.00194183
0.00184883
0.00184777
0.00184796
0.00184776
0.00184883
0.00171652
0.00171481
0.00171521
0.00171481
0.00171652
0.00161967
0.00161918
0.00161951
0.00161918
0.00161968
0.00155921
0.00155932
0.00155912
0.00155932
0.00155921
0.00153515
0.00154277
0.00154231
0.00154277
0.00153515
0.00116386
0.0011624
0.00116192
0.0011624
0.00116386
0.000811462
0.000831424
0.000831016
0.000831424
0.000811462
-0.000900328
-0.000914197
-0.000912926
-0.000914197
-0.000900328
-0.00207557
-0.00210109
-0.00210091
-0.00210109
-0.00207557
-0.00220483
-0.00221709
-0.00221821
-0.00221709
-0.00220483
-0.000839557
-0.0008433
-0.000843387
-0.000843297
-0.000839553
0.00190046
0.00191372
0.00191462
0.00191373
0.00190047
0.00547916
0.00546654
0.0054661
0.00546657
0.00547919
0.0096069
0.00959266
0.00959022
0.00959286
0.00960701
0.0125106
0.0125201
0.0125171
0.0125201
0.0125106
0.0141083
0.014122
0.014121
0.014122
0.0141083
0.0150247
0.015038
0.015038
0.015038
0.0150247
0.0153561
0.0153602
0.0153607
0.0153602
0.0153561
0.0152723
0.0152749
0.0152751
0.0152749
0.0152723
0.0148178
0.0148224
0.0148226
0.0148224
0.0148178
0.0140806
0.0140874
0.0140879
0.0140874
0.0140806
0.0131931
0.0131979
0.0131988
0.013198
0.0131931
0.0122821
0.0122831
0.0122841
0.0122831
0.0122821
0.0113835
0.0113833
0.0113843
0.0113833
0.0113835
0.0105066
0.0105069
0.0105078
0.0105069
0.0105066
0.0096776
0.00967985
0.00968081
0.00967985
0.0096776
0.00890111
0.00890326
0.00890451
0.00890326
0.00890111
0.00821936
0.00821944
0.00822094
0.00821944
0.00821936
0.00762798
0.007626
0.00762762
0.007626
0.00762798
0.00644155
0.00643827
0.00643944
0.00643827
0.00644155
0.00691525
0.00691366
0.00691486
0.00691366
0.00691525
0.00746371
0.00746281
0.00746397
0.00746281
0.00746371
0.00806417
0.00806351
0.00806465
0.00806351
0.00806417
0.00872243
0.00872238
0.00872348
0.00872238
0.00872243
0.0094264
0.00942584
0.00942693
0.00942583
0.0094264
0.0101443
0.0101431
0.0101443
0.0101431
0.0101442
0.0108322
0.010831
0.0108323
0.010831
0.0108322
0.0114514
0.0114524
0.0114539
0.0114524
0.0114514
0.0119393
0.0119436
0.011945
0.0119435
0.0119393
0.012243
0.0122523
0.0122533
0.0122523
0.012243
0.0122452
0.0122563
0.0122566
0.0122563
0.0122452
0.0118816
0.0118952
0.0118944
0.0118952
0.0118816
0.0109713
0.0109808
0.0109793
0.0109808
0.0109713