/*--------------------------------*- C++ -*----------------------------------*\
| =========                 |                                                 |
| \\      /  F ield         | OpenFOAM: The Open Source CFD Toolbox           |
|  \\    /   O peration     | Version:  v1806                                 |
|   \\  /    A nd           | Web:      www.OpenFOAM.com                      |
|    \\/     M anipulation  |                                                 |
\*---------------------------------------------------------------------------*/
FoamFile
{
    version     2.0;
    format      ascii;
    class       volVectorField;
    location    "6";
    object      U;
}
// * * * * * * * * * * * * * * * * * * * * * * * * * * * * * * * * * * * * * //

dimensions      [0 1 -1 0 0 0 0];


internalField   nonuniform List<vector> 
5028
(
(2.33975 -0.020346 0.0115609)
(2.33973 -0.0203567 1.80013e-07)
(2.33973 -0.0203567 -1.79951e-07)
(2.33975 -0.0203459 -0.0115609)
(2.19624 -0.0166632 0.0126079)
(2.19621 -0.0166573 -2.77552e-07)
(2.19621 -0.0166573 2.77863e-07)
(2.19624 -0.0166631 -0.0126079)
(2.49086 -0.0477529 0.0101595)
(2.49082 -0.0477326 -7.2639e-08)
(2.49082 -0.0477327 7.26409e-08)
(2.49086 -0.047753 -0.0101595)
(2.50917 0.0223682 0.010102)
(2.50919 0.0223803 -6.20399e-08)
(2.50919 0.0223803 6.19293e-08)
(2.50917 0.0223682 -0.010102)
(1.65194 0.0341594 0.0172007)
(1.65178 0.0342112 3.05563e-07)
(1.65178 0.0342113 -3.04968e-07)
(1.65194 0.0341596 -0.0172007)
(1.52792 -0.215055 0.0176609)
(1.52797 -0.215135 -7.30623e-07)
(1.52797 -0.215135 7.31809e-07)
(1.52792 -0.215056 -0.0176609)
(1.29602 -0.0876887 0.0206476)
(1.29601 -0.0877082 -4.01107e-07)
(1.29601 -0.0877081 3.98386e-07)
(1.29602 -0.0876885 -0.0206476)
(0.389382 0.361407 0.0219459)
(0.389473 0.361314 -1.04995e-06)
(0.389473 0.361314 1.035e-06)
(0.389382 0.361407 -0.0219459)
(1.21168 0.0803349 0.020455)
(1.21178 0.080163 -1.70935e-07)
(1.21178 0.080163 1.71254e-07)
(1.21168 0.0803348 -0.020455)
(-1.19261 0.712267 -0.00637931)
(-1.19254 0.712174 2.02761e-07)
(-1.19254 0.712174 -2.00011e-07)
(-1.19261 0.712266 0.00637931)
(-0.635418 0.784344 -0.0117981)
(-0.635432 0.784524 -1.67341e-07)
(-0.635431 0.784523 1.71458e-07)
(-0.635417 0.784344 0.0117981)
(-0.572969 -0.341187 -0.00622746)
(-0.572962 -0.341138 -1.10714e-06)
(-0.572962 -0.341138 1.11282e-06)
(-0.572969 -0.341187 0.00622745)
(-0.993654 -0.744026 -0.0074957)
(-0.993641 -0.744014 1.45646e-07)
(-0.993641 -0.744014 -1.49698e-07)
(-0.993654 -0.744026 0.0074957)
(-0.461269 0.00944781 -0.00504723)
(-0.461358 0.009323 -2.71989e-06)
(-0.461357 0.00932316 2.74168e-06)
(-0.461269 0.00944804 0.00504721)
(-0.0696885 0.0436192 -0.00234789)
(-0.0696994 0.0436176 -6.17925e-08)
(-0.0696994 0.0436176 6.33236e-08)
(-0.0696885 0.0436192 0.00234789)
(-0.0447154 0.0922692 -0.00202309)
(-0.0447202 0.0922848 -2.45048e-08)
(-0.0447202 0.0922848 2.51777e-08)
(-0.0447154 0.0922692 0.00202309)
(-0.0319502 0.0575483 -0.00198925)
(-0.0319527 0.0575602 -2.61628e-08)
(-0.0319526 0.0575602 2.71745e-08)
(-0.0319502 0.0575483 0.00198925)
(-0.0444601 0.0346303 -0.00222236)
(-0.0444678 0.0346381 -4.65846e-08)
(-0.0444677 0.0346381 4.60127e-08)
(-0.04446 0.0346303 0.00222236)
(-0.192449 0.0142416 -0.00305128)
(-0.192466 0.0142195 -2.64558e-07)
(-0.192466 0.0142195 2.69104e-07)
(-0.192449 0.0142417 0.00305128)
(-0.13465 0.0904297 -0.00276032)
(-0.134668 0.0904374 -2.0953e-07)
(-0.134668 0.0904374 2.12741e-07)
(-0.13465 0.0904297 0.00276031)
(-0.100059 -0.00393554 -0.0024941)
(-0.100061 -0.00393013 -4.91443e-08)
(-0.100061 -0.00393015 4.78758e-08)
(-0.100059 -0.00393557 0.00249411)
(-0.140207 -0.0731625 -0.00291053)
(-0.140188 -0.0731489 -4.95905e-08)
(-0.140188 -0.0731489 4.90646e-08)
(-0.140206 -0.0731625 0.00291053)
(-0.130148 -0.0543305 -0.002639)
(-0.130168 -0.0542738 1.3569e-08)
(-0.130168 -0.0542739 -1.2524e-08)
(-0.130148 -0.0543305 0.002639)
(-0.027912 0.0668122 -0.00238856)
(-0.0279042 0.066823 -3.14035e-09)
(-0.0279042 0.066823 3.12467e-09)
(-0.027912 0.0668122 0.00238856)
(-0.0842729 0.0843462 -0.00280178)
(-0.0842831 0.084344 -8.19403e-08)
(-0.0842831 0.084344 8.02845e-08)
(-0.0842728 0.0843461 0.00280179)
(-0.059824 0.0152478 -0.00240963)
(-0.0598314 0.0152535 -6.74011e-08)
(-0.0598314 0.0152535 6.79526e-08)
(-0.059824 0.0152479 0.00240963)
(-0.0249042 0.00700146 -0.00219318)
(-0.024895 0.00700459 -1.53471e-08)
(-0.024895 0.0070046 1.47384e-08)
(-0.0249042 0.00700147 0.00219319)
(1.03276 -0.0709357 0.021482)
(1.03259 -0.0707767 1.01969e-07)
(1.03259 -0.0707768 -9.85259e-08)
(1.03276 -0.0709361 -0.021482)
(1.07632 -0.956773 0.0200062)
(1.07619 -0.956704 3.0113e-08)
(1.07619 -0.956704 -3.2296e-08)
(1.07632 -0.956773 -0.0200062)
(2.07607 0.358582 0.0144355)
(2.0761 0.358497 -2.90373e-07)
(2.0761 0.358497 2.90295e-07)
(2.07607 0.358583 -0.0144355)
(1.67142 0.438721 0.0158226)
(1.67131 0.438775 -9.39603e-08)
(1.67131 0.438775 9.44238e-08)
(1.67142 0.43872 -0.0158226)
(0.940158 -2.32475 0.0132009)
(0.940136 -2.32481 -3.4778e-07)
(0.940136 -2.32481 3.48679e-07)
(0.940159 -2.32475 -0.0132009)
(1.40491 -1.7181 0.0130509)
(1.40508 -1.71805 -4.45329e-07)
(1.40508 -1.71805 4.45645e-07)
(1.40491 -1.7181 -0.0130509)
(0.840386 0.0255453 0.0203787)
(0.840488 0.0257043 -2.2677e-07)
(0.840488 0.0257043 2.30781e-07)
(0.840386 0.0255451 -0.0203787)
(0.504413 -0.554022 0.0219844)
(0.504507 -0.553915 8.29939e-07)
(0.504507 -0.553914 -8.11692e-07)
(0.504413 -0.554022 -0.0219845)
(-0.0794843 0.00144142 -0.00256437)
(-0.0794699 0.00144628 -9.41985e-08)
(-0.0794699 0.00144631 9.64391e-08)
(-0.0794843 0.00144146 0.00256437)
(-0.0302928 0.00644899 -0.00206544)
(-0.030291 0.00644454 2.50132e-09)
(-0.030291 0.00644455 -2.75248e-09)
(-0.0302928 0.00644901 0.00206544)
(2.14258 0.020626 0.0140957)
(2.14251 0.020615 2.82533e-07)
(2.14251 0.0206149 -2.8242e-07)
(2.14258 0.0206258 -0.0140957)
(1.77316 -0.0748428 0.0152309)
(1.77315 -0.0748222 -3.617e-07)
(1.77315 -0.0748222 3.61781e-07)
(1.77316 -0.0748428 -0.0152309)
(1.38897 -0.117672 0.0184268)
(1.38902 -0.117549 -2.52229e-07)
(1.38902 -0.117549 2.50109e-07)
(1.38897 -0.117672 -0.0184268)
(-0.013637 0.0209843 -0.00196053)
(-0.0136365 0.0209957 -1.70677e-08)
(-0.0136365 0.0209957 1.83301e-08)
(-0.0136369 0.0209843 0.00196052)
(1.2951 0.428849 0.0192728)
(1.29491 0.428947 2.72276e-07)
(1.29491 0.428947 -2.68769e-07)
(1.2951 0.428849 -0.0192728)
(0.00524679 0.0195241 -0.00161949)
(0.00524593 0.0195295 1.4584e-08)
(0.00524595 0.0195295 -1.33995e-08)
(0.00524683 0.0195241 0.00161949)
(0.0316312 0.0238273 -0.00137362)
(0.0316332 0.0238433 2.26641e-10)
(0.0316332 0.0238433 1.42332e-09)
(0.0316313 0.0238274 0.00137361)
(0.0534624 0.0228949 -0.00113455)
(0.0534695 0.022902 1.37697e-08)
(0.0534695 0.022902 -1.20095e-08)
(0.0534624 0.022895 0.00113455)
(0.0706106 0.0209549 -0.000924991)
(0.0706178 0.0209644 2.07985e-08)
(0.0706178 0.0209644 -2.05504e-08)
(0.0706106 0.0209549 0.000924991)
(0.0842983 0.0167549 -0.00073831)
(0.0843127 0.0167624 2.36135e-08)
(0.0843127 0.0167624 -2.41508e-08)
(0.0842984 0.016755 0.000738311)
(0.0944441 0.0128294 -0.000577582)
(0.0944566 0.0128341 2.61556e-08)
(0.0944566 0.0128341 -2.67995e-08)
(0.0944441 0.0128294 0.000577583)
(0.100435 0.00990288 -0.000447075)
(0.100448 0.00990668 2.51992e-08)
(0.100448 0.00990668 -2.46687e-08)
(0.100435 0.00990289 0.000447075)
(0.0985392 0.00612032 -0.000460103)
(0.0985505 0.0061218 2.12271e-08)
(0.0985506 0.0061218 -2.03622e-08)
(0.0985392 0.00612034 0.000460102)
(0.092616 0.00573861 -0.000593678)
(0.0926266 0.00574044 1.98082e-08)
(0.0926266 0.00574044 -1.98169e-08)
(0.0926161 0.00573863 0.000593678)
(0.0834144 0.00507611 -0.000749852)
(0.0834253 0.00507801 1.7772e-08)
(0.0834253 0.00507801 -1.90329e-08)
(0.0834145 0.00507613 0.000749854)
(0.0694111 0.00389067 -0.00093697)
(0.0694202 0.00389486 1.19949e-08)
(0.0694202 0.00389486 -1.28049e-08)
(0.0694111 0.0038907 0.00093697)
(0.049762 0.00253825 -0.00116079)
(0.0497668 0.00253721 5.47702e-09)
(0.0497668 0.00253721 -4.97142e-09)
(0.049762 0.00253828 0.00116079)
(0.0276475 0.00164317 -0.00141935)
(0.0276499 0.00164196 6.56802e-10)
(0.0276499 0.00164197 -7.26083e-11)
(0.0276475 0.00164319 0.00141935)
(-0.00135205 -0.000427705 -0.00169232)
(-0.00134955 -0.000426262 -5.24653e-09)
(-0.00134953 -0.000426259 4.88362e-09)
(-0.00135202 -0.000427685 0.00169232)
(-0.0187327 0.00577393 -0.00200414)
(-0.0187334 0.00577401 -2.04876e-08)
(-0.0187334 0.00577401 2.10293e-08)
(-0.0187327 0.00577394 0.00200414)
(-0.0359101 0.0097502 -0.00222906)
(-0.0359139 0.00975746 -3.06147e-08)
(-0.0359139 0.00975747 3.15026e-08)
(-0.0359101 0.0097502 0.00222906)
(-0.0149347 0.0447858 -0.00187906)
(-0.014934 0.0447918 -9.09786e-09)
(-0.014934 0.0447918 1.11575e-08)
(-0.0149346 0.0447858 0.00187906)
(-0.0542823 -0.00656132 -0.00226583)
(-0.0542835 -0.00655909 -2.83907e-08)
(-0.0542835 -0.00655909 2.82717e-08)
(-0.0542822 -0.00656132 0.00226583)
(-0.021812 -0.00418736 -0.00200352)
(-0.0218084 -0.00418202 -2.62042e-08)
(-0.0218084 -0.00418202 2.57618e-08)
(-0.0218119 -0.00418735 0.00200352)
(0.00436655 -0.0182505 -0.00170306)
(0.00436882 -0.0182447 1.99858e-09)
(0.00436884 -0.0182447 -3.03163e-09)
(0.0043666 -0.0182505 0.00170306)
(0.029398 -0.0171708 -0.00140254)
(0.029398 -0.0171622 -1.63591e-09)
(0.029398 -0.0171622 4.08048e-10)
(0.029398 -0.0171707 0.00140254)
(0.0538697 -0.0144482 -0.00114223)
(0.0538814 -0.0144422 2.49757e-09)
(0.0538814 -0.0144422 -3.95448e-09)
(0.0538697 -0.0144481 0.00114223)
(0.0722272 -0.00927902 -0.000920657)
(0.0722374 -0.00927199 1.09902e-08)
(0.0722374 -0.00927199 -1.27525e-08)
(0.0722272 -0.00927899 0.000920659)
(0.0861091 -0.00464337 -0.000733144)
(0.0861214 -0.00463757 1.49901e-08)
(0.0861214 -0.00463757 -1.60377e-08)
(0.0861091 -0.00464334 0.000733145)
(0.0953748 -0.00033111 -0.000577974)
(0.0953872 -0.000325928 1.8601e-08)
(0.0953872 -0.000325926 -1.83999e-08)
(0.0953748 -0.000331083 0.000577974)
(0.100682 0.0031027 -0.000448808)
(0.100695 0.00310675 1.87765e-08)
(0.100695 0.00310675 -1.7976e-08)
(0.100682 0.00310272 0.000448808)
(1.30503 0.256735 0.0185045)
(1.30491 0.256682 -4.10798e-07)
(1.30491 0.256682 4.10609e-07)
(1.30503 0.256735 -0.0185045)
(0.0101636 0.0400548 -0.00161411)
(0.0101642 0.040061 8.66419e-09)
(0.0101642 0.040061 -6.10097e-09)
(0.0101636 0.0400548 0.0016141)
(0.0333588 0.0428351 -0.0013455)
(0.033363 0.0428448 9.50218e-09)
(0.033363 0.0428448 -7.16708e-09)
(0.0333588 0.0428351 0.0013455)
(0.0567113 0.0401341 -0.00109984)
(0.0567225 0.0401396 2.1705e-08)
(0.0567226 0.0401396 -2.01642e-08)
(0.0567113 0.0401341 0.00109984)
(0.0750075 0.0331524 -0.000884841)
(0.0750149 0.0331554 2.71195e-08)
(0.0750149 0.0331554 -2.73533e-08)
(0.0750075 0.0331524 0.000884841)
(0.0890136 0.0264551 -0.000697599)
(0.0890283 0.0264586 3.00407e-08)
(0.0890283 0.0264586 -3.13061e-08)
(0.0890136 0.0264551 0.0006976)
(0.0981072 0.0192249 -0.000542489)
(0.0981214 0.019227 3.04157e-08)
(0.0981214 0.019227 -3.07583e-08)
(0.0981072 0.019225 0.000542489)
(0.103426 0.0131888 -0.000419602)
(0.103438 0.0131894 2.82939e-08)
(0.103438 0.0131894 -2.7358e-08)
(0.103426 0.0131888 0.000419601)
(0.105088 0.0080061 -0.000323472)
(0.105099 0.00800825 2.78463e-08)
(0.105099 0.00800824 -2.67289e-08)
(0.105088 0.00800611 0.00032347)
(0.102742 0.00721827 -0.000345615)
(0.102754 0.00722168 2.6398e-08)
(0.102754 0.00722168 -2.56218e-08)
(0.102742 0.00721828 0.000345614)
(0.101161 0.00661445 -0.000353999)
(0.101171 0.00661497 2.15526e-08)
(0.101171 0.00661497 -2.14594e-08)
(0.101161 0.00661446 0.000353999)
(0.102528 0.00586051 -0.000345242)
(0.102539 0.00586328 2.05609e-08)
(0.102539 0.00586328 -1.96221e-08)
(0.102528 0.00586053 0.000345241)
(1.65265 0.322446 0.0172983)
(1.65278 0.322503 -5.11427e-07)
(1.65278 0.322503 5.11443e-07)
(1.65265 0.322446 -0.0172983)
(1.76039 0.117238 0.0163565)
(1.76034 0.117253 5.43407e-08)
(1.76034 0.117253 -5.66286e-08)
(1.76039 0.117238 -0.0163565)
(2.04431 0.264293 0.0148957)
(2.04435 0.264328 -4.249e-07)
(2.04435 0.264328 4.24358e-07)
(2.04431 0.264293 -0.0148957)
(2.0563 0.170004 0.0137203)
(2.05643 0.170021 -5.64603e-07)
(2.05643 0.170021 5.649e-07)
(2.0563 0.170004 -0.0137203)
(2.22212 0.0689305 0.0124557)
(2.2221 0.0689219 -2.40031e-07)
(2.2221 0.0689219 2.39867e-07)
(2.22212 0.0689304 -0.0124557)
(2.43814 0.128582 0.0111807)
(2.43813 0.128592 9.07565e-08)
(2.43813 0.128592 -9.10302e-08)
(2.43814 0.128581 -0.0111807)
(2.4547 0.154649 0.00999392)
(2.45463 0.154615 2.16013e-08)
(2.45463 0.154615 -2.16857e-08)
(2.4547 0.154649 -0.00999392)
(2.60788 0.0880465 0.00905271)
(2.60784 0.0880677 2.19112e-07)
(2.60784 0.0880677 -2.18734e-07)
(2.60788 0.0880464 -0.00905271)
(2.56161 0.0439635 0.00918332)
(2.5615 0.043952 2.23764e-07)
(2.5615 0.043952 -2.23326e-07)
(2.56161 0.0439634 -0.00918332)
(2.56562 -0.0457393 0.00921922)
(2.56553 -0.0457605 3.43921e-07)
(2.56553 -0.0457605 -3.43904e-07)
(2.56562 -0.0457393 -0.00921922)
(2.56822 -0.079996 0.00905408)
(2.56811 -0.0800959 1.61338e-07)
(2.56811 -0.080096 -1.61379e-07)
(2.56822 -0.079996 -0.00905408)
(2.4777 -0.204363 0.0100913)
(2.47774 -0.204302 -1.07148e-10)
(2.47774 -0.204302 2.46145e-10)
(2.4777 -0.204363 -0.0100913)
(2.39855 -0.088757 0.0111086)
(2.3985 -0.0888805 -1.66053e-07)
(2.3985 -0.0888804 1.66674e-07)
(2.39855 -0.0887568 -0.0111086)
(2.24693 -0.211036 0.0123155)
(2.24696 -0.21098 -1.02724e-07)
(2.24696 -0.21098 1.02677e-07)
(2.24692 -0.211036 -0.0123155)
(2.06119 -0.167695 0.0134683)
(2.06122 -0.167722 -4.11004e-07)
(2.06122 -0.167722 4.10314e-07)
(2.06119 -0.167695 -0.0134683)
(2.02703 -0.355726 0.0149285)
(2.02706 -0.355701 -2.20308e-07)
(2.02706 -0.355701 2.21084e-07)
(2.02703 -0.355726 -0.0149285)
(1.7391 -0.101658 0.0160362)
(1.73921 -0.101654 -5.07182e-07)
(1.73921 -0.101654 5.08338e-07)
(1.7391 -0.101658 -0.0160362)
(1.49216 -0.601348 0.0180711)
(1.49207 -0.601398 -5.03296e-08)
(1.49207 -0.601399 5.27681e-08)
(1.49216 -0.601348 -0.0180711)
(1.33689 -0.360883 0.0190118)
(1.33697 -0.360924 -3.94405e-07)
(1.33697 -0.360923 3.92278e-07)
(1.33689 -0.360882 -0.0190118)
(1.19192 -0.294119 0.018185)
(1.19212 -0.294012 2.47511e-08)
(1.19211 -0.294012 -2.4201e-08)
(1.19192 -0.29412 -0.018185)
(0.880429 -1.46963 0.0189404)
(0.880133 -1.46968 1.23448e-07)
(0.880132 -1.46968 -1.24782e-07)
(0.880428 -1.46963 -0.0189404)
(0.965673 0.620448 0.0216138)
(0.965318 0.620152 5.44069e-09)
(0.965318 0.620152 -1.19946e-08)
(0.965673 0.620448 -0.0216138)
(1.13515 0.891281 0.0187773)
(1.13516 0.891322 -4.30339e-07)
(1.13516 0.891322 4.26657e-07)
(1.13515 0.891281 -0.0187773)
(-0.0471778 -0.0569285 -0.00219253)
(-0.0471804 -0.056925 -1.64881e-08)
(-0.0471804 -0.056925 1.56481e-08)
(-0.0471777 -0.0569285 0.00219253)
(-0.0176424 -0.0434738 -0.00172985)
(-0.0176401 -0.0434713 -1.3833e-08)
(-0.0176401 -0.0434713 1.29809e-08)
(-0.0176423 -0.0434737 0.00172985)
(0.0300552 -0.0457035 -0.0014191)
(0.0300573 -0.0457076 -1.11997e-08)
(0.0300573 -0.0457076 1.00943e-08)
(0.0300552 -0.0457034 0.0014191)
(0.0573142 -0.0377111 -0.00111181)
(0.0573179 -0.0377122 -7.77765e-09)
(0.057318 -0.0377122 6.70107e-09)
(0.0573142 -0.037711 0.00111181)
(0.078136 -0.0276228 -0.000881784)
(0.0781449 -0.0276222 -2.1491e-10)
(0.0781449 -0.0276222 -2.47372e-10)
(0.078136 -0.0276227 0.000881785)
(0.0918961 -0.0171249 -0.000694456)
(0.0919047 -0.0171246 7.9725e-09)
(0.0919047 -0.0171246 -7.26373e-09)
(0.0918961 -0.0171249 0.000694456)
(0.100034 -0.00782892 -0.000541928)
(0.100043 -0.00782832 1.08847e-08)
(0.100043 -0.00782832 -9.31084e-09)
(0.100034 -0.00782889 0.000541926)
(0.104198 -0.000119391 -0.000418463)
(0.104207 -0.000118433 1.18034e-08)
(0.104207 -0.000118431 -9.79953e-09)
(0.104198 -0.000119367 0.000418461)
(0.104915 0.00569308 -0.000321921)
(0.104923 0.00569392 1.44168e-08)
(0.104923 0.00569392 -1.22467e-08)
(0.104915 0.00569309 0.000321919)
(1.39344 -0.843816 0.0176696)
(1.39337 -0.843757 -2.00063e-07)
(1.39337 -0.843757 2.03624e-07)
(1.39344 -0.843816 -0.0176696)
(1.52296 -0.416596 0.0168762)
(1.52309 -0.416638 -1.29423e-07)
(1.52309 -0.416638 1.29469e-07)
(1.52296 -0.416595 -0.0168762)
(1.67399 -0.612245 0.0156575)
(1.67395 -0.612117 -2.78622e-08)
(1.67395 -0.612116 2.70638e-08)
(1.67399 -0.612244 -0.0156575)
(2.05143 -0.330565 0.0144343)
(2.05146 -0.330652 -1.69217e-07)
(2.05146 -0.330652 1.68344e-07)
(2.05143 -0.330565 -0.0144343)
(2.06226 -0.304086 0.0131139)
(2.06224 -0.303934 1.94466e-07)
(2.06224 -0.303934 -1.95346e-07)
(2.06226 -0.304087 -0.0131139)
(2.34704 -0.316301 0.0118505)
(2.34701 -0.316443 -1.58315e-08)
(2.34701 -0.316442 1.55757e-08)
(2.34704 -0.3163 -0.0118505)
(2.32351 -0.300786 0.0107291)
(2.32349 -0.300662 3.3932e-08)
(2.32349 -0.300662 -3.32686e-08)
(2.32351 -0.300786 -0.0107291)
(2.55912 -0.152033 0.00972625)
(2.55912 -0.152148 -6.46956e-08)
(2.55912 -0.152148 6.5694e-08)
(2.55912 -0.152033 -0.00972625)
(2.54518 -0.238995 0.00879982)
(2.54512 -0.238946 1.43538e-07)
(2.54512 -0.238946 -1.43482e-07)
(2.54518 -0.238995 -0.00879982)
(1.1295 0.874936 0.0192879)
(1.12943 0.87511 3.95291e-07)
(1.12943 0.87511 -3.98138e-07)
(1.1295 0.874937 -0.0192879)
(1.65229 0.566402 0.0169346)
(1.65236 0.566295 -4.72791e-07)
(1.65236 0.566295 4.74416e-07)
(1.65229 0.566402 -0.0169346)
(2.06187 0.211095 0.0133302)
(2.0618 0.211144 -6.7536e-09)
(2.0618 0.211144 6.69757e-09)
(2.06187 0.211095 -0.0133302)
(2.30777 0.373592 0.0120079)
(2.3078 0.373578 -3.25072e-07)
(2.3078 0.373578 3.24754e-07)
(2.30777 0.373592 -0.0120079)
(2.35954 0.201634 0.0109553)
(2.35952 0.201668 -6.73147e-08)
(2.35952 0.201668 6.71464e-08)
(2.35954 0.201634 -0.0109553)
(2.47434 0.176227 0.00985034)
(2.47427 0.176198 1.08622e-07)
(2.47427 0.176198 -1.08314e-07)
(2.47434 0.176227 -0.00985034)
(2.61722 0.207385 0.00890094)
(2.6172 0.207433 1.50029e-07)
(2.6172 0.207433 -1.49613e-07)
(2.61722 0.207384 -0.00890094)
(2.64917 0.186076 0.00801149)
(2.64908 0.186026 2.06838e-07)
(2.64908 0.186026 -2.06258e-07)
(2.64917 0.186076 -0.00801149)
(2.63768 0.121669 0.00823489)
(2.63761 0.121631 8.13654e-08)
(2.63761 0.121631 -8.07588e-08)
(2.63768 0.121669 -0.00823489)
(2.67618 0.0250223 0.00834672)
(2.67618 0.0250313 3.05971e-08)
(2.67618 0.0250313 -3.0263e-08)
(2.67618 0.0250222 -0.00834672)
(2.67183 -0.0369233 0.0083256)
(2.67177 -0.0369 1.23996e-07)
(2.67177 -0.0369 -1.23882e-07)
(2.67183 -0.0369232 -0.0083256)
(2.6622 -0.134817 0.00821889)
(2.66217 -0.134753 1.72582e-07)
(2.66217 -0.134753 -1.72687e-07)
(2.6622 -0.134817 -0.00821889)
(2.72175 -0.180168 0.00797266)
(2.72172 -0.180205 7.86675e-08)
(2.72172 -0.180205 -7.87349e-08)
(2.72175 -0.180168 -0.00797266)
(0.561489 -1.19734 0.015756)
(0.56135 -1.19712 6.58526e-08)
(0.56135 -1.19712 -6.5435e-08)
(0.561489 -1.19734 -0.015756)
(0.949656 -1.45493 0.01567)
(0.949554 -1.45511 -6.0844e-07)
(0.949554 -1.45511 6.0927e-07)
(0.949655 -1.45493 -0.01567)
(0.00188281 0.0692085 -0.00164353)
(0.00188028 0.0692223 1.12917e-08)
(0.0018803 0.0692223 -9.60609e-09)
(0.00188285 0.0692086 0.00164353)
(0.0343684 0.0716231 -0.00132855)
(0.034369 0.0716378 8.67512e-09)
(0.034369 0.0716378 -7.70871e-09)
(0.0343684 0.0716231 0.00132855)
(0.0645759 0.0625548 -0.00105423)
(0.0645893 0.0625657 2.65105e-08)
(0.0645893 0.0625657 -2.68423e-08)
(0.064576 0.0625548 0.00105423)
(0.0839217 0.0516044 -0.000820742)
(0.083932 0.0516125 3.90936e-08)
(0.083932 0.0516125 -3.91699e-08)
(0.0839217 0.0516044 0.000820742)
(0.0986993 0.0377159 -0.000630563)
(0.0987148 0.0377208 3.39032e-08)
(0.0987149 0.0377208 -3.54817e-08)
(0.0986993 0.0377159 0.000630565)
(0.105887 0.0254001 -0.000484103)
(0.105902 0.0254043 3.53034e-08)
(0.105902 0.0254043 -3.64068e-08)
(0.105887 0.0254001 0.000484104)
(0.109647 0.0154109 -0.000371805)
(0.10966 0.0154135 2.88167e-08)
(0.10966 0.0154135 -2.86745e-08)
(0.109647 0.0154109 0.000371805)
(0.110582 0.00776528 -0.000280931)
(0.110593 0.00776656 3.07318e-08)
(0.110593 0.00776656 -2.99783e-08)
(0.110582 0.00776529 0.00028093)
(0.10834 0.00174336 -0.000211942)
(0.10835 0.00174515 3.12351e-08)
(0.10835 0.00174515 -3.1148e-08)
(0.10834 0.00174337 0.000211941)
(0.104406 0.00344041 -0.000246832)
(0.104417 0.00344195 2.6319e-08)
(0.104417 0.00344195 -2.64222e-08)
(0.104406 0.00344043 0.000246832)
(0.101906 0.00523186 -0.000266451)
(0.101915 0.00523407 2.4979e-08)
(0.101915 0.00523407 -2.55779e-08)
(0.101906 0.00523187 0.000266452)
(0.100835 0.00649861 -0.000273358)
(0.100845 0.00649998 2.06425e-08)
(0.100845 0.00649998 -2.09289e-08)
(0.100835 0.00649862 0.000273358)
(0.101786 0.00785238 -0.000265741)
(0.101797 0.00785494 2.001e-08)
(0.101797 0.00785494 -1.92524e-08)
(0.101786 0.00785239 0.000265741)
(0.103305 0.00973322 -0.000245746)
(0.103314 0.00973444 1.53922e-08)
(0.103314 0.00973444 -1.39533e-08)
(0.103305 0.00973323 0.000245744)
(1.02995 0.397493 0.0190139)
(1.02984 0.397481 -2.11756e-07)
(1.02984 0.397481 2.12288e-07)
(1.02995 0.397493 -0.0190139)
(0.526769 1.11241 0.0197445)
(0.52671 1.11272 5.11064e-08)
(0.52671 1.11272 -5.2057e-08)
(0.526769 1.11241 -0.0197445)
(-0.049755 -0.0797481 -0.00220766)
(-0.0497631 -0.0797513 -6.53937e-08)
(-0.0497631 -0.0797513 6.56285e-08)
(-0.049755 -0.0797481 0.00220766)
(0.00213863 -0.0829782 -0.00172425)
(0.00212813 -0.0829779 1.77216e-09)
(0.00212816 -0.0829779 -2.25816e-09)
(0.00213869 -0.0829781 0.00172425)
(0.0391595 -0.076929 -0.00134857)
(0.0391558 -0.0769329 -2.21563e-08)
(0.0391558 -0.0769329 2.14977e-08)
(0.0391595 -0.076929 0.00134857)
(0.0733151 -0.0593848 -0.00103693)
(0.0733301 -0.0593801 -3.59634e-09)
(0.0733301 -0.0593801 3.20574e-09)
(0.0733151 -0.0593848 0.00103693)
(0.0925685 -0.0421945 -0.000793471)
(0.0925802 -0.0421892 1.01709e-08)
(0.0925802 -0.0421892 -1.01338e-08)
(0.0925685 -0.0421945 0.000793471)
(0.105254 -0.0252504 -0.000612285)
(0.105268 -0.0252451 1.61053e-08)
(0.105268 -0.0252451 -1.54771e-08)
(0.105254 -0.0252504 0.000612284)
(0.111597 -0.0110803 -0.000466993)
(0.111611 -0.0110752 1.63761e-08)
(0.111611 -0.0110752 -1.44395e-08)
(0.111597 -0.0110802 0.000466991)
(0.113542 -0.000365509 -0.000352339)
(0.113556 -0.000361061 5.69834e-09)
(0.113556 -0.000361057 -2.81198e-09)
(0.113542 -0.000365485 0.000352336)
(0.111764 0.00738826 -0.000269848)
(0.111777 0.00739173 1.6586e-08)
(0.111777 0.00739173 -1.42189e-08)
(0.111764 0.00738829 0.000269846)
(0.107595 0.0131761 -0.000207483)
(0.107606 0.0131786 1.91861e-08)
(0.107606 0.0131786 -1.80571e-08)
(0.107595 0.0131761 0.000207482)
(1.73902 -0.780533 0.0160788)
(1.73903 -0.780417 2.21914e-07)
(1.73903 -0.780417 -2.21863e-07)
(1.73902 -0.780534 -0.0160788)
(1.50734 -0.84787 0.0150346)
(1.50727 -0.847972 -4.09095e-07)
(1.50727 -0.847972 4.08734e-07)
(1.50734 -0.84787 -0.0150346)
(2.18667 -0.62478 0.0143369)
(2.1868 -0.624699 -6.73087e-08)
(2.1868 -0.624699 6.63426e-08)
(2.18667 -0.62478 -0.0143369)
(1.68304 -0.730726 0.0131547)
(1.683 -0.730841 -5.80073e-07)
(1.683 -0.730841 5.7932e-07)
(1.68304 -0.730726 -0.0131547)
(2.46145 -0.408036 0.0122151)
(2.46159 -0.408026 1.19781e-09)
(2.46159 -0.408026 -1.30605e-09)
(2.46145 -0.408036 -0.0122151)
(2.14915 -0.461832 0.0110556)
(2.14904 -0.461885 -2.97754e-07)
(2.14904 -0.461885 2.98565e-07)
(2.14915 -0.461833 -0.0110556)
(2.59075 -0.283493 0.0101538)
(2.59083 -0.283474 8.65321e-08)
(2.59083 -0.283474 -8.56063e-08)
(2.59075 -0.283493 -0.0101538)
(2.39055 -0.413395 0.00916264)
(2.39045 -0.413447 -1.20639e-07)
(2.39045 -0.413447 1.2098e-07)
(2.39055 -0.413395 -0.00916264)
(2.73044 -0.227853 0.00836888)
(2.73048 -0.227822 1.438e-07)
(2.73048 -0.227822 -1.44071e-07)
(2.73044 -0.227853 -0.00836888)
(2.59129 -0.260437 0.00756035)
(2.59117 -0.260466 4.4729e-08)
(2.59117 -0.260466 -4.48152e-08)
(2.59129 -0.260437 -0.00756035)
(0.860564 1.48621 0.0158062)
(0.860844 1.48643 -2.70448e-07)
(0.860844 1.48643 2.7148e-07)
(0.860564 1.48621 -0.0158062)
(1.57783 0.755234 0.0173056)
(1.57783 0.755203 -1.90304e-07)
(1.57783 0.755203 1.89461e-07)
(1.57783 0.755234 -0.0173056)
(1.45708 0.731204 0.0165717)
(1.45706 0.731151 9.89124e-08)
(1.45706 0.731151 -9.89153e-08)
(1.45708 0.731204 -0.0165717)
(2.05348 0.500249 0.0148729)
(2.05354 0.500423 -3.2328e-07)
(2.05354 0.500423 3.23006e-07)
(2.05348 0.500249 -0.0148729)
(0.67138 1.47714 0.0167128)
(0.671069 1.47683 3.95482e-10)
(0.671069 1.47683 -1.31204e-09)
(0.67138 1.47714 -0.0167128)
(1.77784 0.76132 0.0136435)
(1.77787 0.761191 -1.22571e-07)
(1.77787 0.761191 1.2273e-07)
(1.77784 0.76132 -0.0136435)
(2.36672 0.333371 0.0124954)
(2.36675 0.333567 -3.97799e-07)
(2.36675 0.333567 3.97536e-07)
(2.36672 0.333371 -0.0124954)
(2.17368 0.468448 0.0114533)
(2.17374 0.468259 -1.01046e-07)
(2.17374 0.468259 1.01246e-07)
(2.17368 0.468447 -0.0114533)
(2.55761 0.236195 0.0103286)
(2.55751 0.236417 -2.23797e-08)
(2.55751 0.236417 2.28467e-08)
(2.55761 0.236195 -0.0103286)
(2.39528 0.421514 0.00938177)
(2.39535 0.421382 3.07387e-08)
(2.39535 0.421382 -3.05769e-08)
(2.39528 0.421514 -0.00938177)
(2.7308 0.194138 0.00850937)
(2.73069 0.194272 8.97486e-08)
(2.73069 0.194272 -8.94277e-08)
(2.7308 0.194138 -0.00850937)
(2.56411 0.263091 0.00768718)
(2.56411 0.262975 1.58991e-07)
(2.56411 0.262975 -1.58172e-07)
(2.56411 0.263091 -0.00768718)
(2.86654 0.17779 0.00697526)
(2.86649 0.177866 2.24171e-07)
(2.86649 0.177866 -2.23673e-07)
(2.86654 0.17779 -0.00697527)
(2.74848 0.137839 0.00728445)
(2.74848 0.137891 2.05399e-07)
(2.74848 0.137891 -2.04986e-07)
(2.74848 0.137839 -0.00728445)
(2.76022 0.0590459 0.00749061)
(2.76021 0.0590797 2.4336e-07)
(2.76021 0.0590797 -2.43005e-07)
(2.76022 0.0590458 -0.00749061)
(2.70451 0.037818 0.00760821)
(2.70447 0.0377685 1.77787e-07)
(2.70447 0.0377685 -1.77478e-07)
(2.70451 0.037818 -0.00760821)
(2.70884 -0.0358814 0.00759695)
(2.70884 -0.0359313 1.20548e-07)
(2.70884 -0.0359313 -1.20471e-07)
(2.70884 -0.0358814 -0.00759695)
(2.73611 -0.0701789 0.00746241)
(2.7361 -0.0702413 6.89822e-08)
(2.7361 -0.0702412 -6.87896e-08)
(2.73611 -0.0701787 -0.00746241)
(2.68721 -0.158815 0.00721941)
(2.68718 -0.158762 1.30516e-07)
(2.68718 -0.158762 -1.30224e-07)
(2.68721 -0.158815 -0.00721941)
(2.83441 -0.186727 0.00689464)
(2.83447 -0.186706 1.86683e-07)
(2.83447 -0.186706 -1.86387e-07)
(2.83441 -0.186727 -0.00689464)
(0.00091015 0.100578 -0.0016739)
(0.000910631 0.100592 2.34689e-08)
(0.000910665 0.100592 -2.22489e-08)
(0.000910188 0.100578 0.0016739)
(0.0397225 0.103443 -0.00127869)
(0.0397296 0.103454 1.63155e-08)
(0.0397296 0.103454 -1.64494e-08)
(0.0397225 0.103443 0.00127869)
(0.0745606 0.087474 -0.000973077)
(0.0745768 0.0874801 4.28646e-08)
(0.0745768 0.0874801 -4.54172e-08)
(0.0745606 0.087474 0.00097308)
(0.0966797 0.0676908 -0.000726626)
(0.0966927 0.0676947 5.2122e-08)
(0.0966927 0.0676946 -5.40178e-08)
(0.0966797 0.0676908 0.000726628)
(0.11196 0.0482914 -0.000538789)
(0.111978 0.0482931 4.67999e-08)
(0.111978 0.0482931 -4.88646e-08)
(0.11196 0.0482914 0.000538791)
(0.118377 0.0310846 -0.000399031)
(0.118394 0.0310852 4.56806e-08)
(0.118394 0.0310852 -4.69826e-08)
(0.118378 0.0310846 0.000399032)
(0.120753 0.0167371 -0.000295396)
(0.120769 0.0167378 3.51453e-08)
(0.120769 0.0167377 -3.53717e-08)
(0.120753 0.0167371 0.000295396)
(0.119741 0.00562285 -0.000217035)
(0.119753 0.00562331 3.18967e-08)
(0.119753 0.0056233 -3.18333e-08)
(0.119741 0.00562285 0.000217035)
(0.114693 -0.00245064 -0.000158733)
(0.114703 -0.00245147 3.35125e-08)
(0.114703 -0.00245147 -3.3624e-08)
(0.114693 -0.00245063 0.000158733)
(0.108522 -0.00767108 -0.000115679)
(0.108532 -0.00767092 2.79092e-08)
(0.108532 -0.00767092 -2.74247e-08)
(0.108522 -0.00767107 0.000115679)
(0.104431 -0.00290644 -0.000159148)
(0.104441 -0.0029045 2.89717e-08)
(0.104441 -0.0029045 -2.89754e-08)
(0.104431 -0.00290643 0.000159148)
(0.101655 0.000519161 -0.000187883)
(0.101666 0.000520719 2.41504e-08)
(0.101666 0.000520717 -2.46221e-08)
(0.101655 0.000519169 0.000187883)
(0.0994266 0.00357214 -0.00020562)
(0.0994369 0.00357375 2.25275e-08)
(0.0994369 0.00357375 -2.33808e-08)
(0.0994266 0.00357215 0.000205621)
(0.0986732 0.00600271 -0.000212016)
(0.0986837 0.00600463 1.86207e-08)
(0.0986837 0.00600463 -1.94872e-08)
(0.0986732 0.00600271 0.000212016)
(0.0990822 0.00900422 -0.000205636)
(0.0990927 0.00900622 1.88764e-08)
(0.0990927 0.00900622 -1.9313e-08)
(0.0990822 0.00900423 0.000205636)
(0.0998233 0.0120978 -0.000188709)
(0.0998318 0.012099 1.41187e-08)
(0.0998318 0.0120991 -1.40147e-08)
(0.0998233 0.0120978 0.000188709)
(0.102168 0.0167697 -0.000158758)
(0.102178 0.0167713 1.56125e-08)
(0.102178 0.0167713 -1.55654e-08)
(0.102168 0.0167697 0.000158758)
(0.104268 0.0224366 -0.000122986)
(0.104275 0.0224377 1.20217e-08)
(0.104275 0.0224377 -1.2414e-08)
(0.104268 0.0224366 0.000122987)
(0.111297 0.0183022 -0.000161561)
(0.111303 0.0183035 8.44223e-09)
(0.111303 0.0183035 -8.79694e-09)
(0.111297 0.0183022 0.000161562)
(0.117495 0.0111316 -0.000214983)
(0.117501 0.0111324 8.27177e-09)
(0.117501 0.0111324 -7.0264e-09)
(0.117495 0.0111316 0.000214982)
(0.121891 -8.3541e-05 -0.000287265)
(0.121899 -8.26484e-05 2.15551e-08)
(0.121899 -8.26425e-05 -1.884e-08)
(0.121891 -8.35108e-05 0.000287263)
(0.123697 -0.0164447 -0.000373928)
(0.123705 -0.0164444 1.07356e-08)
(0.123705 -0.0164444 -9.30803e-09)
(0.123697 -0.0164447 0.000373926)
(0.120789 -0.0378408 -0.000495998)
(0.120797 -0.037842 5.53681e-09)
(0.120797 -0.037842 -5.70445e-09)
(0.120789 -0.0378408 0.000495998)
(0.110674 -0.0637267 -0.000668919)
(0.110683 -0.0637292 2.95325e-10)
(0.110683 -0.0637291 9.75078e-10)
(0.110674 -0.0637267 0.000668918)
(0.089717 -0.0910366 -0.000921184)
(0.0897267 -0.0910384 -5.97193e-09)
(0.0897267 -0.0910384 6.89662e-09)
(0.089717 -0.0910365 0.000921183)
(0.0511883 -0.116721 -0.00125434)
(0.0511972 -0.116727 -1.27721e-08)
(0.0511973 -0.116727 1.28662e-08)
(0.0511884 -0.116721 0.00125434)
(0.00695382 -0.134324 -0.00166422)
(0.00696011 -0.134325 1.43291e-08)
(0.00696014 -0.134325 -1.48972e-08)
(0.00695389 -0.134324 0.00166422)
(-0.0574168 -0.175634 -0.00216313)
(-0.0574184 -0.175645 9.73175e-10)
(-0.0574184 -0.175645 -2.37485e-09)
(-0.0574167 -0.175634 0.00216313)
(0.101807 -0.0110753 -8.57954e-05)
(0.101818 -0.0110746 2.68413e-08)
(0.101818 -0.0110746 -2.58418e-08)