x,y,z,p
0,0,0,0.000276858
0,0.1,0,0.00051339
0,0.2,0,0.000749923
0,0.3,0,0.000986455
0,0.4,0,0.00127118
0,0.5,0,0.0016041
0,0.6,0,0.00193703
0,0.7,0,0.00226995
0,0.8,0,0.00259743
0,0.9,0,0.00292492
0,1,0,0.0032524
0,1.1,0,0.00358619
0,1.2,0,0.00392629
0,1.3,0,0.00426639
0,1.4,0,0.00460649
0,1.5,0,0.00494733
0,1.6,0,0.00528818
0,1.7,0,0.00562902
0,1.8,0,0.00597429
0,1.9,0,0.00632398
0,2,0,0.00667367
0,2.1,0,0.00702337
0,2.2,0,0.00738157
0,2.3,0,0.00773977
0,2.4,0,0.00809798
0,2.5,0,0.00846237
0,2.6,0,0.00883295
0,2.7,0,0.00920353
0,2.8,0,0.00957411
0,2.9,0,0.00995876
0,3,0,0.0103434
0,3.1,0,0.0107281
0,3.2,0,0.0111163
0,3.3,0,0.0115079
0,3.4,0,0.0118997
0,3.5,0,0.0122913
0,3.6,0,0.0126956
0,3.7,0,0.0130998
0,3.8,0,0.0135041
0,3.9,0,0.0139054
0,4,0,0.0143038
0,4.1,0,0.0147022
0,4.2,0,0.0151006
0,4.3,0,0.015488
0,4.4,0,0.0158755
0,4.5,0,0.0162629
0,4.6,0,0.0166407
0,4.7,0,0.0170089
0,4.8,0,0.017377
0,4.9,0,0.0177452
0,5,0,0.0180773
0,5.1,0,0.0184094
0,5.2,0,0.0187415
0,5.3,0,0.0190506
0,5.4,0,0.0193366
0,5.5,0,0.0196226
0,5.6,0,0.0199086
0,5.7,0,0.0201289
0,5.8,0,0.0203493
0,5.9,0,0.0205696
0,6,0,0.0207597
0,6.1,0,0.0209195
0,6.2,0,0.0210794
0,6.3,0,0.0212392
0,6.4,0,0.0213162
0,6.5,0,0.0213932
0,6.6,0,0.0214702
0,6.7,0,0.0215166
0,6.8,0,0.0215324
0,6.9,0,0.0215482
0,7,0,0.021564
0,7.1,0,0.0215702
0,7.2,0,0.0215713
0,7.3,0,0.0215786
0,7.4,0,0.0215905
0,7.5,0,0.0216026
0,7.6,0,0.0216128
0,7.7,0,0.0216204
0,7.8,0,0.0216257
0,7.9,0,0.0216279
0,8,0,0.0216118
0,8.1,0,0.0215702
0,8.2,0,0.0215285
0,8.3,0,0.0214366
0,8.4,0,0.0213176
0,8.5,0,0.0211763
0,8.6,0,0.0209827
0,8.7,0,0.0207891
0,8.8,0,0.0205434
0,8.9,0,0.0202951
0,9,0,0.0200159
0,9.1,0,0.0197163
0,9.2,0,0.0194065
0,9.3,0,0.0190663
0,9.4,0,0.018726
0,9.5,0,0.0183518
0,9.6,0,0.0179738
0,9.7,0,0.017575
0,9.8,0,0.0171591
0,9.9,0,0.0167357
0,10,0,0.0162814
0,10.1,0,0.0158272
0,10.2,0,0.0153406
0,10.3,0,0.0148482
0,10.4,0,0.0143379
0,10.5,0,0.0138096
0,10.6,0,0.0132765
0,10.7,0,0.0127158
0,10.8,0,0.0121551
0,10.9,0,0.0115727
0,11,0,0.0109848
0,11.1,0,0.0103865
0,11.2,0,0.0097754
0,11.3,0,0.00916261
0,11.4,0,0.00853456
0,11.5,0,0.0079065
0,11.6,0,0.0072664
0,11.7,0,0.00662228
0,11.8,0,0.00597456
0,11.9,0,0.00532144
0,12,0,0.00466783
0,12.1,0,0.00400497
0,12.2,0,0.0033421
0,12.3,0,0.00267613
0,12.4,0,0.00200882
0,12.5,0,0.00141013
0,12.6,0,0.000938879
0,12.7,0,0.000467623
0.1,0,0,0.000250491
0.1,0.1,0,0.000473079
0.1,0.2,0,0.000709611
0.1,0.3,0,0.000946143
0.1,0.4,0,0.00127936
0.1,0.5,0,0.00161229
0.1,0.6,0,0.00194521
0.1,0.7,0,0.00229344
0.1,0.8,0,0.00259107
0.1,0.9,0,0.00291855
0.1,1,0,0.00324603
0.1,1.1,0,0.00358836
0.1,1.2,0,0.00392846
0.1,1.3,0,0.00426856
0.1,1.4,0,0.00464364
0.1,1.5,0,0.00494492
0.1,1.6,0,0.00528577
0.1,1.7,0,0.00562661
0.1,1.8,0,0.00597375
0.1,1.9,0,0.00632345
0.1,2,0,0.00667314
0.1,2.1,0,0.00705687
0.1,2.2,0,0.00737927
0.1,2.3,0,0.00773747
0.1,2.4,0,0.00809568
0.1,2.5,0,0.00846055
0.1,2.6,0,0.00883113
0.1,2.7,0,0.00920171
0.1,2.8,0,0.00957116
0.1,2.9,0,0.0099559
0.1,3,0,0.0103406
0.1,3.1,0,0.0107252
0.1,3.2,0,0.0111168
0.1,3.3,0,0.0115085
0.1,3.4,0,0.0119002
0.1,3.5,0,0.0122106
0.1,3.6,0,0.0126909
0.1,3.7,0,0.0130951
0.1,3.8,0,0.0134994
0.1,3.9,0,0.013912
0.1,4,0,0.0143104
0.1,4.1,0,0.0147088
0.1,4.2,0,0.0148981
0.1,4.3,0,0.015485
0.1,4.4,0,0.0158725
0.1,4.5,0,0.0162599
0.1,4.6,0,0.0166501
0.1,4.7,0,0.0170183
0.1,4.8,0,0.0173864
0.1,4.9,0,0.0173878
0.1,5,0,0.0180799
0.1,5.1,0,0.018412
0.1,5.2,0,0.0187441
0.1,5.3,0,0.0190634
0.1,5.4,0,0.0193494
0.1,5.5,0,0.0196354
0.1,5.6,0,0.0193961
0.1,5.7,0,0.020138
0.1,5.8,0,0.0203583
0.1,5.9,0,0.0205787
0.1,6,0,0.0207707
0.1,6.1,0,0.0209306
0.1,6.2,0,0.0210904
0.1,6.3,0,0.0206069
0.1,6.4,0,0.0213327
0.1,6.5,0,0.0214097
0.1,6.6,0,0.0214867
0.1,6.7,0,0.0215205
0.1,6.8,0,0.0215363
0.1,6.9,0,0.0215521
0.1,7,0,0.0208852
0.1,7.1,0,0.0208858
0.1,7.2,0,0.020884
0.1,7.3,0,0.0208871
0.1,7.4,0,0.0208934
0.1,7.5,0,0.0208986
0.1,7.6,0,0.020901
0.1,7.7,0,0.0208997
0.1,7.8,0,0.0208951
0.1,7.9,0,0.0208862
0.1,8,0,0.0208572
0.1,8.1,0,0.0215764
0.1,8.2,0,0.0215347
0.1,8.3,0,0.0214477
0.1,8.4,0,0.0213287
0.1,8.5,0,0.0211819
0.1,8.6,0,0.0209883
0.1,8.7,0,0.0201816
0.1,8.8,0,0.0205501
0.1,8.9,0,0.0203017
0.1,9,0,0.0200208
0.1,9.1,0,0.0197211
0.1,9.2,0,0.0194108
0.1,9.3,0,0.0190705
0.1,9.4,0,0.0183229
0.1,9.5,0,0.018356
0.1,9.6,0,0.0179779
0.1,9.7,0,0.0175792
0.1,9.8,0,0.0171634
0.1,9.9,0,0.0166687
0.1,10,0,0.0162857
0.1,10.1,0,0.0156238
0.1,10.2,0,0.0153448
0.1,10.3,0,0.0148524
0.1,10.4,0,0.0143418
0.1,10.5,0,0.0138135
0.1,10.6,0,0.0131028
0.1,10.7,0,0.0127192
0.1,10.8,0,0.0121069
0.1,10.9,0,0.0115753
0.1,11,0,0.0109875
0.1,11.1,0,0.010389
0.1,11.2,0,0.00977794
0.1,11.3,0,0.00895939
0.1,11.4,0,0.00853582
0.1,11.5,0,0.00790776
0.1,11.6,0,0.00726873
0.1,11.7,0,0.00662461
0.1,11.8,0,0.00597424
0.1,11.9,0,0.00532112
0.1,12,0,0.00452439
0.1,12.1,0,0.00400747
0.1,12.2,0,0.00334461
0.1,12.3,0,0.00267462
0.1,12.4,0,0.00200731
0.1,12.5,0,0.00136776
0.1,12.6,0,0.000896509
0.1,12.7,0,0.000423088
0.2,0,0,0.000224123
0.2,0.1,0,0.000432767
0.2,0.2,0,0.000669299
0.2,0.3,0,0.000932788
0.2,0.4,0,0.00129026
0.2,0.5,0,0.00162047
0.2,0.6,0,0.00195339
0.2,0.7,0,0.00231692
0.2,0.8,0,0.0025847
0.2,0.9,0,0.00291218
0.2,1,0,0.00325889
0.2,1.1,0,0.00360548
0.2,1.2,0,0.00393062
0.2,1.3,0,0.00427072
0.2,1.4,0,0.0046808
0.2,1.5,0,0.00494251
0.2,1.6,0,0.00528335
0.2,1.7,0,0.00564465
0.2,1.8,0,0.00599273
0.2,1.9,0,0.00632291
0.2,2,0,0.0066726
0.2,2.1,0,0.00709037
0.2,2.2,0,0.00737697
0.2,2.3,0,0.00773517
0.2,2.4,0,0.00810453
0.2,2.5,0,0.00846964
0.2,2.6,0,0.0088293
0.2,2.7,0,0.00919988
0.2,2.8,0,0.00956821
0.2,2.9,0,0.00995303
0.2,3,0,0.0103377
0.2,3.1,0,0.0107053
0.2,3.2,0,0.0110986
0.2,3.3,0,0.011509
0.2,3.4,0,0.0119007
0.2,3.5,0,0.0121299
0.2,3.6,0,0.0126862
0.2,3.7,0,0.0130904
0.2,3.8,0,0.0134278
0.2,3.9,0,0.0138462
0.2,4,0,0.0143171
0.2,4.1,0,0.0147155
0.2,4.2,0,0.0146956
0.2,4.3,0,0.0154821
0.2,4.4,0,0.0158695
0.2,4.5,0,0.01612
0.2,4.6,0,0.0165164
0.2,4.7,0,0.0170277
0.2,4.8,0,0.0173959
0.2,4.9,0,0.0170305
0.2,5,0,0.0180824
0.2,5.1,0,0.0184146
0.2,5.2,0,0.0185274
0.2,5.3,0,0.0188518
0.2,5.4,0,0.0193622
0.2,5.5,0,0.0196482
0.2,5.6,0,0.0188836
0.2,5.7,0,0.0201471
0.2,5.8,0,0.0203674
0.2,5.9,0,0.0202948
0.2,6,0,0.0204878
0.2,6.1,0,0.0209417
0.2,6.2,0,0.0211015
0.2,6.3,0,0.0199747
0.2,6.4,0,0.0213493
0.2,6.5,0,0.0214263
0.2,6.6,0,0.0211622
0.2,6.7,0,0.0211896
0.2,6.8,0,0.0215401
0.2,6.9,0,0.0215559
0.2,7,0,0.0202065
0.2,7.1,0,0.0202013
0.2,7.2,0,0.0201966
0.2,7.3,0,0.0201956
0.2,7.4,0,0.0201962
0.2,7.5,0,0.0201946
0.2,7.6,0,0.0201891
0.2,7.7,0,0.0201789
0.2,7.8,0,0.0201643
0.2,7.9,0,0.0201445
0.2,8,0,0.0201026
0.2,8.1,0,0.0215826
0.2,8.2,0,0.0212014
0.2,8.3,0,0.0214587
0.2,8.4,0,0.0213398
0.2,8.5,0,0.0206666
0.2,8.6,0,0.0209939
0.2,8.7,0,0.0193977
0.2,8.8,0,0.0205567
0.2,8.9,0,0.020142
0.2,9,0,0.0200256
0.2,9.1,0,0.019726
0.2,9.2,0,0.0187428
0.2,9.3,0,0.0190748
0.2,9.4,0,0.0175907
0.2,9.5,0,0.0183602
0.2,9.6,0,0.0179821
0.2,9.7,0,0.0175835
0.2,9.8,0,0.0171677
0.2,9.9,0,0.0160032
0.2,10,0,0.0162901
0.2,10.1,0,0.0149982
0.2,10.2,0,0.015349
0.2,10.3,0,0.0148566
0.2,10.4,0,0.0143456
0.2,10.5,0,0.0138173
0.2,10.6,0,0.0125694
0.2,10.7,0,0.0127226
0.2,10.8,0,0.0116253
0.2,10.9,0,0.011578
0.2,11,0,0.0109901
0.2,11.1,0,0.0103916
0.2,11.2,0,0.00978048
0.2,11.3,0,0.008591
0.2,11.4,0,0.00853708
0.2,11.5,0,0.00763541
0.2,11.6,0,0.00727107
0.2,11.7,0,0.00662695
0.2,11.8,0,0.00592147
0.2,11.9,0,0.00532079
0.2,12,0,0.00433897
0.2,12.1,0,0.00400997
0.2,12.2,0,0.00326437
0.2,12.3,0,0.00267311
0.2,12.4,0,0.00200581
0.2,12.5,0,0.00131666
0.2,12.6,0,0.000854139
0.2,12.7,0,0.000378552
0.3,0,0,0.000197756
0.3,0.1,0,0.000392455
0.3,0.2,0,0.000628987
0.3,0.3,0,0.00094639
0.3,0.4,0,0.00130386
0.3,0.5,0,0.00162865
0.3,0.6,0,0.00196157
0.3,0.7,0,0.00234041
0.3,0.8,0,0.00257833
0.3,0.9,0,0.00290581
0.3,1,0,0.00329097
0.3,1.1,0,0.00363756
0.3,1.2,0,0.00393279
0.3,1.3,0,0.00427288
0.3,1.4,0,0.00471795
0.3,1.5,0,0.0049401
0.3,1.6,0,0.00528094
0.3,1.7,0,0.00568315
0.3,1.8,0,0.00603123
0.3,1.9,0,0.00632237
0.3,2,0,0.00667207
0.3,2.1,0,0.00712387
0.3,2.2,0,0.00737467
0.3,2.3,0,0.00773287
0.3,2.4,0,0.00812454
0.3,2.5,0,0.00848965
0.3,2.6,0,0.00882748
0.3,2.7,0,0.00919806
0.3,2.8,0,0.00956526
0.3,2.9,0,0.00995016
0.3,3,0,0.0103348
0.3,3.1,0,0.0106684
0.3,3.2,0,0.0110617
0.3,3.3,0,0.0115095
0.3,3.4,0,0.0119012
0.3,3.5,0,0.0120492
0.3,3.6,0,0.0126815
0.3,3.7,0,0.0130857
0.3,3.8,0,0.0132894
0.3,3.9,0,0.0137078
0.3,4,0,0.0143237
0.3,4.1,0,0.0147221
0.3,4.2,0,0.0144931
0.3,4.3,0,0.0154791
0.3,4.4,0,0.0158665
0.3,4.5,0,0.015843
0.3,4.6,0,0.0162394
0.3,4.7,0,0.0170372
0.3,4.8,0,0.0174053
0.3,4.9,0,0.0166731
0.3,5,0,0.018085
0.3,5.1,0,0.0184171
0.3,5.2,0,0.0180913
0.3,5.3,0,0.0184157
0.3,5.4,0,0.019375
0.3,5.5,0,0.019661
0.3,5.6,0,0.0183712
0.3,5.7,0,0.0201562
0.3,5.8,0,0.0203765
0.3,5.9,0,0.0197178
0.3,6,0,0.0199109
0.3,6.1,0,0.0209527
0.3,6.2,0,0.0211126
0.3,6.3,0,0.0193424
0.3,6.4,0,0.0213658
0.3,6.5,0,0.0214428
0.3,6.6,0,0.0204967
0.3,6.7,0,0.0205241
0.3,6.8,0,0.021544
0.3,6.9,0,0.0215598
0.3,7,0,0.0195277
0.3,7.1,0,0.0195168
0.3,7.2,0,0.0195092
0.3,7.3,0,0.0195041
0.3,7.4,0,0.0194991
0.3,7.5,0,0.0194907
0.3,7.6,0,0.0194773
0.3,7.7,0,0.0194582
0.3,7.8,0,0.0194336
0.3,7.9,0,0.0194027
0.3,8,0,0.019348
0.3,8.1,0,0.0215888
0.3,8.2,0,0.0204293
0.3,8.3,0,0.0213948
0.3,8.4,0,0.0213509
0.3,8.5,0,0.0198826
0.3,8.6,0,0.0209995
0.3,8.7,0,0.0186137
0.3,8.8,0,0.0205634
0.3,8.9,0,0.019367
0.3,9,0,0.0197815
0.3,9.1,0,0.0197308
0.3,9.2,0,0.0179856
0.3,9.3,0,0.0190791
0.3,9.4,0,0.0168586
0.3,9.5,0,0.0183643
0.3,9.6,0,0.0172883
0.3,9.7,0,0.017205
0.3,9.8,0,0.017172
0.3,9.9,0,0.0153376
0.3,10,0,0.0162944
0.3,10.1,0,0.0143725
0.3,10.2,0,0.0153532
0.3,10.3,0,0.0144122
0.3,10.4,0,0.013901
0.3,10.5,0,0.0138212
0.3,10.6,0,0.0120359
0.3,10.7,0,0.012726
0.3,10.8,0,0.0111437
0.3,10.9,0,0.0115807
0.3,11,0,0.01076
0.3,11.1,0,0.00996966
0.3,11.2,0,0.00978301
0.3,11.3,0,0.00822261
0.3,11.4,0,0.00853834
0.3,11.5,0,0.0073268
0.3,11.6,0,0.00727341
0.3,11.7,0,0.00654977
0.3,11.8,0,0.00567465
0.3,11.9,0,0.00532047
0.3,12,0,0.00415355
0.3,12.1,0,0.00401248
0.3,12.2,0,0.00314143
0.3,12.3,0,0.0026716
0.3,12.4,0,0.00199847
0.3,12.5,0,0.00125426
0.3,12.6,0,0.000811769
0.3,12.7,0,0.000334016
0.4,0,0,0.000171388
0.4,0.1,0,0.000366087
0.4,0.2,0,0.000588675
0.4,0.3,0,0.000959992
0.4,0.4,0,0.00131746
0.4,0.5,0,0.00163683
0.4,0.6,0,0.00198506
0.4,0.7,0,0.00236389
0.4,0.8,0,0.00260181
0.4,0.9,0,0.00289944
0.4,1,0,0.00332305
0.4,1.1,0,0.00366964
0.4,1.2,0,0.00393495
0.4,1.3,0,0.00431004
0.4,1.4,0,0.00475511
0.4,1.5,0,0.00497725
0.4,1.6,0,0.00527853
0.4,1.7,0,0.00572164
0.4,1.8,0,0.00606973
0.4,1.9,0,0.00632184
0.4,2,0,0.00670557
0.4,2.1,0,0.00715737
0.4,2.2,0,0.00740817
0.4,2.3,0,0.00773057
0.4,2.4,0,0.00814455
0.4,2.5,0,0.00850966
0.4,2.6,0,0.00882565
0.4,2.7,0,0.00919511
0.4,2.8,0,0.00956231
0.4,2.9,0,0.00994721
0.4,3,0,0.0103319
0.4,3.1,0,0.0106315
0.4,3.2,0,0.0110248
0.4,3.3,0,0.01151
0.4,3.4,0,0.0118205
0.4,3.5,0,0.0119685
0.4,3.6,0,0.0126008
0.4,3.7,0,0.013081
0.4,3.8,0,0.0131511
0.4,3.9,0,0.0135694
0.4,4,0,0.0143304
0.4,4.1,0,0.0145196
0.4,4.2,0,0.0142906
0.4,4.3,0,0.0152766
0.4,4.4,0,0.0158635
0.4,4.5,0,0.015566
0.4,4.6,0,0.0159625
0.4,4.7,0,0.0170466
0.4,4.8,0,0.0170479
0.4,4.9,0,0.0163158
0.4,5,0,0.0177277
0.4,5.1,0,0.0184197
0.4,5.2,0,0.0176552
0.4,5.3,0,0.0179796
0.4,5.4,0,0.0193878
0.4,5.5,0,0.0191485
0.4,5.6,0,0.0178587
0.4,5.7,0,0.0196437
0.4,5.8,0,0.0203856
0.4,5.9,0,0.0191409
0.4,6,0,0.019334
0.4,6.1,0,0.0209638
0.4,6.2,0,0.0204803
0.4,6.3,0,0.0187101
0.4,6.4,0,0.0207336
0.4,6.5,0,0.0214594
0.4,6.6,0,0.0198311
0.4,6.7,0,0.0198585
0.4,6.8,0,0.0215478
0.4,6.9,0,0.020881
0.4,7,0,0.018849
0.4,7.1,0,0.0188324
0.4,7.2,0,0.0188218
0.4,7.3,0,0.0188126
0.4,7.4,0,0.0188019
0.4,7.5,0,0.0187867
0.4,7.6,0,0.0187654
0.4,7.7,0,0.0187375
0.4,7.8,0,0.0187029
0.4,7.9,0,0.018661
0.4,8,0,0.0185934
0.4,8.1,0,0.021595
0.4,8.2,0,0.0196572
0.4,8.3,0,0.0206227
0.4,8.4,0,0.0206683
0.4,8.5,0,0.0190985
0.4,8.6,0,0.0210052
0.4,8.7,0,0.0178298
0.4,8.8,0,0.02057
0.4,8.9,0,0.0185919
0.4,9,0,0.0190065
0.4,9.1,0,0.0192412
0.4,9.2,0,0.0172285
0.4,9.3,0,0.0190833
0.4,9.4,0,0.0161264
0.4,9.5,0,0.0183685
0.4,9.6,0,0.016587
0.4,9.7,0,0.0165037
0.4,9.8,0,0.0168912
0.4,9.9,0,0.014672
0.4,10,0,0.0162987
0.4,10.1,0,0.0137469
0.4,10.2,0,0.0152301
0.4,10.3,0,0.0138306
0.4,10.4,0,0.0133195
0.4,10.5,0,0.0137164
0.4,10.6,0,0.0115024
0.4,10.7,0,0.0127294
0.4,10.8,0,0.010662
0.4,10.9,0,0.0113772
0.4,11,0,0.0103335
0.4,11.1,0,0.00954319
0.4,11.2,0,0.00978555
0.4,11.3,0,0.00785422
0.4,11.4,0,0.0085396
0.4,11.5,0,0.00701818
0.4,11.6,0,0.00707395
0.4,11.7,0,0.00630295
0.4,11.8,0,0.00542784
0.4,11.9,0,0.00532015
0.4,12,0,0.00396813
0.4,12.1,0,0.00401498
0.4,12.2,0,0.00301849
0.4,12.3,0,0.00256417
0.4,12.4,0,0.00193607
0.4,12.5,0,0.00119186
0.4,12.6,0,0.000769399
0.4,12.7,0,0.000289481
0.5,0,0,0.000145021
0.5,0.1,0,0.00033972
0.5,0.2,0,0.00057532
0.5,0.3,0,0.000973594
0.5,0.4,0,0.00133106
0.5,0.5,0,0.00164772
0.5,0.6,0,0.00200854
0.5,0.7,0,0.00238738
0.5,0.8,0,0.0026253
0.5,0.9,0,0.0029123
0.5,1,0,0.00335513
0.5,1.1,0,0.00370172
0.5,1.2,0,0.00395207
0.5,1.3,0,0.00434719
0.5,1.4,0,0.00479226
0.5,1.5,0,0.00501441
0.5,1.6,0,0.00529657
0.5,1.7,0,0.00576014
0.5,1.8,0,0.00610822
0.5,1.9,0,0.00634082
0.5,2,0,0.00673907
0.5,2.1,0,0.00719087
0.5,2.2,0,0.00744167
0.5,2.3,0,0.00773942
0.5,2.4,0,0.00816456
0.5,2.5,0,0.00852967
0.5,2.6,0,0.00883475
0.5,2.7,0,0.00919216
0.5,2.8,0,0.00955936
0.5,2.9,0,0.00994426
0.5,3,0,0.0103121
0.5,3.1,0,0.0105946
0.5,3.2,0,0.0109879
0.5,3.3,0,0.0114918
0.5,3.4,0,0.0117398
0.5,3.5,0,0.0118878
0.5,3.6,0,0.0125201
0.5,3.7,0,0.0130095
0.5,3.8,0,0.0130127
0.5,3.9,0,0.013431
0.5,4,0,0.0142645
0.5,4.1,0,0.0143172
0.5,4.2,0,0.0140881
0.5,4.3,0,0.0150741
0.5,4.4,0,0.0157235
0.5,4.5,0,0.0152891
0.5,4.6,0,0.0156855
0.5,4.7,0,0.0169128
0.5,4.8,0,0.0166906
0.5,4.9,0,0.0159584
0.5,5,0,0.0173703
0.5,5.1,0,0.018203
0.5,5.2,0,0.0172191
0.5,5.3,0,0.0175435
0.5,5.4,0,0.0191762
0.5,5.5,0,0.018636
0.5,5.6,0,0.0173462
0.5,5.7,0,0.0191312
0.5,5.8,0,0.0201017
0.5,5.9,0,0.018564
0.5,6,0,0.0187571
0.5,6.1,0,0.0206809
0.5,6.2,0,0.019848
0.5,6.3,0,0.0180779
0.5,6.4,0,0.0201013
0.5,6.5,0,0.0211349
0.5,6.6,0,0.0191656
0.5,6.7,0,0.0191929
0.5,6.8,0,0.021217
0.5,6.9,0,0.0202023
0.5,7,0,0.0181703
0.5,7.1,0,0.0181479
0.5,7.2,0,0.0181344
0.5,7.3,0,0.018121
0.5,7.4,0,0.0181048
0.5,7.5,0,0.0180827
0.5,7.6,0,0.0180536
0.5,7.7,0,0.0180168
0.5,7.8,0,0.0179722
0.5,7.9,0,0.0179193
0.5,8,0,0.0178387
0.5,8.1,0,0.0211965
0.5,8.2,0,0.0188851
0.5,8.3,0,0.0198506
0.5,8.4,0,0.0198842
0.5,8.5,0,0.0183144
0.5,8.6,0,0.0207672
0.5,8.7,0,0.0170459
0.5,8.8,0,0.0199795
0.5,8.9,0,0.0178169
0.5,9,0,0.0182315
0.5,9.1,0,0.018484
0.5,9.2,0,0.0164713
0.5,9.3,0,0.0190249
0.5,9.4,0,0.0153943
0.5,9.5,0,0.017652
0.5,9.6,0,0.0158857
0.5,9.7,0,0.0158024
0.5,9.8,0,0.0162256
0.5,9.9,0,0.0140065
0.5,10,0,0.0163031
0.5,10.1,0,0.0131213
0.5,10.2,0,0.0146044
0.5,10.3,0,0.013249
0.5,10.4,0,0.0127379
0.5,10.5,0,0.0131829
0.5,10.6,0,0.0109689
0.5,10.7,0,0.0127329
0.5,10.8,0,0.0101804
0.5,10.9,0,0.0108956
0.5,11,0,0.00990703
0.5,11.1,0,0.00911672
0.5,11.2,0,0.00942505
0.5,11.3,0,0.00748583
0.5,11.4,0,0.0085094
0.5,11.5,0,0.00670957
0.5,11.6,0,0.00676534
0.5,11.7,0,0.00605614
0.5,11.8,0,0.00518102
0.5,11.9,0,0.00518002
0.5,12,0,0.00378271
0.5,12.1,0,0.00395951
0.5,12.2,0,0.00289555
0.5,12.3,0,0.00244123
0.5,12.4,0,0.00187367
0.5,12.5,0,0.00112947
0.5,12.6,0,0.000725878
0.5,12.7,0,0.000244945
0.6,0,0,0.000118654
0.6,0.1,0,0.000313352
0.6,0.2,0,0.000588922
0.6,0.3,0,0.000987196
0.6,0.4,0,0.00134466
0.6,0.5,0,0.00166133
0.6,0.6,0,0.00203203
0.6,0.7,0,0.00241087
0.6,0.8,0,0.00264879
0.6,0.9,0,0.00294438
0.6,1,0,0.00338721
0.6,1.1,0,0.00373381
0.6,1.2,0,0.00398415
0.6,1.3,0,0.00438435
0.6,1.4,0,0.00482942
0.6,1.5,0,0.00505156
0.6,1.6,0,0.00533507
0.6,1.7,0,0.00579864
0.6,1.8,0,0.00614672
0.6,1.9,0,0.00637931
0.6,2,0,0.00677257
0.6,2.1,0,0.00722437
0.6,2.2,0,0.00747517
0.6,2.3,0,0.00775943
0.6,2.4,0,0.00818457
0.6,2.5,0,0.00854968
0.6,2.6,0,0.00885476
0.6,2.7,0,0.00918921
0.6,2.8,0,0.0095564
0.6,2.9,0,0.00994131
0.6,3,0,0.0102752
0.6,3.1,0,0.0105578
0.6,3.2,0,0.010951
0.6,3.3,0,0.0114549
0.6,3.4,0,0.0116591
0.6,3.5,0,0.0118071
0.6,3.6,0,0.0124394
0.6,3.7,0,0.0128711
0.6,3.8,0,0.0128743
0.6,3.9,0,0.0132926
0.6,4,0,0.0141261
0.6,4.1,0,0.0141147
0.6,4.2,0,0.0138856
0.6,4.3,0,0.0148716
0.6,4.4,0,0.0154466
0.6,4.5,0,0.0150121
0.6,4.6,0,0.0154085
0.6,4.7,0,0.0166359
0.6,4.8,0,0.0163332
0.6,4.9,0,0.015601
0.6,5,0,0.017013
0.6,5.1,0,0.0177669
0.6,5.2,0,0.016783
0.6,5.3,0,0.0171074
0.6,5.4,0,0.0187401
0.6,5.5,0,0.0181236
0.6,5.6,0,0.0168337
0.6,5.7,0,0.0186188
0.6,5.8,0,0.0195248
0.6,5.9,0,0.0179871
0.6,6,0,0.0181802
0.6,6.1,0,0.020104
0.6,6.2,0,0.0192158
0.6,6.3,0,0.0174456
0.6,6.4,0,0.019469
0.6,6.5,0,0.0204693
0.6,6.6,0,0.0185
0.6,6.7,0,0.0185274
0.6,6.8,0,0.0205514
0.6,6.9,0,0.0195235
0.6,7,0,0.0174915
0.6,7.1,0,0.0174634
0.6,7.2,0,0.017447
0.6,7.3,0,0.0174295
0.6,7.4,0,0.0174076
0.6,7.5,0,0.0173787
0.6,7.6,0,0.0173417
0.6,7.7,0,0.017296
0.6,7.8,0,0.0172415
0.6,7.9,0,0.0171776
0.6,8,0,0.0170841
0.6,8.1,0,0.0204419
0.6,8.2,0,0.018113
0.6,8.3,0,0.0190785
0.6,8.4,0,0.0191001
0.6,8.5,0,0.0175303
0.6,8.6,0,0.0198321
0.6,8.7,0,0.016262
0.6,8.8,0,0.0191956
0.6,8.9,0,0.0170419
0.6,9,0,0.0174564
0.6,9.1,0,0.0177269
0.6,9.2,0,0.0157142
0.6,9.3,0,0.0179769
0.6,9.4,0,0.0146621
0.6,9.5,0,0.0169199
0.6,9.6,0,0.0151844
0.6,9.7,0,0.0151011
0.6,9.8,0,0.0155601
0.6,9.9,0,0.0133409
0.6,10,0,0.015337
0.6,10.1,0,0.0124957
0.6,10.2,0,0.0139788
0.6,10.3,0,0.0126675
0.6,10.4,0,0.0121564
0.6,10.5,0,0.0126494
0.6,10.6,0,0.0104354
0.6,10.7,0,0.011964
0.6,10.8,0,0.00969881
0.6,10.9,0,0.010414
0.6,11,0,0.00948056
0.6,11.1,0,0.00869025
0.6,11.2,0,0.00905666
0.6,11.3,0,0.00711744
0.6,11.4,0,0.00801245
0.6,11.5,0,0.00640095
0.6,11.6,0,0.00645672
0.6,11.7,0,0.00580932
0.6,11.8,0,0.00493421
0.6,11.9,0,0.0049946
0.6,12,0,0.00359729
0.6,12.1,0,0.00375006
0.6,12.2,0,0.00277261
0.6,12.3,0,0.00231829
0.6,12.4,0,0.00181128
0.6,12.5,0,0.00106707
0.6,12.6,0,0.000681342
0.6,12.7,0,0.00020041
0.7,0,0,9.22861e-05
0.7,0.1,0,0.000286985
0.7,0.2,0,0.000616468
0.7,0.3,0,0.0010008
0.7,0.4,0,0.00135827
0.7,0.5,0,0.00169023
0.7,0.6,0,0.00205552
0.7,0.7,0,0.00243435
0.7,0.8,0,0.00267227
0.7,0.9,0,0.00300632
0.7,1,0,0.0034193
0.7,1.1,0,0.00376589
0.7,1.2,0,0.00405123
0.7,1.3,0,0.0044215
0.7,1.4,0,0.00486657
0.7,1.5,0,0.00508872
0.7,1.6,0,0.00541313
0.7,1.7,0,0.00583713
0.7,1.8,0,0.00618522
0.7,1.9,0,0.00645185
0.7,2,0,0.00680607
0.7,2.1,0,0.00725787
0.7,2.2,0,0.00750867
0.7,2.3,0,0.00781524
0.7,2.4,0,0.00820458
0.7,2.5,0,0.00856969
0.7,2.6,0,0.00887364
0.7,2.7,0,0.00918625
0.7,2.8,0,0.00955345
0.7,2.9,0,0.00993836
0.7,3,0,0.0102382
0.7,3.1,0,0.0105209
0.7,3.2,0,0.0109141
0.7,3.3,0,0.0113368
0.7,3.4,0,0.0115784
0.7,3.5,0,0.0117264
0.7,3.6,0,0.0123587
0.7,3.7,0,0.0126567
0.7,3.8,0,0.0127359
0.7,3.9,0,0.0131542
0.7,4,0,0.0137786
0.7,4.1,0,0.0139122
0.7,4.2,0,0.0136831
0.7,4.3,0,0.0146691
0.7,4.4,0,0.0149701
0.7,4.5,0,0.0147351
0.7,4.6,0,0.0151316
0.7,4.7,0,0.0159921
0.7,4.8,0,0.0159759
0.7,4.9,0,0.0152437
0.7,5,0,0.0166556
0.7,5.1,0,0.0169708
0.7,5.2,0,0.0163469
0.7,5.3,0,0.0166713
0.7,5.4,0,0.0177787
0.7,5.5,0,0.0176111
0.7,5.6,0,0.0163212
0.7,5.7,0,0.0181063
0.7,5.8,0,0.0184263
0.7,5.9,0,0.0174102
0.7,6,0,0.0176032
0.7,6.1,0,0.0188837
0.7,6.2,0,0.0185835
0.7,6.3,0,0.0168133
0.7,6.4,0,0.0188368
0.7,6.5,0,0.0191549
0.7,6.6,0,0.0178345
0.7,6.7,0,0.0178618
0.7,6.8,0,0.0192033
0.7,6.9,0,0.0188448
0.7,7,0,0.0168128
0.7,7.1,0,0.0167789
0.7,7.2,0,0.0167596
0.7,7.3,0,0.016738
0.7,7.4,0,0.0167105
0.7,7.5,0,0.0166748
0.7,7.6,0,0.0166299
0.7,7.7,0,0.0165753
0.7,7.8,0,0.0165108
0.7,7.9,0,0.0164359
0.7,8,0,0.0163295
0.7,8.1,0,0.0189338
0.7,8.2,0,0.0173409
0.7,8.3,0,0.0183064
0.7,8.4,0,0.018316
0.7,8.5,0,0.0167462
0.7,8.6,0,0.0182585
0.7,8.7,0,0.0154781
0.7,8.8,0,0.0178296
0.7,8.9,0,0.0162668
0.7,9,0,0.0166814
0.7,9.1,0,0.0169697
0.7,9.2,0,0.0149571
0.7,9.3,0,0.0164833
0.7,9.4,0,0.0139299
0.7,9.5,0,0.01582
0.7,9.6,0,0.0144831
0.7,9.7,0,0.0143998
0.7,9.8,0,0.014842
0.7,9.9,0,0.0126753
0.7,10,0,0.0140415
0.7,10.1,0,0.0118701
0.7,10.2,0,0.0131787
0.7,10.3,0,0.0120859
0.7,10.4,0,0.0115748
0.7,10.5,0,0.0119415
0.7,10.6,0,0.00990189
0.7,10.7,0,0.0109455
0.7,10.8,0,0.00921719
0.7,10.9,0,0.00990043
0.7,11,0,0.00905409
0.7,11.1,0,0.00826378
0.7,11.2,0,0.00846464
0.7,11.3,0,0.00674906
0.7,11.4,0,0.00733418
0.7,11.5,0,0.00609234
0.7,11.6,0,0.00614811
0.7,11.7,0,0.00556251
0.7,11.8,0,0.00468739
0.7,11.9,0,0.00462562
0.7,12,0,0.00341187
0.7,12.1,0,0.0034392
0.7,12.2,0,0.00264967
0.7,12.3,0,0.00219535
0.7,12.4,0,0.00174888
0.7,12.5,0,0.00100467
0.7,12.6,0,0.000617418
0.7,12.7,0,0.000155874
0.8,0,0,6.59186e-05
0.8,0.1,0,0.000287574
0.8,0.2,0,0.000644015
0.8,0.3,0,0.0010144
0.8,0.4,0,0.00137187
0.8,0.5,0,0.00171914
0.8,0.6,0,0.00208171
0.8,0.7,0,0.00245784
0.8,0.8,0,0.00271498
0.8,0.9,0,0.00306825
0.8,1,0,0.00345138
0.8,1.1,0,0.00379797
0.8,1.2,0,0.0041183
0.8,1.3,0,0.00447362
0.8,1.4,0,0.00490373
0.8,1.5,0,0.00514633
0.8,1.6,0,0.00549119
0.8,1.7,0,0.00587563
0.8,1.8,0,0.00622371
0.8,1.9,0,0.00652438
0.8,2,0,0.00685908
0.8,2.1,0,0.00729137
0.8,2.2,0,0.00755332
0.8,2.3,0,0.00787106
0.8,2.4,0,0.00822459
0.8,2.5,0,0.0085897
0.8,2.6,0,0.00889252
0.8,2.7,0,0.00919422
0.8,2.8,0,0.0095505
0.8,2.9,0,0.00991839
0.8,3,0,0.0102012
0.8,3.1,0,0.010484
0.8,3.2,0,0.0108772
0.8,3.3,0,0.0112187
0.8,3.4,0,0.011479
0.8,3.5,0,0.0116457
0.8,3.6,0,0.0122111
0.8,3.7,0,0.0124423
0.8,3.8,0,0.0125975
0.8,3.9,0,0.0130158
0.8,4,0,0.0134311
0.8,4.1,0,0.0136371
0.8,4.2,0,0.0134806
0.8,4.3,0,0.0143296
0.8,4.4,0,0.0144936
0.8,4.5,0,0.0144582
0.8,4.6,0,0.0148546
0.8,4.7,0,0.0153484
0.8,4.8,0,0.0154753
0.8,4.9,0,0.0148863
0.8,5,0,0.0160789
0.8,5.1,0,0.0161748
0.8,5.2,0,0.0159108
0.8,5.3,0,0.0162352
0.8,5.4,0,0.0168173
0.8,5.5,0,0.0168742
0.8,5.6,0,0.0158088
0.8,5.7,0,0.0173008
0.8,5.8,0,0.0173278
0.8,5.9,0,0.0168333
0.8,6,0,0.0170263
0.8,6.1,0,0.0176635
0.8,6.2,0,0.0176573
0.8,6.3,0,0.0161811
0.8,6.4,0,0.0178635
0.8,6.5,0,0.0178406
0.8,6.6,0,0.0171689
0.8,6.7,0,0.0171963
0.8,6.8,0,0.0178551
0.8,6.9,0,0.0178313
0.8,7,0,0.016134
0.8,7.1,0,0.0160945
0.8,7.2,0,0.0160722
0.8,7.3,0,0.0160465
0.8,7.4,0,0.0160133
0.8,7.5,0,0.0159708
0.8,7.6,0,0.015918
0.8,7.7,0,0.0158546
0.8,7.8,0,0.0157801
0.8,7.9,0,0.0156942
0.8,8,0,0.0155749
0.8,8.1,0,0.0174009
0.8,8.2,0,0.0165688
0.8,8.3,0,0.0172128
0.8,8.4,0,0.0170404
0.8,8.5,0,0.0159621
0.8,8.6,0,0.0166849
0.8,8.7,0,0.0146942
0.8,8.8,0,0.016264
0.8,8.9,0,0.0154918
0.8,9,0,0.0157685
0.8,9.1,0,0.0155489
0.8,9.2,0,0.0141999
0.8,9.3,0,0.0149897
0.8,9.4,0,0.0131978
0.8,9.5,0,0.0143823
0.8,9.6,0,0.0137818
0.8,9.7,0,0.0136985
0.8,9.8,0,0.0134708
0.8,9.9,0,0.0120098
0.8,10,0,0.012746
0.8,10.1,0,0.0112445
0.8,10.2,0,0.0119674
0.8,10.3,0,0.0115044
0.8,10.4,0,0.0109933
0.8,10.5,0,0.0108226
0.8,10.6,0,0.0093684
0.8,10.7,0,0.00992698
0.8,10.8,0,0.00873557
0.8,10.9,0,0.00898967
0.8,11,0,0.00862762
0.8,11.1,0,0.00783731
0.8,11.2,0,0.00766725
0.8,11.3,0,0.00638067
0.8,11.4,0,0.00665592
0.8,11.5,0,0.00578372
0.8,11.6,0,0.00562745
0.8,11.7,0,0.00525946
0.8,11.8,0,0.00444058
0.8,11.9,0,0.00419371
0.8,12,0,0.00322645
0.8,12.1,0,0.00312834
0.8,12.2,0,0.00252673
0.8,12.3,0,0.00203419
0.8,12.4,0,0.00163739
0.8,12.5,0,0.000942274
0.8,12.6,0,0.000552855
0.8,12.7,0,0.000111339
0.9,0,0,3.95512e-05
0.9,0.1,0,0.000315121
0.9,0.2,0,0.000671561
0.9,0.3,0,0.001028
0.9,0.4,0,0.00138547
0.9,0.5,0,0.00174804
0.9,0.6,0,0.00211062
0.9,0.7,0,0.00248132
0.9,0.8,0,0.00277692
0.9,0.9,0,0.00313019
0.9,1,0,0.00348346
0.9,1.1,0,0.00383005
0.9,1.2,0,0.00418537
0.9,1.3,0,0.00454069
0.9,1.4,0,0.00494088
0.9,1.5,0,0.00522439
0.9,1.6,0,0.00556926
0.9,1.7,0,0.00591413
0.9,1.8,0,0.00626221
0.9,1.9,0,0.00659691
0.9,2,0,0.00693162
0.9,2.1,0,0.00732487
0.9,2.2,0,0.00760913
0.9,2.3,0,0.00792687
0.9,2.4,0,0.0082446
0.9,2.5,0,0.00860971
0.9,2.6,0,0.00891141
0.9,2.7,0,0.0092131
0.9,2.8,0,0.00954755
0.9,2.9,0,0.00988142
0.9,3,0,0.0101642
0.9,3.1,0,0.0104471
0.9,3.2,0,0.0108403
0.9,3.3,0,0.0111006
0.9,3.4,0,0.0113608
0.9,3.5,0,0.011565
0.9,3.6,0,0.0119967
0.9,3.7,0,0.0122279
0.9,3.8,0,0.0124591
0.9,3.9,0,0.0128774
0.9,4,0,0.0130835
0.9,4.1,0,0.0132896
0.9,4.2,0,0.0132781
0.9,4.3,0,0.0138531
0.9,4.4,0,0.0140172
0.9,4.5,0,0.0141812
0.9,4.6,0,0.0145777
0.9,4.7,0,0.0147046
0.9,4.8,0,0.0148316
0.9,4.9,0,0.014529
0.9,5,0,0.0152829
0.9,5.1,0,0.0153788
0.9,5.2,0,0.0154747
0.9,5.3,0,0.0157991
0.9,5.4,0,0.0158559
0.9,5.5,0,0.0159128
0.9,5.6,0,0.0152963
0.9,5.7,0,0.0162023
0.9,5.8,0,0.0162293
0.9,5.9,0,0.0162563
0.9,6,0,0.0164494
0.9,6.1,0,0.0164432
0.9,6.2,0,0.016437
0.9,6.3,0,0.0155488
0.9,6.4,0,0.0165491
0.9,6.5,0,0.0165262
0.9,6.6,0,0.0165033
0.9,6.7,0,0.0165307
0.9,6.8,0,0.0165069
0.9,6.9,0,0.0164832
0.9,7,0,0.0154553
0.9,7.1,0,0.01541
0.9,7.2,0,0.0153848
0.9,7.3,0,0.015355
0.9,7.4,0,0.0153162
0.9,7.5,0,0.0152668
0.9,7.6,0,0.0152062
0.9,7.7,0,0.0151339
0.9,7.8,0,0.0150494
0.9,7.9,0,0.0149524
0.9,8,0,0.0148203
0.9,8.1,0,0.0158679
0.9,8.2,0,0.0157481
0.9,8.3,0,0.0156456
0.9,8.4,0,0.0154731
0.9,8.5,0,0.015178
0.9,8.6,0,0.0151112
0.9,8.7,0,0.0139103
0.9,8.8,0,0.0146984
0.9,8.9,0,0.0144897
0.9,9,0,0.0142315
0.9,9.1,0,0.0140119
0.9,9.2,0,0.0134428
0.9,9.3,0,0.0134962
0.9,9.4,0,0.0124656
0.9,9.5,0,0.0129447
0.9,9.6,0,0.0127045
0.9,9.7,0,0.0123558
0.9,9.8,0,0.0120997
0.9,9.9,0,0.0113442
0.9,10,0,0.0114505
0.9,10.1,0,0.0106189
0.9,10.2,0,0.010756
0.9,10.3,0,0.0104605
0.9,10.4,0,0.0100173
0.9,10.5,0,0.00970376
0.9,10.6,0,0.0088349
0.9,10.7,0,0.00890845
0.9,10.8,0,0.00825395
0.9,10.9,0,0.00807892
0.9,11,0,0.00773748
0.9,11.1,0,0.00722143
0.9,11.2,0,0.00686985
0.9,11.3,0,0.00601228
0.9,11.4,0,0.00597765
0.9,11.5,0,0.00547511
0.9,11.6,0,0.00506969
0.9,11.7,0,0.00470169
0.9,11.8,0,0.00414059
0.9,11.9,0,0.00376179
0.9,12,0,0.00304103
0.9,12.1,0,0.00281748
0.9,12.2,0,0.00240379
0.9,12.3,0,0.00185036
0.9,12.4,0,0.00145356
0.9,12.5,0,0.000879738
0.9,12.6,0,0.000488291
0.9,12.7,0,6.68033e-05
1,0,0,1.31837e-05
1,0.1,0,0.000342667
1,0.2,0,0.000699107
1,0.3,0,0.00105555
1,0.4,0,0.00141438
1,0.5,0,0.00177695
1,0.6,0,0.00213952
1,0.7,0,0.00250481
1,0.8,0,0.00283885
1,0.9,0,0.00319212
1,1,0,0.00354539
1,1.1,0,0.00389712
1,1.2,0,0.00425244
1,1.3,0,0.00460776
1,1.4,0,0.00497804
1,1.5,0,0.00530245
1,1.6,0,0.00564732
1,1.7,0,0.00599219
1,1.8,0,0.00633474
1,1.9,0,0.00666944
1,2,0,0.00700415
1,2.1,0,0.00735837
1,2.2,0,0.00766495
1,2.3,0,0.00798268
1,2.4,0,0.00830041
1,2.5,0,0.00862859
1,2.6,0,0.00893029
1,2.7,0,0.00923199
1,2.8,0,0.0095446
1,2.9,0,0.00984444
1,3,0,0.0101273
1,3.1,0,0.0104101
1,3.2,0,0.0107222
1,3.3,0,0.0109825
1,3.4,0,0.0112427
1,3.5,0,0.0114843
1,3.6,0,0.0117823
1,3.7,0,0.0120135
1,3.8,0,0.0122447
1,3.9,0,0.0125299
1,4,0,0.012736
1,4.1,0,0.0129421
1,4.2,0,0.0130756
1,4.3,0,0.0133767
1,4.4,0,0.0135407
1,4.5,0,0.0137048
1,4.6,0,0.0139339
1,4.7,0,0.0140609
1,4.8,0,0.0141879
1,4.9,0,0.0141716
1,5,0,0.0144869
1,5.1,0,0.0145827
1,5.2,0,0.0146786
1,5.3,0,0.0148377
1,5.4,0,0.0148945
1,5.5,0,0.0149514
1,5.6,0,0.0147838
1,5.7,0,0.0151038
1,5.8,0,0.0151308
1,5.9,0,0.0151579
1,6,0,0.0152292
1,6.1,0,0.0152229
1,6.2,0,0.0152167
1,6.3,0,0.0149165
1,6.4,0,0.0152347
1,6.5,0,0.0152118
1,6.6,0,0.015189
1,6.7,0,0.0151825
1,6.8,0,0.0151588
1,6.9,0,0.015135
1,7,0,0.0147765
1,7.1,0,0.0147255
1,7.2,0,0.0146974
1,7.3,0,0.0146634
1,7.4,0,0.014619
1,7.5,0,0.0145628
1,7.6,0,0.0144943
1,7.7,0,0.0144131
1,7.8,0,0.0143187
1,7.9,0,0.0142107
1,8,0,0.0140656
1,8.1,0,0.014335
1,8.2,0,0.0142152
1,8.3,0,0.0140783
1,8.4,0,0.0139058
1,8.5,0,0.0137304
1,8.6,0,0.0135376
1,8.7,0,0.0131264
1,8.8,0,0.0131329
1,8.9,0,0.0129241
1,9,0,0.0126945
1,9.1,0,0.0124749
1,9.2,0,0.0122313
1,9.3,0,0.0120026
1,9.4,0,0.0117335
1,9.5,0,0.011507
1,9.6,0,0.0112669
1,9.7,0,0.0109847
1,9.8,0,0.0107286
1,9.9,0,0.0104307
1,10,0,0.010155
1,10.1,0,0.00987925
1,10.2,0,0.00954464
1,10.3,0,0.00924912
1,10.4,0,0.00889837
1,10.5,0,0.00858486
1,10.6,0,0.00821885
1,10.7,0,0.00788993
1,10.8,0,0.007561
1,10.9,0,0.00716817
1,11,0,0.00682672
1,11.1,0,0.00642404
1,11.2,0,0.00607246
1,11.3,0,0.00564389
1,11.4,0,0.00529939
1,11.5,0,0.00493841
1,11.6,0,0.00451192
1,11.7,0,0.00414392
1,11.8,0,0.00370868
1,11.9,0,0.00332988
1,12,0,0.00285561
1,12.1,0,0.00250661
1,12.2,0,0.00212292
1,12.3,0,0.00166653
1,12.4,0,0.00126973
1,12.5,0,0.000815175
1,12.6,0,0.000423728
1,12.7,0,2.22678e-05
1.1,0,0,0
1.1,0.1,0,0.000360914
1.1,0.2,0,0.000717354
1.1,0.3,0,0.00107379
1.1,0.4,0,0.00145054
1.1,0.5,0,0.00181311
1.1,0.6,0,0.00217569
1.1,0.7,0,0.00252613
1.1,0.8,0,0.00289664
1.1,0.9,0,0.00324991
1.1,1,0,0.00360318
1.1,1.1,0,0.00396766
1.1,1.2,0,0.00432298
1.1,1.3,0,0.0046783
1.1,1.4,0,0.00501106
1.1,1.5,0,0.00538053
1.1,1.6,0,0.0057254
1.1,1.7,0,0.00607027
1.1,1.8,0,0.00641065
1.1,1.9,0,0.00674535
1.1,2,0,0.00708005
1.1,2.1,0,0.0073879
1.1,2.2,0,0.00772304
1.1,2.3,0,0.00804077
1.1,2.4,0,0.00835851
1.1,2.5,0,0.00865054
1.1,2.6,0,0.00895224
1.1,2.7,0,0.00925393
1.1,2.8,0,0.0095441
1.1,2.9,0,0.00981069
1.1,3,0,0.0100935
1.1,3.1,0,0.0103764
1.1,3.2,0,0.0106084
1.1,3.3,0,0.0108687
1.1,3.4,0,0.0111289
1.1,3.5,0,0.0114249
1.1,3.6,0,0.0115733
1.1,3.7,0,0.0118045
1.1,3.8,0,0.0120357
1.1,3.9,0,0.0121854
1.1,4,0,0.0123914
1.1,4.1,0,0.0125975
1.1,4.2,0,0.0129321
1.1,4.3,0,0.0129112
1.1,4.4,0,0.0130753
1.1,4.5,0,0.0132393
1.1,4.6,0,0.0132915
1.1,4.7,0,0.0134185
1.1,4.8,0,0.0135454
1.1,4.9,0,0.0139291
1.1,5,0,0.0136999
1.1,5.1,0,0.0137958
1.1,5.2,0,0.0138916
1.1,5.3,0,0.0138803
1.1,5.4,0,0.0139371
1.1,5.5,0,0.013994
1.1,5.6,0,0.0144504
1.1,5.7,0,0.0140113
1.1,5.8,0,0.0140384
1.1,5.9,0,0.0140654
1.1,6,0,0.014014
1.1,6.1,0,0.0140078
1.1,6.2,0,0.0140016
1.1,6.3,0,0.0145189
1.1,6.4,0,0.0139208
1.1,6.5,0,0.013898
1.1,6.6,0,0.0138751
1.1,6.7,0,0.0138342
1.1,6.8,0,0.0138104
1.1,6.9,0,0.0137867
1.1,7,0,0.0143582
1.1,7.1,0,0.0143069
1.1,7.2,0,0.0142772
1.1,7.3,0,0.0142404
1.1,7.4,0,0.0141918
1.1,7.5,0,0.0141303
1.1,7.6,0,0.0140557
1.1,7.7,0,0.0139674
1.1,7.8,0,0.0138651
1.1,7.9,0,0.0137482
1.1,8,0,0.0135911
1.1,8.1,0,0.0128113
1.1,8.2,0,0.0126915
1.1,8.3,0,0.0125135
1.1,8.4,0,0.012341
1.1,8.5,0,0.0121588
1.1,8.6,0,0.011966
1.1,8.7,0,0.0121457
1.1,8.8,0,0.0115688
1.1,8.9,0,0.0113601
1.1,9,0,0.0111584
1.1,9.1,0,0.0109388
1.1,9.2,0,0.0107388