/*--------------------------------*- C++ -*----------------------------------*\
| =========                 |                                                 |
| \\      /  F ield         | OpenFOAM: The Open Source CFD Toolbox           |
|  \\    /   O peration     | Version:  v1806                                 |
|   \\  /    A nd           | Web:      www.OpenFOAM.com                      |
|    \\/     M anipulation  |                                                 |
\*---------------------------------------------------------------------------*/
FoamFile
{
    version     2.0;
    format      ascii;
    class       volScalarField;
    location    "210";
    object      p;
}
// * * * * * * * * * * * * * * * * * * * * * * * * * * * * * * * * * * * * * //

dimensions      [0 2 -2 0 0 0 0];


internalField   nonuniform List<scalar> 
2400
(
0.000141068
0.000143884
0.000148685
0.000156847
0.000166753
0.000180583
0.000194934
0.000214177
0.000231435
0.000254896
0.000271206
0.000295165
0.000302842
0.000319014
0.00030624
0.000300091
0.00025551
0.000209655
0.000133904
4.65801e-05
0.000422607
0.00043088
0.000444804
0.000468917
0.000497841
0.000538792
0.000580713
0.000637833
0.00068818
0.000758015
0.000805485
0.000877186
0.000899348
0.000948747
0.000910906
0.000895533
0.000763572
0.000631797
0.000406787
0.000150969
0.00070259
0.000716049
0.000739079
0.000778722
0.000826657
0.000894046
0.00096378
0.00105783
0.0011421
0.00125715
0.00133768
0.00145619
0.001496
0.00157917
0.00151934
0.00149892
0.00127813
0.00106787
0.000684494
0.000261192
0.000979965
0.000998328
0.00103063
0.00108548
0.00115269
0.00124596
0.00134411
0.00147438
0.00159389
0.00175353
0.00186957
0.00203507
0.00209607
0.00221572
0.00213641
0.00211872
0.00180407
0.00152745
0.00096754
0.000378691
0.00125372
0.00127667
0.00131844
0.00138817
0.00147493
0.0015935
0.00172075
0.0018866
0.00204288
0.0022468
0.00240128
0.0026147
0.00270137
0.00286155
0.00276637
0.00276171
0.00234691
0.00202116
0.00125706
0.000509298
0.00152285
0.00155001
0.00160148
0.00168569
0.00179233
0.00193555
0.00209269
0.00229349
0.0024884
0.00273638
0.00293308
0.00319561
0.00331413
0.00351931
0.00341446
0.00343412
0.00291376
0.00256049
0.00155401
0.000662583
0.00178635
0.00181733
0.0018787
0.00197696
0.0021038
0.002271
0.00245892
0.00269399
0.00292975
0.0032216
0.00346521
0.00377804
0.00393664
0.004191
0.00408645
0.00414119
0.0035133
0.00315687
0.0018597
0.000852571
0.00204323
0.0020776
0.00214908
0.00226092
0.00240829
0.00259872
0.00281838
0.00308699
0.00336612
0.00370156
0.00399772
0.00436179
0.00457102
0.00487783
0.0047884
0.00488687
0.00415623
0.00382108
0.00217738
0.00109832
0.00229248
0.00232985
0.00241157
0.00253652
0.00270465
0.00291755
0.00316989
0.00347124
0.00379647
0.00417513
0.00453033
0.00494627
0.0052191
0.00558031
0.00552651
0.0056736
0.00485549
0.0045624
0.00251466
0.00142335
0.00253314
0.00257313
0.00266514
0.0028027
0.00299175
0.00322632
0.00351214
0.00384544
0.00421948
0.00464094
0.00506231
0.00553057
0.00588238
0.00629851
0.00630714
0.00650207
0.00562583
0.0053869
0.00288676
0.00185341
0.00276422
0.0028065
0.00290876
0.00305844
0.00326837
0.00352384
0.0038437
0.00420813
0.00463348
0.00509737
0.00559231
0.00611348
0.00656188
0.00703267
0.00713724
0.00737179
0.0064834
0.00629391
0.00331869
0.00241419
0.00298476
0.00302908
0.00314141
0.00330273
0.00353327
0.00380893
0.00416299
0.00455782
0.00503639
0.00554248
0.00611801
0.00669332
0.00725749
0.00778379
0.00802506
0.00828356
0.00744718
0.00727117
0.00384207
0.003129
0.00319381
0.00324
0.00336208
0.00353458
0.00378519
0.00408038
0.00446827
0.00489298
0.00542575
0.0059741
0.00663596
0.00726721
0.00796685
0.00855303
0.0089797
0.00924482
0.00854532
0.00829502
0.0044866
0.0040052
0.00339047
0.00343843
0.0035698
0.00375302
0.00402286
0.00433702
0.00475776
0.005212
0.00579868
0.00639004
0.0071416
0.00783168
0.00868385
0.00933766
0.0100069
0.0102751
0.00982479
0.00935043
0.00528184
0.0049918
0.00357385
0.00362357
0.00376362
0.00395711
0.00424507
0.0045776
0.00502962
0.00551318
0.00615213
0.00678783
0.00762929
0.00838348
0.00939897
0.0101313
0.0111001
0.011395
0.011351
0.0104683
0.00629856
0.00586085
0.00374313
0.00379462
0.00394269
0.0041459
0.00445065
0.00480088
0.0052821
0.00579464
0.00648301
0.00716455
0.008093
0.00891846
0.0100993
0.01093
0.012239
0.0125924
0.0131775
0.0117791
0.00777531
0.00607486
0.00389756
0.00395085
0.00410619
0.0043185
0.00463851
0.00500559
0.00551353
0.00605436
0.00678835
0.00751673
0.00852671
0.00943097
0.0107709
0.0117281
0.0133878
0.013866
0.0152758
0.0134658
0.0102568
0.0050876
0.00403645
0.00409158
0.00425338
0.00447405
0.00480764
0.00519047
0.00572233
0.00629024
0.00706532
0.00784047
0.00892463
0.00991356
0.0114006
0.0125144
0.0145084
0.0152235
0.0175617
0.0155522
0.0143988
0.00287898
0.00415917
0.00421622
0.0043836
0.00461174
0.00495715
0.00535433
0.0059071
0.00650014
0.00731133
0.00813146
0.00928142
0.010357
0.0119757
0.01327
0.0155655
0.0166532
0.0198806
0.0181595
0.0202618
0.000532868
0.00426524
0.00432409
0.00449643
0.00473069
0.00508644
0.00549575
0.00606693
0.00668153
0.00752463
0.00838454
0.00959307
0.0107495
0.0124864
0.0139666
0.0165303
0.0180983
0.0220795
0.0215284
0.0276593
0.00310824
-3.76876e-05
-0.00011812
-0.000184855
-0.000228777
-0.000254096
-0.000267268
-0.00027089
-0.000266754
-0.000257306
-0.000244947
-9.80575e-05
-0.000336861
-0.000534307
-0.000664363
-0.000740309
-0.000780524
-0.000792363
-0.000781201
-0.000754438
-0.0007191
-0.000160286
-0.000568514
-0.000900326
-0.00111639
-0.00124288
-0.00130928
-0.00132723
-0.0013066
-0.00126036
-0.00120012
-0.000229712
-0.000824772
-0.00129442
-0.00159421
-0.0017697
-0.00186013
-0.00188067
-0.00184691
-0.00177819
-0.00169069
-0.000311155
-0.00111693
-0.00172649
-0.00210575
-0.0023275
-0.00243817
-0.00245588
-0.00240387
-0.00230868
-0.00219088
-0.00041332
-0.00145915
-0.00220772
-0.00266057
-0.00292472
-0.0030496
-0.00305688
-0.00297995
-0.00285322
-0.00270132
-0.000551763
-0.00186849
-0.00274984
-0.00326962
-0.00357089
-0.003701
-0.00368766
-0.00357759
-0.00341315
-0.00322256
-0.000752273
-0.00236522
-0.00336521
-0.00394558
-0.00427667
-0.00439913
-0.00435218
-0.00419915
-0.00398961
-0.00375479
-0.00105268
-0.00297385
-0.00406853
-0.00470376
-0.00505385
-0.00515094
-0.00505445
-0.00484679
-0.00458314
-0.00429725
-0.00150151
-0.0037232
-0.00488053
-0.00556382
-0.00591562
-0.00596355
-0.00579824
-0.0055218
-0.00519271
-0.00484706
-0.00216073
-0.0046415
-0.00583286
-0.00655237
-0.00687676
-0.00684354
-0.00658572
-0.00622262
-0.0058135
-0.00539699
-0.00311917
-0.00575351
-0.0069719
-0.00770403
-0.00795174
-0.00779389
-0.00741363
-0.00694077
-0.0064334
-0.00593269
-0.00448829
-0.00710571
-0.00835942
-0.00905442
-0.00914641
-0.00880658
-0.00826588
-0.00765498
-0.00702941
-0.00643103
-0.00641637
-0.00878469
-0.0100659
-0.0106179
-0.0104418
-0.00984905
-0.00910419
-0.00832705
-0.00756799
-0.00686328
-0.00913641
-0.0109162
-0.0121486
-0.0123544
-0.0117683
-0.010851
-0.00986572
-0.00890754
-0.00801464
-0.00720582
-0.0130543
-0.0135772
-0.0146113
-0.0141153
-0.0129934
-0.0117128
-0.010483
-0.00935824
-0.00835188
-0.00745279
-0.01854
-0.0166695
-0.0173055
-0.0156382
-0.0139709
-0.012358
-0.0109261
-0.00967356
-0.00858483
-0.00761757
-0.0255296
-0.0195029
-0.0197883
-0.0166794
-0.0146538
-0.0127803
-0.0112092
-0.00987463
-0.00873488
-0.00773091
-0.0336909
-0.0211785
-0.0215414
-0.0171996
-0.0150885
-0.013019
-0.0113733
-0.00999309
-0.00882133
-0.00779872
-0.0477959
-0.0226699
-0.0231751
-0.0175312
-0.0153743
-0.0131418
-0.0114642
-0.0100535
-0.00886764
-0.00793788
-0.000231547
-0.00021799
-0.000204109
-0.000190405
-0.000176748
-0.000163467
-0.00015035
-0.000138015
-0.0001262
-0.000115674
-0.000105784
-9.72961e-05
-8.89213e-05
-8.14363e-05
-7.28306e-05
-6.4132e-05
-5.2836e-05
-4.06555e-05
-2.51183e-05
-8.93836e-06
-0.000680222
-0.000640654
-0.000600361
-0.000560397
-0.000520531
-0.000481496
-0.000442941
-0.000406398
-0.000371481
-0.000340098
-0.000310801
-0.000285461
-0.000260764
-0.000238666
-0.000213523
-0.000188329
-0.000155316
-0.000120312
-7.43762e-05
-2.83928e-05
-0.00113431
-0.00106759
-0.000999972
-0.000932991
-0.000866285
-0.000800839
-0.000736274
-0.000674944
-0.000616532
-0.000563936
-0.000515174
-0.000472968
-0.000432288
-0.000395889
-0.000354794
-0.000313538
-0.000259226
-0.000201693
-0.000125075
-4.9143e-05
-0.00159615
-0.00150093
-0.00140498
-0.00131021
-0.00121596
-0.00112333
-0.00103198
-0.000945112
-0.000862628
-0.000788398
-0.000720069
-0.000661104
-0.000604895
-0.000554754
-0.000498425
-0.000441704
-0.000366413
-0.000286414
-0.000178125
-7.139e-05
-0.00206539
-0.00194009
-0.00181479
-0.0016915
-0.00156898
-0.00144829
-0.00132924
-0.00121591
-0.00110863
-0.00101224
-0.000924238
-0.000848693
-0.000777608
-0.000714529
-0.000644045
-0.00057277
-0.000477152
-0.000374902
-0.000233946
-9.55157e-05
-0.00254217
-0.00238496
-0.00222924
-0.00207666
-0.00192505
-0.00177521
-0.00162726
-0.00148626
-0.00135321
-0.00123394
-0.00112607
-0.00103413
-0.000949007
-0.000874022
-0.000790869
-0.000706269
-0.000591459
-0.000467366
-0.000293008
-0.000121792
-0.00302649
-0.0028353
-0.00264804
-0.00246537
-0.00228365
-0.00210326
-0.00192484
-0.00175459
-0.00159448
-0.00145135
-0.00132331
-0.00121516
-0.00111697
-0.00103132
-0.000937387
-0.00084102
-0.000708734
-0.000563453
-0.000355454
-0.000150153
-0.00351786
-0.00329025
-0.00307024
-0.0028566
-0.0026435
-0.00243075
-0.00221991
-0.00201844
-0.00182961
-0.00166141
-0.00151274
-0.00138852
-0.00127835
-0.00118345
-0.00108099
-0.000974756
-0.000827392
-0.000661928
-0.000420884
-0.000180145
-0.0040145
-0.00374756
-0.00349358
-0.00324798
-0.00300188
-0.00275464
-0.00250905
-0.00227408
-0.00205466
-0.00186001
-0.00169018
-0.00155003
-0.00142899
-0.0013264
-0.00121795
-0.00110409
-0.000944756
-0.000760602
-0.000488306
-0.000210947
-0.00451206
-0.00420236
-0.00391331
-0.00363478
-0.00335395
-0.00306994
-0.00278728
-0.00251658
-0.00226475
-0.00204238
-0.0018509
-0.00169503
-0.00156424
-0.0014556
-0.00134379
-0.00122485
-0.00105725
-0.000856504
-0.000556196
-0.000241504
-0.00500154
-0.0046455
-0.004321
-0.00400906
-0.00369215
-0.0033697
-0.0030483
-0.00274032
-0.00245488
-0.00220403
-0.00199072
-0.0018195
-0.00167999
-0.00156689
-0.00145417
-0.00133282
-0.00116097
-0.000946332
-0.000622686
-0.000270736
-0.00546722
-0.00506247
-0.00470402
-0.00435959
-0.00400671
-0.00364583
-0.00328566
-0.00294035
-0.00262138
-0.00234231
-0.00210759
-0.00192163
-0.00177425
-0.00165792
-0.00154616
-0.0014248
-0.00125241
-0.00102706
-0.000685782
-0.000297692
-0.00588663
-0.00543444
-0.0050471
-0.00467369
-0.00428767
-0.00389108
-0.00349463
-0.00311415
-0.00276348
-0.00245767
-0.00220268
-0.00200276
-0.0018481
-0.00172918
-0.00161924
-0.00149947
-0.00132925
-0.00109643
-0.000743475
-0.000321552
-0.00623509
-0.00574339
-0.00533665
-0.00494099
-0.00452802
-0.00410155
-0.00367391
-0.00326261
-0.0028839
-0.00255416
-0.00228069
-0.00206769
-0.00190577
-0.00178396
-0.00167534
-0.00155747
-0.0013905
-0.00115297
-0.000793663
-0.000341177
-0.00649576
-0.00597995
-0.00556629
-0.00515733
-0.00472599
-0.00427757
-0.00382587
-0.0033901
-0.00298858
-0.00263879
-0.00234914
-0.00212377
-0.00195392
-0.00182762
-0.00171816
-0.00160071
-0.00143607
-0.0011956
-0.000834479
-0.000355148
-0.00666717
-0.00614654
-0.00573806
-0.00532502
-0.00488467
-0.00442315
-0.00395577
-0.00350316
-0.00308507
-0.00271977
-0.00241639
-0.00217903
-0.00199969
-0.00186595
-0.00175181
-0.0016313
-0.00146605
-0.00122293
-0.000861855
-0.000361283
-0.00676267
-0.00625582
-0.00586047
-0.00545085
-0.00500996
-0.00454403
-0.00406946
-0.00360814
-0.00318062
-0.00280459
-0.00248977
-0.00224025
-0.00204895
-0.00190355
-0.00177943
-0.00165062
-0.00148024
-0.00123316
-0.000872817
-0.000357351
-0.00680464
-0.00632271
-0.00594291
-0.00554185
-0.00510757
-0.00464572
-0.00417335
-0.00371186
-0.00328134
-0.00289881
-0.00257439
-0.00231187
-0.00210532
-0.00194311
-0.00180267
-0.00165912
-0.00147809
-0.00122432
-0.000864729
-0.000341805
-0.00680952
-0.00635248
-0.00599016
-0.00560276
-0.00518239
-0.00473333
-0.00427183
-0.00381807
-0.00339081
-0.00300578
-0.00267286
-0.00239588
-0.00217022
-0.00198552
-0.00182193
-0.0016567
-0.00145912
-0.00119517
-0.000837021
-0.000314237
-0.00681558
-0.00633959
-0.00600256
-0.00563708
-0.00523904
-0.00481117
-0.0043688
-0.00392983
-0.00351105
-0.0031266
-0.0027857
-0.00249238
-0.00224346
-0.00203051
-0.00183701
-0.00164333
-0.00142362
-0.0011458
-0.000791603
-0.000276189
-0.00666757
-0.00625425
-0.00597977
-0.00564672
-0.00527795
-0.00487651
-0.00445769
-0.00403714
-0.00362954
-0.00324756
-0.0028994
-0.00258943
-0.0023159
-0.00207263
-0.0018466
-0.00162194
-0.00137818
-0.00108489
-0.00073853
-0.000234963
-0.00640727
-0.00617594
-0.00594573
-0.00564852
-0.00530986
-0.00493547
-0.00454061
-0.00413895
-0.0037431
-0.00336388
-0.00300885
-0.00268247
-0.00238447
-0.00211098
-0.00185243
-0.00159703
-0.00132944
-0.0010208
-0.00068452
-0.00019409
-0.00622185
-0.00610734
-0.00591362
-0.00565143
-0.00534318
-0.00499759
-0.00462852
-0.0042473
-0.00386418
-0.00348804
-0.00312553
-0.00278124
-0.00245651
-0.00215004
-0.00185624
-0.00156715
-0.00127371
-0.000949462
-0.000625509
-0.000151084
-0.006104
-0.00605634
-0.00589143
-0.00566052
-0.00538161
-0.00506479
-0.00472202
-0.00436191
-0.00399195
-0.00361889
-0.00324825
-0.00288473
-0.00253133
-0.00218964
-0.00185821
-0.00153374
-0.0012129
-0.0008745
-0.00055771
-0.000112834
-0.00605088
-0.00603251
-0.00588776
-0.00568031
-0.00542756
-0.00513803
-0.00482105
-0.00448197
-0.00412514
-0.00375494
-0.00337556
-0.00299177
-0.00260825
-0.00222969
-0.00185899
-0.001498
-0.00114902
-0.000796908
-0.000488499
-7.58143e-05
-0.00606446
-0.00603812
-0.00590393
-0.00571219
-0.00548151
-0.00521696
-0.00492452
-0.00460581
-0.00426179
-0.00389416
-0.00350561
-0.00310092
-0.00268641
-0.00227006
-0.00185919
-0.00146116
-0.00108381
-0.000718423
-0.00041907
-3.89024e-05
-0.00614285
-0.00607103
-0.00593816
-0.00575458
-0.00554182
-0.00529967
-0.00503017
-0.00473087
-0.00439915
-0.00403382
-0.00363595
-0.00321025
-0.0027646
-0.00231034
-0.00185921
-0.0014243
-0.00101883
-0.000640783
-0.000349882
-3.87105e-06
-0.00628266
-0.00612242
-0.00598468
-0.00580282
-0.00560475
-0.00538277
-0.00513463
-0.00485367
-0.00453363
-0.00417041
-0.00376342
-0.00331719
-0.00284107
-0.00234974
-0.00185904
-0.0013882
-0.00095528
-0.000565823
-0.000278812
2.26214e-05
-0.00648668
-0.00618117
-0.00603503
-0.00585023
-0.00566512
-0.0054618
-0.00523361
-0.00496993
-0.00466082
-0.00429969
-0.00388414
-0.00341855
-0.00291349
-0.00238698
-0.0018583
-0.0013534
-0.000893654
-0.000495954
-0.000208433
4.54117e-05
-0.00676093
-0.0062468
-0.00607595
-0.00589056
-0.00571756
-0.00553207
-0.00532247
-0.00507472
-0.0047759
-0.00441696
-0.00399379
-0.0035106
-0.00297908
-0.00242006
-0.00185687
-0.00132048
-0.000835728
-0.000430583
-0.00014248
6.44825e-05
-0.0068441
-0.00631632
-0.00610627
-0.00592502
-0.00576658
-0.00560162
-0.00541267
-0.00518242
-0.00489488
-0.00453848
-0.0041074
-0.0036057
-0.00304616
-0.0024527
-0.00185253
-0.00128263
-0.000771289
-0.000358315
-7.02464e-05
8.14314e-05
-0.00678045
-0.00630936
-0.00609663
-0.00593096
-0.00579001
-0.00564618
-0.00547758
-0.0052639
-0.00498705
-0.00463298
-0.00419475
-0.00367667
-0.00309228
-0.00246872
-0.00183584
-0.00123733
-0.000703188
-0.000285732
-1.15346e-06
9.47824e-05
-0.00678031
-0.00628973
-0.00606529
-0.00590791
-0.00577776
-0.00564749
-0.00549204
-0.00528883
-0.00501833
-0.00466553
-0.00422266
-0.00369478
-0.00309546
-0.00245464
-0.00180266
-0.00118938
-0.000643288
-0.000229508
4.83842e-05
9.93354e-05
-0.00674634
-0.00625384
-0.00601198
-0.00585424
-0.00572591
-0.00559944
-0.00544849
-0.00524905
-0.00498036
-0.00462779
-0.00418298
-0.00365243
-0.00304893
-0.00240483
-0.00174874
-0.00113619
-0.000590592
-0.000190066
7.76016e-05
9.32368e-05
-0.0066489
-0.00617528
-0.00591827
-0.00575497
-0.00562255
-0.00549241
-0.0053389
-0.0051381
-0.00486874
-0.00451759
-0.00407459
-0.00354912
-0.00295245
-0.00231907
-0.00167377
-0.00107709
-0.000544471
-0.000165981
8.80989e-05
7.72883e-05
-0.00645264
-0.00601868
-0.00575773
-0.00558926
-0.00545183
-0.00531568
-0.00515685
-0.00495291
-0.00468284
-0.00433473
-0.00390196
-0.00339096
-0.0028123
-0.00220282
-0.00158201
-0.00101438
-0.000505736
-0.00015538
8.27851e-05
5.51068e-05
-0.00615101
-0.00576952
-0.00551703
-0.00534677
-0.00520606
-0.0050651
-0.00490167
-0.00469632
-0.00442928
-0.00409086
-0.00367354
-0.0031879
-0.00263938
-0.00206543
-0.00148076
-0.000952272
-0.000476146
-0.000156531
6.54586e-05
3.11967e-05
-0.0057619
-0.00543521
-0.00520008
-0.005032
-0.00489042
-0.00474765
-0.00458301
-0.00438036
-0.00412168
-0.00379963
-0.00340622
-0.00295277
-0.0024429
-0.00191561
-0.00137675
-0.000894231
-0.000456625
-0.000168209
3.91965e-05
9.40234e-06
-0.00531668
-0.00503991
-0.00482612
-0.00466366
-0.00452349
-0.00438185
-0.00421969
-0.00402386
-0.00377834
-0.0034781
-0.00311468
-0.00270079
-0.00223718
-0.00176119
-0.00127386
-0.000841124
-0.000445278
-0.000185818
8.03426e-06
-8.85602e-06
-0.00484258
-0.00460889
-0.0044174
-0.00426336
-0.00412682
-0.0039888
-0.00383217
-0.00364646
-0.0034176
-0.00314267
-0.00281312
-0.00244219
-0.00202797
-0.00160583
-0.001173
-0.000790808
-0.000437937
-0.000205472
-2.45667e-05
-2.28404e-05
-0.00435727
-0.00416049
-0.00399104
-0.00384776
-0.00371722
-0.00358515
-0.00343667
-0.0032636
-0.00305372
-0.00280589
-0.00251179
-0.00218442
-0.00182016
-0.00145154
-0.00107319
-0.000739969
-0.000429756
-0.000222033
-5.42677e-05
-3.25237e-05
-0.00387062
-0.0037058
-0.00355778
-0.0034272
-0.00330512
-0.00318133
-0.00304332
-0.00288486
-0.00269548
-0.00247533
-0.00221669
-0.00193176
-0.00161611
-0.00129856
-0.000972537
-0.000685305
-0.000416239
-0.000231431
-7.76498e-05
-3.83039e-05
-0.00338771
-0.00325096
-0.00312362
-0.00300724
-0.00289589
-0.00278258
-0.00265709
-0.00251484
-0.00234695
-0.00215444
-0.00193042
-0.00168589
-0.00141633
-0.00114629
-0.000869347
-0.000624611
-0.0003945
-0.000231449
-9.27338e-05
-4.06911e-05
-0.00291115
-0.00279925
-0.00269176
-0.0025906
-0.00249185
-0.00239092
-0.0022797
-0.00215489
-0.00200915
-0.0018439
-0.00165331
-0.00144683
-0.0012204
-0.000994154
-0.000762679
-0.000557033
-0.000363402
-0.000221566
-9.9001e-05
-4.02255e-05
-0.00244227
-0.00235247
-0.00226389
-0.00217853
-0.00209377
-0.00200673
-0.00191113
-0.00180469
-0.00168148
-0.001543
-0.00138454
-0.00121384
-0.00102763
-0.000841796
-0.000652274
-0.000482742
-0.000323155
-0.000202459
-9.70331e-05
-3.74416e-05
-0.00198167
-0.00191163
-0.00184099
-0.0017716
-0.00170173
-0.00162966
-0.00155067
-0.00146323
-0.0013627
-0.00125045
-0.00112285
-0.000985965
-0.000837381
-0.000689085
-0.000538367
-0.000402545
-0.000274836
-0.000175495
-8.80628e-05
-3.28264e-05
-0.00152947
-0.0014772
-0.00142353
-0.00137003
-0.00131556
-0.00125914
-0.00119739
-0.00112929
-0.00105141
-0.000964853
-0.00086698
-0.000762257
-0.000649065
-0.000536006
-0.000421459
-0.000317525
-0.000219916
-0.000142263
-7.35539e-05
-2.68262e-05
-0.0010855
-0.00104937
-0.00101179
-0.000973918
-0.000935032
-0.00089462
-0.000850409
-0.000801772
-0.00074635
-0.000684934
-0.000615752
-0.000541846
-0.000462206
-0.000382592
-0.000302124
-0.000228736
-0.000159859
-0.000104204
-5.48123e-05
-1.98095e-05
-0.000649906
-0.000628669
-0.000606378
-0.000583743
-0.000560362
-0.000535996
-0.000509326
-0.000480021
-0.000446691
-0.000409825
-0.000368396
-0.000324192
-0.000276639
-0.000229091
-0.00018109
-0.00013724
-9.60612e-05
-6.25755e-05
-3.27613e-05
-1.16653e-05
-0.000221088
-0.000213765
-0.000205991
-0.000198084
-0.000189916
-0.000181406
-0.000172117
-0.000161935
-0.000150412
-0.000137709
-0.000123511
-0.000108423
-9.22553e-05
-7.61276e-05
-5.98311e-05
-4.49968e-05
-3.10164e-05
-1.97467e-05
-9.53652e-06
-2.50066e-06
-0.0465453
-0.0224822
-0.0233795
-0.0176297
-0.0154261
-0.0131841
-0.0115029
-0.0100974
-0.00892102
-0.0079973
-0.0299478
-0.0206522
-0.0211278
-0.017168
-0.0150362
-0.0130275
-0.0113875
-0.0100149
-0.00884826
-0.00780099
-0.0216112
-0.0183221
-0.0188382
-0.0163903
-0.0144349
-0.0126718
-0.0111567
-0.00985379
-0.00873219
-0.00772583
-0.0147413
-0.0147576
-0.0156802
-0.0148186
-0.0134664
-0.0120526
-0.0107427
-0.0095655
-0.00852216
-0.00758549
-0.00970677
-0.0115028
-0.0127268
-0.0128315
-0.0121459
-0.0111562
-0.0101196
-0.00912398
-0.00820333
-0.00737438
-0.00636804
-0.00895975
-0.0103019
-0.0108585
-0.0106752
-0.0100724
-0.00931632
-0.00853043
-0.00776549
-0.00706368
-0.00413856
-0.00703289
-0.00837872
-0.00911398
-0.00924792
-0.00894462
-0.00842766
-0.00783484
-0.00722701
-0.0066538
-0.00264359
-0.0055146
-0.00685614
-0.00764465
-0.00795695
-0.00786569
-0.00753592
-0.00710179
-0.0066305
-0.00617113
-0.00166492
-0.0042948
-0.00563756
-0.00642679
-0.00682281
-0.00687211
-0.00668384
-0.00637485
-0.00601445
-0.00564931
-0.00104157
-0.00332929
-0.00464336
-0.00540905
-0.00583414
-0.00596981
-0.0058857
-0.00567435
-0.00540219
-0.00511333
-0.000656994
-0.00258343
-0.00381617
-0.00454479
-0.00496957
-0.00515331
-0.00514277
-0.00500677
-0.00480467
-0.00457756
-0.00042997
-0.00200978
-0.00311992
-0.00380087
-0.0042089
-0.00441387
-0.00445193
-0.00437268
-0.00422597
-0.00404907
-0.000295491
-0.00156646
-0.00253225
-0.00315417
-0.00353471
-0.00374222
-0.0038089
-0.00377061
-0.00366714
-0.00353108
-0.000210622
-0.00122042
-0.00203571
-0.0025872
-0.00293188
-0.00312902
-0.00320895
-0.00319839
-0.00312793
-0.00302491
-0.000152429
-0.000945647
-0.00161349
-0.0020856
-0.00238744
-0.0025653
-0.00264708
-0.0026535
-0.00260746
-0.00253096
-0.000109914
-0.000721492
-0.00124981
-0.00163713
-0.0018904
-0.00204268
-0.00211811
-0.00213313
-0.00210446
-0.00204908
-7.76927e-05
-0.000532428
-0.000930745
-0.00123102
-0.00143135
-0.00155352
-0.00161686
-0.00163417
-0.00161731
-0.00157868
-5.28062e-05
-0.000367312
-0.000644524
-0.000857602
-0.001002
-0.00109091
-0.00113828
-0.0011534
-0.00114415
-0.00111892
-3.3202e-05
-0.000218321
-0.00038167
-0.00050863
-0.000595463
-0.00064918
-0.00067819
-0.000688168
-0.0006836
-0.000669325
-1.50718e-05
-7.74648e-05
-0.000132317
-0.000175018
-0.000204181
-0.000222079
-0.000231599
-0.000234721
-0.000232928
-0.000227814
0.00442791
0.00448814
0.00466045
0.00489866
0.00525528
0.00566985
0.00624016
0.00686061
0.00769903
0.00856455
0.00976125
0.0109222
0.0126364
0.0141184
0.0166465
0.0181995
0.0221415
0.0214674
0.0272772
0.00253885
0.00434597
0.00440444
0.00457131
0.00480331
0.0051486
0.00555041
0.00609986
0.00669679
0.00749805
0.00831908
0.00944634
0.0105159
0.0120894
0.0133626
0.0155702
0.0166014
0.0196084
0.0178558
0.0189733
0.00180699
0.00424212
0.00429884
0.00445952
0.00468359
0.00501577
0.00540209
0.00592768
0.00649674
0.0072557
0.00802611
0.00907481
0.0100473
0.0114618
0.0125393
0.0143792
0.0150469
0.0169669
0.0151638
0.0129786
0.00474567
0.00411709
0.00417224
0.0043257
0.0045408
0.00485769
0.00522696
0.00572508
0.00626425
0.00697484
0.0076933
0.00865311
0.00953315
0.01077
0.0116865
0.0131235
0.0135893
0.0144784
0.01302
0.00933859
0.00642762
0.00397179
0.00402546
0.00417078
0.00437606
0.00467574
0.00502682
0.00549432
0.00600249
0.0066597
0.00732683
0.00819005
0.00898597
0.0100346
0.0108258
0.0118636
0.0122284
0.0123305
0.0113861
0.00731705
0.00649531
0.00380721
0.00385943
0.00399584
0.00419061
0.00447149
0.00480349
0.00523788
0.00571448
0.00631483
0.0069321
0.00769498
0.00841503
0.00927755
0.00996786
0.0106582
0.0109598
0.0105675
0.0100529
0.00603488
0.00554097
0.00362445
0.00367519
0.00380204
0.00398573
0.00424657
0.00455877
0.00495838
0.00540308
0.00594495
0.00651373
0.00717731
0.00782713
0.00851889
0.00911974
0.0095373
0.00980682
0.00912484
0.00882425
0.00507848
0.00438635
0.00342466
0.0034738
0.00359064
0.00376273
0.00400272
0.00429445
0.00465849
0.00507088
0.0055547
0.00607564
0.00664551
0.00722794
0.00777219
0.00829368
0.00850948
0.00874495
0.00791349
0.00765378
0.00433032
0.00337453
0.00320907
0.00325636
0.00336295
0.00352293
0.00374171
0.00401226
0.00434085
0.00472034
0.00514826
0.00562151
0.00610611
0.0066239
0.00704579
0.00749398
0.00756713
0.00775049
0.00687087
0.00655945
0.0037392
0.00257402
0.00297892
0.00302401
0.0031203
0.0032677
0.00346527
0.00371392
0.00400785
0.00435385
0.00472914
0.00515498
0.00556393
0.00601946
0.00634277
0.0067202
0.00669843
0.0068162
0.00596043
0.00556998
0.00325887
0.00197477
0.00273548
0.00277795
0.00286404
0.0029984
0.00317507
0.00340116
0.00366167
0.00397373
0.00430021
0.00467907
0.0050221
0.0054175
0.00566331
0.00597229
0.00589314
0.00594252
0.0051572
0.00469682
0.0028466
0.00154089
0.00247999
0.0025194
0.0025955
0.00271644
0.00287268
0.00307566
0.00330422
0.00358209
0.00386369
0.00419631
0.00448245
0.00482021
0.0050063
0.00525097
0.00514281
0.00513035
0.00444012
0.00393627
0.00247302
0.00122941
0.00221372
0.00224962
0.002316
0.00242321
0.00255959
0.00273905
0.00293716
0.00318083
0.00342127
0.00370877
0.00394594
0.00422927
0.00437
0.00455669
0.00443967
0.00437815
0.00379083
0.00327593
0.00212317
0.00100001
0.00193793
0.0019699
0.00202685
0.00212011
0.00223718
0.00239288
0.00256194
0.00277167
0.00297424
0.00321811
0.00341292
0.00364574
0.00375226
0.00388901
0.00377629
0.00368165
0.00319443
0.00269992
0.00179175
0.000821021
0.00165387
0.00168156
0.00172934
0.00180849
0.00190678
0.00203859
0.00217984
0.00235608
0.00252353
0.00272558
0.00288331
0.00307002
0.00315057
0.00324633
0.00314566
0.00303454
0.0026395
0.00219148
0.00147783
0.000670659
0.00136281
0.00138591
0.00142476
0.0014897
0.00156965
0.00167755
0.00179201
0.00193531
0.00206985
0.00223199
0.00235668
0.00250185
0.00256217
0.00262599
0.00254138
0.00242919
0.00211737
0.00173461
0.00118099
0.00053584
0.00106598
0.00108426
0.00111436
0.00116505
0.001227
0.00131104
0.00139945
0.00151042
0.00161367
0.0017378
0.00183233
0.00194031
0.0019842
0.00202441
0.00195764
0.00185727
0.00162103
0.00131529
0.000899657
0.000409544
0.000764658
0.000777931
0.000799433
0.000835823
0.000880036
0.000940253
0.00100319
0.00108233
0.00115545
0.00124318
0.0013095
0.00138402
0.00141383
0.00143739
0.00138911
0.00131038
0.00114424
0.000922058
0.000631344
0.000287932
0.000460095
0.000468199
0.000481203
0.000503232
0.000529899
0.000566273
0.000604128
0.000651769
0.000695558
0.000748025
0.000787449
0.000831253
0.000848499
0.000860523
0.000831031
0.000780723
0.000681348
0.000546056
0.000372964
0.000169013
0.000153605
0.000156351
0.000160831
0.000168268
0.000177372
0.000189625
0.000202519
0.000218521
0.000233421
0.000250961
0.000264358
0.000278824
0.000284657
0.000288192
0.000278155
0.00026051
0.000226847
0.000180601
0.000122044
5.32701e-05
0.00434552
0.00440546
0.00458211
0.00482004
0.00518442
0.00560151
0.00618798
0.00681675
0.00768632
0.00857345
0.00983051
0.011046
0.0128805
0.0145108
0.0172931
0.0193176
0.0238386
0.0251057
0.0337069
0.0210056
0.0044057
0.00446672
0.00464612
0.00488716
0.00525726
0.00568074
0.00627744
0.00691775
0.00780513
0.00871442
0.0100046
0.0112684
0.0131713
0.014926
0.0178674
0.0202782
0.0251901
0.0279647
0.0366789
0.0333828
0.00445465
0.00451661
0.00469794
0.00494163
0.00531584
0.00574463
0.00634866
0.0069985
0.00789869
0.00882624
0.0101405
0.0114443
0.013398
0.0152566
0.0183198
0.0210548
0.0262644
0.0301895
0.0391254
0.0407853
0.00449232
0.00455492
0.00473757
0.00498314
0.00536017
0.00579267
0.00640166
0.0070581
0.0079669
0.00890708
0.0102375
0.0115692
0.0135571
0.0154896
0.0186357
0.021603
0.0270064
0.0317246
0.0407202
0.0450533
0.0045186
0.00458158
0.00476493
0.00501158
0.00539012
0.00582467
0.00643624
0.0070962
0.00800933
0.00895607
0.0102945
0.0116405
0.0136456
0.0156164
0.0188045
0.0218927
0.0273944
0.0325137
0.0415394
0.0470032
0.00453344
0.00459654
0.00477995
0.00502689
0.00540562
0.00584056
0.00645227
0.00711264
0.00802575
0.00897282
0.0103109
0.0116572
0.0136618
0.0156327
0.0188209
0.0219103
0.0274163
0.0325439
0.0415897
0.0470871
0.00453684
0.00459979
0.00478263
0.00502908
0.00540666
0.00584035
0.00644974
0.00710742
0.00801613
0.00895733
0.0102867
0.0116191
0.0136054
0.0155385
0.0186844
0.0216552
0.0270713
0.0318133
0.0408691
0.0453073
0.00452882
0.00459135
0.00477301
0.00501817
0.00539332
0.00582412
0.00642883
0.00708076
0.00798081
0.0089101
0.0102227
0.0115277
0.0134784
0.0153383
0.0184005
0.0211414
0.0263692
0.0303318
0.0393603
0.041224
0.00450948
0.00457125
0.00475115
0.00499428
0.00536573
0.00579205
0.00638972
0.00703303
0.0079202
0.00883209
0.0101199
0.0113857
0.0132839
0.0150412
0.0179794
0.0203994
0.0253295
0.0281548
0.0369759
0.0339715
0.00447883
0.00453975
0.00471695
0.00495777
0.00532375
0.00574478
0.00633224
0.00696536
0.00783414
0.00872551
0.00997847
0.0111981
0.0130246
0.0146608
0.0174346
0.0194734
0.0240075
0.0253243
0.034155
0.0217673
)
;

boundaryField
{
    inlet
    {
        type            zeroGradient;
    }
    outlet
    {
        type            fixedValue;
        value           uniform 0;
    }
    upAndBottom
    {
        type            empty;
    }
    obstacle
    {
        type            zeroGradient;
    }
}


// ************************************************************************* //
