/*--------------------------------*- C++ -*----------------------------------*\
| =========                 |                                                 |
| \\      /  F ield         | OpenFOAM: The Open Source CFD Toolbox           |
|  \\    /   O peration     | Version:  v1806                                 |
|   \\  /    A nd           | Web:      www.OpenFOAM.com                      |
|    \\/     M anipulation  |                                                 |
\*---------------------------------------------------------------------------*/
FoamFile
{
    version     2.0;
    format      ascii;
    class       surfaceScalarField;
    location    "250";
    object      phi;
}
// * * * * * * * * * * * * * * * * * * * * * * * * * * * * * * * * * * * * * //

dimensions      [0 3 -1 0 0 0 0];
oriented        oriented;


internalField   nonuniform List<scalar> 
14009
(
1.29035e-08
0.00409759
-0.00159019
-0.00307832
0.000570914
1.18832e-12
0.00409625
-0.00158979
-0.00307623
0.000569787
-1.29023e-08
0.00409625
-0.00158979
-0.00307623
0.000569787
0.00409759
-0.00159019
-0.00307832
0.000570914
-3.5844e-08
0.00068495
0.00386389
-0.000451217
4.49025e-12
0.000684648
0.00386155
-0.000449984
3.58449e-08
0.000684648
0.00386155
-0.000449984
0.00068495
0.00386389
-0.000451217
-1.18413e-08
0.00312853
-0.00239708
-4.64883e-05
7.94899e-13
0.00312593
-0.00239526
-4.60373e-05
1.18424e-08
0.00312593
-0.00239526
-4.60373e-05
0.00312853
-0.00239708
-4.64883e-05
-1.04447e-08
0.00192285
4.76039e-05
0.00115809
2.22947e-13
0.00192033
4.69422e-05
0.00115865
1.04312e-08
0.00192033
4.69422e-05
0.00115865
0.00192285
4.76039e-05
0.00115809
-3.95355e-08
0.00108727
0.00671165
-0.00590917
-0.00188972
-1.09327e-13
0.0010914
0.0067122
-0.00591006
-0.00189358
3.95353e-08
0.0010914
0.0067122
-0.00591006
-0.00189358
0.00108727
0.00671165
-0.00590917
-0.00188972
-2.28113e-08
0.000215185
-1.2712e-05
0.000884824
8.89749e-13
0.000216332
-1.13472e-05
0.000886393
2.28205e-08
0.000216332
-1.13471e-05
0.000886393
0.000215185
-1.2712e-05
0.000884824
-8.17806e-09
0.000348007
7.80177e-05
-0.000210832
-4.87836e-13
0.000347794
7.70731e-05
-0.000208543
8.18046e-09
0.000347794
7.70731e-05
-0.000208543
0.000348007
7.80177e-05
-0.000210832
-1.58753e-08
0.00689602
0.000163655
-7.74256e-12
0.00689776
0.000162218
1.58562e-08
0.00689776
0.000162218
0.00689602
0.000163655
-2.08967e-07
-0.0691247
0.0195417
0.0544226
-0.0048394
-5.43738e-13
-0.0691279
0.0195503
0.0544165
-0.00483903
2.08967e-07
-0.0691279
0.0195503
0.0544165
-0.00483903
-0.0691247
0.0195417
0.0544226
-0.0048394
-3.57902e-08
-0.00768149
-0.0643667
0.00292357
-6.05764e-13
-0.00768217
-0.0643705
0.00292466
3.57904e-08
-0.00768217
-0.0643705
0.00292466
-0.00768149
-0.0643667
0.00292357
6.56417e-08
0.00853108
0.0219706
-0.01096
7.01658e-13
0.00853692
0.0219698
-0.0109563
-6.56395e-08
0.00853692
0.0219698
-0.0109563
0.00853108
0.0219706
-0.01096
1.24448e-07
-0.0234491
-0.00310177
0.0263835
0.000167313
-5.30853e-13
-0.0234308
-0.00310147
0.0263769
0.000155408
-1.24448e-07
-0.0234308
-0.00310147
0.0263769
0.000155408
-0.0234491
-0.00310177
0.0263835
0.000167313
1.01117e-07
0.0105288
-0.0153565
-0.0186216
-1.85744e-12
0.0105278
-0.0153671
-0.0185913
-1.01114e-07
0.0105278
-0.0153671
-0.0185913
0.0105288
-0.0153565
-0.0186216
-8.05076e-08
0.00981149
-0.00238435
3.27295e-13
0.00980712
-0.00238093
8.05088e-08
0.00980712
-0.00238093
0.00981149
-0.00238435
2.43228e-08
0.00190967
0.00880915
-0.000907351
-2.64571e-13
0.0019052
0.00880698
-0.000905038
-2.43245e-08
0.0019052
0.00880698
-0.000905038
0.00190967
0.00880915
-0.000907351
1.82028e-08
0.0234801
0.00481303
-2.76286e-14
0.023475
0.00480719
-1.82068e-08
0.023475
0.00480719
0.0234801
0.00481303
-7.60631e-09
-0.00148336
-0.00710788
0.00907344
-0.0004822
3.34115e-13
-0.00148068
-0.00710977
0.00908088
-0.000490439
7.60557e-09
-0.00148068
-0.00710977
0.00908088
-0.000490439
-0.00148336
-0.00710788
0.00907344
-0.0004822
2.23718e-09
-0.0023333
0.000365365
0.000484578
6.42117e-13
-0.00233652
0.000369978
0.000485865
-2.23588e-09
-0.00233652
0.000369978
0.000485865
-0.0023333
0.000365365
0.000484578
-6.0323e-08
-0.000910036
2.16259e-12
-0.000909426
6.03271e-08
-0.000909426
-0.000910035
1.87766e-07
0.0172295
0.00928135
-0.026511
1.38268e-12
0.0172254
0.00927331
-0.0264985
-1.87765e-07
0.0172254
0.00927331
-0.0264985
0.0172295
0.00928135
-0.026511
-1.28019e-07
0.00954815
2.24614e-12
0.00954311
1.28019e-07
0.00954311
0.00954815
-1.20022e-08
-0.0736464
0.0185611
-4.71105e-12
-0.0736615
0.0185644
1.19975e-08
-0.0736615
0.0185644
-0.0736464
0.0185611
9.67879e-08
-0.0418374
-0.0504212
0.018612
1.48408e-13
-0.0418398
-0.0504329
0.0186112
-9.67907e-08
-0.0418398
-0.0504329
0.0186112
-0.0418374
-0.0504212
0.018612
-2.17011e-07
0.0551539
-0.0618233
0.00316203
0.00350761
-1.01447e-14
0.055129
-0.0617988
0.00316257
0.00350701
2.17011e-07
0.055129
-0.0617988
0.00316257
0.00350701
0.0551539
-0.0618233
0.00316203
0.00350761
-5.23199e-07
0.0444108
0.0044621
0.00628146
8.79037e-13
0.0443719
0.00447493
0.00628158
5.23198e-07
0.0443719
0.00447493
0.00628158
0.0444108
0.0044621
0.00628146
-2.81527e-08
-0.000515298
-0.00132204
0.00183737
-2.29419e-12
-0.000516313
-0.00132044
0.00183672
2.81527e-08
-0.000516313
-0.00132044
0.00183672
-0.000515298
-0.00132204
0.00183737
-2.72847e-08
-0.0023121
0.00216219
-2.82415e-11
-0.00230855
0.00216218
2.72356e-08
-0.00230855
0.00216218
-0.0023121
0.00216219
-2.56226e-08
-0.00115125
0.000762036
3.56562e-12
-0.00114879
0.000760545
2.56131e-08
-0.00114879
0.000760545
-0.00115125
0.000762036
4.32873e-08
-0.0619237
1.61827e-05
-2.86652e-06
0.0619104
-3.2006e-13
-0.0619232
1.21156e-05
-3.04446e-06
0.0619142
-4.32865e-08
-0.0619232
1.21156e-05
-3.04446e-06
0.0619142
-0.0619237
1.61827e-05
-2.86653e-06
0.0619104
-2.10338e-08
0.0042953
-0.0638886
-0.00233043
-8.80772e-13
0.00429565
-0.0638903
-0.00232856
2.10299e-08
0.00429565
-0.0638903
-0.00232856
0.0042953
-0.0638886
-0.00233043
-1.47171e-07
-0.0670025
0.00245482
0.00272452
4.30302e-13
-0.0669816
0.00245267
0.00273003
1.4717e-07
-0.0669816
0.00245267
0.00273003
-0.0670025
0.00245482
0.00272452
-9.40979e-08
-0.0693947
0.00200986
0.000382404
8.58999e-14
-0.0693772
0.00200555
0.000389913
9.40968e-08
-0.0693772
0.00200554
0.000389913
-0.0693947
0.00200986
0.000382404
-9.77264e-08
-0.0737355
0.00592894
-0.001588
1.08717e-14
-0.0737233
0.00592667
-0.0015806
9.77264e-08
-0.0737233
0.00592667
-0.0015806
-0.0737355
0.00592894
-0.001588
-1.05314e-07
-0.054388
0.0107405
-0.030088
2.94398e-12
-0.0543762
0.0107372
-0.0300845
1.05323e-07
-0.0543762
0.0107372
-0.0300845
-0.054388
0.0107405
-0.030088
-6.19681e-08
-0.0621691
0.00779739
-4.36401e-12
-0.0621621
0.00779802
6.19548e-08
-0.0621621
0.00779802
-0.0621691
0.00779739
-4.00312e-08
-0.0632623
0.00538857
1.2531e-12
-0.0632576
0.00539102
4.00271e-08
-0.0632576
0.00539102
-0.0632623
0.00538857
-3.42664e-08
-0.00370012
0.0044908
-0.064053
8.63784e-13
-0.00369853
0.00448996
-0.064049
3.42656e-08
-0.00369853
0.00448996
-0.064049
-0.00370012
0.0044908
-0.064053
-1.30411e-08
-0.0650017
-0.00258696
3.72791e-13
-0.0649994
-0.00258951
1.30411e-08
-0.0649994
-0.00258951
-0.0650017
-0.00258696
-5.84663e-07
0.00442925
-0.00456826
0.0445504
7.92206e-12
0.00446825
-0.00455386
0.044457
5.84653e-07
0.00446825
-0.00455386
0.044457
0.00442925
-0.00456826
0.0445504
-1.33301e-07
-0.0578532
0.0562801
0.00600247
7.90871e-13
-0.0578443
0.056288
0.00602446
1.33301e-07
-0.0578443
0.056288
0.00602446
-0.0578532
0.0562801
0.00600247
6.08004e-10
-0.0618127
0.00842162
-2.51351e-12
-0.0617961
0.00842674
-6.03891e-10
-0.0617961
0.00842674
-0.0618127
0.00842162
1.53759e-08
-0.0648311
0.00618039
-6.92604e-13
-0.0648156
0.00618203
-1.53745e-08
-0.0648156
0.00618203
-0.0648311
0.00618039
6.88583e-09
-0.0677951
0.00541883
3.3874e-14
-0.0677815
0.00541859
-6.88528e-09
-0.0677815
0.00541859
-0.0677951
0.00541883
-1.92322e-08
-0.0694308
0.00364552
5.43537e-13
-0.0694229
0.00364691
1.92333e-08
-0.0694229
0.00364691
-0.0694308
0.00364552
-5.30808e-08
-0.0695403
0.00603847
3.70963e-13
-0.0695328
0.00603659
5.30813e-08
-0.0695328
0.00603659
-0.0695403
0.00603847
-4.22165e-08
-0.0656137
0.00681406
-3.83679e-12
-0.0656098
0.00681413
4.22062e-08
-0.0656098
0.00681413
-0.0656137
0.00681406
-5.98268e-08
-0.0649852
0.00716893
1.01437e-12
-0.06498
0.00716821
5.98192e-08
-0.06498
0.00716821
-0.0649852
0.00716893
-3.4745e-08
-0.064272
0.00467536
2.44773e-12
-0.0642657
0.00467666
3.47418e-08
-0.0642657
0.00467666
-0.064272
0.00467536
-4.74582e-08
-0.062548
0.00276685
1.12328e-12
-0.0625449
0.00276905
4.7457e-08
-0.0625449
0.00276905
-0.062548
0.00276685
-4.28282e-08
-0.00489763
0.00760015
-0.0652505
3.62193e-13
-0.00489868
0.0076001
-0.0652463
4.28278e-08
-0.00489868
0.0076001
-0.0652463
-0.00489763
0.00760015
-0.0652505
-3.80853e-08
-0.00345521
-0.0654953
1.65314e-13
-0.0034559
-0.0654918
3.80851e-08
-0.0034559
-0.0654918
-0.00345521
-0.0654953
-3.53684e-08
0.000380804
-0.0688377
1.30076e-13
0.00038207
-0.0688374
3.53683e-08
0.00038207
-0.0688374
0.000380804
-0.0688377
-3.46906e-08
0.0649307
-0.0685149
0.003965
7.00314e-14
0.064931
-0.0685142
0.00396516
3.46905e-08
0.064931
-0.0685142
0.00396516
0.0649307
-0.0685149
0.003965
-2.70881e-08
0.0640522
-0.00170847
1.76619e-13
0.0640508
-0.0017093
2.70878e-08
0.0640508
-0.0017093
0.0640522
-0.00170847
-1.8559e-08
0.0594898
0.00223197
1.05828e-13
0.0594854
0.00223676
1.8558e-08
0.0594854
0.00223676
0.0594898
0.00223197
-4.67678e-09
0.0529078
0.00657919
-1.13794e-12
0.0529025
0.00657986
4.67214e-09
0.0529025
0.00657986
0.0529078
0.00657919
-4.80566e-08
0.0762328
0.00849742
-0.0318224
1.88603e-12
0.0762332
0.00849891
-0.0318297
4.80614e-08
0.0762332
0.00849891
-0.0318297
0.0762328
0.00849742
-0.0318224
2.26455e-08
0.0730191
0.00162572
-5.89861e-12
0.0730254
0.00162724
-2.26634e-08
0.0730254
0.00162724
0.0730191
0.00162572
3.81082e-08
0.0685653
0.00483619
1.38578e-12
0.0685774
0.00483795
-3.81138e-08
0.0685774
0.00483795
0.0685653
0.00483619
-3.12424e-08
0.0658926
0.00539723
1.37708e-12
0.0659069
0.00540057
3.1241e-08
0.0659069
0.00540057
0.0658926
0.00539723
-4.72072e-08
0.0628004
0.00659982
-9.85744e-14
0.0628128
0.00660105
4.72066e-08
0.0628128
0.00660105
0.0628004
0.00659982
-9.87756e-08
0.0621775
0.00690451
-9.08402e-13
0.062185
0.00690927
9.87762e-08
0.062185
0.00690927
0.0621775
0.00690451
-1.24957e-07
0.00107248
0.0565369
-8.64438e-13
0.0010829
0.0565481
1.24959e-07
0.0010829
0.0565481
0.00107248
0.0565369
-1.47841e-08
0.00719914
0.0428982
0.00618276
5.80818e-12
0.00720096
0.0429031
0.00618393
1.47742e-08
0.00720096
0.0429031
0.00618393
0.00719914
0.0428982
0.00618276
-2.37459e-08
-0.0585819
0.0488199
0.0169612
-2.01624e-12
-0.0585948
0.0488295
0.0169663
2.37511e-08
-0.0585948
0.0488295
0.0169663
-0.0585819
0.0488199
0.0169612
-1.9356e-07
-0.0632338
0.0106545
-2.82644e-12
-0.0632296
0.0106591
1.93564e-07
-0.0632296
0.0106591
-0.0632338
0.0106545
-1.40829e-07
-0.0659449
0.0111329
-1.65509e-12
-0.0659314
0.0111284
1.40832e-07
-0.0659314
0.0111284
-0.0659449
0.0111329
-1.02308e-07
-0.0660922
0.00632782
-8.6438e-13
-0.0660779
0.00632839
1.02309e-07
-0.0660779
0.00632839
-0.0660922
0.00632782
-1.12123e-07
-0.0667159
0.00604256
-2.6517e-13
-0.0667035
0.00604406
1.12124e-07
-0.0667035
0.00604406
-0.0667159
0.00604256
-1.08741e-07
-0.0684681
0.00539783
-1.47206e-14
-0.0684578
0.00540117
1.08742e-07
-0.0684578
0.00540117
-0.0684681
0.00539783
-8.25232e-08
-0.0685698
0.00614031
1.45408e-12
-0.0685655
0.00614412
8.25267e-08
-0.0685655
0.00614412
-0.0685698
0.00614031
-3.69832e-08
-0.0687166
0.00696092
5.29604e-13
-0.0687145
0.00696312
3.69823e-08
-0.0687145
0.00696312
-0.0687166
0.00696092
-3.85396e-08
-0.0664579
0.0049102
1.77745e-12
-0.0664585
0.00491216
3.85374e-08
-0.0664585
0.00491216
-0.0664579
0.0049102
-3.82711e-08
-0.0651491
0.00336667
1.77307e-12
-0.0651495
0.00336765
3.82694e-08
-0.0651495
0.00336765
-0.0651491
0.00336667
-4.72419e-08
-0.0675555
0.00517323
9.07699e-13
-0.0675557
0.00517518
4.72408e-08
-0.0675557
0.00517518
-0.0675555
0.00517323
-3.49221e-08
-0.0665779
0.00662266
3.44877e-13
-0.0665781
0.00662251
3.49216e-08
-0.0665781
0.00662251
-0.0665779
0.00662266
-3.29413e-08
-0.00510487
0.00567792
-0.067151
1.30256e-13
-0.00510497
0.00567823
-0.0671514
3.29411e-08
-0.00510497
0.00567823
-0.0671514
-0.00510487
0.00567792
-0.067151
-3.97462e-08
-0.0021216
-0.0682337
1.25276e-13
-0.0021203
-0.068231
3.97461e-08
-0.0021203
-0.068231
-0.0021216
-0.0682337
-3.39285e-08
0.00065225
-0.0682692
9.04698e-14
0.000653489
-0.0682657
3.39283e-08
0.000653489
-0.0682657
0.00065225
-0.0682692
-1.90314e-08
0.00261764
-0.0708031
4.67195e-14
0.00261653
-0.0708004
1.90313e-08
0.00261653
-0.0708004
0.00261764
-0.0708031
-2.33057e-08
0.00492158
-0.0708188
-3.25681e-15
0.00491941
-0.0708171
2.33056e-08
0.00491941
-0.0708171
0.00492158
-0.0708188
-2.88472e-08
0.0690678
0.0055344
-0.0696806
-1.23265e-14
0.069068
0.00553293
-0.0696816
2.88471e-08
0.069068
0.00553293
-0.0696816
0.0690678
0.0055344
-0.0696806
-3.30549e-08
0.0659236
0.00710928
3.43067e-14
0.0659248
0.00710835
3.30549e-08
0.0659248
0.00710835
0.0659236
0.00710928
-3.03339e-08
0.0647037
-0.000488575
2.85227e-13
0.0647028
-0.000487398
3.03342e-08
0.0647028
-0.000487398
0.0647037
-0.000488575
5.32496e-09
0.0636095
0.00332617
1.02291e-12
0.0636129
0.00332672
-5.3243e-09
0.0636129
0.00332672
0.0636095
0.00332617
-6.70557e-09
0.0662984
0.00389024
-2.44442e-13
0.0663025
0.00389023
6.70011e-09
0.0663025
0.00389023
0.0662984
0.00389024
1.71189e-08
0.0706818
0.00411405
-3.21027e-12
0.0706862
0.00411523
-1.71321e-08
0.0706862
0.00411523
0.0706818
0.00411405
-3.29405e-08
0.0682173
0.00409022
1.74196e-12
0.0682203
0.00409308
3.29321e-08
0.0682203
0.00409308
0.0682173
0.00409022
-8.03677e-08
0.0682739
0.00477974
3.02154e-12
0.0682769
0.00478129
8.03641e-08
0.0682769
0.00478129
0.0682739
0.00477974
-1.3827e-07
0.0668709
0.00680036
1.78932e-12
0.0668761
0.00680127
1.38269e-07
0.0668761
0.00680127
0.0668709
0.00680036
-1.981e-07
0.0650038
0.00846713
4.46173e-13
0.0650081
0.00846883
1.98099e-07
0.0650081
0.00846883
0.0650038
0.00846713
-2.52372e-07
0.0638444
0.00806418
-6.84853e-13
0.0638511
0.00806603
2.52371e-07
0.0638511
0.00806603
0.0638444
0.00806418
-2.04395e-07
0.0573645
0.00755255
-5.59637e-13
0.0573746
0.00755921
2.04396e-07
0.0573746
0.00755921
0.0573645
0.00755255
-1.83393e-07
0.00190326
0.0407287
0.0139051
2.10752e-12
0.00190298
0.0407367
0.0139082
1.83393e-07
0.00190298
0.0407367
0.0139082
0.00190326
0.0407287
0.0139051
-8.376e-08
0.0408172
0.0184506
-1.11465e-12
0.0408277
0.0184498
8.37607e-08
0.0408277
0.0184498
0.0408172
0.0184506
3.68318e-07
0.0531232
0.0284224
4.76716e-13
0.0531405
0.0284243
-3.68316e-07
0.0531405
0.0284243
0.0531232
0.0284224
4.95468e-07
0.0640525
0.0276651
4.70314e-12
0.0640954
0.0276377
-4.95471e-07
0.0640954
0.0276377
0.0640525
0.0276651
-1.85253e-08
0.000282777
-0.00247495
0.000601997
1.94687e-13
0.000283656
-0.0024757
0.000602238
1.85262e-08
0.000283656
-0.0024757
0.000602238
0.000282778
-0.00247495
0.000601997
-1.88171e-08
-0.00323786
0.000442332
-1.4118e-12
-0.00323639
0.000443797
1.88165e-08
-0.00323639
0.000443797
-0.00323786
0.000442333
-1.30996e-08
0.00258064
-0.000286808
-0.00344507
4.31675e-12
0.00257875
-0.000285655
-0.0034419
1.30972e-08
0.00257875
-0.000285655
-0.0034419
0.00258064
-0.000286808
-0.00344507
-5.54219e-09
0.00133662
1.17781e-11
0.00133538
5.56952e-09
0.00133538
0.00133662
4.76189e-10
0.00145517
0.000121732
0.00228698
2.53469e-13
0.00145406
0.000124234
0.00228325
-4.87868e-10
0.00145406
0.000124234
0.00228325
0.00145517
0.000121732
0.00228698
-2.14718e-08
0.000957553
-3.76364e-12
0.000959844
2.14667e-08
0.000959844
0.000957553
-1.49367e-08
0.00640846
0.00144513
7.35523e-13
0.00641007
0.00144752
1.49304e-08
0.00641007
0.00144752
0.00640846
0.00144513
6.48122e-09
0.00554943
0.000980753
7.71058e-12
0.00555063
0.000983683
-6.46799e-09
0.00555063
0.000983683
0.00554943
0.000980753
-1.70678e-09
0.00626849
-0.00117027
2.61479e-12
0.00626901
-0.00116836
1.71396e-09
0.00626901
-0.00116836
0.00626849
-0.00117027
-1.32483e-08
0.0066313
-0.00283775
2.87244e-13
0.00663016
-0.00283687
1.32516e-08
0.00663016
-0.00283687
0.0066313
-0.00283775
1.98995e-08
-0.00109353
0.000221694
-0.00236604
9.90382e-13
-0.00109213
0.00022127
-0.00236551
-1.99027e-08
-0.00109214
0.00022127
-0.00236551
-0.00109353
0.000221694
-0.00236604
8.01577e-09
-0.00200634
0.00151481
6.25684e-13
-0.00200427
0.00151438
-8.01747e-09
-0.00200427
0.00151438
-0.00200634
0.00151481
3.43876e-08
-0.00507971
0.00970463
-6.65452e-13
-0.00507831
0.00970422
-3.43871e-08
-0.00507831
0.00970422
-0.00507971
0.00970463
-1.61521e-08
-0.00132482
-0.000501334
7.99111e-13
-0.00132271
-0.000502779
1.61591e-08
-0.00132271
-0.000502779
-0.00132482
-0.000501334
-7.76744e-09
-0.000670869
-0.000211608
6.17287e-13
-0.000669395
-0.000209522
7.76842e-09
-0.000669395
-0.000209522
-0.000670869
-0.000211608
1.49832e-09
-1.16705e-05
-0.000437507
3.07502e-13
-1.21216e-05
-0.000436002
-1.49893e-09
-1.21215e-05
-0.000436002
-1.16705e-05
-0.000437507
-4.49495e-09
-0.00632384
0.000781257
-0.000366585
3.94133e-13
-0.00632463
0.00078461
-0.000370049
4.4948e-09
-0.00632463
0.00078461
-0.000370049
-0.00632384
0.000781257
-0.000366585
-4.15388e-08
-0.00709924
0.00105723
-0.000281786
6.7271e-14
-0.00710015
0.00105362
-0.000278133
4.15386e-08
-0.00710015
0.00105362
-0.000278133
-0.00709924
0.00105723
-0.000281786
-3.58922e-08
0.0023898
-0.000679861
4.65289e-13
0.00238502
-0.000678226
3.58916e-08
0.00238502
-0.000678226
0.0023898
-0.000679861
-1.57193e-08
0.0241082
0.00176169
-4.14529e-14
0.0241072
0.00175279
1.57166e-08
0.0241072
0.00175279
0.0241082
0.00176169
-2.61151e-08
0.0227387
0.00242672
-2.00006e-13
0.0227353
0.00242552
2.61145e-08
0.0227353
0.00242552
0.0227387
0.00242672
4.09942e-08
0.0221645
0.00135542
-1.2968e-13
0.0221641
0.00135578
-4.09952e-08
0.0221641
0.00135578
0.0221645
0.00135542
-5.92653e-08
0.0220641
-0.00178925
8.32768e-13
0.0220599
-0.00178945
5.92625e-08
0.0220599
-0.00178945
0.0220641
-0.00178925
-1.26371e-09
0.0217384
0.000489403
2.36973e-13
0.0217358
0.000486319
1.2557e-09
0.0217358
0.000486319
0.0217384
0.000489403
-5.05909e-09
0.02157
0.00161355
2.64808e-13
0.0215699
0.00161344
5.04936e-09
0.0215699
0.00161344
0.02157
0.00161355
1.4826e-08
0.0222627
0.000288057
8.31751e-13
0.0222635
0.00029015
-1.48275e-08
0.0222635
0.00029015
0.0222627
0.000288057
-2.49467e-08
0.0223997
-0.00130729
-1.3758e-12
0.0224007
-0.00130567
2.49461e-08
0.0224007
-0.00130567
0.0223997
-0.00130729
-3.11722e-08
0.0230876
-0.00352559
-2.57066e-12
0.0230871
-0.00352327
3.11744e-08
0.0230871
-0.00352327
0.0230876
-0.00352559
2.90185e-08
0.0228968
-0.00488901
-3.20139e-12
0.022899
-0.00489013
-2.90163e-08
0.022899
-0.00489013
0.0228968
-0.00488901
-1.25672e-08
-0.000426378
-0.000486626
0.000901346
6.45268e-13
-0.000427366
-0.000486597
0.000901828
1.25662e-08
-0.000427366
-0.000486597
0.000901828
-0.000426378
-0.000486626
0.000901346
-1.44097e-08
-0.00119599
-0.00159642
1.93787e-12
-0.00119691
-0.00159598
1.44074e-08
-0.00119691
-0.00159598
-0.00119599
-0.00159642
-1.87085e-08
-0.00230734
0.00262618
2.5068e-12
-0.0023095
0.00262696
1.8707e-08
-0.0023095
0.00262696
-0.00230734
0.00262618
-2.59548e-08
-0.00425098
0.0116483
7.47418e-13
-0.00425214
0.0116468
2.59556e-08
-0.00425214
0.0116468
-0.00425098
0.0116483
-2.64328e-08
0.0236657
-0.0050198
-6.56233e-13
0.0236651
-0.00501828
2.64349e-08
0.0236651
-0.00501828
0.0236657
-0.0050198
-4.06889e-08
0.00845562
0.00278006
-1.28593e-12
0.00845997
0.00278306
4.06779e-08
0.00845997
0.00278306
0.00845562
0.00278006
-2.82092e-08
0.00775644
0.00146124
4.29785e-12
0.00776075
0.00145974
2.82056e-08
0.00776075
0.00145974
0.00775644
0.00146124
-4.2952e-09
0.00763637
0.000167686
6.8505e-12
0.00764022
0.000167465
4.30326e-09
0.00764022
0.000167465
0.00763637
0.000167686
-1.73285e-08
0.00796996
-0.000380068
2.41542e-12
0.00797287
-0.000378704
1.73321e-08
0.00797287
-0.000378704
0.00796996
-0.000380068
-2.11542e-08
0.00800314
-0.000534487
7.12767e-13
0.00800442
-0.000534351
2.11581e-08
0.00800442
-0.000534351
0.00800314
-0.000534487
-4.31357e-09
0.00795618
-0.000164643
-1.00971e-12
0.00795754
-0.000162647
4.3149e-09
0.00795754
-0.000162647
0.00795618
-0.000164643
1.11727e-08
0.00860366
-0.001085
-1.42682e-12
0.00860339
-0.00108184
-1.11721e-08
0.00860339
-0.00108184
0.00860366
-0.001085
-1.36427e-08
-0.00155655
0.0096736
3.8173e-13
-0.00155629
0.00967306
1.36443e-08
-0.00155629
0.00967306
-0.00155655
0.0096736
4.53855e-08
-0.0424005
-0.00479321
0.00535633
1.19435e-12
-0.0423912
-0.00479305
0.00534446
-4.53855e-08
-0.0423912
-0.00479305
0.00534446
-0.0424005
-0.00479321
0.00535633
1.24825e-07
-0.0608656
0.0220912
-0.00362619
-3.57685e-13
-0.0608604
0.0220934
-0.00362406
-1.24825e-07
-0.0608604
0.0220934
-0.00362406
-0.0608656
0.0220912
-0.00362619
1.4431e-07
-0.0692039
0.0179828
-0.0096447
-3.1665e-13
-0.0691945
0.0179842
-0.00964992
-1.4431e-07
-0.0691945
0.0179842
-0.00964992
-0.0692039
0.0179828
-0.0096447
9.19874e-08
-0.0741576
0.016774
-0.0118204
-4.45499e-13
-0.0741505
0.0167841
-0.0118281
-9.19864e-08
-0.0741505
0.0167841
-0.0118281
-0.0741576
0.016774
-0.0118204
-4.9114e-07
-0.0816002
0.0202608
-0.0128177
2.52276e-13
-0.0816111
0.0202503
-0.0127902
4.9114e-07
-0.0816111
0.0202503
-0.0127902
-0.0816002
0.0202608
-0.0128177
1.24428e-07
-0.0560176
0.0275405
-9.51665e-13
-0.0560094
0.027539
-1.24436e-07
-0.0560094
0.027539
-0.0560176
0.0275405
-4.78536e-08
-0.0591363
0.0215694
7.65138e-13
-0.0591424
0.0215827
4.78517e-08
-0.0591424
0.0215827
-0.0591363
0.0215694
-5.36829e-08
-0.0653813
0.0137976
6.05674e-13
-0.0653858
0.0138026
5.3682e-08
-0.0653858
0.0138026
-0.0653813
0.0137976
-7.23523e-08
-0.0673213
0.0100043
3.06531e-13
-0.0673296
0.0100097
7.23515e-08
-0.0673296
0.0100097
-0.0673213
0.0100043
-3.01767e-08
-0.066706
0.00785188
8.06879e-13
-0.0667135
0.0078527
3.01764e-08
-0.0667135
0.0078527
-0.066706
0.00785188
-3.42475e-08
-0.0669303
0.00702463
8.54614e-13
-0.066937
0.00702477
3.42465e-08
-0.066937
0.00702477
-0.0669303
0.00702463
-2.67086e-08
-0.0690285
0.00687797
1.32088e-12
-0.0690323
0.00687657
2.67065e-08
-0.0690323
0.00687657
-0.0690285
0.00687797
-1.0527e-08
-0.0691504
0.00421214
1.87384e-12
-0.0691519
0.00421266
1.05239e-08
-0.0691519
0.00421266
-0.0691504
0.00421214
2.623e-08
-0.0674658
0.00242941
1.976e-12
-0.0674654
0.00242872
-2.62328e-08
-0.0674654
0.00242872
-0.0674658
0.00242941
7.41409e-09
-0.0663302
0.0027547
3.07305e-12
-0.0663309
0.00275578
-7.41223e-09
-0.0663309
0.00275578
-0.0663302
0.0027547
3.13503e-09
-0.0679184
0.00491437
8.75603e-13
-0.0679181
0.00491395
-3.13263e-09
-0.0679181
0.00491395
-0.0679184
0.00491437
-2.41812e-08
-0.0727038
0.0042968
-4.51706e-13
-0.0727036
0.004298
2.41815e-08
-0.0727036
0.004298
-0.0727038
0.0042968
-2.83805e-08
-0.0709636
0.00536914
-2.93577e-13
-0.0709642
0.00536896
2.83804e-08
-0.0709642
0.00536896
-0.0709636
0.00536914
-2.85018e-08
-0.0704229
0.00499368
-7.8523e-14
-0.0704246
0.00499328
2.85017e-08
-0.0704246
0.00499328
-0.0704229
0.00499368
-2.95219e-08
0.0251095
-0.00362113
-1.82258e-12
0.0251049
-0.00362561
2.95214e-08
0.0251049
-0.00362561
0.0251095
-0.00362113
1.18957e-08
0.0254438
0.00244583
7.3108e-13
0.0254446
0.0024434
-1.18978e-08
0.0254446
0.0024434
0.0254438
0.00244583
-4.5394e-08
0.0254417
0.00146337
9.03888e-13
0.0254436
0.00146068
4.53888e-08
0.0254436
0.00146068
0.0254417
0.00146337
-6.0516e-09
0.0249625
0.000646829
7.30772e-13
0.0249649
0.000646141
6.04913e-09
0.0249649
0.000646141
0.0249625
0.000646829
-7.89094e-09
0.0250354
-0.000452949
5.11506e-13
0.0250371
-0.000450887
7.89084e-09
0.0250371
-0.000450887
0.0250354
-0.000452949
-1.63167e-08
0.024239
0.000262004
4.07867e-13
0.0242398
0.000262866
1.63185e-08
0.0242398
0.000262866
0.024239
0.000262004
3.74345e-10
0.0235926
0.000481708
-1.00339e-12
0.023592
0.000485192
-3.74654e-10
0.023592
0.000485192
0.0235926
0.000481708
1.65462e-08
0.0228233
-0.000315685
-1.39305e-12
0.022824
-0.000313827
-1.65481e-08
0.022824
-0.000313827
0.0228233
-0.000315685
-2.6532e-08
0.0239501
-0.00268337
-3.03613e-13
0.0239483
-0.00268062
2.65305e-08
0.0239483
-0.00268062
0.0239501
-0.00268337
1.33602e-08
0.00152437
0.0238262
-0.00140043
1.32814e-12
0.00152179
0.0238247
-0.00139813
-1.33608e-08
0.00152179
0.0238247
-0.00139813
0.00152437
0.0238262
-0.00140043
1.27807e-09
0.000710802
0.0104872
1.1977e-12
0.000709639
0.0104852
-1.27589e-09
0.000709639
0.0104852
0.000710802
0.0104872
6.46311e-10
-0.000228278
0.00184043
-3.45787e-13
-0.00022853
0.00184
-6.45765e-10
-0.00022853
0.00184
-0.000228278
0.00184043
7.39541e-09
-0.00103935
-0.000785356
2.18527e-12
-0.0010391
-0.000785407
-7.39634e-09
-0.0010391
-0.000785407
-0.00103935
-0.000785356
1.46021e-09
-0.00179603
0.00338286
3.6132e-12
-0.00179472
0.00338258
-1.46121e-09
-0.00179472
0.00338258
-0.00179603
0.00338286
8.66625e-09
-0.00235783
0.0122101
2.30852e-12
-0.00235594
0.0122081
-8.6662e-09
-0.00235594
0.0122081
-0.00235783
0.0122101
2.87335e-08
-0.00318179
0.0244896
2.17866e-12
-0.00318191
0.0244911
-2.8733e-08
-0.00318191
0.0244911
-0.00318179
0.0244896
2.08781e-08
-0.0397485
0.0417715
-0.00520488
2.91731e-12
-0.0397487
0.0417732
-0.00520632
-2.08758e-08
-0.0397487
0.0417732
-0.00520632
-0.0397485
0.0417715
-0.00520488
-2.27434e-08
-0.0404328
-0.0043354
6.23534e-13
-0.0404346
-0.00433241
2.27485e-08
-0.0404346
-0.00433241
-0.0404328
-0.0043354
2.21384e-08
-0.041935
-0.00338691
-5.17012e-12
-0.0419361
-0.00338868
-2.21376e-08
-0.0419361
-0.00338868
-0.041935
-0.00338691
-3.60404e-08
-0.0430141
-0.00244641
-5.11656e-12
-0.0430161
-0.00244327
3.60376e-08
-0.0430161
-0.00244327
-0.0430141
-0.00244641
-1.0535e-08
-0.0431784
-0.00114301
-8.14335e-13
-0.0431797
-0.00114209
1.05314e-08
-0.0431797
-0.00114209
-0.0431784
-0.00114301
2.07241e-08
-0.0450074
0.00211706
2.53019e-12
-0.0450072
0.00211771
-2.07236e-08
-0.0450072
0.00211771
-0.0450074
0.00211706
1.57287e-08
-0.0457983
0.00240443
1.83465e-12
-0.0457942
0.00240047
-1.57308e-08
-0.0457942
0.00240047
-0.0457983
0.00240443
-1.97144e-08
-0.0455334
0.000224566
1.5661e-12
-0.04553
0.000222079
1.97147e-08
-0.04553
0.000222079
-0.0455334
0.000224566
-9.09874e-08
-0.0478147
0.000492086
6.13362e-13
-0.047814
0.000494429
9.0988e-08
-0.047814
0.000494429
-0.0478147
0.000492086
9.2647e-09
-0.0480506
0.00159136
3.49855e-13
-0.048047
0.00158877
-9.26418e-09
-0.048047
0.00158877
-0.0480506
0.00159136
-2.57852e-08
-0.0497451
0.0041212
6.69199e-13
-0.0497418
0.0041203
2.57845e-08
-0.0497418
0.0041203
-0.0497451
0.0041212
-7.8063e-08
-0.0514487
0.00346537
1.45386e-12
-0.0514448
0.00345574
7.80614e-08
-0.0514448
0.00345574
-0.0514487
0.00346537
6.67624e-08
-0.055579
0.00894328
1.37597e-12
-0.0555632
0.00892569
-6.67642e-08
-0.0555632
0.00892569
-0.055579
0.00894328
-3.16501e-08
-0.0589111
0.00349939
-1.60503e-13
-0.0588929
0.00348508
3.16499e-08
-0.0588929
0.00348508
-0.0589111
0.00349939
-1.90995e-07
-0.0806242
0.00635683
1.53273e-13
-0.0806113
0.00635108
1.90989e-07
-0.0806113
0.00635108
-0.0806242
0.00635683
3.26462e-07
-0.0797364
0.00944191
-0.01033
1.77415e-12
-0.07972
0.00943226
-0.0103232
-3.26462e-07
-0.07972
0.00943226
-0.0103232
-0.0797364
0.00944191
-0.01033
3.34171e-08
-0.0829068
0.0171183
-0.0139479
-1.57405e-13
-0.0829226
0.0171252
-0.0139226
-3.34197e-08
-0.0829226
0.0171252
-0.0139226
-0.0829068
0.0171183
-0.0139479
-8.94634e-08
-0.0906462
0.0240897
-0.0163501
-1.9514e-12
-0.0906735
0.0240776
-0.0163268
8.94622e-08
-0.0906735
0.0240776
-0.0163268
-0.0906462
0.0240897
-0.0163501
3.6774e-07
-0.0592409
0.0326468
-2.18079e-12
-0.059239
0.0326613
-3.6773e-07
-0.059239
0.0326613
-0.0592409
0.0326468
2.18566e-07
-0.0633747
0.0210948
2.10212e-13
-0.0633753
0.0211028
-2.18565e-07
-0.0633753
0.0211028
-0.0633747
0.0210948
4.04269e-08
-0.0660246
0.0133044
-1.12632e-13
-0.0660212
0.013305
-4.04263e-08
-0.0660212
0.013305
-0.0660246
0.0133044
-4.39239e-08
-0.064832
0.00994028
-5.28357e-13
-0.064837
0.00994416
4.39251e-08
-0.064837
0.00994416
-0.064832
0.00994028
-4.90911e-08
-0.0678731
0.00936906
-3.35748e-13
-0.0678791
0.00937039
4.90919e-08
-0.0678791
0.00937039
-0.0678731
0.00936906
-6.82241e-08
-0.0686958
0.00686525
-2.01541e-13
-0.0687039
0.00686881
6.82243e-08
-0.0687039
0.00686881
-0.0686958
0.00686525
-7.17103e-08
-0.0694451
0.00614729
-3.46428e-13
-0.0694518
0.00614899
7.17098e-08
-0.0694518
0.00614899
-0.0694451
0.00614729
-4.6361e-08
-0.0693623
0.00605748
9.69083e-14
-0.0693671
0.00605935
4.63623e-08
-0.0693671
0.00605935
-0.0693623
0.00605748
-1.36982e-08
-0.0699134
0.00751206
1.78554e-14
-0.0699154
0.0075114
1.36986e-08
-0.0699154
0.0075114
-0.0699134
0.00751206
-2.60541e-08
-0.0683802
0.00337701
6.16214e-13
-0.0683832
0.00337999
2.60536e-08
-0.0683832
0.00337999
-0.0683802
0.00337701
-3.76781e-08
-0.0682601
0.00324662
7.46904e-13
-0.0682642
0.00324861
3.76772e-08
-0.0682642
0.00324861
-0.0682601
0.00324662
-3.2311e-08
-0.0686538
0.00556696
4.6333e-13
-0.0686567
0.00556766
3.23103e-08
-0.0686567
0.00556766
-0.0686538
0.00556696
-2.36744e-08
-0.0659659
0.00393477
2.09028e-13
-0.0659689
0.00393467
2.36741e-08
-0.0659689
0.00393467
-0.0659659
0.00393477
-2.60411e-08
-0.0672536
0.00696565
8.45797e-14
-0.067256
0.00696529
2.60409e-08
-0.067256
0.00696529
-0.0672536
0.00696565
-1.9132e-08
-0.00459536
0.00635351
-0.0690117
4.44404e-14
-0.00459553
0.00635254
-0.069013
1.91319e-08
-0.00459553
0.00635254
-0.069013
-0.00459536
0.00635351
-0.0690117
-2.41658e-08
-0.00231326
-0.069433
4.43423e-14
-0.00231435
-0.0694326
2.41657e-08
-0.00231435
-0.0694326
-0.00231326
-0.069433
-3.03672e-08
-0.00016861
-0.0703783
5.10604e-14
-0.000169693
-0.0703757
3.03671e-08
-0.000169693
-0.0703757
-0.00016861
-0.0703783
-2.83376e-08
0.00250624
-0.070944
5.96931e-14
0.00250532
-0.0709407
2.83375e-08
0.00250532
-0.0709407
0.00250624
-0.070944
-2.49063e-08
0.00278613
-0.0710829
3.72257e-14
0.00278602
-0.0710811
2.49062e-08
0.00278602
-0.0710811
0.00278613
-0.0710829
-2.62227e-08
0.00237175
-0.0704044
2.59025e-14
0.00237255
-0.0704036
2.62226e-08
0.00237255
-0.0704036
0.00237175