/*--------------------------------*- C++ -*----------------------------------*\
| =========                 |                                                 |
| \\      /  F ield         | OpenFOAM: The Open Source CFD Toolbox           |
|  \\    /   O peration     | Version:  v1806                                 |
|   \\  /    A nd           | Web:      www.OpenFOAM.com                      |
|    \\/     M anipulation  |                                                 |
\*---------------------------------------------------------------------------*/
FoamFile
{
    version     2.0;
    format      ascii;
    class       volVectorField;
    location    "490";
    object      U;
}
// * * * * * * * * * * * * * * * * * * * * * * * * * * * * * * * * * * * * * //

dimensions      [0 1 -1 0 0 0 0];


internalField   nonuniform List<vector> 
2400
(
(0.3 -0.000479123 0)
(0.299998 -0.00143955 0)
(0.299994 -0.00240646 0)
(0.299987 -0.00338427 0)
(0.299978 -0.00437628 0)
(0.299966 -0.00538494 0)
(0.299954 -0.00641053 0)
(0.299942 -0.00745191 0)
(0.29993 -0.00850469 0)
(0.299923 -0.00956243 0)
(0.299921 -0.0106142 0)
(0.299928 -0.0116467 0)
(0.299947 -0.0126412 0)
(0.299981 -0.0135772 0)
(0.300035 -0.0144284 0)
(0.300111 -0.0151695 0)
(0.300212 -0.01577 0)
(0.300339 -0.0162064 0)
(0.300492 -0.0164506 0)
(0.300678 -0.0164906 0)
(0.3 -0.000477672 0)
(0.299994 -0.00143526 0)
(0.299984 -0.00239941 0)
(0.299968 -0.00337478 0)
(0.299949 -0.00436482 0)
(0.299927 -0.00537237 0)
(0.299905 -0.00639793 0)
(0.299886 -0.00744083 0)
(0.299871 -0.00849699 0)
(0.299866 -0.0095606 0)
(0.299875 -0.010621 0)
(0.299903 -0.0116657 0)
(0.299955 -0.0126759 0)
(0.300037 -0.0136314 0)
(0.300155 -0.0145056 0)
(0.300312 -0.0152724 0)
(0.30051 -0.0159004 0)
(0.300749 -0.0163629 0)
(0.301026 -0.0166314 0)
(0.301335 -0.0166861 0)
(0.3 -0.000474698 0)
(0.299991 -0.00142657 0)
(0.299973 -0.00238539 0)
(0.299947 -0.00335638 0)
(0.299914 -0.00434321 0)
(0.299878 -0.00534946 0)
(0.299842 -0.00637598 0)
(0.29981 -0.007423 0)
(0.299787 -0.00848682 0)
(0.299779 -0.00956266 0)
(0.299794 -0.0106401 0)
(0.29984 -0.0117076 0)
(0.299925 -0.0127458 0)
(0.300059 -0.0137352 0)
(0.300247 -0.0146469 0)
(0.300497 -0.015455 0)
(0.30081 -0.0161231 0)
(0.301186 -0.0166255 0)
(0.301616 -0.0169244 0)
(0.302089 -0.0170086 0)
(0.3 -0.000470084 0)
(0.299986 -0.00141312 0)
(0.29996 -0.00236374 0)
(0.299922 -0.00332806 0)
(0.299875 -0.00431004 0)
(0.299822 -0.00531441 0)
(0.299768 -0.00634237 0)
(0.29972 -0.00739564 0)
(0.299683 -0.00847085 0)
(0.299667 -0.00956485 0)
(0.299683 -0.0106674 0)
(0.299741 -0.0117682 0)
(0.299854 -0.0128475 0)
(0.300033 -0.013886 0)
(0.30029 -0.0148523 0)
(0.300633 -0.0157195 0)
(0.301065 -0.0164457 0)
(0.301585 -0.0170027 0)
(0.302181 -0.017345 0)
(0.302838 -0.0174571 0)
(0.299999 -0.000463661 0)
(0.299981 -0.00139448 0)
(0.299946 -0.00233357 0)
(0.299895 -0.00328854 0)
(0.299831 -0.00426334 0)
(0.299758 -0.00526465 0)
(0.299682 -0.00629366 0)
(0.299612 -0.00735456 0)
(0.299556 -0.00844399 0)
(0.299526 -0.00956152 0)
(0.299535 -0.0106967 0)
(0.299597 -0.0118417 0)
(0.29973 -0.0129754 0)
(0.299949 -0.0140799 0)
(0.300269 -0.0151202 0)
(0.300704 -0.0160678 0)
(0.301256 -0.0168738 0)
(0.301928 -0.0175055 0)
(0.302702 -0.0179065 0)
(0.303561 -0.0180557 0)
(0.299999 -0.000455188 0)
(0.299976 -0.00137003 0)
(0.29993 -0.00229371 0)
(0.299864 -0.00323618 0)
(0.299779 -0.0042007 0)
(0.299683 -0.00519717 0)
(0.299581 -0.00622587 0)
(0.299484 -0.00729515 0)
(0.299401 -0.00840052 0)
(0.299348 -0.00954647 0)
(0.299341 -0.010721 0)
(0.299398 -0.0119211 0)
(0.29954 -0.013123 0)
(0.29979 -0.0143119 0)
(0.300167 -0.0154474 0)
(0.300689 -0.0165005 0)
(0.301365 -0.0174118 0)
(0.302197 -0.0181436 0)
(0.303165 -0.0186236 0)
(0.304248 -0.0188253 0)
(0.299999 -0.000444364 0)
(0.29997 -0.00133906 0)
(0.299912 -0.00224271 0)
(0.299828 -0.00316907 0)
(0.29972 -0.00411924 0)
(0.299596 -0.00510854 0)
(0.299462 -0.0061342 0)
(0.29933 -0.00721197 0)
(0.299213 -0.00833338 0)
(0.299127 -0.00951219 0)
(0.299091 -0.0107314 0)
(0.29913 -0.0119977 0)
(0.299268 -0.0132813 0)
(0.299536 -0.0145749 0)
(0.299959 -0.0158291 0)
(0.300565 -0.0170171 0)
(0.301364 -0.0180646 0)
(0.302367 -0.018929 0)
(0.303551 -0.0195149 0)
(0.304889 -0.019789 0)
(0.299999 -0.000430835 0)
(0.299963 -0.00130079 0)
(0.299891 -0.00217891 0)
(0.299787 -0.00308511 0)
(0.299652 -0.00401556 0)
(0.299495 -0.00499486 0)
(0.299323 -0.00601289 0)
(0.299148 -0.00709873 0)
(0.298986 -0.00823375 0)
(0.298853 -0.00944957 0)
(0.298776 -0.0107159 0)
(0.298779 -0.0120606 0)
(0.298897 -0.0134374 0)
(0.299166 -0.0148591 0)
(0.299622 -0.0162572 0)
(0.3003 -0.0176159 0)
(0.301224 -0.0188374 0)
(0.30241 -0.0198763 0)
(0.303834 -0.0206042 0)
(0.305469 -0.0209785 0)
(0.299998 -0.000414219 0)
(0.299955 -0.00125443 0)
(0.299868 -0.00210047 0)
(0.299741 -0.00298208 0)
(0.299575 -0.00388586 0)
(0.29938 -0.00485196 0)
(0.299162 -0.00585522 0)
(0.298936 -0.00694848 0)
(0.298716 -0.00809088 0)
(0.298523 -0.00934816 0)
(0.298385 -0.0106593 0)
(0.298333 -0.0120963 0)
(0.29841 -0.0135737 0)
(0.298655 -0.0151519 0)
(0.299125 -0.0167183 0)
(0.299861 -0.0182938 0)
(0.300906 -0.0197341 0)
(0.302285 -0.0210034 0)
(0.303983 -0.0219225 0)
(0.305967 -0.0224366 0)
(0.299998 -0.000394127 0)
(0.299946 -0.0011992 0)
(0.299842 -0.00200547 0)
(0.299689 -0.00285778 0)
(0.299489 -0.00372601 0)
(0.29925 -0.00467557 0)
(0.298979 -0.00565358 0)
(0.298691 -0.00675387 0)
(0.2984 -0.00789193 0)
(0.29813 -0.00919656 0)
(0.297912 -0.010542 0)
(0.297778 -0.0120894 0)
(0.297787 -0.0136648 0)
(0.297977 -0.0154381 0)
(0.298434 -0.0171901 0)
(0.299201 -0.019046 0)
(0.300361 -0.0207541 0)
(0.301941 -0.0223327 0)
(0.303951 -0.0235091 0)
(0.306355 -0.0242208 0)
(0.299997 -0.000370225 0)
(0.299936 -0.00113436 0)
(0.299813 -0.00189202 0)
(0.299633 -0.00271004 0)
(0.299393 -0.00353179 0)
(0.299106 -0.00446144 0)
(0.298773 -0.00539977 0)
(0.298413 -0.00650744 0)
(0.298038 -0.00762206 0)
(0.297672 -0.00898275 0)
(0.29735 -0.0103392 0)
(0.297104 -0.0120229 0)
(0.297011 -0.0136749 0)
(0.297103 -0.0157 0)
(0.297513 -0.0176343 0)
(0.298266 -0.0198675 0)
(0.299529 -0.0218842 0)
(0.301305 -0.0238949 0)
(0.303678 -0.0254135 0)
(0.306591 -0.0264095 0)
(0.299997 -0.00034231 0)
(0.299926 -0.00105912 0)
(0.299783 -0.00175855 0)
(0.299573 -0.00253674 0)
(0.299289 -0.00329937 0)
(0.298949 -0.00420539 0)
(0.298547 -0.00508563 0)
(0.298106 -0.00620158 0)
(0.29763 -0.00726507 0)
(0.297149 -0.00869425 0)
(0.296697 -0.0100213 0)
(0.296304 -0.0118791 0)
(0.296068 -0.013555 0)
(0.296004 -0.0159193 0)
(0.29632 -0.0179863 0)
(0.296989 -0.0207579 0)
(0.298338 -0.0230799 0)
(0.300275 -0.0257384 0)
(0.303083 -0.0276907 0)
(0.306613 -0.0291164 0)
(0.299996 -0.000310423 0)
(0.299916 -0.000972581 0)
(0.299751 -0.00160409 0)
(0.29951 -0.00233566 0)
(0.29918 -0.00302592 0)
(0.298783 -0.00390299 0)
(0.298303 -0.0047042 0)
(0.297773 -0.00582802 0)
(0.29718 -0.00680532 0)
(0.296567 -0.008317 0)
(0.295953 -0.00955559 0)
(0.295376 -0.011638 0)
(0.294944 -0.0132432 0)
(0.294657 -0.0160763 0)
(0.294814 -0.0181459 0)
(0.29529 -0.0217258 0)
(0.296695 -0.0242332 0)
(0.298694 -0.0279487 0)
(0.302059 -0.0303645 0)
(0.306314 -0.0325251 0)
(0.299996 -0.000274944 0)
(0.299905 -0.000873585 0)
(0.299719 -0.0014287 0)
(0.299444 -0.0021043 0)
(0.299067 -0.00271052 0)
(0.298609 -0.00354903 0)
(0.298048 -0.00425156 0)
(0.297419 -0.00537651 0)
(0.296697 -0.0062311 0)
(0.295934 -0.00783236 0)
(0.295125 -0.00891234 0)
(0.294329 -0.0112705 0)
(0.293634 -0.0126723 0)
(0.293051 -0.0161411 0)
(0.292944 -0.0179802 0)
(0.293094 -0.0227841 0)
(0.294486 -0.0251426 0)
(0.296345 -0.0306747 0)
(0.300463 -0.0333243 0)
(0.305481 -0.036952 0)
(0.299998 -0.000236602 0)
(0.299893 -0.000760716 0)
(0.299691 -0.00123373 0)
(0.299375 -0.00183977 0)
(0.298958 -0.002355 0)
(0.298429 -0.00313712 0)
(0.297793 -0.00372892 0)
(0.297051 -0.0048333 0)
(0.296197 -0.00553946 0)
(0.295261 -0.00721258 0)
(0.294231 -0.00807448 0)
(0.293179 -0.0107269 0)
(0.29214 -0.0117881 0)
(0.291199 -0.0160465 0)
(0.290652 -0.0173507 0)
(0.29036 -0.023907 0)
(0.291531 -0.025525 0)
(0.292999 -0.0341304 0)
(0.298077 -0.0362658 0)
(0.303628 -0.042852 0)
(0.300003 -0.000196316 0)
(0.299878 -0.000632514 0)
(0.299669 -0.00102175 0)
(0.299301 -0.00153915 0)
(0.29886 -0.00196408 0)
(0.298241 -0.00265995 0)
(0.297554 -0.00314382 0)
(0.296667 -0.00418088 0)
(0.295712 -0.00474043 0)
(0.29455 -0.0064175 0)
(0.293319 -0.00704885 0)
(0.291932 -0.0099223 0)
(0.290506 -0.0105742 0)
(0.289111 -0.0156446 0)
(0.287901 -0.0161624 0)
(0.287096 -0.0249459 0)
(0.28753 -0.0250789 0)
(0.288544 -0.0385438 0)
(0.294483 -0.0387155 0)
(0.299967 -0.0511925 0)
(0.300013 -0.000154847 0)
(0.299856 -0.000488118 0)
(0.299659 -0.000795837 0)
(0.299219 -0.00120069 0)
(0.298787 -0.00154412 0)
(0.29804 -0.00211143 0)
(0.29736 -0.00250856 0)
(0.296258 -0.00340122 0)
(0.295296 -0.00385723 0)
(0.293784 -0.00539793 0)
(0.292489 -0.00587441 0)
(0.290554 -0.00873026 0)
(0.288886 -0.00907776 0)
(0.286716 -0.0146494 0)
(0.284817 -0.0144375 0)
(0.283205 -0.0254607 0)
(0.282163 -0.0236092 0)
(0.282984 -0.0438705 0)
(0.288432 -0.0397147 0)
(0.29411 -0.0650845 0)
(0.300028 -0.000112365 0)
(0.299827 -0.000328357 0)
(0.299664 -0.000558591 0)
(0.299126 -0.000826098 0)
(0.298748 -0.00110037 0)
(0.297823 -0.00149179 0)
(0.297237 -0.00183372 0)
(0.295816 -0.00248709 0)
(0.295013 -0.00291317 0)
(0.292934 -0.00411919 0)
(0.291893 -0.0046055 0)
(0.28896 -0.00702289 0)
(0.287608 -0.00742103 0)
(0.28376 -0.0126431 0)
(0.281969 -0.0123934 0)
(0.278065 -0.0243624 0)
(0.275882 -0.0215181 0)
(0.275682 -0.0486413 0)
(0.276809 -0.0383792 0)
(0.287017 -0.0864637 0)
(0.300047 -6.80625e-05 0)
(0.299793 -0.000155609 0)
(0.299681 -0.000312657 0)
(0.299029 -0.000421542 0)
(0.298742 -0.000637467 0)
(0.297603 -0.000811403 0)
(0.297189 -0.00112601 0)
(0.295359 -0.00145479 0)
(0.294892 -0.00191709 0)
(0.292022 -0.00260262 0)
(0.291633 -0.00325947 0)
(0.287135 -0.00479711 0)
(0.287022 -0.00565555 0)
(0.280023 -0.00940129 0)
(0.280419 -0.0102565 0)
(0.270316 -0.0203278 0)
(0.271319 -0.01971 0)
(0.262532 -0.0494129 0)
(0.261484 -0.0370983 0)
(0.27762 -0.114372 0)
(0.300065 -2.34107e-05 0)
(0.299757 3.04005e-05 0)
(0.299701 -6.05749e-05 0)
(0.298943 1.1639e-05 0)
(0.298756 -0.000161743 0)
(0.297412 -7.33372e-05 0)
(0.297186 -0.000397842 0)
(0.294963 -0.000311434 0)
(0.294862 -0.00088065 0)
(0.291217 -0.000864585 0)
(0.291567 -0.0018114 0)
(0.285449 -0.00213784 0)
(0.286901 -0.00361295 0)
(0.27618 -0.00523 0)
(0.280147 -0.0073154 0)
(0.260432 -0.0139204 0)
(0.270453 -0.0160827 0)
(0.235754 -0.045428 0)
(0.265562 -0.0404076 0)
(0.265808 -0.199683 0)
(0.30082 -0.0163728 0)
(0.30087 -0.0163184 0)
(0.300916 -0.0162535 0)
(0.30096 -0.0161788 0)
(0.301004 -0.0160943 0)
(0.30105 -0.0159999 0)
(0.301097 -0.0158957 0)
(0.301144 -0.015782 0)
(0.30119 -0.0156587 0)
(0.301236 -0.015527 0)
(0.301533 -0.0165897 0)
(0.301605 -0.0165444 0)
(0.301677 -0.0164881 0)
(0.30175 -0.0164203 0)
(0.301822 -0.0163413 0)
(0.301895 -0.0162512 0)
(0.301968 -0.0161503 0)
(0.30204 -0.0160389 0)
(0.302112 -0.0159168 0)
(0.302184 -0.015786 0)
(0.302395 -0.0169089 0)
(0.302507 -0.0168601 0)
(0.302618 -0.0167994 0)
(0.302727 -0.0167271 0)
(0.302836 -0.0166435 0)
(0.302944 -0.0165486 0)
(0.303051 -0.0164427 0)
(0.303157 -0.0163259 0)
(0.303261 -0.0161982 0)
(0.303363 -0.0160614 0)
(0.303266 -0.0173599 0)
(0.30342 -0.0173113 0)
(0.303572 -0.0172499 0)
(0.303721 -0.0171761 0)
(0.30387 -0.0170901 0)
(0.304017 -0.0169918 0)
(0.304163 -0.0168814 0)
(0.304307 -0.0167591 0)
(0.304449 -0.0166248 0)
(0.304588 -0.0164807 0)
(0.304122 -0.017963 0)
(0.304324 -0.0179144 0)
(0.304521 -0.0178514 0)
(0.304716 -0.0177743 0)
(0.30491 -0.0176833 0)
(0.305102 -0.0175785 0)
(0.305293 -0.01746 0)
(0.30548 -0.0173282 0)
(0.305663 -0.0171829 0)
(0.305843 -0.0170268 0)
(0.30496 -0.0187375 0)
(0.305216 -0.0186885 0)
(0.305466 -0.0186228 0)
(0.305713 -0.0185409 0)
(0.305958 -0.018443 0)
(0.306201 -0.0183292 0)
(0.306441 -0.0181998 0)
(0.306677 -0.0180551 0)
(0.306908 -0.0178949 0)
(0.307133 -0.0177226 0)
(0.305776 -0.0197081 0)
(0.306095 -0.0196584 0)
(0.306407 -0.0195891 0)
(0.306714 -0.0195008 0)
(0.307018 -0.0193936 0)
(0.30732 -0.0192678 0)
(0.307618 -0.0191235 0)
(0.30791 -0.0189613 0)
(0.308196 -0.018781 0)
(0.308474 -0.0185869 0)
(0.306564 -0.020908 0)
(0.306959 -0.0208579 0)
(0.307343 -0.0207842 0)
(0.307722 -0.0206875 0)
(0.308097 -0.0205681 0)
(0.308468 -0.0204263 0)
(0.308834 -0.0202623 0)
(0.309193 -0.020077 0)
(0.309544 -0.0198697 0)
(0.309884 -0.0196469 0)
(0.307316 -0.0223827 0)
(0.307803 -0.0223329 0)
(0.308276 -0.022254 0)
(0.308741 -0.0221467 0)
(0.309202 -0.0220114 0)
(0.309658 -0.0218484 0)
(0.310108 -0.0216582 0)
(0.310547 -0.021442 0)
(0.310976 -0.0211987 0)
(0.311389 -0.0209378 0)
(0.30802 -0.0241941 0)
(0.30862 -0.0241464 0)
(0.309204 -0.0240616 0)
(0.309778 -0.0239408 0)
(0.310346 -0.0237845 0)
(0.310908 -0.0235933 0)
(0.31146 -0.0233679 0)
(0.311999 -0.02311 0)
(0.312523 -0.0228181 0)
(0.313026 -0.0225068 0)
(0.308656 -0.0264286 0)
(0.309403 -0.0263863 0)
(0.31013 -0.0262952 0)
(0.310843 -0.0261568 0)
(0.311548 -0.025972 0)
(0.312244 -0.025742 0)
(0.312926 -0.0254681 0)
(0.31359 -0.025153 0)
(0.314232 -0.0247941 0)
(0.314847 -0.0244152 0)
(0.309196 -0.0292123 0)
(0.310137 -0.0291811 0)
(0.311055 -0.0290829 0)
(0.311954 -0.0289198 0)
(0.31284 -0.0286939 0)
(0.313711 -0.028408 0)
(0.314561 -0.0280642 0)
(0.315383 -0.0276677 0)
(0.316176 -0.0272136 0)
(0.316928 -0.0267421 0)
(0.309597 -0.0327448 0)
(0.310806 -0.0327285 0)
(0.311992 -0.0326156 0)
(0.313148 -0.0324116 0)
(0.31428 -0.0321221 0)
(0.315385 -0.0317519 0)
(0.316456 -0.0313046 0)
(0.317484 -0.030789 0)
(0.318467 -0.0301963 0)
(0.31939 -0.0295946 0)
(0.309815 -0.0373658 0)
(0.311427 -0.0373539 0)
(0.312998 -0.0371913 0)
(0.314512 -0.0368996 0)
(0.315978 -0.0364929 0)
(0.317398 -0.0359799 0)
(0.318762 -0.0353668 0)
(0.32006 -0.0346679 0)
(0.321288 -0.0338683 0)
(0.322424 -0.0330797 0)
(0.309831 -0.0435885 0)
(0.312137 -0.0435625 0)
(0.314305 -0.0432918 0)
(0.316321 -0.0428313 0)
(0.318233 -0.0422091 0)
(0.320063 -0.0414393 0)
(0.321802 -0.0405338 0)
(0.323433 -0.039519 0)
(0.324953 -0.0383757 0)
(0.326341 -0.0372765 0)
(0.309668 -0.0521432 0)
(0.313194 -0.0519788 0)
(0.316318 -0.0514832 0)
(0.319089 -0.0507669 0)
(0.321657 -0.0498542 0)
(0.324067 -0.0487473 0)
(0.326298 -0.0474552 0)
(0.328318 -0.046018 0)
(0.330125 -0.044404 0)
(0.331679 -0.0428844 0)
(0.310521 -0.0648751 0)
(0.315823 -0.0637611 0)
(0.319927 -0.0621536 0)
(0.323328 -0.0603399 0)
(0.326448 -0.0583605 0)
(0.329343 -0.0562016 0)
(0.331926 -0.0538723 0)
(0.334125 -0.0514255 0)
(0.335937 -0.048837 0)
(0.33738 -0.0464035 0)
(0.316825 -0.0862914 0)
(0.324819 -0.084655 0)
(0.329186 -0.0822278 0)
(0.331728 -0.0792534 0)
(0.333663 -0.0757668 0)
(0.335185 -0.0718393 0)
(0.336153 -0.0675918 0)
(0.336477 -0.0631601 0)
(0.336252 -0.0586007 0)
(0.335374 -0.0542041 0)
(0.312771 -0.0914817 0)
(0.319065 -0.0828571 0)
(0.319826 -0.0760528 0)
(0.318543 -0.0701736 0)
(0.316534 -0.064477 0)
(0.31373 -0.0588001 0)
(0.309984 -0.053171 0)
(0.305367 -0.0475978 0)
(0.300233 -0.0420753 0)
(0.294187 -0.036486 0)
(0.280779 -0.141242 0)
(0.25571 -0.120138 0)
(0.223493 -0.101676 0)
(0.198512 -0.0852295 0)
(0.179337 -0.07024 0)
(0.16296 -0.0566809 0)
(0.148577 -0.0446182 0)
(0.136321 -0.0340108 0)
(0.125944 -0.0247592 0)
(0.116827 -0.0169398 0)
(0.30144 -0.0148945 0)
(0.301817 -0.0133006 0)
(0.302164 -0.0113804 0)
(0.302441 -0.00933411 0)
(0.302653 -0.00734951 0)
(0.302805 -0.00552185 0)
(0.302901 -0.00395528 0)
(0.302978 -0.00262433 0)
(0.303012 -0.00155111 0)
(0.303058 -0.000697017 0)
(0.303072 -2.21781e-06 0)
(0.30309 0.00049443 0)
(0.303098 0.000908807 0)
(0.303088 0.00113998 0)
(0.30309 0.00129978 0)
(0.303071 0.0013481 0)
(0.303077 0.00130025 0)
(0.303101 0.00130966 0)
(0.303116 0.00120117 0)
(0.303205 0.00130341 0)
(0.302495 -0.0151366 0)
(0.302953 -0.013498 0)
(0.3033 -0.0115322 0)
(0.303502 -0.0094434 0)
(0.303592 -0.00742445 0)
(0.303596 -0.00556783 0)
(0.303546 -0.00398371 0)
(0.303492 -0.00263995 0)
(0.303416 -0.00156203 0)
(0.303375 -0.000706878 0)
(0.303322 -1.07344e-05 0)
(0.303292 0.000488267 0)
(0.303259 0.000911181 0)
(0.303212 0.00114418 0)
(0.303193 0.00130443 0)
(0.303154 0.00135258 0)
(0.30316 0.00129159 0)
(0.303189 0.00129819 0)
(0.303216 0.00117257 0)
(0.303332 0.00127653 0)
(0.303802 -0.0153946 0)
(0.304419 -0.0136948 0)
(0.304832 -0.0116509 0)
(0.305002 -0.00949155 0)
(0.30499 -0.0074209 0)
(0.304847 -0.00552912 0)
(0.304633 -0.00393068 0)
(0.304423 -0.00258211 0)
(0.304201 -0.00151095 0)
(0.304044 -0.000665302 0)
(0.30389 3.00742e-05 0)
(0.303774 0.000518997 0)
(0.303673 0.000943459 0)
(0.303555 0.0011707 0)
(0.303492 0.00132542 0)
(0.303401 0.00136606 0)
(0.303395 0.00128272 0)
(0.303415 0.00128226 0)
(0.303456 0.00113389 0)
(0.303604 0.00124382 0)
(0.305184 -0.015769 0)
(0.305991 -0.0139511 0)
(0.306496 -0.0117774 0)
(0.306653 -0.00950897 0)
(0.306556 -0.00736135 0)
(0.30628 -0.00542051 0)
(0.305915 -0.00380447 0)
(0.305558 -0.00245353 0)
(0.305194 -0.00139768 0)
(0.304926 -0.000569657 0)
(0.304669 0.000111928 0)
(0.304467 0.0005864 0)
(0.304291 0.00101147 0)
(0.304087 0.00122745 0)
(0.30397 0.00137177 0)
(0.303809 0.00139809 0)
(0.303783 0.00128125 0)
(0.303784 0.00126859 0)
(0.303837 0.00108802 0)
(0.304019 0.00120479 0)
(0.306612 -0.0162515 0)
(0.307628 -0.0142679 0)
(0.308229 -0.0119172 0)
(0.308368 -0.00950424 0)
(0.308182 -0.00725589 0)
(0.307771 -0.00525222 0)
(0.307256 -0.0036152 0)
(0.306757 -0.00226375 0)
(0.30626 -0.00123139 0)
(0.305893 -0.000429384 0)
(0.305545 0.00023502 0)
(0.305266 0.000688999 0)
(0.305023 0.00111589 0)
(0.304731 0.00131621 0)
(0.304564 0.0014474 0)
(0.304323 0.00145291 0)
(0.304277 0.00128904 0)
(0.304255 0.00125826 0)
(0.304322 0.00103172 0)
(0.304547 0.00115685 0)
(0.308098 -0.0168585 0)
(0.309339 -0.0146498 0)
(0.310031 -0.012068 0)
(0.310133 -0.0094731 0)
(0.309839 -0.00709985 0)
(0.309278 -0.00502078 0)
(0.308602 -0.00336153 0)
(0.307958 -0.0020138 0)
(0.307328 -0.0010159 0)
(0.306872 -0.000248297 0)
(0.306442 0.000393127 0)
(0.306098 0.000821916 0)
(0.305797 0.00125438 0)
(0.305419 0.0014355 0)
(0.305205 0.00155271 0)
(0.304878 0.00153089 0)
(0.304816 0.00130461 0)
(0.304775 0.00124973 0)
(0.304861 0.000960418 0)
(0.305147 0.00109692 0)
(0.309664 -0.017602 0)
(0.311146 -0.0150956 0)
(0.311914 -0.0122221 0)
(0.311952 -0.00940614 0)
(0.311525 -0.00688339 0)
(0.310789 -0.00471796 0)
(0.309934 -0.00303746 0)
(0.309133 -0.00170094 0)
(0.308365 -0.000751994 0)
(0.307825 -2.95111e-05 0)
(0.307321 0.00058141 0)
(0.306924 0.000981031 0)
(0.306573 0.00142504 0)
(0.306106 0.0015841 0)
(0.305849 0.00168846 0)
(0.305424 0.0016323 0)
(0.30535 0.00132592 0)
(0.305294 0.00124078 0)
(0.305406 0.000868019 0)
(0.305774 0.00102039 0)
(0.311337 -0.0184974 0)
(0.313076 -0.0156024 0)
(0.313899 -0.0123696 0)
(0.313836 -0.00929134 0)
(0.313241 -0.00659384 0)
(0.312298 -0.00433292 0)
(0.31124 -0.00263473 0)
(0.310264 -0.00132077 0)
(0.309353 -0.000439412 0)
(0.308734 0.000223599 0)
(0.308164 0.000795321 0)
(0.307722 0.00116323 0)
(0.307327 0.00162742 0)
(0.306764 0.00176247 0)
(0.306463 0.00185774 0)
(0.305925 0.0017588 0)
(0.30584 0.00135177 0)
(0.305767 0.00122941 0)
(0.305914 0.00074718 0)
(0.306388 0.000922076 0)
(0.313156 -0.0195624 0)
(0.315163 -0.0161643 0)
(0.316005 -0.0124974 0)
(0.315794 -0.00911301 0)
(0.314988 -0.00621516 0)
(0.3138 -0.00385205 0)
(0.312509 -0.00214267 0)
(0.311336 -0.000867848 0)
(0.310275 -7.74719e-05 0)
(0.309582 0.00050923 0)
(0.308956 0.00103082 0)
(0.30848 0.00136628 0)
(0.308045 0.00186249 0)
(0.307372 0.00197309 0)
(0.307024 0.0020668 0)
(0.306342 0.00191402 0)
(0.306248 0.00138298 0)
(0.306149 0.00121467 0)
(0.30634 0.000590407 0)
(0.306936 0.000797725 0)
(0.315173 -0.0208147 0)
(0.317447 -0.0167723 0)
(0.318253 -0.0125889 0)
(0.317835 -0.00885085 0)
(0.316767 -0.00572743 0)
(0.315288 -0.00325863 0)
(0.313728 -0.00154869 0)
(0.312331 -0.000332921 0)
(0.311111 0.000333248 0)
(0.310345 0.000824189 0)
(0.309678 0.00128254 0)
(0.309173 0.00158826 0)
(0.308702 0.00213263 0)
(0.307897 0.00222125 0)
(0.307489 0.00232618 0)
(0.306619 0.00210441 0)
(0.306511 0.00142414 0)
(0.30636 0.00119792 0)
(0.306603 0.000391896 0)
(0.307322 0.000646097 0)
(0.31746 -0.0222691 0)
(0.319976 -0.017414 0)
(0.320668 -0.0126221 0)
(0.319972 -0.0084795 0)
(0.318577 -0.0051062 0)
(0.31675 -0.00253298 0)
(0.314875 -0.000835114 0)
(0.313214 0.000287272 0)
(0.311821 0.000793301 0)
(0.310978 0.00116502 0)
(0.310281 0.00154555 0)
(0.309745 0.00182975 0)
(0.309232 0.00244358 0)
(0.308256 0.00251749 0)
(0.30776 0.00265296 0)
(0.30664 0.00234123 0)
(0.3065 0.00148687 0)
(0.306247 0.00118536 0)
(0.306541 0.000151626 0)
(0.307351 0.000472115 0)
(0.320118 -0.0239325 0)
(0.322808 -0.0180724 0)
(0.323279 -0.0125668 0)
(0.322211 -0.00796773 0)
(0.320403 -0.00432268 0)
(0.318152 -0.00164868 0)
(0.315887 1.93174e-05 0)
(0.313904 0.00100419 0)
(0.312307 0.00131115 0)
(0.311362 0.00153359 0)
(0.31063 0.0018202 0)
(0.310033 0.00209803 0)
(0.309457 0.00280818 0)
(0.308244 0.00288208 0)
(0.307609 0.00307431 0)
(0.306153 0.00264442 0)
(0.305933 0.00159532 0)
(0.305499 0.00119194 0)
(0.305812 -0.00011772 0)
(0.306637 0.000291351 0)
(0.323287 -0.025805 0)
(0.32601 -0.0187245 0)
(0.326109 -0.0123745 0)
(0.324525 -0.00726653 0)
(0.322169 -0.00333807 0)
(0.319368 -0.000562479 0)
(0.316587 0.00105064 0)
(0.314179 0.00184898 0)
(0.312293 0.00190913 0)
(0.311173 0.00194336 0)
(0.310357 0.00211996 0)
(0.309629 0.00241361 0)
(0.308933 0.00325108 0)
(0.30739 0.00334924 0)
(0.306536 0.00362984 0)
(0.304645 0.00304755 0)
(0.304249 0.00179268 0)
(0.30353 0.00124809 0)
(0.30377 -0.000381501 0)
(0.304494 0.000132297 0)
(0.327182 -0.0278493 0)
(0.329648 -0.0193211 0)
(0.329101 -0.0119481 0)
(0.326716 -0.00627835 0)
(0.323555 -0.0020603 0)
(0.319967 0.000791027 0)
(0.316438 0.00231944 0)
(0.313415 0.00287269 0)
(0.311061 0.00263651 0)
(0.309614 0.00243493 0)
(0.308582 0.00248459 0)
(0.307601 0.002817 0)
(0.306704 0.0038103 0)
(0.304734 0.00396496 0)
(0.30358 0.00436551 0)
(0.301171 0.00359625 0)
(0.300452 0.0021408 0)
(0.29935 0.00140257 0)
(0.299337 -0.000579227 0)
(0.299858 3.1648e-05 0)
(0.332084 -0.0299989 0)
(0.333575 -0.019806 0)
(0.331748 -0.011163 0)
(0.327921 -0.00486007 0)
(0.323436 -0.00031277 0)
(0.318637 0.00257543 0)
(0.314009 0.003967 0)
(0.310072 0.00419889 0)
(0.306955 0.0036026 0)
(0.304947 0.00309696 0)
(0.303494 0.00298842 0)
(0.30215 0.00336263 0)
(0.301009 0.00452197 0)
(0.298607 0.00476569 0)
(0.297157 0.00531125 0)
(0.294232 0.00433483 0)
(0.293039 0.00270602 0)
(0.291531 0.00171334 0)
(0.291021 -0.000639548 0)
(0.291377 1.19192e-05 0)
(0.337898 -0.0324721 0)
(0.336417 -0.0200054 0)
(0.331866 -0.0097137 0)
(0.325347 -0.00286819 0)
(0.318712 0.00198603 0)
(0.312136 0.0049089 0)
(0.306056 0.00613236 0)
(0.300919 0.00597479 0)
(0.296774 0.00494642 0)
(0.29403 0.0040423 0)
(0.292046 0.00370216 0)
(0.290445 0.00406698 0)
(0.289239 0.00536194 0)
(0.286683 0.00571687 0)
(0.285165 0.00643169 0)
(0.281927 0.00526988 0)
(0.280235 0.00351812 0)
(0.278482 0.00221784 0)
(0.277281 -0.00052882 0)
(0.277823 3.86263e-05 0)
(0.342279 -0.0320764 0)
(0.332703 -0.0176231 0)
(0.322773 -0.00560483 0)
(0.311826 0.000986176 0)
(0.302542 0.00561514 0)
(0.294143 0.00819026 0)
(0.286833 0.00903332 0)
(0.280716 0.00834144 0)
(0.275781 0.00675122 0)
(0.272624 0.00530149 0)
(0.270512 0.00457869 0)
(0.269329 0.00479452 0)
(0.268698 0.00614485 0)
(0.26675 0.00662036 0)
(0.265728 0.00755761 0)
(0.262684 0.00630496 0)
(0.260764 0.00449872 0)
(0.25922 0.00286658 0)
(0.257418 -0.000333412 0)
(0.258882 -2.39389e-05 0)
(0.330984 -0.0320004 0)
(0.305674 -0.0143746 0)
(0.289362 -0.00024086 0)
(0.273829 0.00556001 0)
(0.263895 0.00990695 0)
(0.255812 0.011843 0)
(0.24939 0.0121828 0)
(0.244029 0.0108992 0)
(0.239888 0.00864815 0)
(0.237766 0.00649872 0)
(0.236903 0.00519452 0)
(0.237543 0.00509378 0)
(0.238596 0.00643326 0)
(0.23842 0.0070752 0)
(0.238671 0.00835716 0)
(0.23664 0.00718342 0)
(0.235134 0.00539606 0)
(0.234574 0.00344595 0)
(0.23271 -0.000313245 0)
(0.23598 -0.000409525 0)
(0.274185 -0.0154353 0)
(0.229424 -0.00028274 0)
(0.214491 0.0108163 0)
(0.200652 0.0118614 0)
(0.197153 0.0143267 0)
(0.194397 0.0146717 0)
(0.193013 0.014368 0)
(0.191672 0.0125083 0)
(0.191158 0.00959052 0)
(0.192386 0.00668632 0)
(0.194678 0.00469375 0)
(0.198584 0.00426643 0)
(0.202283 0.0056675 0)
(0.204858 0.00662776 0)
(0.206987 0.00844273 0)
(0.206945 0.00750936 0)
(0.20669 0.00578781 0)
(0.20803 0.00357222 0)
(0.206919 -0.00082408 0)
(0.212491 -0.00135573 0)
(0.110856 0.00839845 0)
(0.0925089 0.0074932 0)
(0.105214 0.0141191 0)
(0.106234 0.0113304 0)
(0.117445 0.0134638 0)
(0.124113 0.0132633 0)
(0.130854 0.0133741 0)
(0.135967 0.0114554 0)
(0.141122 0.00820525 0)
(0.147112 0.0048118 0)
(0.153442 0.00232582 0)
(0.160853 0.00183416 0)
(0.167244 0.00352802 0)
(0.172749 0.00500977 0)
(0.176879 0.00752382 0)
(0.179629 0.00689922 0)
(0.181233 0.00527491 0)
(0.185128 0.00284709 0)
(0.185367 -0.0021029 0)
(0.192931 -0.0029799 0)
(0.0483183 0.00021075 0)
(0.031784 0.00389253 0)
(0.0548546 0.00977727 0)
(0.0608829 0.00745287 0)
(0.078288 0.00965961 0)
(0.0893718 0.0100636 0)
(0.100544 0.0107164 0)
(0.109461 0.00909204 0)
(0.117956 0.00588068 0)
(0.126554 0.0024583 0)
(0.134877 -0.000112633 0)
(0.143726 -0.000497371 0)
(0.151237 0.00146309 0)
(0.158165 0.0033008 0)
(0.16332 0.00620453 0)
(0.167982 0.00587134 0)
(0.170775 0.00421571 0)
(0.17629 0.00190841 0)
(0.177438 -0.00335873 0)
(0.185625 -0.00423752 0)
(0.0266283 -0.00444069 0)
(0.0101365 0.00325699 0)
(0.0360817 0.0078288 0)
(0.043895 0.00569351 0)
(0.0634807 0.00772639 0)
(0.0762314 0.00847716 0)
(0.0891279 0.00931801 0)
(0.0995993 0.00786244 0)
(0.109456 0.00469489 0)
(0.119087 0.00130262 0)
(0.12816 -0.00126602 0)
(0.137484 -0.00158101 0)
(0.14536 0.000498325 0)
(0.152806 0.00248718 0)
(0.158342 0.0055356 0)
(0.163818 0.00533899 0)
(0.167117 0.00364911 0)
(0.173309 0.00143348 0)
(0.174859 -0.00396911 0)
(0.183215 -0.00479059 0)
(0.0109071 -0.00541899 0)
(-0.00627128 0.00257383 0)
(0.0213819 0.00566243 0)
(0.0305242 0.00376358 0)
(0.0517053 0.00557933 0)
(0.0657817 0.00670904 0)
(0.0801113 0.00772272 0)
(0.0919491 0.00645981 0)
(0.102995 0.00336707 0)
(0.113493 4.46574e-05 0)
(0.123151 -0.00248536 0)
(0.13277 -0.00270993 0)
(0.140867 -0.000511714 0)
(0.148701 0.00162394 0)
(0.154534 0.00479233 0)
(0.160765 0.00472728 0)
(0.164534 0.0030042 0)
(0.171337 0.000894184 0)
(0.173279 -0.00461513 0)
(0.181689 -0.00534711 0)
(0.000610287 -0.00470651 0)
(-0.0174814 0.00180499 0)
(0.0111051 0.00329335 0)
(0.0211233 0.00166371 0)
(0.0433163 0.00327031 0)
(0.0583375 0.00477957 0)
(0.0737709 0.0059629 0)
(0.0867376 0.00490455 0)
(0.0987587 0.00191823 0)
(0.109925 -0.00129656 0)
(0.119981 -0.00375114 0)
(0.129706 -0.0038635 0)
(0.137871 -0.00155298 0)
(0.145954 0.000722742 0)
(0.151991 0.00398581 0)
(0.158895 0.00404032 0)
(0.163087 0.00229354 0)
(0.170414 0.000292548 0)
(0.172728 -0.0052842 0)
(0.181075 -0.00590621 0)
(-0.00485786 -0.00301207 0)
(-0.0235328 0.00100686 0)
(0.00549093 0.00082782 0)
(0.0159395 -0.000527863 0)
(0.0385701 0.000863904 0)
(0.0541273 0.00273854 0)
(0.0703036 0.00407835 0)
(0.0841193 0.00322907 0)
(0.0968682 0.000377633 0)
(0.108477 -0.00269379 0)
(0.118734 -0.00503713 0)
(0.128372 -0.00501815 0)
(0.136453 -0.0026054 0)
(0.144639 -0.000200554 0)
(0.150781 0.00312834 0)
(0.158256 0.00328801 0)
(0.162811 0.00152635 0)
(0.170558 -0.000362919 0)
(0.173214 -0.00596739 0)
(0.181383 -0.00645977 0)
(-0.00593033 -0.000891322 0)
(-0.0244556 0.000194881 0)
(0.00467672 -0.00165971 0)
(0.015112 -0.00273945 0)
(0.0376185 -0.00157415 0)
(0.053285 0.000639967 0)
(0.0698192 0.0021127 0)
(0.084171 0.00147039 0)
(0.0973744 -0.00122224 0)
(0.109186 -0.00411824 0)
(0.11944 -0.00631733 0)
(0.128806 -0.00615129 0)
(0.136651 -0.00364904 0)
(0.144794 -0.00112939 0)
(0.150938 0.00223368 0)
(0.158863 0.00248217 0)
(0.163713 0.000713415 0)
(0.171762 -0.00106221 0)
(0.174721 -0.00665577 0)
(0.182605 -0.00699971 0)
(-0.00277876 0.00106027 0)
(-0.0202683 -0.000641976 0)
(0.00869098 -0.00413063 0)
(0.0186728 -0.00491065 0)
(0.0405036 -0.00397947 0)
(0.055846 -0.00146202 0)
(0.0723376 0.0001125 0)
(0.0868896 -0.000331986 0)
(0.100259 -0.00284711 0)
(0.112025 -0.00554097 0)
(0.122077 -0.00756694 0)
(0.130997 -0.00724169 0)
(0.138464 -0.00466497 0)
(0.146422 -0.0020476 0)
(0.152464 0.00131678 0)
(0.160705 0.00163586 0)
(0.165771 -0.000132638 0)
(0.173997 -0.00179458 0)
(0.177213 -0.00734011 0)
(0.184712 -0.00751888 0)
(0.00469308 0.002254 0)
(-0.0109732 -0.00151055 0)
(0.0174535 -0.00653715 0)
(0.0265452 -0.00697843 0)
(0.0471558 -0.00628868 0)
(0.0617455 -0.00351167 0)
(0.0777885 -0.00187342 0)
(0.0921937 -0.00213622 0)
(0.105433 -0.00446161 0)
(0.11691 -0.00693309 0)
(0.126569 -0.00876259 0)
(0.134887 -0.00826962 0)
(0.141848 -0.00563552 0)
(0.149487 -0.00293948 0)
(0.155325 0.000393296 0)
(0.163741 0.000763442 0)
(0.16894 -0.000997808 0)
(0.177211 -0.00254829 0)
(0.180631 -0.00801168 0)
(0.18766 -0.00801023 0)
(0.0167835 0.00206204 0)
(0.00344448 -0.00243908 0)
(0.030775 -0.00880515 0)
(0.0385388 -0.00887788 0)
(0.0573927 -0.00843914 0)
(0.07082 -0.00545434 0)
(0.0860146 -0.00379571 0)
(0.0999272 -0.00390011 0)
(0.112746 -0.00603077 0)
(0.123698 -0.00826688 0)
(0.13279 -0.00988297 0)
(0.140374 -0.00921762 0)
(0.146717 -0.00654463 0)
(0.153919 -0.00379006 0)
(0.159459 -0.000520459 0)
(0.167905 -0.000120048 0)
(0.173148 -0.00186758 0)
(0.181334 -0.00331102 0)
(0.1849 -0.00866199 0)
(0.191386 -0.00846794 0)
(0.0338512 -0.000526818 0)
(0.0230248 -0.0035417 0)
(0.0483658 -0.0108699 0)
(0.0543474 -0.0105755 0)
(0.0709214 -0.0103709 0)
(0.0828114 -0.00725299 0)
(0.0967776 -0.0056107 0)
(0.109867 -0.00558839 0)
(0.121987 -0.00752461 0)
(0.132198 -0.00951901 0)
(0.140567 -0.01091 0)
(0.147314 -0.0100731 0)
(0.152949 -0.00737783 0)
(0.159613 -0.00458829 0)
(0.164769 -0.00141036 0)
(0.173105 -0.00100103 0)
(0.178304 -0.00272995 0)
(0.186279 -0.00407251 0)
(0.189928 -0.00928013 0)
(0.195813 -0.00889521 0)