/*--------------------------------*- C++ -*----------------------------------*\
| =========                 |                                                 |
| \\      /  F ield         | OpenFOAM: The Open Source CFD Toolbox           |
|  \\    /   O peration     | Version:  v1806                                 |
|   \\  /    A nd           | Web:      www.OpenFOAM.com                      |
|    \\/     M anipulation  |                                                 |
\*---------------------------------------------------------------------------*/
FoamFile
{
    version     2.0;
    format      ascii;
    class       volScalarField;
    location    "30";
    object      p;
}
// * * * * * * * * * * * * * * * * * * * * * * * * * * * * * * * * * * * * * //

dimensions      [0 2 -2 0 0 0 0];


internalField   nonuniform List<scalar> 
5228
(
0.00321786
0.00321838
0.00321838
0.00321786
0.00349332
0.0034934
0.0034934
0.00349332
0.00346293
0.00346331
0.00346331
0.00346293
0.00374833
0.0037477
0.0037477
0.00374833
0.00542791
0.00542978
0.00542978
0.00542791
0.00501322
0.00501291
0.00501291
0.00501322
0.00447324
0.00447185
0.00447185
0.00447324
0.00466833
0.00466633
0.00466633
0.00466833
0.00608473
0.00608771
0.00608771
0.00608473
0.00667574
0.00667498
0.00667498
0.00667574
0.00549058
0.00549123
0.00549123
0.00549058
0.00787649
0.00787122
0.00787122
0.00787649
0.00799373
0.00798936
0.00798936
0.00799373
0.00850882
0.00851269
0.00851269
0.00850882
0.00779448
0.0077916
0.0077916
0.00779448
0.00767979
0.00767846
0.00767846
0.00767979
0.00472105
0.00472102
0.00472102
0.00472105
0.00469779
0.00469967
0.00469967
0.00469779
0.00508386
0.00508538
0.00508538
0.00508386
0.00689835
0.00689642
0.00689642
0.00689835
0.0063657
0.00636669
0.00636669
0.0063657
0.00754754
0.00755011
0.00755011
0.00754754
0.00828233
0.00828317
0.00828317
0.00828232
0.027767
0.0277772
0.0277772
0.027767
0.0299116
0.0299391
0.0299391
0.0299116
0.00375217
0.00375083
0.00375083
0.00375217
0.00411704
0.00411609
0.00411609
0.00411704
0.00406708
0.00406815
0.00406815
0.00406708
0.0200963
0.0200955
0.0200955
0.0200963
0.0188055
0.0188114
0.0188114
0.0188055
0.0262368
0.0262478
0.0262478
0.0262368
0.0248201
0.0248265
0.0248265
0.0248201
0.0234753
0.0234812
0.0234812
0.0234753
0.0220861
0.0220996
0.0220996
0.0220861
0.0204728
0.0204803
0.0204803
0.0204728
0.0190088
0.019014
0.019014
0.0190088
0.0175661
0.0175707
0.0175707
0.0175661
0.0174143
0.0174189
0.0174189
0.0174143
0.031761
0.0317729
0.0317729
0.031761
0.0261709
0.0261666
0.0261666
0.0261709
0.0264131
0.0264145
0.0264145
0.0264131
0.0259402
0.0259394
0.0259394
0.0259402
0.0253008
0.0253032
0.0253032
0.0253008
0.0243437
0.0243478
0.0243478
0.0243437
0.0231559
0.0231634
0.0231634
0.0231559
0.0218207
0.0218255
0.0218255
0.0218207
0.0204325
0.0204418
0.0204418
0.0204325
0.0189391
0.018943
0.018943
0.0189391
0.0175219
0.017529
0.017529
0.0175219
0.0160815
0.0160888
0.0160888
0.0160815
0.0162103
0.0162169
0.0162169
0.0162103
0.0161192
0.016126
0.016126
0.0161192
0.0158794
0.0158869
0.0158869
0.0158794
0.0171933
0.0171986
0.0171986
0.0171933
0.0185986
0.0186033
0.0186033
0.0185986
0.0200629
0.0200647
0.0200647
0.0200629
0.0217944
0.0218038
0.0218038
0.0217944
0.0230853
0.0230854
0.0230854
0.0230853
0.0241313
0.0241313
0.0241313
0.0241313
0.0251173
0.0251206
0.0251206
0.0251173
0.0257896
0.0257906
0.0257906
0.0257896
0.0264486
0.0264529
0.0264529
0.0264486
0.0266103
0.0266127
0.0266127
0.0266103
0.0243339
0.0243401
0.0243401
0.0243339
0.0218146
0.02181
0.02181
0.0218146
0.0238417
0.0238486
0.0238486
0.0238417
0.0245231
0.0245308
0.0245308
0.0245231
0.0244845
0.0244918
0.0244918
0.0244845
0.0241338
0.0241422
0.0241422
0.0241338
0.0234409
0.02345
0.02345
0.0234409
0.0224565
0.0224664
0.0224664
0.0224565
0.0212749
0.0212801
0.0212801
0.0212749
0.0199947
0.0199999
0.0199999
0.0199947
0.0186088
0.0186153
0.0186153
0.0186088
0.0171678
0.0171757
0.0171757
0.0171678
0.0157679
0.0157738
0.0157738
0.0157679
0.014462
0.0144684
0.0144684
0.014462
0.0147612
0.0147682
0.0147682
0.0147612
0.0149229
0.0149293
0.0149293
0.0149229
0.0148733
0.0148784
0.0148784
0.0148733
0.0146724
0.014678
0.014678
0.0146724
0.0143381
0.0143443
0.0143443
0.0143381
0.015519
0.015526
0.015526
0.015519
0.0168529
0.016859
0.016859
0.0168529
0.0182632
0.0182649
0.0182649
0.0182632
0.0197846
0.0197883
0.0197883
0.0197846
0.0210783
0.0210786
0.0210786
0.0210783
0.0223247
0.022331
0.022331
0.0223247
0.023385
0.0233906
0.0233906
0.023385
0.0242016
0.0242102
0.0242102
0.0242016
0.0248087
0.0248196
0.0248196
0.0248087
0.0252163
0.0252302
0.0252302
0.0252163
0.0251368
0.0251489
0.0251489
0.0251368
0.0268407
0.0268526
0.0268526
0.0268407
0.0241353
0.0241349
0.0241349
0.0241353
0.0204601
0.0204463
0.0204463
0.0204601
0.0176909
0.0176717
0.0176717
0.0176909
0.0029772
0.00297703
0.00297703
0.0029772
0.00292305
0.00292373
0.00292373
0.00292305
0.00417099
0.0041723
0.0041723
0.00417099
0.00394871
0.00394666
0.00394666
0.00394871
0.00381557
0.00381504
0.00381504
0.00381557
0.00419952
0.00420049
0.00420049
0.00419952
0.00422504
0.00422553
0.00422553
0.00422504
0.003816
0.00381566
0.00381566
0.003816
0.00344052
0.00344014
0.00344014
0.00344052
0.00309025
0.00309104
0.00309104
0.00309025
0.00263261
0.00263283
0.00263283
0.00263261
0.00264513
0.00264497
0.00264497
0.00264513
0.00268018
0.00268008
0.00268008
0.00268018
0.00317191
0.00317179
0.00317179
0.00317191
0.00287951
0.00287973
0.00287973
0.00287951
0.00257515
0.0025751
0.0025751
0.00257515
0.00606442
0.00606262
0.00606262
0.00606442
0.0067454
0.00674585
0.00674585
0.0067454
0.00730417
0.00730424
0.00730424
0.00730417
0.00725015
0.00724875
0.00724875
0.00725015
0.00668089
0.00667894
0.00667894
0.00668089
0.00605932
0.00605885
0.00605885
0.00605932
0.00539082
0.0053895
0.0053895
0.00539082
0.00478171
0.00478009
0.00478009
0.00478171
0.00429863
0.00429873
0.00429873
0.00429863
0.00384657
0.00384605
0.00384605
0.00384657
0.0034381
0.00343818
0.00343818
0.0034381
0.0030431
0.00304266
0.00304266
0.0030431
0.00268225
0.00268239
0.00268239
0.00268225
0.00228502
0.0022851
0.0022851
0.00228502
0.00232577
0.00232594
0.00232594
0.00232577
0.00233538
0.00233536
0.00233536
0.00233538
0.00234529
0.00234541
0.00234541
0.00234529
0.00233377
0.00233375
0.00233375
0.00233377
0.00432513
0.00432417
0.00432417
0.00432513
0.00410487
0.00410586
0.00410586
0.00410487
0.00379281
0.00379262
0.00379262
0.00379281
0.00345801
0.00345797
0.00345797
0.00345801
0.0031452
0.00314539
0.00314539
0.0031452
0.00283852
0.00283884
0.00283884
0.00283852
0.00253238
0.00253276
0.00253276
0.00253238
0.00223581
0.00223607
0.00223607
0.00223581
0.00844046
0.0084395
0.0084395
0.00844046
0.00959038
0.00958994
0.00958994
0.00959038
0.0109223
0.0109225
0.0109225
0.0109223
0.0127867
0.0127877
0.0127877
0.0127867
0.0153713
0.0153852
0.0153852
0.0153713
0.0176335
0.0176343
0.0176343
0.0176335
0.020447
0.0204426
0.0204426
0.020447
0.0220267
0.0220244
0.0220244
0.0220267
0.0227386
0.0227403
0.0227403
0.0227386
0.0229773
0.022979
0.022979
0.0229773
0.0228065
0.0228091
0.0228091
0.0228065
0.0222605
0.0222647
0.0222647
0.0222605
0.0214
0.0214048
0.0214048
0.0214
0.020312
0.0203105
0.0203105
0.020312
0.019103
0.0191038
0.0191038
0.019103
0.0177125
0.0177145
0.0177145
0.0177125
0.016329
0.0163342
0.0163342
0.016329
0.0150204
0.0150261
0.0150261
0.0150204
0.0138482
0.0138541
0.0138541
0.0138482
0.00503346
0.00503379
0.00503379
0.00503346
0.00454765
0.00454695
0.00454695
0.00454765
0.00416131
0.00416148
0.00416148
0.00416131
0.00377893
0.003779
0.003779
0.00377893
0.00340895
0.00340898
0.00340898
0.00340895
0.00306869
0.00306883
0.00306883
0.00306869
0.00275206
0.00275225
0.00275225
0.00275206
0.00245441
0.00245469
0.00245469
0.00245441
0.00215457
0.00215477
0.00215477
0.00215457
0.00188134
0.0018815
0.0018815
0.00188134
0.00195717
0.00195735
0.00195735
0.00195717
0.00200807
0.00200818
0.00200818
0.00200807
0.00204564
0.00204583
0.00204583
0.00204564
0.00205157
0.00205157
0.00205157
0.00205157
0.00204465
0.00204474
0.00204474
0.00204465
0.00202025
0.00202033
0.00202033
0.00202025
0.00197348
0.00197359
0.00197359
0.00197348
0.00228441
0.00228449
0.00228449
0.00228441
0.00262329
0.00262335
0.00262335
0.00262329
0.00299655
0.00299679
0.00299679
0.00299655
0.00339783
0.00339794
0.00339794
0.00339783
0.00383404
0.00383389
0.00383389
0.00383404
0.00431147
0.00431121
0.00431121
0.00431147
0.0048417
0.00484055
0.00484055
0.0048417
0.00546884
0.00546889
0.00546889
0.00546884
0.00611876
0.00611823
0.00611823
0.00611876
0.00681285
0.00681218
0.00681218
0.00681285
0.00752817
0.00752785
0.00752785
0.00752817
0.00820999
0.00820874
0.00820874
0.00820999
0.00893324
0.00893325
0.00893326
0.00893324
0.00956442
0.0095702
0.0095702
0.00956442
0.00967719
0.00967179
0.00967179
0.00967719
0.0108299
0.0108281
0.0108281
0.0108299
0.0126762
0.0126794
0.0126794
0.0126762
0.0150949
0.0150892
0.0150892
0.0150949
0.0185931
0.0185834
0.0185834
0.0185931
0.0208081
0.0208045
0.0208045
0.0208081
0.0219192
0.0219181
0.0219181
0.0219192
0.0225335
0.0225352
0.0225352
0.0225335
0.0225862
0.0225909
0.0225909
0.0225862
0.0222109
0.0222175
0.0222175
0.0222109
0.021464
0.02147
0.02147
0.021464
0.0204642
0.0204675
0.0204675
0.0204642
0.0192861
0.0192899
0.0192899
0.0192861
0.0179523
0.0179579
0.0179579
0.0179523
0.0165791
0.0165847
0.0165847
0.0165791
0.0152494
0.015254
0.015254
0.0152494
0.0139829
0.0139887
0.0139887
0.0139829
0.0127996
0.0128043
0.0128043
0.0127996
0.0132634
0.0132686
0.0132686
0.0132634
0.0135819
0.0135878
0.0135878
0.0135819
0.0137563
0.0137617
0.0137617
0.0137563
0.0137546
0.0137599
0.0137599
0.0137546
0.0135766
0.0135823
0.0135823
0.0135766
0.0132522
0.0132573
0.0132573
0.0132522
0.012762
0.0127667
0.0127667
0.012762
0.00163108
0.00163118
0.00163118
0.00163108
0.00170051
0.00170062
0.00170062
0.00170051
0.0017492
0.00174927
0.00174927
0.0017492
0.00178223
0.00178235
0.00178235
0.00178223
0.00178846
0.00178851
0.00178851
0.00178846
0.00176952
0.00176956
0.00176956
0.00176952
0.00174037
0.00174045
0.00174045
0.00174037
0.00169622
0.00169633
0.00169633
0.00169622
0.001631
0.00163104
0.00163104
0.001631
0.00190255
0.0019026
0.0019026
0.00190255
0.00220217
0.00220223
0.00220223
0.00220217
0.00253482
0.00253485
0.00253485
0.00253482
0.00290501
0.002905
0.002905
0.00290501
0.00330767
0.00330773
0.00330773
0.00330767
0.00374824
0.00374808
0.00374808
0.00374824
0.00424089
0.00424039
0.00424039
0.00424089
0.00478627
0.00478498
0.00478498
0.00478627
0.00540025
0.00539929
0.00539929
0.00540025
0.00607334
0.0060724
0.0060724
0.00607334
0.00680763
0.00680618
0.00680619
0.00680763
0.0075821
0.00758081
0.00758081
0.0075821
0.00833694
0.00833532
0.00833532
0.00833694
0.00909075
0.00908857
0.00908857
0.00909075
0.00980614
0.00980362
0.00980362
0.00980614
0.0105648
0.0105611
0.0105611
0.0105648
0.0115737
0.0115635
0.0115635
0.0115737
0.0131902
0.0131828
0.0131828
0.0131902
0.0151558
0.0151577
0.0151577
0.0151558
0.0171154
0.0171142
0.0171142
0.0171154
0.0188989
0.018898
0.018898
0.0188989
0.0200351
0.0200365
0.0200365
0.0200351
0.0207618
0.0207644
0.0207644
0.0207618
0.0210259
0.021029
0.021029
0.0210259
0.0208551
0.0208602
0.0208602
0.0208551
0.0203002
0.0203068
0.0203068
0.0203002
0.0194406
0.0194457
0.0194457
0.0194406
0.0183577
0.0183637
0.0183637
0.0183577
0.0171009
0.0171071
0.0171071
0.0171009
0.0158006
0.0158067
0.0158067
0.0158006
0.0145349
0.0145398
0.0145398
0.0145349
0.0133425
0.0133476
0.0133476
0.0133425
0.0121851
0.0121894
0.0121894
0.0121851
0.0111624
0.0111658
0.0111658
0.0111624
0.0117485
0.0117522
0.0117522
0.0117485
0.0122083
0.0122122
0.0122122
0.0122083
0.0125256
0.0125295
0.0125295
0.0125256
0.0126967
0.0127003
0.0127003
0.0126967
0.0127009
0.0127044
0.0127044
0.0127009
0.0125387
0.0125422
0.0125422
0.0125387
0.0122319
0.0122355
0.0122355
0.0122319
0.011768
0.011772
0.011772
0.011768
0.0111486
0.0111526
0.0111526
0.0111486
0.0121087
0.0121125
0.0121125
0.0121087
0.0131694
0.0131744
0.0131744
0.0131694
0.0143166
0.0143219
0.0143219
0.0143166
0.0155961
0.0156027
0.0156027
0.0155961
0.0169223
0.0169268
0.0169268
0.0169223
0.0182088
0.0182126
0.0182126
0.0182088
0.0193569
0.0193596
0.0193596
0.0193569
0.0203029
0.0203071
0.0203071
0.0203029
0.020969
0.0209728
0.0209728
0.020969
0.0212948
0.0212992
0.0212992
0.0212948
0.0212512
0.021255
0.021255
0.0212512
0.0208308
0.0208346
0.0208346
0.0208308
0.02003
0.0200338
0.0200338
0.02003
0.0186589
0.018664
0.018664
0.0186589
0.0168264
0.0168335
0.0168335
0.0168264
0.0148009
0.0148
0.0148
0.0148009
0.0128808
0.0128775
0.0128775
0.0128808
0.0112708
0.011271
0.011271
0.0112708
0.00989113
0.00988632
0.00988632
0.00989113
0.00912733
0.00912974
0.00912974
0.00912733
0.00530066
0.0053008
0.0053008
0.00530066
0.00468021
0.00468031
0.00468031
0.00468021
0.00419029
0.00419066
0.00419066
0.00419029
0.00374009
0.00374026
0.00374026
0.00374009
0.00333136
0.00333149
0.00333149
0.00333136
0.00296769
0.00296759
0.00296759
0.00296769
0.00264261
0.00264273
0.00264273
0.00264261
0.00233934
0.00233964
0.00233964
0.00233934
0.00205283
0.00205305
0.00205305
0.00205283
0.00178331
0.00178348
0.00178348
0.00178331
0.00154531
0.00154545
0.00154545
0.00154531
0.00154022
0.00154028
0.00154028
0.00154022
0.00179993
0.00180001
0.00180001
0.00179993
0.00208599
0.00208609
0.00208609
0.00208599
0.00240392
0.00240395
0.00240395
0.00240392
0.00275912
0.00275893
0.00275893
0.00275912
0.00315332
0.00315322
0.00315322
0.00315332
0.003592
0.00359198
0.00359198
0.003592
0.00408343
0.00408303
0.00408303
0.00408343
0.00463794
0.00463697
0.00463697
0.00463794
0.00525889
0.00525823
0.00525823
0.00525889
0.00596229
0.00596202
0.00596202
0.00596229
0.00673434
0.0067343
0.0067343
0.00673434
0.00755579
0.00755585
0.00755585
0.00755579
0.00841676
0.00841693
0.00841693
0.00841676
0.00930187
0.00930313
0.00930313
0.00930188
0.0101558
0.0101586
0.0101586
0.0101558
0.0109976
0.0109995
0.0109995
0.0109976
0.0119439
0.0119425
0.0119425
0.0119439
0.0131415
0.0131377
0.0131377
0.0131415
0.0145635
0.0145608
0.0145608
0.0145635
0.0159817
0.0159795
0.0159795
0.0159817
0.0173695
0.0173688
0.0173688
0.0173695
0.0184144
0.0184157
0.0184157
0.0184144
0.0191247
0.0191281
0.0191281
0.0191247
0.0194337
0.0194358
0.0194358
0.0194337
0.0193642
0.0193672
0.0193672
0.0193642
0.0189311
0.0189337
0.0189337
0.0189311
0.0181908
0.0181914
0.0181914
0.0181908
0.0172087
0.0172109
0.0172109
0.0172087
0.0160401
0.0160429
0.0160429
0.0160401
0.0148319
0.0148354
0.0148354
0.0148319
0.0136358
0.0136402
0.0136402
0.0136358
0.0124849
0.0124892
0.0124892
0.0124849
0.0114449
0.0114485
0.0114485
0.0114449
0.0104487
0.0104524
0.0104524
0.0104487
0.00954487
0.00954845
0.00954845
0.00954487
0.0102451
0.0102485
0.0102485
0.0102451
0.0108223
0.0108255
0.0108255
0.0108223
0.0112654
0.0112683
0.0112683
0.0112654
0.0115686
0.0115721
0.0115721
0.0115686
0.0117251
0.0117287
0.0117287
0.0117251
0.0117316
0.0117352
0.0117352
0.0117316
0.0115932
0.0115968
0.0115968
0.0115932
0.0112991
0.0113028
0.0113028
0.0112991
0.0108529
0.0108568
0.0108568
0.0108529
0.0102511
0.0102553
0.0102553
0.0102511
0.00953095
0.00953458
0.00953458
0.00953095
0.010377
0.0103804
0.0103804
0.010377
0.0113093
0.0113126
0.0113126
0.0113093
0.012333
0.0123368
0.0123368
0.012333
0.0134343
0.0134379
0.0134379
0.0134343
0.0146386
0.0146422
0.0146422
0.0146386
0.0158752
0.0158765
0.0158765
0.0158752
0.0170687
0.0170681
0.0170681
0.0170687
0.0181245
0.0181231
0.0181231
0.0181245
0.0189612
0.0189606
0.0189606
0.0189612
0.0194923
0.0194933
0.0194933
0.0194923
0.0197091
0.0197137
0.0197137
0.0197091
0.019566
0.0195703
0.0195703
0.019566
0.0190769
0.0190792
0.0190792
0.0190769
0.0182416
0.0182452
0.0182452
0.0182416
0.0171282
0.0171335
0.0171335
0.0171282
0.0157198
0.0157233
0.0157233
0.0157198
0.0141729
0.0141722
0.0141722
0.0141729
0.0127105
0.0127097
0.0127097
0.0127105
0.0114022
0.0114041
0.0114041
0.0114022
0.0102745
0.0102753
0.0102753
0.0102745
0.00933388
0.00933508
0.00933508
0.00933388
0.00844037
0.00844163
0.00844163
0.00844037
0.00757487
0.00757405
0.00757405
0.00757487
0.00678495
0.0067859
0.0067859
0.00678495
0.00600962
0.00600984
0.00600984
0.00600962
0.00526828
0.0052677
0.0052677
0.00526828
0.0046482
0.00464797
0.00464797
0.0046482
0.00411702
0.00411707
0.00411707
0.00411702
0.00364831
0.00364847
0.00364847
0.00364831
0.00321911
0.0032193
0.0032193
0.00321911
0.0028369
0.00283714
0.00283714
0.0028369
0.00250695
0.00250734
0.00250734
0.00250695
0.0022071
0.00220756
0.00220756
0.0022071
0.00192714
0.00192752
0.00192752
0.00192714
0.00167316
0.00167348
0.00167348
0.00167316
0.00144439
0.00144457
0.00144457
0.00144439
0.00123232
0.00123242
0.00123242
0.00123232
0.00132438
0.00132444
0.00132444
0.00132438
0.001401
0.00140104
0.00140104
0.001401
0.00146071
0.00146075
0.00146075
0.00146071
0.0015038
0.00150381
0.00150381
0.0015038
0.00153098
0.00153104
0.00153104
0.00153098
0.00153641
0.00153645
0.00153645
0.00153641
0.00152181
0.00152189
0.00152189
0.00152181
0.0014914
0.00149146
0.00149146
0.0014914
0.00144617
0.00144619
0.00144619
0.00144617
0.00138314
0.00138315
0.00138315
0.00138314
0.00130169
0.00130172
0.00130172
0.00130169
0.00877556
0.00877776
0.00877776
0.00877556
0.00945657
0.00945844
0.00945844
0.00945657
0.0100136
0.0100157
0.0100157
0.0100136
0.0104349
0.0104375
0.0104375
0.0104349
0.0107178
0.0107206
0.0107206
0.0107178
0.0108637
0.0108666
0.0108666
0.0108637
0.0108711
0.0108741
0.0108741
0.0108711
0.0107369
0.0107398
0.0107398
0.0107369
0.0104646
0.0104678
0.0104678
0.0104646
0.0100402
0.0100439
0.0100439
0.0100402
0.00947159
0.00947533
0.00947533
0.00947159
0.00878889
0.00879229
0.00879229
0.00878889
0.00798709
0.00799042
0.00799042
0.00798709
0.00868874
0.00869227
0.00869227
0.00868874
0.00949324
0.00949599
0.00949599
0.00949324
0.0103684
0.0103703
0.0103703
0.0103684
0.0113126
0.0113156
0.0113156
0.0113126
0.0123579
0.0123623
0.0123623
0.0123579
0.013503
0.0135093
0.0135093
0.013503
0.0147002
0.0147062
0.0147062
0.0147002
0.0158407
0.0158455
0.0158455
0.0158407
0.0168188
0.0168235
0.0168235
0.0168188
0.0175512
0.0175566
0.0175566
0.0175512
0.0179831
0.0179882
0.0179882
0.0179831
0.0180976
0.0181033
0.0181033
0.0180976
0.017904
0.0179095
0.0179095
0.017904
0.0173629
0.0173669
0.0173669
0.0173629
0.0165718
0.0165777
0.0165777
0.0165718
0.0156458
0.0156518
0.0156518
0.0156458
0.0145502
0.0145537
0.0145537
0.0145502
0.0133725
0.0133729
0.0133729
0.0133725
0.0122114
0.0122116
0.0122116
0.0122114
0.0111355
0.011137
0.011137
0.0111355
0.0101306
0.0101306
0.0101306
0.0101306
0.00920535
0.00920564
0.00920564
0.00920535
0.00832051
0.00832196
0.00832196
0.00832051
0.00746407
0.00746548
0.00746548
0.00746407
0.00664997
0.00665068
0.00665068
0.00664997
0.00587395
0.00587429
0.00587429
0.00587395
0.00512995
0.00512971
0.00512971
0.00512995
0.00448875
0.00448888
0.00448888
0.00448875
0.00394156
0.00394203
0.00394203
0.00394156
0.00346171
0.00346227
0.00346227
0.00346171
0.00303829
0.00303882
0.00303882
0.00303829
0.00266076
0.00266121
0.00266121
0.00266076
0.00233049
0.00233095
0.00233095
0.00233049
0.00203704
0.00203756
0.00203756
0.00203704
0.00177509
0.00177548
0.00177548
0.00177509
0.00153626
0.00153653
0.00153653
0.00153626
0.0013204
0.00132058
0.00132058
0.0013204
0.00112324
0.00112335
0.00112335
0.00112324
0.000942502
0.00094255
0.00094255
0.000942502
0.00103836
0.00103839
0.00103839
0.00103836
0.00111833
0.00111835
0.00111835
0.00111833
0.00118439
0.00118439
0.00118439
0.00118439
0.00123578
0.00123579
0.00123579
0.00123578
0.00127215
0.00127216
0.00127216
0.00127215
0.00129297
0.00129301
0.00129301
0.00129297
0.00129783
0.00129786
0.00129786
0.00129783
0.00128657
0.0012866
0.0012866
0.00128657
0.00126062
0.00126065
0.00126065
0.00126062
0.00121798
0.00121798
0.00121798
0.00121798
0.00116044
0.00116044
0.00116044
0.00116044
0.00108536
0.00108533
0.00108533
0.00108536
0.000995021
0.000994995
0.000994995
0.000995021
0.00119636
0.00119634
0.00119634
0.00119636
0.00141655
0.00141658
0.00141658
0.00141655
0.0016591
0.00165919
0.00165919
0.0016591
0.00192655
0.00192667
0.00192667
0.00192655
0.00222399
0.00222404
0.00222404
0.00222399
0.00255772
0.00255762
0.00255762
0.00255772
0.00293505
0.00293488
0.00293488
0.00293505
0.00335808
0.00335789
0.00335789
0.00335808
0.00383173
0.00383124
0.00383124
0.00383173
0.004374
0.004373
0.004373
0.004374
0.00499169
0.00499097
0.00499097
0.00499169
0.00568129
0.00568061
0.00568061
0.00568129
0.00644488
0.00644409
0.00644409
0.00644488
0.00725108
0.00725039
0.00725039
0.00725108
0.00810955
0.00810845
0.00810845
0.00810955
0.00900106
0.00899976
0.00899976
0.00900106
0.00988539
0.0098844
0.0098844
0.00988539
0.0107685
0.0107673
0.0107673
0.0107685
0.0116717
0.0116702
0.0116702
0.0116717
0.0126354
0.0126349
0.0126349
0.0126354
0.0136949
0.0136932
0.0136932
0.0136949
0.0148453
0.0148431
0.0148431
0.0148453
0.0159693
0.0159693
0.0159693
0.0159693
0.0168668
0.016869
0.016869
0.0168668
0.0174929
0.0174977
0.0174977
0.0174929
0.0178279
0.0178327
0.0178327
0.0178279
0.0178532
0.0178598
0.0178598
0.0178532
0.0175191
0.0175272
0.0175272
0.0175191
0.0168826
0.0168899
0.0168899
0.0168826
0.0159821
0.0159888
0.0159888
0.0159821
0.0148775
0.0148844
0.0148844
0.0148775
0.0136894
0.0136965
0.0136965
0.0136894
0.0125295
0.0125357
0.0125357
0.0125295
0.0114527
0.0114572
0.0114572
0.0114527
0.0104674
0.010471
0.010471
0.0104674
0.00956841
0.00957201
0.00957201
0.00956841
0.00872462
0.00872806
0.00872806
0.00872462
0.00798931
0.00799174
0.00799174
0.00798931
0.00705054
0.00705429
0.00705429
0.00705054
0.00770753
0.00771113
0.00771113
0.00770753
0.00845944
0.0084619
0.0084619
0.00845944
0.00926266
0.00926396
0.00926396
0.00926266
0.0101416
0.0101431
0.0101431
0.0101416
0.0111168
0.0111187
0.0111187
0.0111168
0.0121808
0.0121824
0.0121824
0.0121808
0.0132669
0.0132669
0.0132669
0.0132669
0.0142835
0.0142816
0.0142816
0.0142835
0.0151487
0.0151467
0.0151467
0.0151487
0.0158031
0.0158028
0.0158028
0.0158031
0.0161937
0.0161953
0.0161953
0.0161937
0.0162925
0.0162956
0.0162956
0.0162925
0.0161185
0.0161226
0.0161226
0.0161185
0.0156335
0.0156376
0.0156376
0.0156335
0.0149597
0.0149652
0.0149652
0.0149597
0.0141554
0.0141603
0.0141603
0.0141554
0.0132745
0.0132766
0.0132766
0.0132745
0.0123229
0.0123228
0.0123228
0.0123229
0.0113598
0.0113594
0.0113594
0.0113598
0.0104567
0.0104574
0.0104574
0.0104567
0.00956615
0.00956636
0.00956636
0.00956615
0.00869693
0.00869757
0.00869757
0.00869693
0.00785801
0.00785953
0.00785953
0.00785801
0.00703907
0.00704037
0.00704037
0.00703907
0.0062413
0.00624168
0.00624168
0.0062413
0.00548334
0.00548314
0.00548314
0.00548334
0.00478949
0.00478919
0.00478919
0.00478949
0.00416707
0.00416712
0.00416712
0.00416707
0.00363753
0.00363776
0.00363776
0.00363753
0.00317533
0.00317561
0.00317561
0.00317533
0.00276819
0.00276848
0.00276848
0.00276819
0.00241192
0.00241219
0.00241219
0.00241192
0.00209993
0.00210033
0.00210033
0.00209993
0.00182755
0.00182795
0.00182795
0.00182755
0.00158466
0.001585
0.001585
0.00158466
0.00136813
0.00136836
0.00136836
0.00136813
0.00117285
0.001173
0.001173
0.00117285
0.00099695
0.000997047
0.000997047
0.00099695
0.000833804
0.000833846
0.000833846
0.000833804
0.000684702
0.000684692
0.000684692
0.000684702
0.000776702
0.000776696
0.000776696
0.000776702
0.000859655
0.000859625
0.000859625
0.000859655
0.00092559
0.000925551
0.000925551
0.00092559
0.000980778
0.000980755
0.000980755
0.000980778
0.00102293
0.00102292
0.00102292
0.00102293
0.00105241
0.00105244
0.00105244
0.00105241
0.00106878
0.00106881
0.00106881
0.00106878
0.00107247
0.0010725
0.0010725
0.00107247
0.00106334
0.00106336
0.00106336
0.00106334
0.00104119
0.00104123
0.00104123
0.00104119
0.00100483
0.00100483
0.00100483
0.00100483
0.000955397
0.000955401
0.000955401
0.000955397
0.000891161
0.000891144
0.000891144
0.000891161
0.000812917
0.000812873
0.000812873
0.000812917
0.000723136
0.000723074
0.000723074
0.000723136
0.000886777
0.000886745
0.000886745
0.000886777
0.00106633
0.00106632
0.00106632
0.00106633
0.0012638
0.00126382
0.00126382
0.0012638
0.001481
0.00148107
0.00148107
0.001481
0.00172259
0.00172268
0.00172268
0.00172259
0.00199425
0.00199433
0.00199433
0.00199425
0.00230153
0.00230155
0.00230155
0.00230153
0.00265049
0.00265046
0.00265046
0.00265049
0.00304359
0.00304358
0.00304358
0.00304359
0.00348942
0.00348908
0.00348908
0.00348942
0.00399798
0.00399701
0.00399701
0.00399798
0.00458366
0.00458284
0.00458284
0.00458366
0.00522989
0.00522902
0.00522902
0.00522989
0.00594716
0.00594614
0.00594614
0.00594716
0.00672967
0.00672906
0.00672906
0.00672967
0.00755346
0.00755321
0.00755321
0.00755347
0.00841168
0.00841146
0.00841146
0.00841168
0.00926457
0.00926418
0.00926418
0.00926457
0.0101096
0.0101084
0.0101084
0.0101096
0.0109457
0.0109448
0.0109448
0.0109457
0.0117814
0.0117815
0.0117815
0.0117814
0.0126481
0.0126472
0.0126472
0.0126481
0.0135814
0.0135806
0.0135806
0.0135814
0.0144777
0.0144782
0.0144782
0.0144777
0.015225
0.0152266
0.0152266
0.015225
0.0157673
0.0157704
0.0157704
0.0157673
0.01606
0.0160635
0.0160635
0.01606
0.0160625
0.0160653
0.0160653
0.0160625
0.0157563
0.0157578
0.0157578
0.0157563
0.0151759
0.0151748
0.0151748
0.0151759
0.0143754
0.014374
0.014374
0.0143754
0.0133989
0.0133989
0.0133989
0.0133989
0.0123252
0.0123267
0.0123267
0.0123252
0.0112547
0.0112571
0.0112571
0.0112547
0.0102527
0.0102556
0.0102556
0.0102527
0.00933105
0.00933406
0.00933406
0.00933105
0.00851156
0.00851451
0.00851451
0.00851156
0.00776005
0.00776419
0.00776419
0.00776005
0.0070718
0.00707554
0.00707554
0.0070718
0.00651243
0.00651259
0.00651259
0.00651243
0.00739014
0.00738943
0.00738943
0.00739014
0.00815675
0.00815606
0.00815606
0.00815675
0.00880871
0.00880822
0.00880822
0.00880871
0.00933233
0.00933223
0.00933223
0.00933233
0.00973084
0.00973154
0.00973154
0.00973084
0.0100017
0.0100029
0.0100029
0.0100017
0.0101399
0.0101412
0.0101412
0.0101399
0.0101447
0.0101459
0.0101459
0.0101447
0.0100156
0.0100168
0.0100168
0.0100156
0.00975136
0.00975268
0.00975268
0.00975136
0.00935051
0.00935191
0.00935191
0.00935051
0.00881709
0.00881846
0.00881846
0.00881709
0.00817661
0.00817785
0.00817785
0.00817661
0.0074172
0.00741907
0.00741907
0.0074172
0.00650271
0.00650559
0.00650559
0.00650271
0.000547468
0.000547446
0.000547446
0.000547468
0.000623643
0.000623628
0.000623628
0.000623643
0.000689908
0.000689936
0.000689936
0.000689908
0.000743787
0.000743766
0.000743766
0.000743787
0.000787566
0.000787576
0.000787576
0.000787566
0.000820853
0.00082086
0.00082086
0.000820853
0.000843975
0.000843994
0.000843994
0.000843975
0.000856975
0.000856998
0.000856998
0.000856975
0.000859718
0.00085974
0.00085974
0.000859718
0.00085201
0.00085203
0.00085203
0.00085201
0.000833704
0.000833728
0.000833728
0.000833704
0.00080436
0.000804382
0.000804382
0.00080436
0.000763492
0.000763481
0.000763481
0.000763492
0.000711295
0.000711265
0.000711265
0.000711295
0.000646996
0.000646944
0.000646944
0.000646996
0.000574099
0.00057403
0.00057403
0.000574099
0.000489885
0.000489794
0.000489794
0.000489885
0.000619744
0.000619695
0.000619695
0.000619744
0.000759861
0.000759818
0.000759818
0.000759861
0.000913837
0.000913836
0.000913836
0.000913837
0.00108175
0.00108178
0.00108178
0.00108175
0.00126885
0.00126891
0.00126891
0.00126885
0.00147891
0.00147897
0.00147897
0.00147891
0.00171678
0.00171683
0.00171683
0.00171678
0.00198748
0.0019875
0.0019875
0.00198748
0.00229657
0.00229659
0.00229659
0.00229657
0.00264877
0.00264882
0.00264882
0.00264877
0.00304868
0.00304853
0.00304853
0.00304868
0.00351005
0.00350945
0.00350945
0.00351005
0.00403217
0.00403158
0.00403158
0.00403217
0.00461734
0.00461661
0.00461661
0.00461734
0.00526808
0.00526723
0.00526723
0.00526808
0.00598242
0.0059817
0.0059817
0.00598242
0.00673976
0.00673946
0.00673946
0.00673976
0.0075237
0.00752389
0.00752389
0.0075237
0.00831406
0.00831428
0.00831428
0.00831406
0.00908458
0.00908444
0.00908444
0.00908458
0.00983499
0.00983513
0.00983513
0.00983499
0.0105639
0.0105643
0.0105643
0.0105639
0.0113042
0.0113041
0.0113041
0.0113042
0.0120771
0.0120778
0.0120778
0.0120771
0.0128028
0.0128051
0.0128051
0.0128028
0.0134428
0.0134466
0.0134466
0.0134428
0.0139312
0.013938
0.013938
0.0139312
0.0142107
0.01422
0.01422
0.0142107
0.0142577
0.0142673
0.0142673
0.0142577
0.0140249
0.014035
0.014035
0.0140249
0.0135055
0.0135151
0.0135151
0.0135055
0.0127362
0.0127456
0.0127456
0.0127362
0.0117885
0.0117966
0.0117966
0.0117885
0.0107682
0.0107737
0.0107737
0.0107682
0.00976827
0.00977156
0.00977156
0.00976827
0.00884592
0.00884857
0.00884857
0.00884592
0.00803465
0.00803658
0.00803658
0.00803465
0.00730104
0.00730386
0.00730386
0.00730104
0.00662791
0.00663231
0.00663231
0.00662791
0.00602425
0.00602834
0.00602834
0.00602425
0.00553045
0.00553104
0.00553104
0.00553044
0.00515173
0.00514888
0.00514888
0.00515173
0.00608314
0.00608013
0.00608013
0.00608314
0.00692229
0.00691935
0.00691935
0.00692229
0.00765611
0.00765337
0.00765337
0.00765611
0.00827385
0.00827165
0.00827165
0.00827385
0.00877411
0.00877252
0.00877252
0.00877411
0.00915339
0.0091524
0.0091524
0.00915339
0.00941026
0.00940965
0.00940965
0.00941026
0.00954154
0.00954107
0.00954107
0.00954154
0.00954579
0.00954532
0.00954532
0.00954579
0.00942083
0.00942025
0.00942025
0.00942083
0.00916729
0.00916637
0.00916637
0.00916729
0.00878849
0.00878735
0.00878735
0.00878849
0.00829013
0.00828884
0.00828884
0.00829013
0.00767126
0.00767092
0.00767092
0.00767126
0.00692976
0.00693079
0.00693079
0.00692976
0.0060945
0.00609581
0.00609581
0.0060945
0.00513261
0.00513524
0.00513524
0.00513261
0.00552858
0.0055312
0.0055312
0.00552858
0.00601895
0.00602127
0.00602127
0.00601895
0.00659393
0.00659582
0.00659582
0.00659393
0.00725231
0.00725401
0.00725401
0.00725231
0.00797591
0.00797725
0.00797725
0.00797591
0.00876514
0.00876646
0.00876646
0.00876514
0.00965745
0.00965982
0.00965982
0.00965745
0.0106442
0.0106489
0.0106489
0.0106442
0.011669
0.0116762
0.0116762
0.011669
0.0126459
0.0126544
0.0126544
0.0126459
0.0134753
0.0134846
0.0134846
0.0134753
0.014077
0.014087