/*--------------------------------*- C++ -*----------------------------------*\
| =========                 |                                                 |
| \\      /  F ield         | OpenFOAM: The Open Source CFD Toolbox           |
|  \\    /   O peration     | Version:  v1806                                 |
|   \\  /    A nd           | Web:      www.OpenFOAM.com                      |
|    \\/     M anipulation  |                                                 |
\*---------------------------------------------------------------------------*/
FoamFile
{
    version     2.0;
    format      ascii;
    class       volScalarField;
    location    "230";
    object      p;
}
// * * * * * * * * * * * * * * * * * * * * * * * * * * * * * * * * * * * * * //

dimensions      [0 2 -2 0 0 0 0];


internalField   nonuniform List<scalar> 
2400
(
0.000321528
0.000320483
0.000318161
0.00031454
0.000309663
0.000303579
0.000296324
0.000287928
0.000278426
0.000267863
0.000256295
0.000243789
0.000230426
0.000216291
0.000201489
0.000186111
0.00017029
0.000154007
0.000137571
0.00012063
0.000969276
0.000966498
0.000960211
0.000950243
0.000936666
0.0009196
0.000899134
0.000875344
0.000848321
0.000818187
0.00078509
0.000749216
0.000710778
0.00067003
0.000627255
0.000582784
0.000536968
0.000490252
0.000443104
0.000396243
0.00162932
0.0016248
0.00161452
0.00159816
0.00157581
0.00154762
0.00151374
0.00147426
0.00142931
0.00137908
0.00132378
0.00126371
0.00119921
0.00113069
0.00105861
0.000983561
0.000906087
0.000826994
0.000746799
0.000667109
0.00230941
0.0023031
0.00228875
0.00226589
0.0022346
0.00219509
0.0021475
0.00209195
0.00202857
0.00195756
0.00187921
0.0017939
0.00170206
0.00160427
0.00150115
0.00139354
0.0012822
0.00116836
0.00105268
0.000937917
0.00301744
0.00300932
0.00299086
0.00296143
0.00292111
0.00287011
0.00280855
0.00273651
0.00265409
0.00256149
0.00245899
0.00234702
0.00222609
0.0020969
0.00196024
0.00181718
0.00166874
0.00151662
0.00136164
0.00120783
0.00376139
0.00375146
0.00372892
0.00369294
0.00364357
0.003581
0.00350526
0.00341635
0.00331426
0.00319912
0.00307115
0.00293076
0.00277848
0.0026151
0.00244153
0.00225912
0.00206909
0.00187375
0.00167404
0.00147563
0.00454918
0.00453751
0.004511
0.00446866
0.00441045
0.00433646
0.00424659
0.00414065
0.00401844
0.00387991
0.00372513
0.00355437
0.00336811
0.00316713
0.00295244
0.00272562
0.0024881
0.00224292
0.00199113
0.00174056
0.00538847
0.0053752
0.00534504
0.00529683
0.00523039
0.00514563
0.00504219
0.00491957
0.00477728
0.00461491
0.00443223
0.00422923
0.00400616
0.0037637
0.0035028
0.00322525
0.00293266
0.00262891
0.00231516
0.0020021
0.00628625
0.00627167
0.0062385
0.00618541
0.006112
0.00601789
0.00590233
0.00576436
0.00560295
0.00541716
0.00520621
0.00496959
0.00470705
0.00441895
0.00410598
0.00377003
0.00341276
0.00303907
0.00265015
0.00226048
0.00724822
0.00723282
0.00719775
0.00714152
0.00706342
0.00696263
0.00683781
0.00668732
0.00650936
0.00630216
0.00606404
0.00579359
0.00548973
0.00515207
0.0047807
0.00437732
0.0039434
0.00348495
0.00300312
0.0025174
0.0082778
0.00826238
0.00822723
0.00817068
0.00809163
0.0079886
0.00785948
0.00770168
0.0075123
0.00728832
0.00702669
0.00672457
0.00637939
0.00598941
0.00555348
0.00507254
0.00454738
0.00398504
0.00338645
0.00277748
0.00937482
0.00936059
0.00932811
0.00927553
0.00920121
0.00910289
0.00897741
0.00882093
0.00862909
0.0083971
0.00811991
0.00779243
0.0074097
0.00696758
0.00646253
0.00589368
0.00526014
0.0045693
0.00382171
0.00305076
0.0105339
0.0105225
0.0104966
0.010454
0.0103926
0.0103092
0.0101993
0.0100575
0.00987767
0.00965261
0.00937449
0.00903494
0.0086253
0.00813732
0.00756327
0.00689823
0.00613779
0.00528765
0.00434747
0.00335825
0.0117422
0.011736
0.0117215
0.011697
0.0116597
0.0116051
0.0115276
0.0114202
0.0112743
0.0110799
0.0108255
0.0104981
0.0100838
0.00956767
0.00893502
0.008173
0.00727003
0.0062251
0.00503504
0.00374548
0.0129771
0.0129787
0.012982
0.0129855
0.0129859
0.0129781
0.0129554
0.0129091
0.0128286
0.0127006
0.012509
0.012235
0.0118568
0.0113501
0.0106887
0.00984576
0.00879631
0.00752274
0.0060135
0.00430971
0.0142042
0.0142166
0.0142443
0.0142869
0.0143407
0.0144006
0.0144595
0.0145081
0.0145343
0.0145224
0.0144521
0.0142976
0.0140273
0.0136026
0.0129799
0.0121071
0.010935
0.00940993
0.00750165
0.00522966
0.015376
0.0154019
0.0154604
0.0155523
0.0156749
0.0158235
0.0159923
0.0161731
0.0163546
0.0165208
0.0166496
0.0167106
0.0166636
0.0164535
0.0160129
0.0152487
0.0140649
0.0123233
0.00994
0.00686505
0.0164332
0.0164744
0.0165676
0.0167158
0.0169178
0.0171712
0.0174732
0.0178196
0.0182033
0.0186126
0.0190292
0.019424
0.019755
0.0199576
0.0199459
0.0195859
0.0187268
0.017086
0.0144281
0.0103685
0.0173087
0.0173648
0.0174925
0.017697
0.0179793
0.0183409
0.0187844
0.0193126
0.0199275
0.0206282
0.0214091
0.0222548
0.0231349
0.02399
0.0247244
0.025164
0.0251022
0.0240959
0.0217762
0.01682
0.0179353
0.0180031
0.0181588
0.018409
0.0187572
0.0192093
0.0197746
0.0204652
0.0212959
0.0222842
0.0234487
0.024807
0.0263684
0.0281188
0.0299918
0.0317944
0.033105
0.0328565
0.0295851
0.0187175
5.97326e-05
4.1723e-05
-5.23462e-05
-9.64223e-05
-0.000102638
-0.000113636
-0.000123781
-0.000130596
-0.000131817
-0.000127967
0.000190882
0.000139525
-0.000143116
-0.0002729
-0.000292521
-0.000326629
-0.000356499
-0.000377236
-0.000380363
-0.000363505
0.000316723
0.000239198
-0.000239798
-0.000451354
-0.000484329
-0.000541866
-0.000591401
-0.000626777
-0.000633127
-0.000607097
0.000430205
0.000338515
-0.000350548
-0.000636751
-0.000681993
-0.000763369
-0.000832286
-0.000882941
-0.000893665
-0.000859073
0.000524494
0.000437516
-0.000479885
-0.000829966
-0.000885845
-0.000991457
-0.00107927
-0.00114611
-0.0011628
-0.00112055
0.000591088
0.000535673
-0.000633001
-0.00103207
-0.00109672
-0.00122671
-0.00133272
-0.00141699
-0.00144195
-0.00139422
0.000619243
0.000631794
-0.000815784
-0.00124424
-0.00131588
-0.00146992
-0.00159314
-0.00169648
-0.00173281
-0.0016828
0.000595012
0.000724065
-0.00103467
-0.00146742
-0.0015447
-0.00172175
-0.00186085
-0.00198528
-0.00203697
-0.00198913
0.000499972
0.000809919
-0.00129669
-0.00170234
-0.00178467
-0.00198263
-0.00213587
-0.00228369
-0.00235569
-0.00231628
0.000309401
0.000885776
-0.00160943
-0.0019494
-0.00203727
-0.00225257
-0.00241763
-0.00259127
-0.00268937
-0.00266738
-1.02878e-05
0.000946596
-0.00198104
-0.00220863
-0.00230365
-0.00253071
-0.00270447
-0.00290618
-0.00303689
-0.00304509
-0.000505192
0.000985207
-0.00242016
-0.00247948
-0.00258415
-0.00281453
-0.00299288
-0.0032242
-0.00339437
-0.0034508
-0.00123963
0.000992294
-0.00293557
-0.0027601
-0.00287756
-0.00309868
-0.00327637
-0.0035375
-0.00375371
-0.00388433
-0.00230589
0.000959599
-0.00353342
-0.00304529
-0.00317971
-0.00337371
-0.00354472
-0.00383381
-0.0041017
-0.00434246
-0.00383561
0.000886027
-0.00421135
-0.00332384
-0.00348033
-0.00362553
-0.00378431
-0.00409705
-0.00442083
-0.00481786
-0.00601218
0.000775303
-0.00494804
-0.00357594
-0.0037616
-0.00383745
-0.00398123
-0.00431072
-0.00469259
-0.0052971
-0.00922051
0.000606659
-0.0056989
-0.00377994
-0.00400189
-0.00399764
-0.00412781
-0.00446535
-0.00490308
-0.00576197
-0.0140236
0.000332009
-0.00639824
-0.00392533
-0.00418523
-0.00410518
-0.00422481
-0.00456127
-0.00504316
-0.0061894
-0.0180713
0.000186306
-0.00687767
-0.00401045
-0.00430751
-0.00416797
-0.00428004
-0.00460881
-0.00512503
-0.0065164
-0.0292265
-0.000385771
-0.00729928
-0.00416301
-0.00440655
-0.00422436
-0.00432003
-0.00462042
-0.0051321
-0.00682874
-0.000113807
-0.000100443
-8.55898e-05
-7.12118e-05
-5.71995e-05
-4.42491e-05
-3.27148e-05
-2.26871e-05
-1.41052e-05
-6.94095e-06
-1.2408e-06
3.17262e-06
6.09541e-06
7.92581e-06
7.85615e-06
6.71013e-06
2.77359e-06
-8.66624e-06
-3.92719e-06
-1.6353e-06
-0.000320509
-0.000287797
-0.000248791
-0.000206968
-0.000165632
-0.000127372
-9.31784e-05
-6.34102e-05
-3.78032e-05
-1.64957e-05
7.57411e-07
1.40433e-05
2.35507e-05
2.9628e-05
3.19063e-05
3.159e-05
2.74494e-05
2.52433e-05
1.41694e-05
5.9097e-06
-0.000536547
-0.000480595
-0.000414276
-0.000343349
-0.000273525
-0.000209294
-0.000152069
-0.000102349
-5.95825e-05
-2.40892e-05
4.75725e-06
2.68968e-05
4.30289e-05
5.32843e-05
5.76141e-05
5.68678e-05
5.00084e-05
3.99894e-05
2.44126e-05
1.02491e-05
-0.000758873
-0.000678397
-0.000582723
-0.000480837
-0.000381256
-0.000290322
-0.000209609
-0.000139636
-7.9512e-05
-2.97608e-05
1.06974e-05
4.16501e-05
6.4369e-05
7.85992e-05
8.47567e-05
8.33304e-05
7.36771e-05
5.8942e-05
3.6685e-05
1.46693e-05
-0.000989558
-0.000882771
-0.000754956
-0.000619407
-0.000488226
-0.000369585
-0.000264769
-0.000174151
-9.64329e-05
-3.2367e-05
1.97059e-05
5.94161e-05
8.87268e-05
0.000106856
0.000114952
0.000112758
0.000100336
8.00929e-05
5.04735e-05
1.93467e-05
-0.00123066
-0.00109524
-0.000931586
-0.000758811
-0.000593746
-0.000446217
-0.000316573
-0.000204854
-0.000109315
-3.09117e-05
3.27391e-05
8.11482e-05
0.000117069
0.00013905
0.000149131
0.000145806
0.000130373
0.000103755
6.61634e-05
2.44022e-05
-0.00148483
-0.0013176
-0.00111292
-0.000898432
-0.000696912
-0.000519261
-0.000364026
-0.000230756
-0.000117246
-2.45671e-05
5.0538e-05
0.000107562
0.000150061
0.000175824
0.000187872
0.000183074
0.000164424
0.000130523
8.41896e-05
2.99534e-05
-0.00175496
-0.00155151
-0.00129877
-0.00103716
-0.000796545
-0.000587592
-0.000406013
-0.000250822
-0.000119366
-1.26273e-05
7.36639e-05
0.00013916
0.000188113
0.000217617
0.000231616
0.000225079
0.000203
0.000160819
0.000104897
3.61057e-05
-0.00204417
-0.0017983
-0.00148817
-0.00117333
-0.000891185
-0.000649895
-0.000441301
-0.000264031
-0.000114949
5.39226e-06
0.000102394
0.00017612
0.000231281
0.000264535
0.000280434
0.000271985
0.000246274
0.000194832
0.0001285
4.29581e-05
-0.0023558
-0.00205839
-0.00167886
-0.00130456
-0.000979089
-0.000704659
-0.000468594
-0.000269496
-0.000103544
2.96076e-05
0.00013658
0.000218134
0.000279086
0.000316133
0.000333804
0.000323485
0.000293912
0.000232422
0.00015497
5.06077e-05
-0.00269294
-0.00233046
-0.0018668
-0.00142784
-0.00105826
-0.000750184
-0.000486646
-0.000266637
-8.51341e-05
5.95925e-05
0.000175452
0.000264171
0.000330286
0.000371164
0.00039037
0.000378519
0.000344977
0.00027307
0.000183872
5.91264e-05
-0.00305696
-0.00260954
-0.00204582
-0.00153971
-0.0011265
-0.000784654
-0.000494476
-0.000255388
-6.03384e-05
9.41848e-05
0.000217447
0.0003123
0.000382713
0.000427388
0.000447777
0.000435065
0.000397595
0.000315475
0.000214347
6.85213e-05
-0.00344673
-0.00288459
-0.00220788
-0.0016368
-0.0011814
-0.000806333
-0.000491676
-0.000236429
-3.05545e-05
0.000131415
0.000260178
0.000359685
0.000433295
0.000481524
0.000502668
0.000490067
0.000448715
0.000357762
0.000245086
7.88044e-05
-0.00385636
-0.00313676
-0.00234474
-0.0017163
-0.00122041
-0.000814014
-0.000478748
-0.000211303
2.08011e-06
0.000168668
0.000300658
0.000402875
0.000478371
0.000529532
0.000550932
0.000539551
0.000494434
0.000397036
0.000273896
8.98298e-05
-0.00427433
-0.0033413
-0.00245076
-0.00177596
-0.00124121
-0.000807688
-0.000457393
-0.000182306
3.4982e-05
0.00020313
0.000335851
0.000438481
0.000514359
0.000567276
0.000588354
0.000579044
0.000530377
0.000429784
0.000297955
0.0001009
-0.00468334
-0.0034745
-0.00252579
-0.00181323
-0.0012427
-0.00078931
-0.000430495
-0.000152151
6.56372e-05
0.000232512
0.000363544
0.000464205
0.000538764
0.000591583
0.000611538
0.000604335
0.000552347
0.000452146
0.000313786
0.000110752
-0.00505989
-0.00351543
-0.00257724
-0.00182477
-0.00122656
-0.000763183
-0.000401723
-0.000123485
9.22272e-05
0.000255806
0.000383215
0.000479794
0.000551164
0.000601359
0.000618864
0.000612408
0.000557231
0.000460453
0.000318012
0.000117898
-0.00539662
-0.00345634
-0.00261658
-0.00180961
-0.00120002
-0.000735613
-0.000374979
-9.84825e-05
0.000114056
0.00027361
0.000396292
0.000487227
0.000553363
0.000597885
0.000610874
0.000602206
0.000543771
0.000452139
0.000308504
0.000121414
-0.00583925
-0.00336578
-0.00266231
-0.00177734
-0.00117787
-0.000713732
-0.000354051
-7.87488e-05
0.000131329
0.000287628
0.000405467
0.000489857
0.000548625
0.000584156
0.000589791
0.000574677
0.000512755
0.000426209
0.000285005
0.000121112
-0.00559722
-0.0032264
-0.00270899
-0.00173934
-0.00117069
-0.000700017
-0.000340429
-6.41739e-05
0.000145422
0.000300091
0.000413709
0.000491073
0.00054064
0.000564074
0.000559313
0.000533382
0.000467411
0.000384325
0.00024906
0.00011499
-0.00671301
-0.00309058
-0.00275798
-0.0016857
-0.00117289
-0.000683584
-0.000329194
-5.10767e-05
0.00015858
0.000312323
0.000423555
0.000495807
0.000538929
0.00055345
0.000540625
0.000507222
0.000436899
0.000358984
0.00022214
0.000123609
-0.0067367
-0.00306942
-0.00276861
-0.00167718
-0.00117374
-0.000680638
-0.000327014
-4.8179e-05
0.000161648
0.000315318
0.000425861
0.000496726
0.000537885
0.000549704
0.000534553
0.000498527
0.000427394
0.000350145
0.000214146
0.000124004
-0.00664609
-0.00306547
-0.00277301
-0.00167452
-0.00117409
-0.000679121
-0.000325515
-4.59415e-05
0.000164165
0.00031789
0.000427774
0.000497361
0.000536568
0.0005457
0.000528317
0.000489454
0.000417866
0.000340638
0.000206489
0.000122742
-0.0065931
-0.00306466
-0.0027751
-0.00167303
-0.00117415
-0.0006779
-0.000324066
-4.3774e-05
0.000166662
0.000320466
0.000429708
0.000498023
0.00053527
0.000541689
0.000522065
0.000480313
0.000408309
0.000331013
0.000198893
0.000121114
-0.00657553
-0.0030639
-0.00277598
-0.00167215
-0.00117403
-0.000676858
-0.000322635
-4.16412e-05
0.000169165
0.00032306
0.00043168
0.000498718
0.000534008
0.000537693
0.000515818
0.00047116
0.000398746
0.000321358
0.000191338
0.000119275
-0.00657602
-0.00306355
-0.00277553
-0.00167222
-0.00117375
-0.000676092
-0.00032129
-3.96113e-05
0.000171604
0.000325608
0.000433626
0.0004994
0.000532741
0.000533694
0.000509578
0.000462005
0.000389216
0.000311678
0.00018388
0.000117126
-0.00659447
-0.00306356
-0.00277373
-0.00167323
-0.0011733
-0.000675599
-0.000320034
-3.76943e-05
0.000173964
0.000328088
0.000435527
0.000500052
0.000531469
0.000529702
0.000503377
0.00045289
0.000379771
0.000302027
0.000176554
0.000114688
-0.0066482
-0.00306329
-0.00277062
-0.00167475
-0.00117263
-0.000675266
-0.000318797
-3.58339e-05
0.000176285
0.000330532
0.000437413
0.000500707
0.000530235
0.00052577
0.000497286
0.000443895
0.000370492
0.000292518
0.000169373
0.000112102
-0.00673973
-0.00306603
-0.00276506
-0.00167745
-0.00117165
-0.000675232
-0.000317638
-3.40986e-05
0.000178506
0.000332888
0.000439225
0.000501318
0.000528986
0.000521865
0.000491274
0.000435024
0.00036138
0.000283128
0.000162415
0.000109187
-0.00671781
-0.0030884
-0.00275365
-0.00168687
-0.00117049
-0.000676869
-0.000317398
-3.32671e-05
0.000179949
0.000334533
0.000440371
0.000501333
0.000527104
0.000517462
0.000484718
0.000425842
0.000351978
0.000273189
0.000155962
0.0001043
-0.00541854
-0.00326964
-0.0026975
-0.00175929
-0.00116905
-0.000692902
-0.000322966
-3.60282e-05
0.000180249
0.000336068
0.000440059
0.000496991
0.000515403
0.0004969
0.000455414
0.000387906
0.000313151
0.00023137
0.00013294
7.49212e-05
-0.00579768
-0.00343157
-0.00263777
-0.0017955
-0.00117711
-0.000699676
-0.000326006
-3.53168e-05
0.00018398
0.000340617
0.000442597
0.000493609
0.000504042
0.000473093
0.000422347
0.000343381
0.000266994
0.000187735
0.000101453
5.44225e-05
-0.0051783
-0.00351773
-0.00259137
-0.00182127
-0.00120849
-0.000728539
-0.000351638
-5.80065e-05
0.000163724
0.000321207
0.000422939
0.000471063
0.000479025
0.000442711
0.000390245
0.000308585
0.000235211
0.000160156
8.45128e-05
3.81398e-05
-0.00480047
-0.00355386
-0.00256957
-0.00182822
-0.00124146
-0.000770427
-0.000394961
-0.000101185
0.000121423
0.000279324
0.000382438
0.00043091
0.000441573
0.000407126
0.000359393
0.000283103
0.000215844
0.00014676
8.0537e-05
2.75455e-05
-0.00433583
-0.00342554
-0.00251176
-0.00180623
-0.00125659
-0.000809739
-0.000445961
-0.000157668
6.29139e-05
0.000220051
0.000325182
0.0003765
0.000393182
0.000365973
0.000326885
0.00026128
0.000202499
0.000140082
8.24829e-05
2.20154e-05
-0.0038657
-0.00319933
-0.00241384
-0.00176256
-0.00125305
-0.000838422
-0.000495205
-0.000218532
-3.4983e-06
0.000151258
0.000257829
0.000313237
0.000337065
0.000320032
0.000291047
0.000238128
0.00018911
0.00013353
8.36452e-05
1.92934e-05
-0.00342123
-0.00291666
-0.00227472
-0.00169617
-0.00123046
-0.000851025
-0.000534039
-0.000274461
-6.88776e-05
8.14739e-05
0.000187928
0.000247322
0.000277705
0.000271409
0.000252419
0.000211832
0.000172494
0.000124368
8.07422e-05
1.76502e-05
-0.00301462
-0.00261782
-0.00210398
-0.00160723
-0.00118981
-0.000846428
-0.000558021
-0.000318998
-0.000126269
1.75201e-05
0.000121827
0.000184055
0.000219412
0.000222637
0.000212482
0.000182719
0.000151736
0.000108188
7.32072e-05
1.61585e-05
-0.00264935
-0.00232799
-0.00191654
-0.00149931
-0.00113277
-0.000825556
-0.000566112
-0.000349118
-0.000171535
-3.62412e-05
6.38825e-05
0.000127207
0.000165599
0.000176208
0.000173267
0.000152656
0.000129064
9.34694e-05
6.31474e-05
1.44042e-05
-0.00232228
-0.00205665
-0.00172429
-0.00137785
-0.00106157
-0.000790131
-0.000559038
-0.000364358
-0.000203214
-7.78985e-05
1.63678e-05
7.89331e-05
0.000118581
0.000134464
0.000136901
0.000123664
0.000106108
7.76259e-05
5.19961e-05
1.2395e-05
-0.0020268
-0.00180535
-0.00153446
-0.00124819
-0.000978946
-0.000742237
-0.000538519
-0.000365687
-0.000221498
-0.000107288
-2.01791e-05
4.00084e-05
7.93798e-05
9.85144e-05
0.000104541
9.70293e-05
8.4297e-05
6.22448e-05
4.11915e-05
1.03606e-05
-0.00175717
-0.00157215
-0.00135029
-0.00111449
-0.000887792
-0.00068406
-0.000506597
-0.000354871
-0.000227571
-0.000125155
-4.61539e-05
1.03768e-05
4.80148e-05
6.86694e-05
7.69502e-05
7.3775e-05
6.48519e-05
4.83763e-05
3.15611e-05
8.42207e-06
-0.00150845
-0.00135451
-0.00117278
-0.000979364
-0.000790616
-0.000617723
-0.000465288
-0.000333855
-0.000223076
-0.000132822
-6.26617e-05
-1.09825e-05
2.40423e-05
4.48839e-05
5.43461e-05
5.42807e-05
4.8312e-05
3.64761e-05
2.34291e-05
6.64933e-06
-0.00127664
-0.00114981
-0.00100188
-0.000844437
-0.000689382
-0.000545054
-0.000416424
-0.00030448
-0.000209734
-0.000131771
-7.0922e-05
-2.48171e-05
6.83333e-06
2.67749e-05
3.65233e-05
3.85048e-05
3.47771e-05
2.66491e-05
1.68224e-05
5.09165e-06
-0.00105852
-0.000955747
-0.000837017
-0.000710705
-0.000585292
-0.00046763
-0.000361628
-0.000268378
-0.000189169
-0.00012345
-7.16348e-05
-3.20873e-05
-4.47133e-06
1.36952e-05
2.30201e-05
2.61653e-05
2.40686e-05
1.87862e-05
1.16117e-05
3.77777e-06
-0.000851473
-0.000770393
-0.000677414
-0.000578572
-0.000480012
-0.000386784
-0.000302315
-0.000226895
-0.000162743
-0.00010931
-6.69663e-05
-3.39819e-05
-1.08072e-05
4.92074e-06
1.32621e-05
1.68445e-05
1.58566e-05
1.26794e-05
7.62876e-06
2.72148e-06
-0.00065326
-0.000592037
-0.000522216
-0.000448044
-0.000373989
-0.000303705
-0.000239556
-0.000181033
-0.000131481
-9.0217e-05
-5.72573e-05
-3.14352e-05
-1.30603e-05
-2.90826e-07
6.62482e-06
1.0054e-05
9.74016e-06
8.05383e-06
4.69562e-06
1.94137e-06
-0.000462021
-0.000419222
-0.000370625
-0.000318956
-0.000267257
-0.000218625
-0.000176601
-0.000132563
-9.72372e-05
-6.79392e-05
-4.62607e-05
-2.60029e-05
-1.22928e-05
-2.73684e-06
2.45209e-06
5.25714e-06
5.25561e-06
4.51867e-06
2.51897e-06
1.39644e-06
-0.000276542
-0.000251134
-0.000222379
-0.000191761
-0.000160491
-0.000128876
-9.92223e-05
-7.89449e-05
-5.88349e-05
-4.11627e-05
-2.64484e-05
-1.59032e-05
-8.56008e-06
-3.09283e-06
-5.52428e-08
1.71914e-06
1.75628e-06
1.49521e-06
4.97246e-07
5.73504e-07
-9.50147e-05
-8.67434e-05
-7.73006e-05
-6.74408e-05
-5.82537e-05
-5.01775e-05
-3.92968e-05
-3.08265e-05
-2.3911e-05
-1.83322e-05
-1.35133e-05
-1.05476e-05
-6.72241e-06
-3.88348e-06
-2.42639e-06
-1.4252e-06
-1.24753e-06
-1.20638e-06
-1.52109e-06
-1.11037e-06
-0.0263989
-6.53056e-05
-0.00686145
-0.00412719
-0.00438846
-0.00432387
-0.00447089
-0.00477365
-0.00524601
-0.00683146
-0.0121573
0.000547269
-0.00622753
-0.00393757
-0.00424251
-0.00424805
-0.00441221
-0.00474714
-0.005223
-0.00643336
-0.00982115
0.000618601
-0.00555796
-0.00383075
-0.00406864
-0.0041528
-0.00432916
-0.00466906
-0.00509676
-0.00600906
-0.00472004
0.00106209
-0.00459171
-0.00359777
-0.00380883
-0.00398418
-0.00418153
-0.00451595
-0.00488518
-0.00545308
-0.00245483
0.00120329
-0.00372158
-0.0033112
-0.00350024
-0.00374611
-0.00396861
-0.00428642
-0.00458581
-0.00490619
-0.000841282
0.00130278
-0.00293386
-0.00298275
-0.00317107
-0.00345857
-0.00370125
-0.00399348
-0.00422735
-0.00436874
0.000186478
0.00134329
-0.00226675
-0.00265195
-0.002849
-0.00315111
-0.00340299
-0.00366563
-0.00384084
-0.00386959
0.000819798
0.0013256
-0.00172425
-0.00233609
-0.00254503
-0.00284407
-0.0030944
-0.00332686
-0.00345297
-0.00341458
0.00119292
0.00126676
-0.001291
-0.00203871
-0.00226238
-0.00254768
-0.00278821
-0.00299214
-0.00307953
-0.00300311
0.00138637
0.001182
-0.000948775
-0.00176163
-0.00200084
-0.00226597
-0.00249097
-0.00266894
-0.00272744
-0.00263185
0.00145488
0.00108142
-0.000682497
-0.00150635
-0.00175852
-0.00199977
-0.00220541
-0.00236011
-0.002398
-0.00229534
0.0014361
0.000971588
-0.000479131
-0.00127355
-0.00153284
-0.00174836
-0.0019323
-0.00206615
-0.00208999
-0.00198795
0.00135594
0.000856939
-0.000327079
-0.00106314
-0.00132119
-0.00151032
-0.00167143
-0.00178638
-0.0018009
-0.00170457
0.00123248
0.000740373
-0.00021605
-0.000874351
-0.0011213
-0.00128408
-0.0014221
-0.00151958
-0.0015281
-0.0014409
0.00107849
0.000623556
-0.000137496
-0.000705304
-0.00093134
-0.00106816
-0.00118332
-0.00126439
-0.00126919
-0.00119336
0.00090315
0.000507284
-8.40247e-05
-0.000553426
-0.000749886
-0.000861143
-0.000953959
-0.00101939
-0.001022
-0.000958936
0.000713115
0.000391853
-4.92401e-05
-0.000415935
-0.000575698
-0.00066168
-0.000732799
-0.000783164
-0.000784535
-0.000735041
0.000513374
0.000277245
-2.79395e-05
-0.000290117
-0.000407741
-0.000468654
-0.000518748
-0.000554441
-0.000555057
-0.000519494
0.000307899
0.000163346
-1.6104e-05
-0.000173513
-0.000245312
-0.000281334
-0.000311021
-0.000332375
-0.000332433
-0.000310761
0.000100136
5.13928e-05
-8.37697e-06
-6.12805e-05
-8.55463e-05
-9.70888e-05
-0.000106815
-0.000114174
-0.000114162
-0.000106372
0.0180016
0.0180686
0.018221
0.018465
0.0188038
0.0192422
0.0197875
0.0204491
0.0212377
0.022164
0.0232369
0.0244595
0.0258205
0.027277
0.0287251
0.0299184
0.0304386
0.0293459
0.0254284
0.0155668
0.0172448
0.0172952
0.0174092
0.0175908
0.0178402
0.0181569
0.0185408
0.0189913
0.0195059
0.020079
0.0206991
0.0213465
0.0219884
0.0225724
0.0230267
0.023244
0.0230702
0.0221511
0.0201405
0.0161752
0.0161586
0.0161903
0.0162617
0.0163743
0.016526
0.0167132
0.0169309
0.0171727
0.0174291
0.0176864
0.0179252
0.0181181
0.0182273
0.0181994
0.0179644
0.017415
0.0164216
0.0147848
0.0123485
0.00897615
0.0148668
0.0148814
0.0149143
0.0149651
0.0150308
0.0151063
0.0151849
0.0152582
0.0153147
0.0153394
0.0153129
0.0152099
0.0149985
0.0146384
0.0140832
0.0132764
0.0121644
0.010685
0.00880597
0.00653454
0.0134796
0.0134811
0.0134842
0.0134877
0.0134884
0.0134815
0.0134606
0.0134178
0.013343
0.0132236
0.0130448
0.0127887
0.0124354
0.0119622
0.0113449
0.010558
0.00957728
0.00838337
0.00696222
0.00534616
0.0120826
0.0120751
0.0120581
0.0120297
0.0119876
0.0119277
0.0118452
0.0117336
0.0115855
0.0113921
0.0111436
0.010829
0.0104363
0.00995312
0.00936676
0.00866618
0.00784124
0.00689056
0.00581131
0.00464219
0.0107334
0.0107207
0.0106918
0.0106451
0.0105787
0.0104899
0.0103752
0.0102301
0.0100497
0.00982835
0.00955981
0.0092376
0.00885507
0.00840599
0.00788466
0.00728767
0.00661214
0.00586318
0.00504142
0.0041798
0.00946591
0.00945079
0.00941651
0.00936144
0.0092844
0.00918378
0.0090573
0.00890217
0.00871517
0.00849291
0.00823183
0.00792846
0.00757956
0.00718255
0.00673545
0.00623822
0.005691
0.00509977
0.00446585
0.00381392
0.008296
0.00828037
0.00824496
0.00818832
0.00810976
0.00800844
0.00788303
0.00773187
0.0075531
0.00734486
0.00710536
0.006833
0.00652649
0.00618516
0.00580879
0.00539864
0.00495594
0.00448594
0.00399022
0.00348644
0.00722725
0.0072123
0.00717846
0.00712442
0.00704981
0.00695431
0.00683727
0.00669782
0.00653502
0.00634798
0.00613598
0.0058985
0.0056353
0.00534662
0.00503306
0.00469622
0.00433768
0.00396165
0.00356973
0.0031743
0.00625574
0.00624211
0.00621127
0.00616205
0.00609432
0.00600806
0.00590308
0.00577901
0.00563546
0.00547215
0.00528896
0.00508593
0.00486338
0.00462193
0.0043625
0.00408667
0.00379599
0.0034937
0.00318129
0.00286736
0.00537309
0.00536108
0.00533388
0.00529051
0.00523095
0.0051554
0.00506388
0.00495635
0.00483274
0.00469311
0.00453764
0.00436668
0.00418075
0.00398062
0.00376727
0.0035421
0.00330647
0.00306287
0.00281258
0.00256162
0.00456892
0.0045586
0.00453523
0.00449799
0.00444694
0.00438235
0.00430439
0.00421316
0.0041088
0.0039915
0.0038616
0.00371957
0.00356598
0.00340162
0.00322737
0.00304442
0.00285393
0.00265779
0.00245707
0.00225599
0.00383224
0.00382358
0.00380396
0.00377273
0.00372996
0.00367596
0.00361094
0.0035351
0.00344862
0.00335179
0.00324499
0.00312868
0.00300343
0.00286994
0.00272899
0.00258155
0.00242858
0.00227148
0.00211115
0.00195056
0.00315221
0.00314512
0.00312907
0.00310351
0.00306855
0.00302446
0.00297149
0.00290983
0.0028397
0.00276139
0.00267526
0.00258174
0.00248133
0.00237464
0.0022623
0.00214509
0.00202378
0.00189942
0.00177274
0.00164581
0.00251859
0.00251297
0.00250023
0.00247995
0.00245223
0.00241732
0.00237543
0.00232674
0.00227147
0.00220988
0.00214228
0.00206903
0.00199057
0.00190736
0.00181993
0.00172888
0.0016348
0.00153847
0.00144046
0.00134221
0.00192181
0.00191754
0.00190788
0.00189251
0.0018715
0.00184506
0.00181337
0.00177659
0.00173489
0.00168849
0.00163764
0.00158263
0.00152379
0.00146149
0.00139613
0.00132815
0.00125799
0.00118621
0.00111324
0.00104006
0.00135297
0.00134998
0.00134319
0.0013324
0.00131766
0.00129912
0.00127693
0.00125119
0.00122205
0.00118966
0.0011542
0.00111589
0.00107496
0.00103167
0.00098631
0.000939173
0.000890572
0.000840869
0.000790362
0.000739646
0.000803782
0.000801974
0.00079789
0.000791413
0.000782592
0.000771524
0.000758294
0.000742976
0.000725654
0.000706428
0.000685414
0.00066274
0.000638548
0.000612994
0.000586246
0.000558485
0.000529904
0.000500726
0.000471153
0.000441489
0.000266441
0.000265765
0.000264268
0.000261931
0.000258786
0.000254869
0.000250212
0.000244845
0.000238797
0.000232104
0.000224807
0.000216952
0.00020859
0.000199775
0.000190565
0.000181018
0.000171199
0.000161154
0.000151006
0.00014084
0.018132
0.0181983
0.0183635
0.0186276
0.0189948
0.019474
0.0200767
0.020819
0.0217217
0.0228124
0.0241267
0.025713
0.0276315
0.0299676
0.0328118
0.0363018
0.0404715
0.0453995
0.049833
0.0531039
0.0181813
0.0182472
0.0184149
0.0186823
0.0190542
0.0195399
0.0201518
0.0209068
0.0218271
0.0229429
0.0242941
0.0259367
0.0279429
0.0304225
0.0334988
0.0373827
0.0421589
0.0480956
0.0536189
0.0596068
0.0182194
0.0182854
0.0184548
0.0187246
0.0190999
0.0195905
0.0202092
0.0209733
0.0219064
0.0230405
0.0244184
0.026102
0.0281719
0.0307551
0.0339967
0.0381541
0.0433267
0.0498723
0.0559303
0.0631794
0.0182469
0.018313
0.0184835
0.0187548
0.0191323
0.019626
0.0202488
0.0210188
0.02196
0.0231057
0.0245009
0.0262111
0.0283232
0.0309761
0.0343303
0.0386746
0.044118
0.051071
0.0574945
0.0653584
0.0182637
0.0183299
0.0185008
0.0187727
0.0191512
0.0196461
0.0202707
0.021043
0.0219874
0.023138
0.0245404
0.0262625
0.0283945
0.0310819
0.0344948
0.0389399
0.0445336
0.0517128
0.0583494
0.0665105
0.0182698
0.0183359
0.0185067
0.0187784
0.0191564
0.0196508
0.0202745
0.0210457
0.0219884
0.0231367
0.0245362
0.0262547
0.028383
0.0310677
0.0344817
0.038936
0.0445526
0.0517704
0.0584568
0.0667041
0.0182652
0.0183312
0.0185012
0.0187718
0.0191481
0.0196401
0.0202605
0.0210269
0.0219631
0.0231021
0.0244885
0.0261879
0.0282888
0.0309335
0.0342905
0.0386618
0.0441736
0.0512429
0.0578184
0.0659561
0.0182499
0.0183157
0.0184844
0.0187529
0.0191264
0.0196141
0.0202287
0.020987
0.0219119
0.023035
0.0243983
0.0260641
0.0281151
0.0306843
0.0339299
0.0381319
0.0434206
0.0501653
0.0564907
0.0642494
0.0182241
0.0182897
0.0184564
0.0187221
0.0190914
0.0195732
0.0201795
0.0209264
0.0218354
0.0229358
0.0242665
0.0258839
0.0278629
0.030321
0.0333999
0.0373444
0.0422879
0.0485206
0.0544645
0.061301
0.0181871
0.018253
0.018417
0.018679
0.0190429
0.019517
0.0201126
0.0208445
0.0217325
0.0228027
0.0240893
0.0256399
0.0275166
0.0298125
0.032638
0.0361726
0.0405214
0.0458212
0.0508656
0.0554962
)
;

boundaryField
{
    inlet
    {
        type            zeroGradient;
    }
    outlet
    {
        type            fixedValue;
        value           uniform 0;
    }
    upAndBottom
    {
        type            empty;
    }
    obstacle
    {
        type            zeroGradient;
    }
}


// ************************************************************************* //
