/*--------------------------------*- C++ -*----------------------------------*\
| =========                 |                                                 |
| \\      /  F ield         | OpenFOAM: The Open Source CFD Toolbox           |
|  \\    /   O peration     | Version:  v1806                                 |
|   \\  /    A nd           | Web:      www.OpenFOAM.com                      |
|    \\/     M anipulation  |                                                 |
\*---------------------------------------------------------------------------*/
FoamFile
{
    version     2.0;
    format      ascii;
    class       volVectorField;
    location    "8";
    object      U;
}
// * * * * * * * * * * * * * * * * * * * * * * * * * * * * * * * * * * * * * //

dimensions      [0 1 -1 0 0 0 0];


internalField   nonuniform List<vector> 
4400
(
(1.46575 1.2585 0)
(1.53213 1.05952 0)
(1.62495 0.973563 0)
(1.61235 0.945175 0)
(1.6252 0.866781 0)
(1.58351 0.843353 0)
(1.62522 0.807043 0)
(1.59375 0.846499 0)
(1.64415 0.836709 0)
(1.59954 0.912534 0)
(1.64015 0.906 0)
(1.59763 1.01237 0)
(1.63332 1.00494 0)
(1.59554 1.14088 0)
(1.62279 1.13198 0)
(1.58856 1.29413 0)
(1.59878 1.28734 0)
(1.56028 1.46968 0)
(1.56371 1.46545 0)
(1.52385 1.66494 0)
(1.95395 0.191212 0)
(1.80191 0.278722 0)
(1.81338 0.277453 0)
(1.7623 0.35799 0)
(1.80266 0.395588 0)
(1.78704 0.492348 0)
(1.86639 0.530546 0)
(1.85833 0.64769 0)
(1.89666 0.67451 0)
(1.87386 0.803518 0)
(1.88046 0.8139 0)
(1.87616 0.955282 0)
(1.87996 0.955332 0)
(1.88807 1.11243 0)
(1.88926 1.10742 0)
(1.90506 1.27993 0)
(1.89087 1.27367 0)
(1.90033 1.46024 0)
(1.89027 1.45621 0)
(1.89812 1.65698 0)
(1.69608 0.320821 0)
(1.72379 0.38717 0)
(1.91 0.450139 0)
(1.93205 0.543003 0)
(1.97939 0.575689 0)
(1.99678 0.651714 0)
(2.03784 0.672187 0)
(2.06898 0.746736 0)
(2.05285 0.7572 0)
(2.07796 0.83559 0)
(2.04456 0.844588 0)
(2.09493 0.938767 0)
(2.07099 0.949244 0)
(2.13263 1.06013 0)
(2.11186 1.06804 0)
(2.17538 1.1972 0)
(2.14326 1.1993 0)
(2.20376 1.35051 0)
(2.18378 1.35073 0)
(2.24529 1.52387 0)
(2.27768 0.15016 0)
(2.23478 0.234723 0)
(2.25324 0.269434 0)
(2.19457 0.319998 0)
(2.15401 0.363197 0)
(2.18778 0.414601 0)
(2.18043 0.469032 0)
(2.21849 0.51372 0)
(2.18831 0.570374 0)
(2.23481 0.619123 0)
(2.21925 0.682696 0)
(2.28705 0.739102 0)
(2.27038 0.799333 0)
(2.34382 0.864314 0)
(2.32101 0.911486 0)
(2.39625 0.991219 0)
(2.36929 1.02327 0)
(2.45668 1.12833 0)
(2.43951 1.14537 0)
(2.53777 1.27654 0)
(2.17545 0.160668 0)
(2.19434 0.201002 0)
(2.22014 0.254512 0)
(2.28128 0.284248 0)
(2.29129 0.356696 0)
(2.35836 0.385057 0)
(2.36099 0.451372 0)
(2.3885 0.469137 0)
(2.39699 0.536829 0)
(2.42492 0.555412 0)
(2.44082 0.626746 0)
(2.4668 0.643943 0)
(2.473 0.710171 0)
(2.50938 0.731307 0)
(2.50594 0.789615 0)
(2.56574 0.823249 0)
(2.56476 0.870204 0)
(2.6447 0.924352 0)
(2.64134 0.951429 0)
(2.74136 1.0287 0)
(2.50415 0.118266 0)
(2.51801 0.154937 0)
(2.48068 0.205913 0)
(2.50243 0.233891 0)
(2.48564 0.283473 0)
(2.47253 0.310075 0)
(2.47981 0.35129 0)
(2.47775 0.383207 0)
(2.51434 0.428137 0)
(2.51862 0.459098 0)
(2.55326 0.502389 0)
(2.55345 0.530142 0)
(2.59093 0.576396 0)
(2.6045 0.603218 0)
(2.64208 0.652908 0)
(2.67989 0.681475 0)
(2.7031 0.724452 0)
(2.75878 0.758234 0)
(2.76903 0.784776 0)
(2.8472 0.830282 0)
(2.49935 0.106472 0)
(2.50957 0.134618 0)
(2.52503 0.169992 0)
(2.54894 0.208716 0)
(2.57894 0.231573 0)
(2.57732 0.27769 0)
(2.62035 0.302163 0)
(2.63388 0.351231 0)
(2.65544 0.371053 0)
(2.65962 0.416637 0)
(2.68037 0.433692 0)
(2.69272 0.478706 0)
(2.72607 0.499988 0)
(2.73883 0.53945 0)
(2.77696 0.563419 0)
(2.78839 0.594087 0)
(2.8189 0.617597 0)
(2.84965 0.646506 0)
(2.86757 0.663774 0)
(2.9232 0.69775 0)
(2.69673 0.0841558 0)
(2.69718 0.120114 0)
(2.71125 0.143708 0)
(2.68656 0.180526 0)
(2.69796 0.197377 0)
(2.70212 0.234606 0)
(2.70715 0.253121 0)
(2.71619 0.281594 0)
(2.71581 0.297231 0)
(2.73803 0.328031 0)
(2.75038 0.344792 0)
(2.78056 0.374705 0)
(2.79371 0.387986 0)
(2.81495 0.414728 0)
(2.83086 0.425224 0)
(2.85157 0.449596 0)
(2.88464 0.461879 0)
(2.91034 0.481929 0)
(2.93679 0.494105 0)
(2.98277 0.514105 0)
(2.72781 0.055674 0)
(2.73032 0.0770618 0)
(2.73838 0.0915521 0)
(2.74617 0.110518 0)
(2.76187 0.133756 0)
(2.77922 0.146363 0)
(2.77275 0.16959 0)
(2.79021 0.180448 0)
(2.80328 0.20634 0)
(2.82252 0.215084 0)
(2.82744 0.237608 0)
(2.84133 0.2415 0)
(2.84738 0.259299 0)
(2.86749 0.263994 0)
(2.88119 0.277378 0)
(2.90919 0.283748 0)
(2.92633 0.291027 0)
(2.94933 0.292136 0)
(2.97158 0.298648 0)
(3.00787 0.294182 0)
(2.81124 0.0425928 0)
(2.81223 0.0542257 0)
(2.80847 0.0726537 0)
(2.82172 0.0826911 0)
(2.81122 0.10063 0)
(2.81429 0.105611 0)
(2.82151 0.124068 0)
(2.83061 0.131909 0)
(2.83754 0.147081 0)
(2.83615 0.149884 0)
(2.84524 0.164112 0)
(2.85251 0.167259 0)
(2.87014 0.182088 0)
(2.88092 0.182209 0)
(2.89443 0.193681 0)
(2.9053 0.189674 0)
(2.91528 0.196798 0)
(2.93286 0.189834 0)
(2.95121 0.194912 0)
(2.9776 0.179474 0)
(2.83019 0.0397363 0)
(2.83453 0.0521999 0)
(2.83949 0.0686874 0)
(2.8422 0.0803944 0)
(2.84489 0.0933017 0)
(2.85477 0.110766 0)
(2.86627 0.121818 0)
(2.86318 0.136582 0)
(2.86764 0.145241 0)
(2.87439 0.162627 0)
(2.88819 0.172093 0)
(2.89517 0.188987 0)
(2.90048 0.195544 0)
(2.89959 0.20784 0)
(2.90979 0.215837 0)
(2.91667 0.225303 0)
(2.92805 0.234182 0)
(2.93658 0.240331 0)
(2.94738 0.245861 0)
(2.95126 0.245222 0)
(2.89646 0.0426325 0)
(2.89836 0.0599554 0)
(2.89966 0.0719386 0)
(2.89605 0.0892266 0)
(2.90718 0.101807 0)
(2.90466 0.119087 0)
(2.90177 0.127972 0)
(2.90707 0.145198 0)
(2.91701 0.156813 0)
(2.92496 0.17364 0)
(2.92643 0.182036 0)
(2.92946 0.197457 0)
(2.93086 0.204774 0)
(2.94348 0.223043 0)
(2.95329 0.231684 0)
(2.96054 0.248416 0)
(2.96592 0.254947 0)
(2.96769 0.271171 0)
(2.97029 0.275018 0)
(2.97088 0.29583 0)
(2.93718 0.0253344 0)
(2.93663 0.0347151 0)
(2.93856 0.042014 0)
(2.94398 0.0528494 0)
(2.94531 0.060132 0)
(2.94464 0.0672997 0)
(2.95236 0.0777777 0)
(2.96137 0.0861853 0)
(2.9598 0.0944422 0)
(2.96035 0.0993278 0)
(2.96465 0.10869 0)
(2.97258 0.113847 0)
(2.98189 0.123182 0)
(2.99013 0.128146 0)
(2.98995 0.133394 0)
(2.99464 0.13851 0)
(2.99919 0.141893 0)
(3.00751 0.150006 0)
(3.02041 0.153644 0)
(3.02991 0.16758 0)
(2.95496 0.00734787 0)
(2.95555 0.00837789 0)
(2.95743 0.0132512 0)
(2.9581 0.013165 0)
(2.95528 0.0166098 0)
(2.9642 0.0178182 0)
(2.96668 0.020888 0)
(2.96255 0.018465 0)
(2.96451 0.0204316 0)
(2.97381 0.020468 0)
(2.97886 0.022927 0)
(2.97879 0.0194014 0)
(2.98119 0.0207209 0)
(2.98139 0.0150984 0)
(2.98809 0.0167216 0)
(2.99365 0.0109725 0)
(3.00298 0.0115214 0)
(3.01377 0.00383292 0)
(3.0219 0.00332369 0)
(3.02879 -0.00903845 0)
(2.95282 0.00724292 0)
(2.95506 0.00989997 0)
(2.95467 0.0128643 0)
(2.95498 0.014305 0)
(2.95941 0.0183572 0)
(2.95815 0.0196825 0)
(2.95392 0.0205707 0)
(2.95795 0.0230131 0)
(2.96606 0.0252027 0)
(2.96595 0.0260396 0)
(2.96057 0.0239562 0)
(2.96204 0.0248125 0)
(2.96884 0.0246048 0)
(2.97491 0.0250268 0)
(2.97635 0.0240117 0)
(2.97532 0.0202262 0)
(2.97677 0.0194049 0)
(2.97624 0.0106407 0)
(2.97994 0.0104942 0)
(2.98538 -0.00433302 0)
(2.97194 0.0172913 0)
(2.97168 0.0240249 0)
(2.97147 0.0283059 0)
(2.97333 0.036061 0)
(2.97221 0.0396934 0)
(2.96978 0.0458156 0)
(2.9755 0.0517356 0)
(2.97645 0.0583399 0)
(2.97178 0.0621201 0)
(2.96865 0.0675794 0)
(2.97257 0.0723469 0)
(2.97954 0.079402 0)
(2.98025 0.0822883 0)
(2.97692 0.087337 0)
(2.97271 0.0884588 0)
(2.9747 0.0946444 0)
(2.97444 0.096953 0)
(2.9793 0.103087 0)
(2.97758 0.105475 0)
(2.97208 0.109081 0)
(2.9947 0.0115091 0)
(2.99402 0.0154099 0)
(2.99529 0.0195742 0)
(2.99437 0.0238077 0)
(2.99389 0.0269594 0)
(2.99921 0.0327125 0)
(2.99788 0.0356215 0)
(2.99446 0.0387898 0)
(2.99898 0.0437624 0)
(3.00253 0.0487258 0)
(3.00158 0.0532605 0)
(2.99784 0.0565164 0)
(2.99599 0.0606925 0)
(2.99752 0.0648222 0)
(3.00172 0.0695972 0)
(3.00429 0.0747519 0)
(3.00552 0.0779182 0)
(3.00427 0.0849366 0)
(2.99864 0.0860784 0)
(2.99927 0.0982822 0)
(2.9985 0.000142576 0)
(2.99902 -0.000148913 0)
(2.99887 0.00068481 0)
(2.99867 -0.000302152 0)
(3.00141 0.00139114 0)
(2.99905 0.000208267 0)
(2.99598 -0.000250788 0)
(3.00371 0.000641163 0)
(3.00551 0.000622097 0)
(2.99963 -0.00176784 0)
(2.99931 -0.0019818 0)
(3.00446 -0.00182795 0)
(3.00831 -0.00073414 0)
(3.00754 -0.0018716 0)
(3.00551 -0.00202626 0)
(3.00405 -0.00403807 0)
(3.00659 -0.00338612 0)
(3.0096 -0.00498377 0)
(3.01722 -0.00401715 0)
(3.02073 -0.0053563 0)
(2.99496 0.00047665 0)
(2.99528 0.000589315 0)
(2.99505 0.000402599 0)
(2.99617 0.000554804 0)
(2.99512 0.00037109 0)
(2.99346 -0.000531177 0)
(2.99823 0.000635545 0)
(2.99697 0.000141495 0)
(2.98967 -0.00172456 0)
(2.9928 -0.00176045 0)
(3.00061 -0.00133205 0)
(3.00085 -0.00235019 0)
(2.99489 -0.00464034 0)
(2.99195 -0.00618191 0)
(2.99408 -0.00702362 0)
(2.99894 -0.00762286 0)
(3.00267 -0.00835814 0)
(3.00205 -0.0113617 0)
(2.99768 -0.0130056 0)
(2.99513 -0.0190417 0)
(2.99968 0.00228114 0)
(2.99951 0.00314351 0)
(2.99966 0.00381244 0)
(2.9993 0.00476753 0)
(2.999 0.00515794 0)
(3.0007 0.00657798 0)
(2.99951 0.00692539 0)
(2.99701 0.00729495 0)
(3.00038 0.00881123 0)
(3.00242 0.0102888 0)
(2.99828 0.0103448 0)
(2.99483 0.0106769 0)
(2.99678 0.011694 0)
(3.00056 0.0132362 0)
(3.00176 0.0139713 0)
(2.99993 0.0145469 0)
(2.99538 0.0143116 0)
(2.99266 0.0152118 0)
(2.99396 0.0157462 0)
(2.9963 0.0179161 0)
(1.03654 -0.278231 0)
(1.02714 -0.211227 0)
(1.02386 -0.143157 0)
(1.02268 -0.0751878 0)
(1.02296 -0.00730941 0)
(1.02454 0.0606057 0)
(1.0274 0.128664 0)
(1.03153 0.196962 0)
(1.03694 0.265599 0)
(1.04365 0.334676 0)
(1.05166 0.404296 0)
(1.06101 0.474564 0)
(1.07172 0.545585 0)
(1.08379 0.61748 0)
(1.09748 0.690311 0)
(1.11184 0.764354 0)
(1.13036 0.839165 0)
(1.14282 0.916017 0)
(1.17644 0.991074 0)
(1.16602 1.06935 0)
(1.55897 -0.11504 0)
(1.5564 -0.0959283 0)
(1.553 -0.076738 0)
(1.55046 -0.0575658 0)
(1.5495 -0.0384447 0)
(1.55045 -0.0194135 0)
(1.55348 -0.000516637 0)
(1.55867 0.0181995 0)
(1.56611 0.0366871 0)
(1.57586 0.0548971 0)
(1.58799 0.0727795 0)
(1.6026 0.0902828 0)
(1.61977 0.107354 0)
(1.63962 0.123939 0)
(1.66229 0.139982 0)
(1.68795 0.155426 0)
(1.71664 0.170142 0)
(1.74887 0.184072 0)
(1.78371 0.197552 0)
(1.82358 0.214247 0)
(1.78823 -0.0237409 0)
(1.78483 -0.00730552 0)
(1.78262 0.00931798 0)
(1.78113 0.0261209 0)
(1.77999 0.0430516 0)
(1.77898 0.0600714 0)
(1.77795 0.0771356 0)
(1.7768 0.0941968 0)
(1.77544 0.111207 0)
(1.77383 0.128116 0)
(1.7719 0.144874 0)
(1.7696 0.161428 0)
(1.76689 0.177725 0)
(1.76368 0.193706 0)
(1.75993 0.209311 0)
(1.75554 0.224475 0)
(1.75046 0.239133 0)
(1.74459 0.253236 0)
(1.73795 0.266723 0)
(1.73024 0.278971 0)
(2.14098 -0.0825937 0)
(2.14338 -0.0718127 0)
(2.14554 -0.0610317 0)
(2.14763 -0.050267 0)
(2.1498 -0.039525 0)
(2.15215 -0.0288077 0)
(2.15476 -0.0181133 0)
(2.15769 -0.00743766 0)
(2.16097 0.00322447 0)
(2.16463 0.0138797 0)
(2.16869 0.0245359 0)
(2.17317 0.0352017 0)
(2.17808 0.0458873 0)
(2.18344 0.0566043 0)
(2.18926 0.0673663 0)
(2.19558 0.0781836 0)
(2.20244 0.089063 0)
(2.20998 0.100064 0)
(2.21853 0.111411 0)
(2.22901 0.122901 0)
(2.22397 -0.0216883 0)
(2.22196 -0.0130108 0)
(2.22022 -0.00435229 0)
(2.21869 0.0042897 0)
(2.21731 0.0129142 0)
(2.21603 0.0215179 0)
(2.21479 0.0300954 0)
(2.21356 0.0386401 0)
(2.21232 0.0471449 0)
(2.21105 0.0556017 0)
(2.20972 0.0640024 0)
(2.20831 0.0723384 0)
(2.20683 0.0806008 0)
(2.20525 0.0887807 0)
(2.20357 0.096868 0)
(2.20176 0.104852 0)
(2.19979 0.112726 0)
(2.1976 0.120492 0)
(2.19503 0.128106 0)
(2.19173 0.135471 0)
(2.45538 -0.056426 0)
(2.45663 -0.0488979 0)
(2.45783 -0.0413535 0)
(2.45901 -0.033796 0)
(2.46019 -0.0262273 0)
(2.46141 -0.0186481 0)
(2.46267 -0.0110581 0)
(2.46401 -0.00345597 0)
(2.46543 0.00415991 0)
(2.46695 0.0117918 0)
(2.46857 0.0194422 0)
(2.4703 0.0271141 0)
(2.47215 0.0348105 0)
(2.47412 0.0425345 0)
(2.47622 0.050289 0)
(2.47847 0.058079 0)
(2.48088 0.0659125 0)
(2.4835 0.0737825 0)
(2.48645 0.0816375 0)
(2.48992 0.0895363 0)
(2.51981 -0.0243804 0)
(2.51867 -0.0183723 0)
(2.51764 -0.0123811 0)
(2.51671 -0.00640595 0)
(2.51586 -0.000446588 0)
(2.51508 0.00549667 0)
(2.51437 0.011423 0)
(2.51371 0.0173313 0)
(2.51308 0.02322 0)
(2.5125 0.0290874 0)
(2.51194 0.0349316 0)
(2.5114 0.0407505 0)
(2.51089 0.0465419 0)
(2.51038 0.0523033 0)
(2.50988 0.0580328 0)
(2.50935 0.0637301 0)
(2.50877 0.069391 0)
(2.50808 0.0749906 0)
(2.50717 0.0805017 0)
(2.50587 0.0860748 0)
(2.6776 -0.0377599 0)
(2.6781 -0.0323468 0)
(2.67859 -0.0269197 0)
(2.67909 -0.0214798 0)
(2.67961 -0.016028 0)
(2.68014 -0.0105648 0)
(2.6807 -0.00509084 0)
(2.68128 0.000393839 0)
(2.68189 0.00588922 0)
(2.68254 0.0113955 0)
(2.68323 0.0169128 0)
(2.68395 0.0224418 0)
(2.68472 0.0279828 0)
(2.68553 0.0335369 0)
(2.68639 0.0391051 0)
(2.6873 0.0446872 0)
(2.68826 0.0502815 0)
(2.68931 0.0559049 0)
(2.69045 0.0616119 0)
(2.69174 0.0673042 0)
(2.72974 -0.016783 0)
(2.7292 -0.0134085 0)
(2.72873 -0.0100422 0)
(2.7283 -0.00668398 0)
(2.72793 -0.00333398 0)
(2.7276 7.63286e-06 0)
(2.72731 0.00334052 0)
(2.72707 0.00666426 0)
(2.72687 0.00997834 0)
(2.7267 0.0132822 0)
(2.72658 0.0165751 0)
(2.72648 0.0198565 0)
(2.72643 0.0231257 0)
(2.72641 0.0263822 0)
(2.72643 0.0296249 0)
(2.72648 0.032852 0)
(2.72657 0.036065 0)
(2.7267 0.039273 0)
(2.72686 0.0424749 0)
(2.72705 0.0456117 0)
(2.80315 -0.0185145 0)
(2.8033 -0.0158472 0)
(2.80347 -0.0131732 0)
(2.80364 -0.0104932 0)
(2.80383 -0.00780776 0)
(2.80402 -0.00511756 0)
(2.80423 -0.00242311 0)
(2.80444 0.000275125 0)
(2.80468 0.0029767 0)
(2.80492 0.0056812 0)
(2.80519 0.00838825 0)
(2.80547 0.0110975 0)
(2.80577 0.0138085 0)
(2.80609 0.0165206 0)
(2.80644 0.019233 0)
(2.80682 0.0219461 0)
(2.80724 0.024661 0)
(2.80771 0.0273696 0)
(2.80826 0.0300466 0)
(2.80888 0.0327329 0)
(2.83226 -0.0138709 0)
(2.83202 -0.011451 0)
(2.83179 -0.00903457 0)
(2.83159 -0.00662167 0)
(2.83142 -0.0042123 0)
(2.83126 -0.00180653 0)
(2.83114 0.000595563 0)
(2.83103 0.00299385 0)
(2.83094 0.00538819 0)
(2.83088 0.00777843 0)
(2.83084 0.0101644 0)
(2.83081 0.0125458 0)
(2.8308 0.0149223 0)
(2.83081 0.0172937 0)
(2.83082 0.0196597 0)
(2.83084 0.0220208 0)
(2.83085 0.0243746 0)
(2.83084 0.0267115 0)
(2.83079 0.0290287 0)
(2.83069 0.0313843 0)
(2.89397 -0.017364 0)
(2.89399 -0.0146782 0)
(2.89402 -0.0119888 0)
(2.89405 -0.0092961 0)
(2.89409 -0.00660038 0)
(2.89415 -0.00390182 0)
(2.89421 -0.00120065 0)
(2.89428 0.00150296 0)
(2.89436 0.0042088 0)
(2.89444 0.00691672 0)
(2.89454 0.00962658 0)
(2.89465 0.0123383 0)
(2.89476 0.0150518 0)
(2.89489 0.0177673 0)
(2.89502 0.020485 0)
(2.89516 0.0232046 0)
(2.89531 0.0259257 0)
(2.89547 0.028656 0)
(2.89563 0.0314126 0)
(2.89581 0.0341519 0)
(2.93529 -0.00990025 0)
(2.93519 -0.00830464 0)
(2.9351 -0.00670992 0)
(2.93502 -0.00511618 0)
(2.93496 -0.00352349 0)
(2.93492 -0.00193195 0)
(2.93489 -0.000341661 0)
(2.93487 0.00124727 0)
(2.93487 0.00283473 0)
(2.93488 0.00442059 0)
(2.93491 0.00600473 0)
(2.93496 0.00758702 0)
(2.93502 0.00916738 0)
(2.9351 0.0107457 0)
(2.9352 0.0123215 0)
(2.93533 0.0138946 0)
(2.93548 0.0154662 0)
(2.93567 0.0170386 0)
(2.93589 0.0186054 0)
(2.93616 0.0201502 0)
(2.95427 -0.00351254 0)
(2.95425 -0.00303972 0)
(2.95424 -0.00256556 0)
(2.95423 -0.00209034 0)
(2.95423 -0.00161431 0)
(2.95423 -0.00113775 0)
(2.95424 -0.000660918 0)
(2.95426 -0.000184068 0)
(2.95428 0.000292541 0)
(2.95431 0.000768648 0)
(2.95434 0.00124398 0)
(2.95437 0.00171827 0)
(2.95441 0.00219115 0)
(2.95445 0.00266215 0)
(2.9545 0.00313079 0)
(2.95455 0.00359712 0)
(2.9546 0.00406099 0)
(2.95466 0.00451671 0)
(2.95471 0.0049527 0)
(2.95477 0.0053968 0)
(2.95322 -0.00282155 0)
(2.95318 -0.00237644 0)
(2.95313 -0.00193093 0)
(2.95309 -0.00148511 0)
(2.95306 -0.0010391 0)
(2.95303 -0.000592968 0)
(2.953 -0.000146819 0)
(2.95298 0.000299265 0)
(2.95296 0.000745214 0)
(2.95295 0.00119097 0)
(2.95294 0.00163648 0)
(2.95293 0.00208172 0)
(2.95293 0.00252667 0)
(2.95293 0.00297131 0)
(2.95293 0.00341585 0)
(2.95293 0.00386063 0)
(2.95292 0.00430528 0)
(2.95291 0.00474755 0)
(2.95289 0.00518766 0)
(2.95287 0.00564089 0)
(2.97108 -0.0066608 0)
(2.97108 -0.00558575 0)
(2.97109 -0.00450968 0)
(2.97109 -0.00343262 0)
(2.9711 -0.00235462 0)
(2.9711 -0.00127572 0)
(2.97111 -0.000195968 0)
(2.97113 0.000884582 0)
(2.97114 0.00196588 0)
(2.97116 0.00304786 0)
(2.97118 0.00413049 0)
(2.97121 0.00521369 0)
(2.97124 0.00629746 0)
(2.97128 0.00738183 0)
(2.97132 0.00846683 0)
(2.97137 0.00955215 0)
(2.97143 0.0106376 0)
(2.9715 0.0117264 0)
(2.97158 0.0128239 0)
(2.97166 0.0139099 0)
(2.99428 -0.0047938 0)
(2.99427 -0.0040573 0)
(2.99427 -0.00332108 0)
(2.99427 -0.00258518 0)
(2.99427 -0.00184963 0)
(2.99427 -0.00111449 0)
(2.99428 -0.000379787 0)
(2.99428 0.000354399 0)
(2.9943 0.001088 0)
(2.99431 0.00182091 0)
(2.99432 0.00255304 0)
(2.99434 0.00328424 0)
(2.99436 0.00401436 0)
(2.99438 0.00474319 0)
(2.99441 0.0054704 0)
(2.99444 0.00619572 0)
(2.99447 0.0069194 0)
(2.9945 0.0076414 0)
(2.99453 0.00835812 0)
(2.99457 0.00906812 0)
(2.99896 -0.000235346 0)
(2.99895 -0.000221422 0)
(2.99894 -0.000207479 0)
(2.99893 -0.000193585 0)
(2.99892 -0.000179813 0)
(2.99891 -0.00016623 0)
(2.9989 -0.000152899 0)
(2.99889 -0.000139878 0)
(2.99888 -0.000127221 0)
(2.99887 -0.000114972 0)
(2.99885 -0.000103171 0)
(2.99884 -9.18476e-05 0)
(2.99882 -8.10312e-05 0)
(2.9988 -7.07613e-05 0)
(2.99878 -6.1028e-05 0)
(2.99875 -5.16783e-05 0)
(2.99872 -4.26599e-05 0)
(2.99869 -3.45637e-05 0)
(2.99865 -2.41222e-05 0)
(2.99861 -3.5435e-05 0)
(2.99488 6.3934e-05 0)
(2.99487 7.94902e-05 0)
(2.99487 9.54016e-05 0)
(2.99486 0.000111661 0)
(2.99486 0.00012826 0)
(2.99485 0.000145199 0)
(2.99485 0.000162479 0)
(2.99484 0.000180108 0)
(2.99484 0.000198104 0)
(2.99484 0.000216489 0)
(2.99484 0.000235302 0)
(2.99484 0.00025459 0)
(2.99484 0.000274415 0)
(2.99484 0.000294865 0)
(2.99485 0.000316052 0)
(2.99486 0.000338064 0)
(2.99487 0.000360868 0)
(2.99488 0.000384552 0)
(2.99489 0.000410531 0)
(2.99491 0.000439688 0)
(2.99956 -0.000942983 0)
(2.99956 -0.000796627 0)
(2.99957 -0.000650223 0)
(2.99957 -0.000503769 0)
(2.99957 -0.000357276 0)
(2.99958 -0.000210753 0)
(2.99958 -6.4209e-05 0)
(2.99959 8.23404e-05 0)
(2.99959 0.000228878 0)
(2.9996 0.00037538 0)
(2.9996 0.000521817 0)
(2.99961 0.000668153 0)
(2.99961 0.000814343 0)
(2.99962 0.00096034 0)
(2.99963 0.00110608 0)
(2.99963 0.00125145 0)
(2.99964 0.0013964 0)
(2.99965 0.00154119 0)
(2.99966 0.00168613 0)
(2.99966 0.00182866 0)
(1.41231 -0.674879 0)
(1.4069 -0.667354 0)
(1.40129 -0.66014 0)
(1.39621 -0.652485 0)
(1.39144 -0.644518 0)
(1.38692 -0.636122 0)
(1.38248 -0.627225 0)
(1.3779 -0.61772 0)
(1.37288 -0.607479 0)
(1.36703 -0.596343 0)
(1.35988 -0.584115 0)
(1.35082 -0.570543 0)
(1.33913 -0.555307 0)
(1.32393 -0.537997 0)
(1.30414 -0.518119 0)
(1.27855 -0.495107 0)
(1.24577 -0.468221 0)
(1.20447 -0.436057 0)
(1.15385 -0.395645 0)
(1.09514 -0.342912 0)
(1.58569 -0.397515 0)
(1.57669 -0.383759 0)
(1.568 -0.370236 0)
(1.55964 -0.356713 0)
(1.55172 -0.343198 0)
(1.54436 -0.329714 0)
(1.5377 -0.31628 0)
(1.53189 -0.302908 0)
(1.5271 -0.289604 0)
(1.52347 -0.276368 0)
(1.52118 -0.263185 0)
(1.52037 -0.250028 0)
(1.52114 -0.23685 0)
(1.52355 -0.223581 0)
(1.52755 -0.210124 0)
(1.53297 -0.196342 0)
(1.53943 -0.182042 0)
(1.54628 -0.166969 0)
(1.55259 -0.150842 0)
(1.55722 -0.13349 0)
(1.92292 -0.335374 0)
(1.91891 -0.321408 0)
(1.91505 -0.307432 0)
(1.91094 -0.293239 0)
(1.90649 -0.278783 0)
(1.90164 -0.264067 0)
(1.89635 -0.249097 0)
(1.89057 -0.233879 0)
(1.88428 -0.218426 0)
(1.87744 -0.202752 0)
(1.87003 -0.186879 0)
(1.86208 -0.170831 0)
(1.8536 -0.15464 0)
(1.84467 -0.138338 0)
(1.83541 -0.121964 0)
(1.82602 -0.105554 0)
(1.81674 -0.0891409 0)
(1.80793 -0.072752 0)
(1.79997 -0.0564006 0)
(1.7933 -0.0400786 0)
(2.08962 -0.281849 0)
(2.08871 -0.272222 0)
(2.08859 -0.262605 0)
(2.08894 -0.253032 0)
(2.08969 -0.24346 0)
(2.09085 -0.233877 0)
(2.09242 -0.224278 0)
(2.09442 -0.214654 0)
(2.09684 -0.204997 0)
(2.09968 -0.195296 0)
(2.10291 -0.185537 0)
(2.1065 -0.17571 0)
(2.11039 -0.165799 0)
(2.11452 -0.155793 0)
(2.11879 -0.14568 0)
(2.1231 -0.135449 0)
(2.12732 -0.125095 0)
(2.13131 -0.114619 0)
(2.13497 -0.104029 0)
(2.1382 -0.0933442 0)
(2.29517 -0.203251 0)
(2.29231 -0.194142 0)
(2.28917 -0.184937 0)
(2.28589 -0.175679 0)
(2.28247 -0.166412 0)
(2.27892 -0.157139 0)
(2.27524 -0.147867 0)
(2.27144 -0.138602 0)
(2.26752 -0.129353 0)
(2.26351 -0.120126 0)
(2.25941 -0.11093 0)
(2.25528 -0.101771 0)
(2.25113 -0.092657 0)
(2.24702 -0.0835937 0)
(2.243 -0.074586 0)
(2.23913 -0.0656365 0)
(2.23547 -0.0567459 0)
(2.23209 -0.0479119 0)
(2.22903 -0.0391297 0)
(2.22632 -0.0303915 0)
(2.42944 -0.199074 0)
(2.43043 -0.192296 0)
(2.43104 -0.18549 0)
(2.43163 -0.17863 0)
(2.43232 -0.171743 0)
(2.43314 -0.164832 0)
(2.43412 -0.157891 0)
(2.43525 -0.150918 0)
(2.43652 -0.14391 0)
(2.43793 -0.136863 0)
(2.43944 -0.129774 0)
(2.44105 -0.122641 0)
(2.44272 -0.115462 0)
(2.44443 -0.108235 0)
(2.44616 -0.10096 0)
(2.44787 -0.0936382 0)
(2.44954 -0.0862707 0)
(2.45113 -0.078861 0)
(2.45264 -0.0714133 0)
(2.45406 -0.063933 0)
(2.55894 -0.149538 0)
(2.55698 -0.143028 0)
(2.55494 -0.136601 0)
(2.55283 -0.130193 0)
(2.55068 -0.123793 0)
(2.54851 -0.117405 0)
(2.54631 -0.111035 0)
(2.5441 -0.104682 0)
(2.54189 -0.0983496 0)
(2.53969 -0.0920396 0)
(2.53751 -0.0857541 0)
(2.53536 -0.0794945 0)
(2.53326 -0.0732624 0)
(2.53122 -0.0670584 0)
(2.52925 -0.060883 0)
(2.52738 -0.0547358 0)
(2.52562 -0.0486162 0)
(2.52397 -0.0425227 0)
(2.52246 -0.0364536 0)
(2.52107 -0.0304069 0)
(2.67232 -0.14134 0)
(2.67156 -0.136375 0)
(2.67118 -0.13137 0)
(2.67101 -0.126376 0)
(2.67099 -0.121365 0)
(2.67107 -0.116329 0)
(2.67124 -0.111269 0)
(2.67147 -0.106184 0)
(2.67178 -0.101074 0)
(2.67213 -0.095937 0)
(2.67254 -0.0907735 0)
(2.67299 -0.0855831 0)
(2.67346 -0.0803659 0)
(2.67397 -0.0751222 0)
(2.67449 -0.0698526 0)
(2.67502 -0.0645581 0)
(2.67554 -0.0592398 0)
(2.67607 -0.0538991 0)
(2.67659 -0.0485377 0)
(2.6771 -0.0431574 0)
(2.74981 -0.085948 0)
(2.74849 -0.0824884 0)
(2.74723 -0.0789902 0)
(2.746 -0.0754825 0)
(2.74481 -0.0719768 0)
(2.74363 -0.0684728 0)
(2.74247 -0.0649715 0)
(2.74133 -0.061475 0)
(2.74021 -0.0579846 0)
(2.73911 -0.0545014 0)
(2.73804 -0.051026 0)
(2.737 -0.0475592 0)
(2.736 -0.0441015 0)
(2.73504 -0.0406534 0)
(2.73412 -0.0372149 0)
(2.73325 -0.0337862 0)
(2.73244 -0.0303671 0)
(2.73167 -0.0269576 0)
(2.73097 -0.0235573 0)
(2.73032 -0.0201658 0)
(2.80215 -0.0693852 0)
(2.80224 -0.0669857 0)
(2.80224 -0.0645786 0)
(2.80219 -0.0621414 0)
(2.80211 -0.0596861 0)
(2.80205 -0.0572168 0)
(2.80199 -0.0547324 0)
(2.80196 -0.0522328 0)
(2.80195 -0.0497183 0)
(2.80197 -0.0471889 0)
(2.802 -0.0446452 0)
(2.80206 -0.0420872 0)
(2.80214 -0.0395154 0)
(2.80223 -0.0369302 0)
(2.80233 -0.0343323 0)
(2.80245 -0.0317221 0)
(2.80257 -0.0291005 0)
(2.80271 -0.0264681 0)
(2.80285 -0.0238257 0)
(2.80299 -0.0211743 0)
(2.84156 -0.0629753 0)
(2.84094 -0.0604642 0)
(2.84034 -0.0579927 0)
(2.83977 -0.0555216 0)
(2.83921 -0.0530489 0)
(2.83866 -0.0505784 0)
(2.83812 -0.0481108 0)
(2.83758 -0.0456455 0)
(2.83706 -0.0431825 0)
(2.83656 -0.0407219 0)
(2.83607 -0.0382641 0)
(2.83559 -0.0358093 0)
(2.83513 -0.0333577 0)
(2.83469 -0.0309094 0)
(2.83428 -0.0284646 0)
(2.83388 -0.0260233 0)
(2.83351 -0.0235857 0)
(2.83316 -0.0211516 0)
(2.83284 -0.0187212 0)
(2.83254 -0.0162942 0)
(2.89607 -0.0700354 0)
(2.89576 -0.0674582 0)
(2.89549 -0.0648621 0)
(2.89525 -0.0622712 0)
(2.89504 -0.0596763 0)
(2.89486 -0.0570745 0)
(2.8947 -0.0544664 0)
(2.89457 -0.0518524 0)
(2.89445 -0.0492326 0)
(2.89435 -0.0466068 0)
(2.89426 -0.0439751 0)
(2.89419 -0.0413375 0)
(2.89412 -0.0386943 0)
(2.89407 -0.0360454 0)
(2.89403 -0.0333912 0)
(2.894 -0.0307317 0)
(2.89397 -0.0280672 0)
(2.89396 -0.025398 0)
(2.89396 -0.0227242 0)
(2.89396 -0.0200461 0)
(2.94019 -0.0418264 0)
(2.93985 -0.040255 0)
(2.93952 -0.0386642 0)
(2.93919 -0.0370706 0)
(2.93887 -0.0354773 0)
(2.93856 -0.0338824 0)
(2.93825 -0.0322855 0)
(2.93796 -0.0306873 0)
(2.93767 -0.0290883 0)
(2.9374 -0.0274888 0)
(2.93714 -0.0258888 0)
(2.93689 -0.0242886 0)
(2.93666 -0.0226885 0)
(2.93644 -0.0210884 0)
(2.93623 -0.0194886 0)
(2.93604 -0.0178892 0)
(2.93586 -0.0162902 0)
(2.9357 -0.0146917 0)
(2.93555 -0.0130939 0)
(2.93541 -0.0114967 0)
(2.95599 -0.012261 0)
(2.95581 -0.0118694 0)
(2.95565 -0.0114838 0)
(2.95551 -0.0110825 0)
(2.95538 -0.0106727 0)
(2.95526 -0.0102579 0)
(2.95515 -0.00983778 0)
(2.95504 -0.00941229 0)
(2.95495 -0.00898166 0)
(2.95485 -0.00854621 0)
(2.95477 -0.00810621 0)
(2.95469 -0.0076619 0)
(2.95462 -0.00721354 0)
(2.95455 -0.00676139 0)
(2.95449 -0.00630571 0)
(2.95444 -0.00584676 0)
(2.95439 -0.00538482 0)
(2.95435 -0.00492015 0)
(2.95432 -0.00445303 0)
(2.95429 -0.00398373 0)
(2.95475 -0.0114579 0)
(2.95469 -0.0110375 0)
(2.95461 -0.0106277 0)
(2.95453 -0.0102129 0)
(2.95444 -0.00979274 0)
(2.95435 -0.00936979 0)
(2.95426 -0.00894485 0)
(2.95417 -0.00851784 0)
(2.95408 -0.00808875 0)
(2.954 -0.00765769 0)
(2.95391 -0.0072248 0)
(2.95383 -0.0067902 0)
(2.95375 -0.00635399 0)
(2.95367 -0.00591631 0)
(2.95359 -0.00547728 0)
(2.95352 -0.00503701 0)
(2.95346 -0.00459565 0)
(2.95339 -0.0041533 0)
(2.95333 -0.00371009 0)
(2.95328 -0.00326613 0)
(2.97148 -0.0279443 0)
(2.97143 -0.0268881 0)
(2.9714 -0.0258224 0)
(2.97136 -0.0247634 0)
(2.97133 -0.0237065 0)
(2.9713 -0.022649 0)
(2.97127 -0.0215906 0)
(2.97124 -0.0205315 0)
(2.97121 -0.0194716 0)
(2.97119 -0.0184106 0)
(2.97117 -0.0173484 0)
(2.97116 -0.0162851 0)
(2.97114 -0.0152205 0)
(2.97113 -0.0141547 0)
(2.97112 -0.0130877 0)
(2.97111 -0.0120195 0)
(2.9711 -0.0109501 0)
(2.97109 -0.00987946 0)
(2.97109 -0.00880769 0)
(2.97108 -0.0077348 0)
(2.9953 -0.0195253 0)
(2.99517 -0.0187976 0)
(2.99506 -0.0180645 0)
(2.99496 -0.0173285 0)
(2.99487 -0.0165924 0)
(2.99479 -0.0158561 0)
(2.99472 -0.0151192 0)
(2.99466 -0.0143818 0)
(2.99461 -0.0136442 0)
(2.99456 -0.0129065 0)
(2.99452 -0.0121687 0)
(2.99448 -0.0114308 0)
(2.99445 -0.0106929 0)
(2.99441 -0.00995504 0)
(2.99439 -0.00921728 0)
(2.99436 -0.00847962 0)
(2.99434 -0.0077421 0)
(2.99432 -0.00700473 0)
(2.9943 -0.00626754 0)
(2.99429 -0.00553056 0)
(2.99913 -0.000354002 0)
(2.99915 -0.000365694 0)
(2.99917 -0.000377535 0)
(2.99917 -0.000383338 0)
(2.99917 -0.000385154 0)
(2.99916 -0.000384634 0)
(2.99915 -0.000382164 0)
(2.99914 -0.000377883 0)
(2.99912 -0.000372026 0)
(2.99911 -0.000364829 0)
(2.99909 -0.000356481 0)
(2.99908 -0.000347132 0)
(2.99906 -0.000336908 0)
(2.99905 -0.000325923 0)
(2.99903 -0.000314277 0)
(2.99902 -0.000302061 0)
(2.99901 -0.000289363 0)
(2.99899 -0.000276264 0)
(2.99898 -0.000262842 0)
(2.99897 -0.000249179 0)
(2.99485 -0.000172352 0)
(2.99486 -0.000158502 0)
(2.99488 -0.000147341 0)
(2.99489 -0.000137864 0)
(2.9949 -0.000128673 0)
(2.99491 -0.000119393 0)
(2.99492 -0.000109992 0)
(2.99492 -0.000100371 0)
(2.99493 -9.04084e-05 0)
(2.99493 -8.00334e-05 0)
(2.99492 -6.92139e-05 0)
(2.99492 -5.79267e-05 0)
(2.99492 -4.61643e-05 0)
(2.99491 -3.39306e-05 0)
(2.99491 -2.12326e-05 0)
(2.9949 -8.08225e-06 0)
(2.9949 5.50618e-06 0)
(2.99489 1.95175e-05 0)
(2.99489 3.39366e-05 0)
(2.99488 4.87452e-05 0)
(2.99961 -0.00386285 0)
(2.9996 -0.00371781 0)
(2.99958 -0.00357102 0)
(2.99957 -0.00342468 0)
(2.99955 -0.00327868 0)
(2.99955 -0.00313275 0)
(2.99954 -0.00298685 0)
(2.99954 -0.002841 0)
(2.99954 -0.00269519 0)
(2.99954 -0.00254938 0)
(2.99954 -0.00240357 0)
(2.99954 -0.00225773 0)
(2.99954 -0.00211185 0)
(2.99954 -0.00196594 0)
(2.99954 -0.00181997 0)
(2.99955 -0.00167395 0)
(2.99955 -0.00152787 0)
(2.99955 -0.00138173 0)
(2.99956 -0.00123554 0)
(2.99956 -0.00108929 0)
(0.0733871 -1.01793 0)
(0.135579 -0.812116 0)
(0.0642492 -0.630028 0)
(0.0536218 -0.50522 0)
(0.0390359 -0.402068 0)
(0.0310384 -0.319777 0)
(0.0247564 -0.251669 0)
(0.0199688 -0.194892 0)
(0.0160874 -0.147604 0)
(0.0128187 -0.108438 0)
(0.0100063 -0.0764866 0)
(0.00756733 -0.0510055 0)
(0.00546436 -0.0313334 0)
(0.00368149 -0.0168224 0)
(0.00220805 -0.00680588 0)
(0.00103376 -0.000598904 0)
(0.000143868 0.00246079 0)
(-0.000511219 0.00307173 0)
(-0.000829036 0.00201144 0)
(-0.000611567 0.000581344 0)
(0.342601 -1.51183 0)
(0.351566 -1.1869 0)
(0.211589 -1.04914 0)
(0.192744 -0.857758 0)
(0.14804 -0.721279 0)
(0.125927 -0.592181 0)
(0.10526 -0.483228 0)
(0.0888167 -0.387202 0)
(0.07455 -0.304118 0)
(0.0618767 -0.232605 0)
(0.0504195 -0.172036 0)
(0.0400037 -0.121814 0)
(0.0305881 -0.081362 0)
(0.0222038 -0.0500319 0)
(0.014908 -0.0270488 0)
(0.00875946 -0.0114923 0)
(0.00381278 -0.00229226 0)
(0.000118265 0.00173839 0)
(-0.00203209 0.0020357 0)
(-0.00194446 0.000728094 0)
(0.568456 -1.48303 0)
(0.539677 -1.231 0)
(0.393656 -1.12497 0)
(0.353948 -0.947155 0)
(0.2901 -0.820607 0)
(0.253485 -0.689077 0)
(0.218085 -0.575782 0)
(0.188727 -0.471755 0)
(0.162121 -0.379269 0)
(0.137663 -0.297414 0)
(0.114823 -0.226226 0)
(0.0934152 -0.165588 0)
(0.0734783 -0.115345 0)
(0.0551903 -0.0751944 0)
(0.0387976 -0.0446279 0)
(0.0245637 -0.0228927 0)
(0.0127637 -0.00897368 0)
(0.00374844 -0.00158417 0)
(-0.00190786 0.000869439 0)
(-0.00300835 0.000540989 0)
(0.723291 -1.38869 0)
(0.671437 -1.20324 0)
(0.545045 -1.10761 0)
(0.488009 -0.961352 0)
(0.419764 -0.845171 0)
(0.372269 -0.724175 0)
(0.327335 -0.615278 0)
(0.288149 -0.512945 0)
(0.251585 -0.419648 0)
(0.217032 -0.335212 0)
(0.18393 -0.260169 0)
(0.152163 -0.194861 0)
(0.121906 -0.139543 0)
(0.0935473 -0.0942796 0)
(0.067594 -0.0588732 0)
(0.0446047 -0.0328126 0)
(0.0251654 -0.0152467 0)
(0.00995738 -0.00496559 0)
(-6.83855e-05 -0.000404205 0)
(-0.00332172 0.000331154 0)
(0.843546 -1.30542 0)
(0.777173 -1.16605 0)
(0.669519 -1.07939 0)
(0.60391 -0.958776 0)
(0.536004 -0.852684 0)
(0.481835 -0.743209 0)
(0.431119 -0.640262 0)
(0.384798 -0.541783 0)
(0.340528 -0.449775 0)
(0.297604 -0.36477 0)
(0.255521 -0.287672 0)
(0.214258 -0.219241 0)
(0.17416 -0.160138 0)
(0.135867 -0.110806 0)
(0.100208 -0.0713768 0)
(0.0681009 -0.0416042 0)
(0.0405081 -0.0208254 0)
(0.018482 -0.00794331 0)
(0.00333536 -0.00147056 0)