/*--------------------------------*- C++ -*----------------------------------*\
| =========                 |                                                 |
| \\      /  F ield         | OpenFOAM: The Open Source CFD Toolbox           |
|  \\    /   O peration     | Version:  v1806                                 |
|   \\  /    A nd           | Web:      www.OpenFOAM.com                      |
|    \\/     M anipulation  |                                                 |
\*---------------------------------------------------------------------------*/
FoamFile
{
    version     2.0;
    format      ascii;
    class       volVectorField;
    location    "2";
    object      U;
}
// * * * * * * * * * * * * * * * * * * * * * * * * * * * * * * * * * * * * * //

dimensions      [0 1 -1 0 0 0 0];


internalField   nonuniform List<vector> 
4400
(
(2.3885 2.58922 0)
(2.47496 1.92196 0)
(2.6171 1.3436 0)
(2.711 1.11028 0)
(2.81903 0.91733 0)
(2.83386 0.890982 0)
(2.89721 0.740496 0)
(2.80798 0.936678 0)
(2.90321 0.652147 0)
(2.72869 1.03909 0)
(2.90175 0.738058 0)
(2.69647 1.04563 0)
(2.73857 0.939836 0)
(2.80793 1.13203 0)
(2.70598 1.10108 0)
(2.70006 1.21709 0)
(2.68183 1.26456 0)
(2.75024 1.44688 0)
(2.70992 1.44484 0)
(2.76082 1.62991 0)
(3.03768 0.435278 0)
(2.87422 0.383593 0)
(2.84869 0.505916 0)
(2.87729 0.572395 0)
(2.88538 0.636575 0)
(2.84669 0.675032 0)
(2.88496 0.647141 0)
(2.79624 0.712104 0)
(2.90324 0.600796 0)
(2.77377 0.770936 0)
(2.88064 0.61238 0)
(2.76993 0.785051 0)
(2.79904 0.769347 0)
(2.83427 0.818673 0)
(2.73036 0.863511 0)
(2.78204 0.899926 0)
(2.77636 1.00359 0)
(2.80625 1.05657 0)
(2.76144 1.08269 0)
(2.84768 1.20228 0)
(1.88995 1.25383 0)
(2.25064 1.27597 0)
(2.47313 1.11109 0)
(2.59786 0.943715 0)
(2.70335 0.775249 0)
(2.77303 0.648015 0)
(2.84374 0.599394 0)
(2.81212 0.562302 0)
(2.89887 0.583653 0)
(2.79584 0.563561 0)
(2.87785 0.592392 0)
(2.82191 0.594185 0)
(2.82513 0.65792 0)
(2.84308 0.600502 0)
(2.77642 0.723651 0)
(2.84383 0.688355 0)
(2.8212 0.79864 0)
(2.82181 0.763496 0)
(2.81022 0.837993 0)
(2.90559 0.890843 0)
(2.93815 0.232911 0)
(2.91216 0.193773 0)
(2.7972 0.236441 0)
(2.80282 0.34082 0)
(2.81476 0.457404 0)
(2.83614 0.52055 0)
(2.84375 0.576174 0)
(2.84183 0.557444 0)
(2.87127 0.618289 0)
(2.8226 0.522757 0)
(2.87688 0.656948 0)
(2.83685 0.537954 0)
(2.83864 0.659239 0)
(2.85302 0.565237 0)
(2.83013 0.712719 0)
(2.85878 0.633033 0)
(2.83369 0.726384 0)
(2.83986 0.690288 0)
(2.85924 0.78496 0)
(2.92679 0.78708 0)
(2.06478 0.694268 0)
(2.24358 0.81458 0)
(2.46814 0.854357 0)
(2.60955 0.824151 0)
(2.69678 0.753028 0)
(2.76702 0.68527 0)
(2.79306 0.648629 0)
(2.84082 0.626477 0)
(2.83836 0.643624 0)
(2.85564 0.614693 0)
(2.86587 0.712735 0)
(2.84303 0.624426 0)
(2.85739 0.746965 0)
(2.85946 0.692293 0)
(2.86249 0.784573 0)
(2.85176 0.737159 0)
(2.85936 0.813145 0)
(2.87434 0.826447 0)
(2.89222 0.884997 0)
(2.92727 0.88999 0)
(2.94119 0.186539 0)
(2.96227 0.201645 0)
(2.87776 0.219619 0)
(2.84818 0.292945 0)
(2.84632 0.385315 0)
(2.85859 0.478244 0)
(2.85823 0.552308 0)
(2.87951 0.622326 0)
(2.85918 0.642234 0)
(2.89537 0.706859 0)
(2.86368 0.706432 0)
(2.87828 0.744291 0)
(2.88621 0.788021 0)
(2.87013 0.819775 0)
(2.88333 0.831764 0)
(2.86834 0.875682 0)
(2.90468 0.917267 0)
(2.90556 0.965315 0)
(2.91223 0.98106 0)
(2.93879 1.02956 0)
(2.32881 0.458748 0)
(2.38058 0.577115 0)
(2.53004 0.674557 0)
(2.65101 0.713936 0)
(2.74675 0.696718 0)
(2.80979 0.669447 0)
(2.85424 0.644171 0)
(2.88222 0.638482 0)
(2.89303 0.629778 0)
(2.91473 0.681249 0)
(2.89174 0.639765 0)
(2.92723 0.748401 0)
(2.91179 0.699425 0)
(2.9035 0.799301 0)
(2.92185 0.767562 0)
(2.91473 0.874491 0)
(2.93957 0.86713 0)
(2.93385 0.919522 0)
(2.94477 0.929776 0)
(2.97275 0.998241 0)
(2.97708 0.131337 0)
(3.02494 0.148311 0)
(2.96643 0.160655 0)
(2.92728 0.211838 0)
(2.90776 0.287629 0)
(2.89719 0.358412 0)
(2.90305 0.415878 0)
(2.90527 0.455502 0)
(2.92196 0.491726 0)
(2.91936 0.511276 0)
(2.93179 0.519428 0)
(2.94367 0.577609 0)
(2.92909 0.532829 0)
(2.9461 0.618778 0)
(2.95532 0.590252 0)
(2.95382 0.664016 0)
(2.95357 0.647474 0)
(2.96894 0.685068 0)
(2.9822 0.703516 0)
(3.00411 0.735865 0)
(2.52939 0.282019 0)
(2.52888 0.363092 0)
(2.6345 0.428764 0)
(2.73016 0.450068 0)
(2.80284 0.434301 0)
(2.85248 0.410122 0)
(2.88699 0.39105 0)
(2.90729 0.378023 0)
(2.92502 0.384181 0)
(2.92742 0.367358 0)
(2.95003 0.404746 0)
(2.93476 0.376122 0)
(2.94753 0.410149 0)
(2.9604 0.408792 0)
(2.95527 0.420724 0)
(2.96337 0.410606 0)
(2.961 0.432557 0)
(2.98897 0.430604 0)
(2.98948 0.445467 0)
(3.00707 0.428141 0)
(2.99647 0.0745865 0)
(3.03768 0.0883292 0)
(2.98056 0.0996653 0)
(2.93909 0.135045 0)
(2.92105 0.190685 0)
(2.91969 0.240839 0)
(2.92185 0.27887 0)
(2.92675 0.308861 0)
(2.92757 0.324622 0)
(2.9378 0.334489 0)
(2.93761 0.353364 0)
(2.93708 0.326634 0)
(2.95522 0.383993 0)
(2.94496 0.328853 0)
(2.94666 0.380485 0)
(2.95946 0.332636 0)
(2.96574 0.380517 0)
(2.97426 0.337153 0)
(2.97181 0.351482 0)
(2.99051 0.321303 0)
(2.6679 0.20177 0)
(2.65501 0.264395 0)
(2.73474 0.324907 0)
(2.80362 0.362789 0)
(2.84925 0.369931 0)
(2.87874 0.364527 0)
(2.89941 0.359794 0)
(2.91633 0.361094 0)
(2.92883 0.361162 0)
(2.94297 0.379045 0)
(2.93855 0.373674 0)
(2.95992 0.401838 0)
(2.95274 0.405023 0)
(2.95222 0.400404 0)
(2.96266 0.438203 0)
(2.96183 0.423056 0)
(2.96745 0.449226 0)
(2.96043 0.428233 0)
(2.97092 0.445391 0)
(2.98036 0.436529 0)
(3.01705 0.0821351 0)
(3.05429 0.101454 0)
(3.00845 0.110841 0)
(2.97363 0.131252 0)
(2.9617 0.173109 0)
(2.96075 0.223045 0)
(2.96293 0.270664 0)
(2.96424 0.309804 0)
(2.96844 0.341067 0)
(2.96581 0.368062 0)
(2.96994 0.380336 0)
(2.97578 0.420304 0)
(2.96263 0.3991 0)
(2.98226 0.457735 0)
(2.97861 0.441752 0)
(2.97443 0.480332 0)
(2.9794 0.474363 0)
(2.97659 0.511077 0)
(2.98766 0.515693 0)
(2.98569 0.536753 0)
(2.7867 0.145101 0)
(2.7635 0.195121 0)
(2.81929 0.24968 0)
(2.87356 0.292069 0)
(2.90788 0.308575 0)
(2.92784 0.307358 0)
(2.94087 0.300792 0)
(2.95146 0.295528 0)
(2.96105 0.297526 0)
(2.96514 0.298545 0)
(2.97818 0.313079 0)
(2.97053 0.315499 0)
(2.9828 0.32626 0)
(2.98724 0.356673 0)
(2.97953 0.332988 0)
(2.98966 0.379305 0)
(2.99379 0.365416 0)
(2.99663 0.406178 0)
(2.99737 0.4 0)
(2.99998 0.429876 0)
(3.03634 0.0411881 0)
(3.07114 0.0469085 0)
(3.03465 0.0448231 0)
(2.9964 0.047919 0)
(2.97702 0.067739 0)
(2.97211 0.0980622 0)
(2.97303 0.129132 0)
(2.97636 0.154892 0)
(2.97749 0.174202 0)
(2.98157 0.18695 0)
(2.98244 0.198578 0)
(2.98191 0.194281 0)
(2.9952 0.219294 0)
(2.9801 0.195276 0)
(2.99192 0.218835 0)
(2.99699 0.213594 0)
(2.99449 0.214177 0)
(3.00236 0.210812 0)
(3.00186 0.213846 0)
(3.01018 0.215855 0)
(2.85816 0.0912366 0)
(2.83306 0.122434 0)
(2.87414 0.155207 0)
(2.92173 0.181522 0)
(2.95258 0.191075 0)
(2.96776 0.188318 0)
(2.97482 0.180764 0)
(2.97851 0.174177 0)
(2.98092 0.169517 0)
(2.98515 0.168787 0)
(2.98344 0.16528 0)
(2.99286 0.170538 0)
(2.98669 0.16776 0)
(2.98962 0.157085 0)
(3.00141 0.184178 0)
(2.98912 0.147594 0)
(2.99264 0.169879 0)
(3.00034 0.145816 0)
(3.00169 0.153539 0)
(3.0036 0.129363 0)
(3.04471 0.0306905 0)
(3.07085 0.0391038 0)
(3.04108 0.0454663 0)
(3.00548 0.0531399 0)
(2.98479 0.0691624 0)
(2.97782 0.0907154 0)
(2.97845 0.112915 0)
(2.98106 0.132635 0)
(2.98451 0.148527 0)
(2.98572 0.160976 0)
(2.98844 0.169696 0)
(2.98958 0.181442 0)
(2.98442 0.175742 0)
(2.99846 0.199925 0)
(2.98686 0.186257 0)
(2.98647 0.189887 0)
(2.99704 0.206406 0)
(2.99179 0.200113 0)
(2.99218 0.199368 0)
(2.99084 0.191677 0)
(2.91255 0.0662335 0)
(2.89517 0.0842664 0)
(2.92549 0.101828 0)
(2.96078 0.118615 0)
(2.98288 0.129269 0)
(2.9923 0.134288 0)
(2.99442 0.136459 0)
(2.99403 0.138081 0)
(2.99361 0.140641 0)
(2.99293 0.143638 0)
(2.99461 0.14966 0)
(2.99114 0.151322 0)
(2.99743 0.160379 0)
(2.99411 0.169782 0)
(2.98705 0.157074 0)
(3.00173 0.189911 0)
(2.99753 0.177112 0)
(2.98997 0.190043 0)
(2.99272 0.189118 0)
(2.99455 0.205519 0)
(3.0477 0.0124999 0)
(3.05989 0.0195177 0)
(3.03743 0.0261867 0)
(3.0117 0.030888 0)
(2.9964 0.0370588 0)
(2.99129 0.0451483 0)
(2.99172 0.05393 0)
(2.99419 0.0620193 0)
(2.99625 0.0688035 0)
(2.99849 0.0742671 0)
(2.99885 0.0782152 0)
(3.00062 0.0803136 0)
(3.00304 0.0877455 0)
(2.996 0.0789509 0)
(3.00619 0.0938945 0)
(3.00509 0.0946215 0)
(2.99668 0.0841272 0)
(3.00271 0.0947946 0)
(3.0043 0.0974729 0)
(3.00488 0.104037 0)
(2.95383 0.0254411 0)
(2.94725 0.028512 0)
(2.96734 0.0313095 0)
(2.98842 0.0364969 0)
(3.0002 0.0407974 0)
(3.00376 0.0429157 0)
(3.00327 0.0431531 0)
(3.00163 0.0425584 0)
(3.00039 0.0417067 0)
(2.99963 0.0411948 0)
(2.99903 0.0403122 0)
(3.00025 0.0413963 0)
(2.99723 0.0384635 0)
(3.00091 0.0387092 0)
(3.00287 0.044326 0)
(2.99497 0.0298484 0)
(2.99991 0.0396867 0)
(3.00425 0.0357938 0)
(3.00238 0.0359294 0)
(3.00177 0.0289344 0)
(3.02962 0.000304118 0)
(3.03148 0.00537343 0)
(3.01825 0.00930569 0)
(3.00495 0.0101844 0)
(2.99746 0.0102595 0)
(2.99511 0.0108799 0)
(2.99543 0.0123309 0)
(2.99658 0.0141973 0)
(2.99764 0.0161218 0)
(2.99826 0.0177472 0)
(2.99898 0.0192633 0)
(2.99852 0.0201666 0)
(2.9992 0.0207118 0)
(2.99998 0.0238279 0)
(2.99676 0.019321 0)
(2.99959 0.0237872 0)
(3.0007 0.0249771 0)
(2.99771 0.0227303 0)
(2.99785 0.0222975 0)
(2.99821 0.0224278 0)
(1.05431 -1.95327 0)
(1.12574 -1.72822 0)
(0.880001 -1.4202 0)
(0.875969 -1.182 0)
(0.760391 -0.937807 0)
(0.725463 -0.723563 0)
(0.675558 -0.517697 0)
(0.645288 -0.324443 0)
(0.623727 -0.138379 0)
(0.611871 0.0427773 0)
(0.608879 0.222264 0)
(0.614488 0.403525 0)
(0.631203 0.5868 0)
(0.649917 0.783973 0)
(0.702064 0.973563 0)
(0.714476 1.21266 0)
(0.839436 1.39932 0)
(0.810991 1.71502 0)
(1.06385 1.88126 0)
(0.95679 2.27986 0)
(2.08175 -0.635729 0)
(1.8037 -0.58023 0)
(1.64617 -0.544216 0)
(1.49629 -0.465917 0)
(1.40185 -0.393695 0)
(1.32382 -0.305417 0)
(1.27005 -0.2135 0)
(1.23215 -0.115373 0)
(1.20867 -0.0130097 0)
(1.19826 0.0923469 0)
(1.19966 0.1991 0)
(1.21258 0.305936 0)
(1.23751 0.411852 0)
(1.27656 0.514166 0)
(1.32686 0.614208 0)
(1.40156 0.708783 0)
(1.48338 0.791112 0)
(1.6089 0.892294 0)
(1.75197 0.904152 0)
(1.91458 1.08676 0)
(1.82723 -0.773636 0)
(1.82705 -0.700584 0)
(1.80624 -0.614075 0)
(1.79248 -0.527478 0)
(1.77209 -0.433423 0)
(1.75644 -0.339817 0)
(1.74269 -0.244403 0)
(1.73293 -0.148951 0)
(1.72753 -0.0534938 0)
(1.72686 0.0417874 0)
(1.73123 0.136855 0)
(1.74076 0.231697 0)
(1.75539 0.326205 0)
(1.77467 0.42051 0)
(1.79931 0.514552 0)
(1.82654 0.605935 0)
(1.8591 0.702649 0)
(1.89519 0.780004 0)
(1.92101 0.8878 0)
(1.98464 0.931755 0)
(2.42167 -0.184288 0)
(2.32612 -0.169989 0)
(2.24958 -0.152581 0)
(2.18469 -0.129155 0)
(2.1336 -0.102829 0)
(2.09266 -0.0721992 0)
(2.06146 -0.0386927 0)
(2.03879 -0.00265449 0)
(2.02391 0.035158 0)
(2.01628 0.073994 0)
(2.01554 0.113058 0)
(2.02153 0.15153 0)
(2.0343 0.188614 0)
(2.05417 0.223467 0)
(2.08137 0.255224 0)
(2.11719 0.283901 0)
(2.16165 0.306068 0)
(2.21641 0.327799 0)
(2.28628 0.335212 0)
(2.36585 0.35964 0)
(2.1918 -0.39203 0)
(2.20813 -0.35114 0)
(2.21767 -0.307053 0)
(2.22399 -0.260997 0)
(2.22736 -0.212951 0)
(2.22949 -0.163931 0)
(2.23095 -0.114063 0)
(2.23237 -0.0637123 0)
(2.23417 -0.0130514 0)
(2.23663 0.0378059 0)
(2.23991 0.0887779 0)
(2.24408 0.139811 0)
(2.24907 0.190859 0)
(2.25471 0.24187 0)
(2.26081 0.292794 0)
(2.26678 0.343158 0)
(2.27242 0.393716 0)
(2.27724 0.441735 0)
(2.27835 0.492576 0)
(2.29113 0.531172 0)
(2.6266 -0.069268 0)
(2.5779 -0.0580668 0)
(2.53698 -0.0460528 0)
(2.50271 -0.0329164 0)
(2.47468 -0.0188047 0)
(2.4521 -0.00360459 0)
(2.43451 0.0124955 0)
(2.42147 0.0293362 0)
(2.41265 0.0466868 0)
(2.4078 0.064287 0)
(2.40678 0.0818539 0)
(2.40952 0.0990935 0)
(2.41604 0.115712 0)
(2.42646 0.131426 0)
(2.441 0.145961 0)
(2.46001 0.159186 0)
(2.48386 0.170648 0)
(2.51339 0.180955 0)
(2.55086 0.188691 0)
(2.59969 0.197101 0)
(2.44657 -0.245967 0)
(2.4641 -0.218006 0)
(2.47762 -0.188636 0)
(2.48817 -0.158201 0)
(2.49641 -0.126911 0)
(2.50292 -0.0950275 0)
(2.50816 -0.0627019 0)
(2.51244 -0.0300616 0)
(2.51602 0.00280981 0)
(2.51906 0.0358475 0)
(2.52168 0.0689996 0)
(2.5239 0.102231 0)
(2.5257 0.135506 0)
(2.527 0.168776 0)
(2.52764 0.201975 0)
(2.52739 0.23497 0)
(2.52601 0.267716 0)
(2.52316 0.299823 0)
(2.5183 0.331598 0)
(2.5109 0.361032 0)
(2.78079 -0.0259786 0)
(2.75163 -0.0180038 0)
(2.72679 -0.00999046 0)
(2.7059 -0.00182385 0)
(2.68862 0.00656644 0)
(2.6746 0.0152101 0)
(2.66355 0.0240555 0)
(2.65523 0.0330678 0)
(2.64947 0.0421812 0)
(2.64612 0.0513112 0)
(2.64512 0.0603627 0)
(2.6464 0.0692354 0)
(2.65 0.0778312 0)
(2.65594 0.0860602 0)
(2.66434 0.0938464 0)
(2.67537 0.101146 0)
(2.68926 0.107912 0)
(2.70661 0.114235 0)
(2.729 0.119997 0)
(2.7618 0.124999 0)
(2.62332 -0.151247 0)
(2.63843 -0.133856 0)
(2.65085 -0.115677 0)
(2.66104 -0.0968734 0)
(2.66937 -0.0775812 0)
(2.67619 -0.0579163 0)
(2.68175 -0.0379634 0)
(2.68624 -0.017799 0)
(2.68982 0.00252068 0)
(2.6926 0.0229478 0)
(2.69464 0.0434399 0)
(2.69596 0.0639601 0)
(2.69657 0.0844695 0)
(2.6964 0.104922 0)
(2.69539 0.125262 0)
(2.69342 0.145412 0)
(2.69031 0.165291 0)
(2.68578 0.184779 0)
(2.67891 0.203821 0)
(2.66547 0.222204 0)
(2.87028 -0.000593067 0)
(2.85119 0.00380737 0)
(2.83479 0.00804374 0)
(2.82091 0.0121712 0)
(2.80933 0.0162446 0)
(2.79985 0.0202974 0)
(2.7923 0.0243417 0)
(2.78651 0.0283778 0)
(2.78239 0.0323942 0)
(2.77984 0.0363724 0)
(2.77882 0.0402902 0)
(2.77928 0.0441232 0)
(2.78124 0.047849 0)
(2.78471 0.0514506 0)
(2.78975 0.0549192 0)
(2.79646 0.0582602 0)
(2.80506 0.0614953 0)
(2.81609 0.0646729 0)
(2.83119 0.067767 0)
(2.85502 0.0703395 0)
(2.73578 -0.108187 0)
(2.74782 -0.0954743 0)
(2.75802 -0.0822815 0)
(2.76657 -0.0686997 0)
(2.77371 -0.0548083 0)
(2.77962 -0.0406745 0)
(2.78447 -0.0263541 0)
(2.78838 -0.0118946 0)
(2.79144 0.00266401 0)
(2.79375 0.0172864 0)
(2.79532 0.0319396 0)
(2.7962 0.0465921 0)
(2.79637 0.06121 0)
(2.79583 0.0757564 0)
(2.79451 0.0901886 0)
(2.79235 0.104454 0)
(2.78919 0.118486 0)
(2.78463 0.132204 0)
(2.77741 0.14557 0)
(2.76391 0.158669 0)
(2.93762 -0.00436821 0)
(2.92446 0.000136015 0)
(2.91305 0.00445684 0)
(2.90331 0.00864229 0)
(2.89512 0.0127313 0)
(2.88835 0.0167535 0)
(2.8829 0.0207282 0)
(2.87867 0.0246681 0)
(2.87557 0.0285804 0)
(2.87356 0.0324695 0)
(2.8726 0.0363377 0)
(2.87265 0.0401875 0)
(2.87372 0.044023 0)
(2.87582 0.047852 0)
(2.87897 0.0516849 0)
(2.88325 0.0555373 0)
(2.88885 0.0594411 0)
(2.89631 0.0634531 0)
(2.90699 0.0675675 0)
(2.92398 0.0714201 0)
(2.83084 -0.0806354 0)
(2.84027 -0.0711511 0)
(2.84841 -0.0613626 0)
(2.85536 -0.0513248 0)
(2.86123 -0.0410891 0)
(2.86614 -0.0306997 0)
(2.87021 -0.0201944 0)
(2.87351 -0.00960685 0)
(2.87611 0.00103294 0)
(2.87807 0.0116971 0)
(2.87941 0.022359 0)
(2.88016 0.032992 0)
(2.88033 0.0435685 0)
(2.8799 0.0540584 0)
(2.87885 0.0644288 0)
(2.87712 0.0746451 0)
(2.87452 0.0846624 0)
(2.87064 0.0944107 0)
(2.86433 0.103863 0)
(2.85326 0.113253 0)
(2.98904 0.00792666 0)
(2.9796 0.00994037 0)
(2.97133 0.0117965 0)
(2.9642 0.0135319 0)
(2.95814 0.0151767 0)
(2.95307 0.0167541 0)
(2.94892 0.0182818 0)
(2.94562 0.0197739 0)
(2.94312 0.0212412 0)
(2.94138 0.0226929 0)
(2.94037 0.0241371 0)
(2.94006 0.0255818 0)
(2.94045 0.0270358 0)
(2.94155 0.0285095 0)
(2.94336 0.030015 0)
(2.94598 0.0315646 0)
(2.94957 0.0331795 0)
(2.95464 0.0349139 0)
(2.96225 0.0367912 0)
(2.97431 0.0384236 0)
(2.88822 -0.0531815 0)
(2.89559 -0.0473516 0)
(2.90205 -0.0412848 0)
(2.90764 -0.0350234 0)
(2.91242 -0.0286055 0)
(2.91647 -0.0220641 0)
(2.91984 -0.0154287 0)
(2.92259 -0.00872558 0)
(2.92477 -0.00197818 0)
(2.92642 0.00479163 0)
(2.92756 0.011563 0)
(2.92821 0.0183154 0)
(2.92838 0.0250281 0)
(2.92806 0.03168 0)
(2.92723 0.0382505 0)
(2.92581 0.0447197 0)
(2.92362 0.0510589 0)
(2.92024 0.0572026 0)
(2.91476 0.0630997 0)
(2.90575 0.0690734 0)
(3.0143 0.0049456 0)
(3.00772 0.00674106 0)
(3.00188 0.00836245 0)
(2.99678 0.0098441 0)
(2.99241 0.0112151 0)
(2.9887 0.0124997 0)
(2.98563 0.013718 0)
(2.98315 0.014887 0)
(2.98123 0.016021 0)
(2.97983 0.0171325 0)
(2.97896 0.0182329 0)
(2.97858 0.0193326 0)
(2.97869 0.0204427 0)
(2.9793 0.0215744 0)
(2.98044 0.0227381 0)
(2.98219 0.0239402 0)
(2.98472 0.025193 0)
(2.98845 0.0265578 0)
(2.99413 0.028122 0)
(3.00282 0.0295341 0)
(2.93438 -0.0373637 0)
(2.9396 -0.0334719 0)
(2.94426 -0.0293513 0)
(2.94836 -0.0250385 0)
(2.9519 -0.0205668 0)
(2.95493 -0.0159662 0)
(2.95747 -0.0112635 0)
(2.95956 -0.00648249 0)
(2.96121 -0.00164508 0)
(2.96245 0.00322864 0)
(2.9633 0.00811976 0)
(2.96376 0.0130103 0)
(2.96383 0.0178824 0)
(2.96352 0.0227175 0)
(2.96279 0.0274967 0)
(2.96155 0.0322036 0)
(2.95965 0.0368192 0)
(2.95674 0.0412824 0)
(2.95223 0.0454932 0)
(2.94537 0.0496927 0)
(3.02903 0.0050484 0)
(3.0251 0.00602077 0)
(3.02156 0.00681826 0)
(3.01843 0.00746936 0)
(3.0157 0.00799979 0)
(3.01337 0.00843222 0)
(3.01142 0.00878658 0)
(3.00983 0.0090805 0)
(3.00858 0.00932972 0)
(3.00768 0.00954868 0)
(3.0071 0.00975093 0)
(3.00684 0.00994941 0)
(3.00691 0.0101568 0)
(3.00731 0.0103859 0)
(3.00806 0.0106506 0)
(3.00923 0.0109641 0)
(3.01096 0.0113417 0)
(3.0135 0.0118338 0)
(3.01728 0.0125335 0)
(3.02279 0.0132077 0)
(2.96618 -0.016693 0)
(2.96939 -0.0154808 0)
(2.97231 -0.0140722 0)
(2.97493 -0.012495 0)
(2.97722 -0.0107755 0)
(2.9792 -0.00893799 0)
(2.98088 -0.00700504 0)
(2.98226 -0.0049974 0)
(2.98336 -0.00293424 0)
(2.98419 -0.000833545 0)
(2.98475 0.00128769 0)
(2.98504 0.0034131 0)
(2.98507 0.00552683 0)
(2.98484 0.00761333 0)
(2.98431 0.00965714 0)
(2.98344 0.0116434 0)
(2.9821 0.0135541 0)
(2.98008 0.0153375 0)
(2.97708 0.0168949 0)
(2.9728 0.0183957 0)
(3.02255 0.00362979 0)
(3.02079 0.00397922 0)
(3.01914 0.00419387 0)
(3.01765 0.0042906 0)
(3.01632 0.00428588 0)
(3.01515 0.00419524 0)
(3.01416 0.00403312 0)
(3.01333 0.00381286 0)
(3.01267 0.00354679 0)
(3.01217 0.00324639 0)
(3.01183 0.00292237 0)
(3.01165 0.00258486 0)
(3.01163 0.0022435 0)
(3.01179 0.00190765 0)
(3.01213 0.00158674 0)
(3.01269 0.00129033 0)
(3.01355 0.00102851 0)
(3.01482 0.000824522 0)
(3.01666 0.000738975 0)
(3.01916 0.000751359 0)
(2.68873 -0.994967 0)
(2.66262 -1.02957 0)
(2.61584 -1.05907 0)
(2.54921 -1.08697 0)
(2.46451 -1.11346 0)
(2.37222 -1.14397 0)
(2.2879 -1.18449 0)
(2.22991 -1.24246 0)
(2.21308 -1.32497 0)
(2.24262 -1.43751 0)
(2.31101 -1.5805 0)
(2.39994 -1.74603 0)
(2.48541 -1.91895 0)
(2.54279 -2.0808 0)
(2.55061 -2.21604 0)
(2.49262 -2.31929 0)
(2.35861 -2.39516 0)
(2.14555 -2.44103 0)
(1.85696 -2.42936 0)
(1.49636 -2.27604 0)
(2.76698 -0.551115 0)
(2.79308 -0.550172 0)
(2.82761 -0.546127 0)
(2.86509 -0.538963 0)
(2.89616 -0.525876 0)
(2.90975 -0.503826 0)
(2.89705 -0.471868 0)
(2.85329 -0.430701 0)
(2.78004 -0.38363 0)
(2.68641 -0.336292 0)
(2.58946 -0.295904 0)
(2.51296 -0.269919 0)
(2.48283 -0.263847 0)
(2.51487 -0.283758 0)
(2.5998 -0.331709 0)
(2.70076 -0.399733 0)
(2.76251 -0.481277 0)
(2.73597 -0.558461 0)
(2.59876 -0.613832 0)
(2.36181 -0.647135 0)
(2.51368 -0.821617 0)
(2.46453 -0.837789 0)
(2.42312 -0.859657 0)
(2.39029 -0.885895 0)
(2.3723 -0.918749 0)
(2.3701 -0.957902 0)
(2.38049 -1.00181 0)
(2.39586 -1.04702 0)
(2.40585 -1.0884 0)
(2.39964 -1.11968 0)
(2.36833 -1.13504 0)
(2.30686 -1.13206 0)
(2.21601 -1.11092 0)
(2.10392 -1.07624 0)
(1.98582 -1.03611 0)
(1.8827 -0.996017 0)
(1.81329 -0.958245 0)
(1.78522 -0.922124 0)
(1.79077 -0.882574 0)
(1.8117 -0.833296 0)
(2.77548 -0.317415 0)
(2.78572 -0.301729 0)
(2.78487 -0.280539 0)
(2.77199 -0.256578 0)
(2.74515 -0.230323 0)
(2.70599 -0.203757 0)
(2.65946 -0.17928 0)
(2.61399 -0.159533 0)
(2.58034 -0.146976 0)
(2.56933 -0.143435 0)
(2.58835 -0.149007 0)
(2.63719 -0.162599 0)
(2.70595 -0.180701 0)
(2.77701 -0.198879 0)
(2.83011 -0.213056 0)
(2.84777 -0.220726 0)
(2.82083 -0.221263 0)
(2.75083 -0.215798 0)
(2.64914 -0.206865 0)
(2.5333 -0.196465 0)
(2.53283 -0.696786 0)
(2.5193 -0.70488 0)
(2.51104 -0.714635 0)
(2.50832 -0.72534 0)
(2.5081 -0.735645 0)
(2.50596 -0.743217 0)
(2.49684 -0.745526 0)
(2.47598 -0.740398 0)
(2.44008 -0.726677 0)
(2.38812 -0.704982 0)
(2.32216 -0.677131 0)
(2.24786 -0.645753 0)
(2.17429 -0.613856 0)
(2.11223 -0.583846 0)
(2.07133 -0.557002 0)
(2.05697 -0.533089 0)
(2.06782 -0.510552 0)
(2.09648 -0.487052 0)
(2.1325 -0.460212 0)
(2.16625 -0.428578 0)
(2.80476 -0.249156 0)
(2.79151 -0.23136 0)
(2.77191 -0.213536 0)
(2.74828 -0.196219 0)
(2.72392 -0.18064 0)
(2.70322 -0.16793 0)
(2.69109 -0.15889 0)
(2.69197 -0.153797 0)
(2.70856 -0.151993 0)
(2.74053 -0.152304 0)
(2.78386 -0.15335 0)
(2.83117 -0.153635 0)
(2.87326 -0.15176 0)
(2.90131 -0.146832 0)
(2.90903 -0.138697 0)
(2.89387 -0.127988 0)
(2.85751 -0.115819 0)
(2.80524 -0.103353 0)
(2.74454 -0.0914159 0)
(2.68305 -0.0801906 0)
(2.64866 -0.591621 0)
(2.64735 -0.590625 0)
(2.64582 -0.588358 0)
(2.64219 -0.583697 0)
(2.63381 -0.575769 0)
(2.6183 -0.563965 0)
(2.5939 -0.548118 0)
(2.55999 -0.52856 0)
(2.51741 -0.506159 0)
(2.46881 -0.482097 0)
(2.41854 -0.457678 0)
(2.37219 -0.43408 0)
(2.33559 -0.412106 0)
(2.31332 -0.391999 0)
(2.30753 -0.373416 0)
(2.31729 -0.355534 0)
(2.33895 -0.337299 0)
(2.36728 -0.317713 0)
(2.39702 -0.29607 0)
(2.42414 -0.272108 0)
(2.83908 -0.177988 0)
(2.82556 -0.165285 0)
(2.81284 -0.153908 0)
(2.80328 -0.144081 0)
(2.79924 -0.136165 0)
(2.80275 -0.13017 0)
(2.81504 -0.125842 0)
(2.83607 -0.122708 0)
(2.86427 -0.120103 0)
(2.89654 -0.117276 0)
(2.92862 -0.113506 0)
(2.95582 -0.108244 0)
(2.97394 -0.101238 0)
(2.98005 -0.0925975 0)
(2.97301 -0.0827512 0)
(2.95363 -0.0723098 0)
(2.92439 -0.0618885 0)
(2.88889 -0.0519502 0)
(2.85105 -0.0427108 0)
(2.81426 -0.0341265 0)
(2.7754 -0.380941 0)
(2.77232 -0.377899 0)
(2.7661 -0.37356 0)
(2.75521 -0.367149 0)
(2.73865 -0.358538 0)
(2.71592 -0.347855 0)
(2.6873 -0.335435 0)
(2.6539 -0.32179 0)
(2.61777 -0.307535 0)
(2.58178 -0.293288 0)
(2.54926 -0.279563 0)
(2.52351 -0.26668 0)
(2.50713 -0.254704 0)
(2.50142 -0.243446 0)
(2.50615 -0.232518 0)
(2.51963 -0.221428 0)
(2.53914 -0.209692 0)
(2.56163 -0.196929 0)
(2.58432 -0.18293 0)
(2.60522 -0.167664 0)
(2.85075 -0.0966764 0)
(2.84478 -0.0909602 0)
(2.84301 -0.0859409 0)
(2.84631 -0.0818545 0)
(2.85532 -0.0786786 0)
(2.8702 -0.0761756 0)
(2.89037 -0.0740212 0)
(2.91446 -0.0718449 0)
(2.94038 -0.069268 0)
(2.96553 -0.06596 0)
(2.98719 -0.0616982 0)
(3.0029 -0.0564158 0)
(3.01091 -0.0502189 0)
(3.01041 -0.043363 0)
(3.00162 -0.0361937 0)
(2.98574 -0.0290694 0)
(2.96466 -0.0222888 0)
(2.94062 -0.0160405 0)
(2.91581 -0.0103845 0)
(2.89198 -0.00527195 0)
(2.85094 -0.311684 0)
(2.84571 -0.303954 0)
(2.83648 -0.295227 0)
(2.82305 -0.285318 0)
(2.8053 -0.274388 0)
(2.78358 -0.262752 0)
(2.75872 -0.250773 0)
(2.73209 -0.238818 0)
(2.70551 -0.227217 0)
(2.68106 -0.21622 0)
(2.66082 -0.205959 0)
(2.6465 -0.19643 0)
(2.63917 -0.187495 0)
(2.63907 -0.178917 0)
(2.64556 -0.170398 0)
(2.65727 -0.161639 0)
(2.67245 -0.152381 0)
(2.68926 -0.142448 0)
(2.70609 -0.131757 0)
(2.72181 -0.120314 0)
(2.90366 -0.0937393 0)
(2.90503 -0.090084 0)
(2.91037 -0.0868794 0)
(2.91944 -0.084332 0)
(2.93206 -0.0822204 0)
(2.94772 -0.0802363 0)
(2.96558 -0.0780902 0)
(2.9844 -0.0755161 0)
(3.00268 -0.0722941 0)
(3.01883 -0.0682832 0)
(3.03137 -0.0634449 0)
(3.03914 -0.0578484 0)
(3.04148 -0.0516577 0)
(3.03828 -0.0450996 0)
(3.03001 -0.0384231 0)
(3.01763 -0.0318567 0)
(3.00239 -0.0255753 0)
(2.98566 -0.0196819 0)
(2.96869 -0.014207 0)
(2.95247 -0.0091233 0)
(2.91051 -0.241808 0)
(2.90176 -0.234586 0)
(2.89 -0.226635 0)
(2.87569 -0.217974 0)
(2.85918 -0.208821 0)
(2.84104 -0.199433 0)
(2.82208 -0.190057 0)
(2.80336 -0.180915 0)
(2.78604 -0.172184 0)
(2.77134 -0.163963 0)
(2.7603 -0.156273 0)
(2.75367 -0.14905 0)
(2.7518 -0.142164 0)
(2.75454 -0.13544 0)
(2.76128 -0.128688 0)
(2.77111 -0.121728 0)
(2.78291 -0.114419 0)
(2.7956 -0.106671 0)
(2.80822 -0.0984458 0)
(2.8201 -0.0897536 0)
(2.95083 -0.0420939 0)
(2.95798 -0.0404986 0)
(2.96777 -0.0389739 0)
(2.97963 -0.0377121 0)
(2.99303 -0.036562 0)
(3.00735 -0.0353493 0)
(3.02185 -0.0339232 0)
(3.03567 -0.0321584 0)
(3.04792 -0.0299679 0)
(3.05775 -0.0273162 0)
(3.06449 -0.0242246 0)
(3.06767 -0.0207692 0)
(3.06713 -0.0170683 0)
(3.06305 -0.0132636 0)
(3.05587 -0.00949778 0)
(3.04628 -0.00589388 0)
(3.03507 -0.00254126 0)
(3.02309 0.000508882 0)
(3.01107 0.00325347 0)
(2.9996 0.00571408 0)
(2.94973 -0.135773 0)
(2.94014 -0.13155 0)
(2.92841 -0.127288 0)
(2.91508 -0.122841 0)
(2.90071 -0.118327 0)
(2.88588 -0.113869 0)
(2.87128 -0.109554 0)
(2.85766 -0.105448 0)
(2.84578 -0.101584 0)
(2.83632 -0.0979617 0)
(2.82981 -0.0945435 0)
(2.82655 -0.0912574 0)
(2.82659 -0.0880072 0)
(2.82969 -0.0846842 0)
(2.8354 -0.0811819 0)
(2.84307 -0.077409 0)
(2.852 -0.0732991 0)
(2.8615 -0.0688159 0)
(2.87097 -0.0639536 0)
(2.87996 -0.0587303 0)
(2.97284 -0.0569795 0)
(2.98027 -0.055076 0)
(2.98954 -0.052869 0)
(3.00014 -0.0505751 0)
(3.01156 -0.0480876 0)
(3.02326 -0.0453311 0)
(3.03465 -0.0422783 0)
(3.04513 -0.0389257 0)
(3.05411 -0.0352925 0)
(3.06109 -0.0314233 0)
(3.06573 -0.0273878 0)
(3.0678 -0.0232744 0)
(3.06732 -0.0191811 0)
(3.06446 -0.0152054 0)
(3.05956 -0.0114332 0)
(3.05308 -0.00793087 0)
(3.04556 -0.00473917 0)
(3.03751 -0.00187287 0)
(3.02939 0.000676923 0)
(3.02157 0.00293744 0)
(2.98419 -0.0800815 0)
(2.97732 -0.0769235 0)
(2.96892 -0.0740407 0)
(2.95936 -0.0713028 0)
(2.94905 -0.0688078 0)
(2.93843 -0.0666037 0)
(2.92799 -0.0646944 0)
(2.91826 -0.063063 0)
(2.90974 -0.0616714 0)
(2.90288 -0.0604588 0)
(2.898 -0.0593467 0)
(2.89531 -0.0582451 0)
(2.89481 -0.0570606 0)
(2.89638 -0.0557038 0)
(2.89972 -0.0540973 0)
(2.90443 -0.0521814 0)
(2.91009 -0.0499182 0)
(2.91625 -0.0472923 0)
(2.92254 -0.0443085 0)
(2.92866 -0.0409883 0)
(2.99177 -0.03764 0)
(2.99658 -0.0369986 0)
(3.00252 -0.0360052 0)
(3.00933 -0.0347827 0)
(3.01672 -0.0332572 0)
(3.02436 -0.0313974 0)
(3.0319 -0.029206 0)
(3.03896 -0.0267053 0)
(3.04519 -0.0239388 0)
(3.05027 -0.0209698 0)
(3.05396 -0.0178758 0)
(3.05613 -0.0147425 0)
(3.05674 -0.0116565 0)
(3.05588 -0.0086981 0)
(3.05374 -0.00593473 0)
(3.05055 -0.00341652 0)
(3.04663 -0.00117387 0)
(3.04227 0.000782168 0)
(3.03775 0.00245748 0)
(3.03328 0.0038707 0)
(3.00187 -0.0178759 0)
(2.99819 -0.0163733 0)
(2.99359 -0.0151781 0)
(2.98821 -0.0142028 0)
(2.98226 -0.0135173 0)
(2.97598 -0.0131553 0)
(2.96964 -0.0131171 0)
(2.96354 -0.013382 0)
(2.95799 -0.0139087 0)
(2.95327 -0.0146378 0)
(2.94961 -0.0154966 0)
(2.94718 -0.0164041 0)
(2.94603 -0.017278 0)
(2.94613 -0.0180409 0)
(2.94736 -0.0186265 0)
(2.94952 -0.0189829 0)
(2.95237 -0.019076 0)
(2.95568 -0.0188888 0)
(2.95921 -0.01842 0)
(2.96276 -0.0176813 0)
(2.99782 -0.0142213 0)
(2.99994 -0.0144911 0)
(3.00256 -0.0145974 0)
(3.0056 -0.0145507 0)
(3.00899 -0.0142947 0)
(3.0126 -0.0138052 0)
(3.01629 -0.0130761 0)
(3.0199 -0.012114 0)
(3.02327 -0.0109396 0)
(3.02624 -0.00958698 0)
(3.02867 -0.0081018 0)
(3.03045 -0.00653757 0)
(3.03155 -0.00495131 0)
(3.03194 -0.00339874 0)
(3.03169 -0.00192991 0)
(3.03087 -0.000585631 0)
(3.0296 0.000604564 0)
(3.02802 0.0016231 0)
(3.02625 0.00246369 0)
(3.02439 0.00312932 0)
(0.47326 -1.40076 0)
(0.517876 -1.21029 0)
(0.406193 -1.10056 0)
(0.388334 -0.959367 0)
(0.33758 -0.848962 0)
(0.308375 -0.738963 0)
(0.277945 -0.640836 0)
(0.252417 -0.548986 0)
(0.22897 -0.464324 0)
(0.207183 -0.386062 0)
(0.186277 -0.314172 0)
(0.165626 -0.24873 0)
(0.144723 -0.190016 0)
(0.123218 -0.138451 0)
(0.100975 -0.094522 0)
(0.0781427 -0.0587308 0)
(0.0552689 -0.0314863 0)
(0.0334384 -0.0128893 0)
(0.0144784 -0.00249933 0)
(0.00133042 0.000368867 0)
(1.01714 -0.840093 0)
(0.939731 -0.75922 0)
(0.860518 -0.732811 0)
(0.795689 -0.679152 0)
(0.741424 -0.629491 0)
(0.693607 -0.575287 0)
(0.65102 -0.519948 0)
(0.611454 -0.463599 0)
(0.573294 -0.407019 0)
(0.534978 -0.350886 0)
(0.49508 -0.295919 0)
(0.452323 -0.242908 0)
(0.405649 -0.192716 0)
(0.354336 -0.146297 0)
(0.298159 -0.104684 0)
(0.237621 -0.0689338 0)
(0.174274 -0.0400124 0)
(0.111141 -0.0185974 0)
(0.0533188 -0.00506475 0)
(0.00898699 -0.000153392 0)
(1.0427 -0.711265 0)
(1.01087 -0.681093 0)
(0.987633 -0.638919 0)
(0.961791 -0.598141 0)
(0.935746 -0.553614 0)
(0.909229 -0.508469 0)
(0.881635 -0.462314 0)
(0.852257 -0.415744 0)
(0.820048 -0.369019 0)
(0.783742 -0.322463 0)
(0.741888 -0.276437 0)
(0.692943 -0.231388 0)
(0.635427 -0.187884 0)
(0.568136 -0.146634 0)
(0.490452 -0.108498 0)
(0.402735 -0.0744783 0)
(0.306836 -0.0456471 0)
(0.206737 -0.0229501 0)
(0.109411 -0.00729498 0)
(0.0260529 -0.000676278 0)
(1.24824 -0.470511 0)
(1.21737 -0.451 0)
(1.18536 -0.431812 0)
(1.1556 -0.409974 0)
(1.12723 -0.386556 0)
(1.0996 -0.361281 0)
(1.07186 -0.334461 0)
(1.04288 -0.306218 0)
(1.01121 -0.276744 0)
(0.975121 -0.246248 0)
(0.932556 -0.21499 0)
(0.881234 -0.183311 0)
(0.818797 -0.151661 0)
(0.743066 -0.120637 0)
(0.652443 -0.091003 0)
(0.546456 -0.0637003 0)
(0.426466 -0.0398079 0)
(0.296564 -0.0203887 0)
(0.164716 -0.00658022 0)
(0.044238 -0.000617109 0)
(1.27662 -0.452523 0)
(1.26425 -0.429081 0)
(1.2522 -0.403966 0)
(1.23877 -0.378254 0)
(1.224 -0.351932 0)
(1.20763 -0.325236 0)
(1.18913 -0.298257 0)
(1.16768 -0.271088 0)
(1.14208 -0.243781 0)
(1.11068 -0.216376 0)
(1.07137 -0.188928 0)
(1.0216 -0.16154 0)
(0.958524 -0.134401 0)
(0.879283 -0.107834 0)
(0.781452 -0.082331 0)
(0.663707 -0.0585811 0)
(0.5267 -0.0374445 0)
(0.374161 -0.0198301 0)
(0.214281 -0.00682426 0)
(0.0614496 -0.000813973 0)
(1.43799 -0.336454 0)
(1.41922 -0.315847 0)
(1.40032 -0.295363 0)
(1.38114 -0.274912 0)
(1.36146 -0.25456 0)
(1.34095 -0.234344 0)
(1.31905 -0.214312 0)
(1.29492 -0.194483 0)
(1.26732 -0.174845 0)
(1.23452 -0.155361 0)
(1.19418 -0.135977 0)
(1.14334 -0.116656 0)
(1.07854 -0.0974244 0)
(0.996056 -0.0784266 0)
(0.892439 -0.0599792 0)
(0.7653 -0.0426049 0)
(0.614348 -0.0270194 0)
(0.442699 -0.0140265 0)
(0.258495 -0.00455075 0)
(0.076948 -0.000406638 0)
(1.50792 -0.309505 0)
(1.49563 -0.285213 0)
(1.4813 -0.260906 0)
(1.46512 -0.237067 0)
(1.44703 -0.21397 0)
(1.42686 -0.191851 0)
(1.40435 -0.170906 0)
(1.37897 -0.151264 0)
(1.34984 -0.13297 0)
(1.31558 -0.115967 0)
(1.27406 -0.100098 0)
(1.22237 -0.0851344 0)
(1.15673 -0.0708304 0)
(1.07278 -0.0570136 0)
(0.966131 -0.0436809 0)