/*--------------------------------*- C++ -*----------------------------------*\
| =========                 |                                                 |
| \\      /  F ield         | OpenFOAM: The Open Source CFD Toolbox           |
|  \\    /   O peration     | Version:  v1806                                 |
|   \\  /    A nd           | Web:      www.OpenFOAM.com                      |
|    \\/     M anipulation  |                                                 |
\*---------------------------------------------------------------------------*/
FoamFile
{
    version     2.0;
    format      ascii;
    class       volVectorField;
    location    "350";
    object      U;
}
// * * * * * * * * * * * * * * * * * * * * * * * * * * * * * * * * * * * * * //

dimensions      [0 1 -1 0 0 0 0];


internalField   nonuniform List<vector> 
5228
(
(-0.0133478 0.00114268 0.000294671)
(-0.0133433 0.00114759 3.18155e-08)
(-0.0133433 0.00114759 -3.18165e-08)
(-0.0133478 0.00114268 -0.000294671)
(-0.0100949 0.000902058 0.000289607)
(-0.0100856 0.000901459 -6.43703e-08)
(-0.0100856 0.000901458 6.43697e-08)
(-0.0100949 0.000902058 -0.000289607)
(-0.0087052 -0.00042596 0.000312057)
(-0.00870489 -0.00042465 -2.07732e-08)
(-0.00870489 -0.00042465 2.07723e-08)
(-0.0087052 -0.00042596 -0.000312057)
(-0.00786056 -0.00186118 0.000340718)
(-0.00784792 -0.00186563 -1.92218e-08)
(-0.00784792 -0.00186563 1.92216e-08)
(-0.00786056 -0.00186118 -0.000340718)
(0.039332 0.00354605 0.00040814)
(0.0393295 0.00355975 -1.0344e-07)
(0.0393295 0.00355975 1.03438e-07)
(0.039332 0.00354605 -0.00040814)
(0.00404286 0.00338386 0.000410139)
(0.00404645 0.00339962 -8.55818e-08)
(0.00404645 0.00339962 8.55801e-08)
(0.00404286 0.00338386 -0.000410139)
(0.00407172 0.000384599 0.000379866)
(0.00408374 0.000388155 -2.30483e-08)
(0.00408374 0.000388155 2.30465e-08)
(0.00407172 0.0003846 -0.000379866)
(0.042911 0.00350552 0.000377901)
(0.04293 0.00350817 -3.4625e-08)
(0.04293 0.00350817 3.4625e-08)
(0.042911 0.00350552 -0.000377901)
(0.235197 0.0147785 0.000450118)
(0.235166 0.0147465 -3.46992e-07)
(0.235166 0.0147465 3.46991e-07)
(0.235197 0.0147785 -0.000450118)
(0.215301 0.0204276 0.000554684)
(0.215236 0.0204478 -9.26382e-08)
(0.215236 0.0204478 9.26364e-08)
(0.215301 0.0204276 -0.000554684)
(0.116448 -0.00571196 0.000532306)
(0.116426 -0.00578916 1.42182e-07)
(0.116426 -0.00578916 -1.42184e-07)
(0.116448 -0.00571196 -0.000532306)
(0.147063 -0.00347134 0.000699655)
(0.147038 -0.00344122 3.48373e-07)
(0.147038 -0.00344122 -3.48376e-07)
(0.147063 -0.00347134 -0.000699655)
(0.134534 -0.000734274 0.000772175)
(0.134467 -0.000610373 2.73816e-07)
(0.134467 -0.000610373 -2.7382e-07)
(0.134534 -0.000734274 -0.000772175)
(0.0705603 -0.00796343 0.000567971)
(0.0705106 -0.00798327 -3.17611e-07)
(0.0705106 -0.00798327 3.1761e-07)
(0.0705603 -0.00796343 -0.000567971)
(0.0592093 -0.0017203 0.000571412)
(0.0592203 -0.00170265 7.90129e-08)
(0.0592203 -0.00170265 -7.90145e-08)
(0.0592093 -0.0017203 -0.000571412)
(0.131902 -0.00213443 0.000619052)
(0.131847 -0.0021218 3.50678e-08)
(0.131847 -0.0021218 -3.50705e-08)
(0.131902 -0.00213443 -0.000619052)
(0.0546937 0.00329448 0.000426909)
(0.0547378 0.00328077 -9.95801e-09)
(0.0547378 0.00328078 9.95773e-09)
(0.0546937 0.00329448 -0.000426909)
(0.00866753 -0.000758496 0.000390626)
(0.00869902 -0.000784113 -1.55865e-09)
(0.00869902 -0.000784113 1.55779e-09)
(0.00866753 -0.000758496 -0.000390626)
(0.0338842 -0.00026209 0.000400583)
(0.0338907 -0.000257233 -2.18315e-07)
(0.0338907 -0.000257233 2.18312e-07)
(0.0338842 -0.00026209 -0.000400583)
(0.0781709 0.00201813 0.0006649)
(0.0781495 0.00199878 3.12495e-07)
(0.0781495 0.00199878 -3.12497e-07)
(0.0781709 0.00201813 -0.0006649)
(0.0563069 -5.75293e-05 0.000549394)
(0.0562703 -5.33523e-05 -1.9871e-07)
(0.0562703 -5.33523e-05 1.98713e-07)
(0.0563069 -5.75297e-05 -0.000549394)
(0.276057 0.0308374 0.000586911)
(0.276053 0.0308171 -5.12425e-09)
(0.276053 0.0308171 5.11898e-09)
(0.276057 0.0308374 -0.000586911)
(0.291779 0.0470741 0.000581107)
(0.291781 0.0470758 2.42026e-07)
(0.291781 0.0470758 -2.42028e-07)
(0.291779 0.0470741 -0.000581107)
(0.222258 -0.00551089 -0.00090593)
(0.222157 -0.00550841 -3.99234e-07)
(0.222157 -0.00550841 3.99235e-07)
(0.222258 -0.00551089 0.00090593)
(0.200841 -0.00746461 -0.0011723)
(0.200744 -0.00749071 -9.06598e-07)
(0.200744 -0.00749071 9.06599e-07)
(0.200841 -0.00746461 0.0011723)
(-0.00926764 0.00320514 0.000382919)
(-0.00926832 0.00320238 -5.80325e-08)
(-0.00926832 0.00320238 5.8033e-08)
(-0.00926764 0.00320514 -0.000382919)
(-0.00411649 0.00261439 0.000384225)
(-0.00411689 0.00260701 -4.92232e-08)
(-0.00411689 0.00260701 4.92235e-08)
(-0.00411649 0.00261439 -0.000384225)
(-0.00704393 0.00107948 0.000356608)
(-0.00702805 0.00106761 -5.40284e-08)
(-0.00702805 0.00106761 5.40294e-08)
(-0.00704393 0.00107948 -0.000356608)
(0.278972 0.000925834 -0.000353569)
(0.278982 0.000939009 9.91227e-08)
(0.278982 0.000939009 -9.91226e-08)
(0.278972 0.000925834 0.000353569)
(0.282533 0.00100585 -0.000316268)
(0.282537 0.00101326 -5.09439e-08)
(0.282537 0.00101326 5.09441e-08)
(0.282533 0.00100585 0.000316268)
(0.246027 -0.00324169 -0.000723286)
(0.246015 -0.00322136 -2.74021e-07)
(0.246015 -0.00322136 2.74022e-07)
(0.246027 -0.00324169 0.000723286)
(0.255743 -0.00282059 -0.000592941)
(0.255715 -0.00278685 -1.71282e-07)
(0.255715 -0.00278685 1.71282e-07)
(0.255743 -0.00282059 0.000592941)
(0.266885 -0.00168121 -0.000495524)
(0.266877 -0.00165419 -1.75729e-07)
(0.266877 -0.00165419 1.75729e-07)
(0.266885 -0.00168121 0.000495524)
(0.272483 -0.00167031 -0.000420432)
(0.272452 -0.00165319 -2.09046e-07)
(0.272452 -0.00165319 2.09046e-07)
(0.272483 -0.00167031 0.000420432)
(0.278621 -0.00351894 -0.000362936)
(0.278608 -0.00349068 -1.50995e-07)
(0.278608 -0.00349068 1.50995e-07)
(0.278621 -0.00351894 0.000362936)
(0.281939 -0.00187917 -0.000319769)
(0.281927 -0.0018809 -9.11703e-08)
(0.281927 -0.0018809 9.11706e-08)
(0.281939 -0.00187917 0.000319769)
(0.28555 -0.00243382 -0.000283056)
(0.285544 -0.00241805 -7.83466e-08)
(0.285544 -0.00241805 7.83469e-08)
(0.28555 -0.00243382 0.000283056)
(0.285549 0.000642401 -0.000280927)
(0.285542 0.000644979 -2.95491e-08)
(0.285542 0.000644979 2.95493e-08)
(0.285549 0.000642401 0.000280927)
(0.130471 -0.017564 -0.00151565)
(0.130182 -0.0175961 -7.98491e-07)
(0.130182 -0.0175961 7.98491e-07)
(0.130471 -0.017564 0.00151565)
(0.210192 -0.0721117 -0.000911427)
(0.210016 -0.0722317 -2.44596e-07)
(0.210016 -0.0722317 2.44595e-07)
(0.210192 -0.0721117 0.000911427)
(0.228164 -0.0459134 -0.000823076)
(0.228174 -0.0459725 -4.31283e-10)
(0.228174 -0.0459725 4.30938e-10)
(0.228164 -0.0459134 0.000823076)
(0.240945 -0.0271667 -0.000726333)
(0.240925 -0.0271739 2.83668e-08)
(0.240925 -0.0271739 -2.83667e-08)
(0.240945 -0.0271667 0.000726333)
(0.252442 -0.0193585 -0.000630705)
(0.252459 -0.0193619 1.36826e-08)
(0.252459 -0.0193619 -1.36824e-08)
(0.252442 -0.0193585 0.000630705)
(0.260507 -0.0129048 -0.000546329)
(0.260502 -0.012905 -3.43876e-08)
(0.260502 -0.012905 3.43879e-08)
(0.260507 -0.0129048 0.000546329)
(0.268349 -0.00971205 -0.000470933)
(0.268347 -0.00972356 -1.00769e-07)
(0.268347 -0.00972356 1.0077e-07)
(0.268349 -0.00971205 0.000470933)
(0.273701 -0.0075679 -0.000408964)
(0.273691 -0.00757898 -8.45263e-08)
(0.273691 -0.00757898 8.45267e-08)
(0.273701 -0.0075679 0.000408964)
(0.278772 -0.00679535 -0.000358208)
(0.278764 -0.00679461 -1.29055e-07)
(0.278764 -0.00679461 1.29055e-07)
(0.278772 -0.00679535 0.000358208)
(0.282249 -0.00556571 -0.000314998)
(0.282239 -0.00556813 -7.62084e-08)
(0.282239 -0.00556813 7.62087e-08)
(0.282249 -0.00556571 0.000314998)
(0.285714 -0.00502193 -0.000279399)
(0.285707 -0.00502091 -1.08329e-07)
(0.285707 -0.00502091 1.08329e-07)
(0.285714 -0.00502193 0.000279399)
(0.288309 -0.00393422 -0.000247045)
(0.288296 -0.00394143 -9.35911e-08)
(0.288296 -0.00394143 9.35914e-08)
(0.288309 -0.00393422 0.000247045)
(0.288063 -0.00168868 -0.000251959)
(0.288053 -0.00169102 -8.5736e-08)
(0.288053 -0.00169102 8.57363e-08)
(0.288063 -0.00168868 0.000251959)
(0.288254 0.000488613 -0.000251513)
(0.288248 0.00049313 -7.9401e-08)
(0.288248 0.00049313 7.94012e-08)
(0.288254 0.000488613 0.000251513)
(0.28857 0.00262254 -0.000245951)
(0.288561 0.00263012 -7.9465e-08)
(0.288561 0.00263012 7.94652e-08)
(0.28857 0.00262254 0.000245951)
(0.285907 0.00392071 -0.000275664)
(0.285902 0.00391046 -6.08744e-08)
(0.285902 0.00391046 6.08747e-08)
(0.285907 0.00392071 0.000275664)
(0.28284 0.00351054 -0.000310321)
(0.282839 0.00352405 -4.36078e-08)
(0.282839 0.00352405 4.3608e-08)
(0.28284 0.00351054 0.000310321)
(0.279152 0.00629184 -0.000351332)
(0.279156 0.00627961 -9.48577e-09)
(0.279156 0.00627961 9.486e-09)
(0.279152 0.00629184 0.000351332)
(0.273786 0.00370862 -0.000409685)
(0.273773 0.00372236 -9.42962e-08)
(0.273773 0.00372236 9.42965e-08)
(0.273786 0.00370862 0.000409685)
(0.268445 0.00616181 -0.000470657)
(0.268464 0.00619037 4.45051e-08)
(0.268464 0.00619037 -4.45048e-08)
(0.268445 0.00616181 0.000470657)
(0.261638 0.00757832 -0.000536764)
(0.261635 0.00759769 7.01505e-08)
(0.261635 0.00759769 -7.01503e-08)
(0.261638 0.00757832 0.000536764)
(0.253512 0.0125414 -0.000619185)
(0.253513 0.0125653 -5.78078e-08)
(0.253513 0.0125653 5.78082e-08)
(0.253512 0.0125414 0.000619185)
(0.242075 0.016769 -0.000718259)
(0.242031 0.0167707 -8.80613e-08)
(0.242031 0.0167707 8.8061e-08)
(0.242075 0.016769 0.000718259)
(0.227016 0.0311873 -0.000838028)
(0.227019 0.031223 -1.73924e-07)
(0.227019 0.031223 1.73924e-07)
(0.227016 0.0311873 0.000838028)
(0.203649 0.0445659 -0.00100219)
(0.203528 0.0446269 -2.28633e-07)
(0.203528 0.0446269 2.28631e-07)
(0.203649 0.0445659 0.00100219)
(0.192949 -0.12889 -0.00081879)
(0.192973 -0.128925 -3.39487e-08)
(0.192973 -0.128925 3.39423e-08)
(0.192949 -0.12889 0.00081879)
(0.243332 -0.100177 -0.000540196)
(0.243396 -0.100213 -6.54168e-08)
(0.243396 -0.100213 6.54192e-08)
(0.243332 -0.100177 0.000540196)
(0.241542 -0.067786 -0.000683145)
(0.241456 -0.0678147 -4.1945e-07)
(0.241456 -0.0678147 4.19451e-07)
(0.241542 -0.067786 0.000683145)
(0.24197 -0.0505858 -0.000688718)
(0.241964 -0.0505586 -2.78575e-07)
(0.241964 -0.0505586 2.78576e-07)
(0.24197 -0.0505858 0.000688718)
(0.250972 -0.0354781 -0.000632904)
(0.250943 -0.0354774 -1.90723e-07)
(0.250943 -0.0354774 1.90723e-07)
(0.250972 -0.0354781 0.000632904)
(0.257636 -0.0269324 -0.000563918)
(0.257629 -0.0269241 -2.14169e-07)
(0.257629 -0.0269241 2.14169e-07)
(0.257636 -0.0269324 0.000563918)
(0.265291 -0.0200033 -0.000494777)
(0.265262 -0.0200151 -2.05204e-07)
(0.265262 -0.0200151 2.05204e-07)
(0.265291 -0.0200033 0.000494777)
(0.271035 -0.0156623 -0.000432534)
(0.27102 -0.0156789 -1.59133e-07)
(0.27102 -0.0156789 1.59134e-07)
(0.271035 -0.0156623 0.000432534)
(0.276113 -0.0125293 -0.000381021)
(0.276104 -0.0125443 -7.35101e-08)
(0.276104 -0.0125443 7.35104e-08)
(0.276113 -0.0125293 0.000381021)
(0.279928 -0.0105171 -0.00033867)
(0.279925 -0.0105287 -8.09336e-08)
(0.279925 -0.0105287 8.09339e-08)
(0.279928 -0.0105171 0.00033867)
(0.283333 -0.00869897 -0.000301137)
(0.283324 -0.00870631 -8.36526e-08)
(0.283324 -0.00870631 8.36528e-08)
(0.283333 -0.00869897 0.000301137)
(0.286351 -0.00732607 -0.000267276)
(0.286342 -0.0073398 -1.01589e-07)
(0.286342 -0.0073398 1.0159e-07)
(0.286351 -0.00732607 0.000267276)
(0.288924 -0.00604263 -0.00023774)
(0.288913 -0.00605106 -7.20198e-08)
(0.288913 -0.00605106 7.20201e-08)
(0.288924 -0.00604263 0.00023774)
(0.291163 -0.00544861 -0.000212194)
(0.291155 -0.00545619 -6.86586e-08)
(0.291155 -0.00545619 6.86588e-08)
(0.291163 -0.00544861 0.000212194)
(0.290821 -0.00360868 -0.000220031)
(0.290812 -0.00360982 -8.42835e-08)
(0.290812 -0.00360982 8.42838e-08)
(0.290821 -0.00360868 0.000220031)
(0.290554 -0.0017251 -0.000224823)
(0.290545 -0.00171772 -7.35758e-08)
(0.290545 -0.00171772 7.35761e-08)
(0.290554 -0.0017251 0.000224823)
(0.290469 0.000421588 -0.000224977)
(0.290461 0.000424765 -4.05537e-08)
(0.290461 0.000424765 4.0554e-08)
(0.290469 0.000421588 0.000224977)
(0.290709 0.00276353 -0.000220976)
(0.290702 0.00276042 -5.13118e-08)
(0.290702 0.00276042 5.1312e-08)
(0.290709 0.00276353 0.000220976)
(0.291048 0.00474643 -0.000213983)
(0.29104 0.00474538 -6.39602e-08)
(0.29104 0.00474538 6.39604e-08)
(0.291048 0.00474643 0.000213983)
(0.289059 0.00484509 -0.000237598)
(0.289047 0.00485091 -7.56268e-08)
(0.289047 0.00485091 7.5627e-08)
(0.289059 0.00484509 0.000237598)
(0.286405 0.006277 -0.00026675)
(0.286404 0.00627554 -6.64825e-08)
(0.286404 0.00627554 6.64827e-08)
(0.286405 0.006277 0.00026675)
(0.283485 0.00684907 -0.000300584)
(0.283487 0.00686123 1.2474e-08)
(0.283487 0.00686123 -1.24738e-08)
(0.283485 0.00684907 0.000300584)
(0.279663 0.00876976 -0.000341782)
(0.27967 0.00876957 -1.37361e-08)
(0.27967 0.00876957 1.37363e-08)
(0.279663 0.00876976 0.000341782)
(0.275886 0.00935482 -0.000386217)
(0.275888 0.00937316 3.19721e-08)
(0.275888 0.00937316 -3.19719e-08)
(0.275886 0.00935482 0.000386217)
(0.270343 0.0125116 -0.00043936)
(0.270336 0.0125279 -6.96806e-08)
(0.270336 0.0125279 6.96808e-08)
(0.270343 0.0125116 0.00043936)
(0.264828 0.0145852 -0.000505554)
(0.264802 0.0145864 -1.52395e-07)
(0.264802 0.0145864 1.52395e-07)
(0.264828 0.0145852 0.000505554)
(0.255859 0.0199563 -0.000583505)
(0.255832 0.0199553 -2.61089e-07)
(0.255832 0.0199553 2.61089e-07)
(0.255859 0.0199563 0.000583505)
(0.248514 0.0238649 -0.000674364)
(0.248455 0.0238698 -3.69782e-07)
(0.248455 0.0238698 3.69782e-07)
(0.248514 0.0238649 0.000674364)
(0.234485 0.0358397 -0.000771354)
(0.234443 0.0358351 -4.84326e-07)
(0.234443 0.0358351 4.84326e-07)
(0.234485 0.0358397 0.000771354)
(0.2299 0.0461176 -0.000841352)
(0.229846 0.0461409 -4.47747e-07)
(0.229846 0.0461409 4.47747e-07)
(0.2299 0.0461176 0.000841352)
(0.171856 0.0902399 -0.00114153)
(0.171889 0.0902605 -3.77126e-07)
(0.171889 0.0902605 3.77126e-07)
(0.171856 0.0902399 0.00114153)
(0.218407 0.0807528 -0.000830868)
(0.218451 0.0807591 -2.17067e-07)
(0.218451 0.0807591 2.17066e-07)
(0.218407 0.0807528 0.000830868)
(0.252013 0.109771 -0.000471187)
(0.252205 0.109816 8.86285e-07)
(0.252205 0.109816 -8.86281e-07)
(0.252013 0.109771 0.000471187)
(0.290305 -0.120276 7.31879e-06)
(0.290479 -0.120342 1.25445e-06)
(0.290479 -0.120342 -1.25445e-06)
(0.290305 -0.120276 -7.31879e-06)
(0.00712315 0.00396446 0.000255258)
(0.00712951 0.0039686 -6.06167e-08)
(0.00712951 0.0039686 6.06163e-08)
(0.00712315 0.00396446 -0.000255258)
(-0.0107964 0.000119764 0.00024513)
(-0.0107847 0.000125056 -5.36556e-08)
(-0.0107847 0.000125056 5.36549e-08)
(-0.0107964 0.000119764 -0.00024513)
(-0.0127794 -0.000256558 0.000356334)
(-0.0127626 -0.000259959 -3.70603e-08)
(-0.0127626 -0.000259959 3.70609e-08)
(-0.0127794 -0.000256558 -0.000356334)
(-0.0107416 -0.000867101 0.00037084)
(-0.010725 -0.000871029 -1.85801e-08)
(-0.010725 -0.000871029 1.858e-08)
(-0.0107416 -0.0008671 -0.00037084)
(-0.0114228 -0.000293734 0.00033269)
(-0.0114185 -0.000299524 2.30007e-09)
(-0.0114185 -0.000299524 -2.30032e-09)
(-0.0114228 -0.000293734 -0.00033269)
(4.85339e-05 -0.000894645 0.000348241)
(6.05419e-05 -0.00089544 -6.62321e-08)
(6.05419e-05 -0.00089544 6.62315e-08)
(4.85341e-05 -0.000894645 -0.000348241)
(0.0372041 0.00164939 0.000353543)
(0.0372267 0.00163823 -3.77217e-08)
(0.0372267 0.00163823 3.77218e-08)
(0.0372041 0.00164939 -0.000353543)
(0.0291297 0.00265668 0.000333797)
(0.0291415 0.0026441 2.21061e-08)
(0.0291415 0.0026441 -2.21066e-08)
(0.0291297 0.00265668 -0.000333797)
(0.0268315 0.00269468 0.000298178)
(0.0268192 0.00268891 4.00298e-10)
(0.0268192 0.00268891 -4.00848e-10)
(0.0268315 0.00269468 -0.000298178)
(0.0340529 0.0039095 0.000263302)
(0.034062 0.00390691 -2.9175e-08)
(0.034062 0.00390691 2.91748e-08)
(0.0340529 0.0039095 -0.000263302)
(-0.00588882 0.000312518 0.000238178)
(-0.00588289 0.000306173 4.86834e-08)
(-0.00588289 0.000306173 -4.86842e-08)
(-0.00588882 0.000312519 -0.000238178)
(0.013149 0.00409697 0.000235622)
(0.0131457 0.00408397 2.19629e-08)
(0.0131457 0.00408397 -2.19632e-08)
(0.013149 0.00409697 -0.000235622)
(0.0526458 0.00806987 0.000243256)
(0.0526378 0.00805857 9.03269e-08)
(0.0526378 0.00805857 -9.03271e-08)
(0.0526458 0.00806987 -0.000243256)
(-0.00363273 -0.00376217 0.000280484)
(-0.0036232 -0.00377386 -3.22717e-08)
(-0.0036232 -0.00377386 3.22705e-08)
(-0.00363273 -0.00376217 -0.000280484)
(-0.000354327 -0.00144084 0.000257696)
(-0.000341672 -0.00143103 -1.20852e-08)
(-0.000341672 -0.00143103 1.20845e-08)
(-0.000354327 -0.00144084 -0.000257696)
(0.00303968 -0.0037099 0.000230224)
(0.00303879 -0.00370847 3.23897e-09)
(0.00303879 -0.00370847 -3.23967e-09)
(0.00303968 -0.0037099 -0.000230224)
(0.0306986 0.000427432 0.000459546)
(0.0307005 0.000410184 -3.47621e-09)
(0.0307005 0.000410184 3.47479e-09)
(0.0306986 0.000427432 -0.000459546)
(0.0406988 0.00183497 0.000493911)
(0.0407108 0.00185165 -1.18459e-07)
(0.0407108 0.00185165 1.18457e-07)
(0.0406988 0.00183497 -0.000493911)
(0.0456874 -0.000787414 0.000541732)
(0.0456511 -0.00078609 -9.06035e-08)
(0.0456511 -0.00078609 9.06021e-08)
(0.0456874 -0.000787414 -0.000541732)
(0.12205 0.000297182 0.000549449)
(0.122007 0.000325925 -4.03447e-08)
(0.122007 0.000325925 4.03422e-08)
(0.12205 0.000297182 -0.000549449)
(0.115358 0.00224191 0.000496505)
(0.115369 0.0022528 -6.9712e-08)
(0.115369 0.0022528 6.97094e-08)
(0.115358 0.00224191 -0.000496505)
(0.10336 0.00439791 0.000462348)
(0.103355 0.00439212 9.50647e-08)
(0.103355 0.00439212 -9.50666e-08)
(0.10336 0.00439791 -0.000462348)
(0.109501 0.00534034 0.000407168)
(0.109473 0.00535331 -1.37592e-07)
(0.109473 0.00535331 1.37591e-07)
(0.109501 0.00534034 -0.000407168)
(0.110297 0.00633522 0.000378624)
(0.110311 0.00635002 4.36163e-09)
(0.110311 0.00635002 -4.36194e-09)
(0.110297 0.00633522 -0.000378624)
(0.104236 0.00654642 0.000352544)
(0.104258 0.00654141 -1.18989e-08)
(0.104258 0.00654141 1.18982e-08)
(0.104236 0.00654642 -0.000352544)
(0.0982562 0.00820793 0.000325647)
(0.0982636 0.0081971 3.4551e-08)
(0.0982636 0.0081971 -3.45517e-08)
(0.0982562 0.00820793 -0.000325647)
(0.0969591 0.00934067 0.000289779)
(0.0969313 0.00933344 -6.74274e-08)
(0.0969313 0.00933344 6.74271e-08)
(0.0969591 0.00934066 -0.000289779)
(0.102704 0.00942492 0.000257622)
(0.102706 0.00942509 -7.99256e-08)
(0.102706 0.00942509 7.99256e-08)
(0.102704 0.00942492 -0.000257622)
(0.112253 0.0119691 0.00023404)
(0.112263 0.0119781 6.41326e-08)
(0.112263 0.0119781 -6.41329e-08)
(0.112253 0.0119691 -0.00023404)
(0.00653664 -0.0029021 0.00019888)
(0.00653527 -0.00290096 -2.40909e-08)
(0.00653527 -0.00290096 2.40902e-08)
(0.00653664 -0.0029021 -0.00019888)
(-0.00365215 0.00137157 0.000198434)
(-0.0036566 0.00137616 -3.63264e-08)
(-0.0036566 0.00137616 3.63255e-08)
(-0.00365215 0.00137157 -0.000198434)
(0.0175836 0.0051269 0.000198678)
(0.0175792 0.00513203 -4.37305e-08)
(0.0175792 0.00513203 4.37296e-08)
(0.0175836 0.0051269 -0.000198678)
(0.0625503 0.00899223 0.000201433)
(0.0625348 0.00899557 -6.485e-08)
(0.0625348 0.00899557 6.4849e-08)
(0.0625503 0.00899223 -0.000201433)
(0.124071 0.0124308 0.00020297)
(0.124066 0.0124308 -5.99054e-08)
(0.124066 0.0124308 5.99041e-08)
(0.124071 0.0124308 -0.00020297)
(0.0404074 0.00321207 0.000389325)
(0.0404122 0.00322408 -8.36232e-08)
(0.0404122 0.00322408 8.36242e-08)
(0.0404074 0.00321207 -0.000389325)
(0.0352705 0.00209648 0.00035952)
(0.0352959 0.00209001 -8.1295e-08)
(0.0352959 0.00209001 8.1296e-08)
(0.0352705 0.00209648 -0.00035952)
(0.0350322 -0.00150166 0.000338742)
(0.0350562 -0.00150187 -2.27888e-10)
(0.0350562 -0.00150187 2.28174e-10)
(0.0350322 -0.00150166 -0.000338742)
(0.0354485 -0.00318542 0.000308692)
(0.0354454 -0.00318052 -3.97131e-08)
(0.0354454 -0.00318052 3.97127e-08)
(0.0354485 -0.00318542 -0.000308692)
(0.0384633 -0.00414798 0.000279706)
(0.038471 -0.00414687 -4.58823e-08)
(0.038471 -0.00414687 4.58817e-08)
(0.0384633 -0.00414798 -0.000279706)
(0.0392812 -0.00477952 0.000256321)
(0.0393024 -0.00477287 -1.13765e-08)
(0.0393024 -0.00477287 1.1376e-08)
(0.0392812 -0.00477952 -0.000256321)
(0.0425428 -0.00577254 0.000230506)
(0.0425412 -0.00575989 3.69044e-08)
(0.0425412 -0.00575989 -3.6905e-08)
(0.0425428 -0.00577254 -0.000230506)
(0.0464964 -0.00625416 0.000198027)
(0.046485 -0.00625755 -2.98618e-08)
(0.046485 -0.00625755 2.98607e-08)
(0.0464964 -0.00625416 -0.000198027)
(0.246697 0.0375669 0.000654519)
(0.246682 0.0376035 1.22159e-07)
(0.246682 0.0376035 -1.22158e-07)
(0.246697 0.0375669 -0.000654519)
(0.276148 0.0617188 0.000625514)
(0.276209 0.0617221 3.80961e-07)
(0.276209 0.0617221 -3.8096e-07)
(0.276148 0.0617188 -0.000625514)
(0.28975 0.0859513 0.000491922)
(0.289821 0.0859612 3.51442e-07)
(0.289821 0.0859612 -3.51441e-07)
(0.28975 0.0859513 -0.000491922)
(0.294337 0.0978947 0.000270675)
(0.294401 0.0979501 2.06678e-07)
(0.294401 0.0979501 -2.06677e-07)
(0.294337 0.0978947 -0.000270675)
(0.285232 0.108839 -1.13201e-06)
(0.285197 0.108735 -8.40657e-07)
(0.285197 0.108735 8.4066e-07)
(0.285232 0.108839 1.13201e-06)
(0.270511 0.116121 -0.000215789)
(0.270532 0.116086 2.35442e-07)
(0.270532 0.116086 -2.35441e-07)
(0.270511 0.116121 0.000215789)
(0.250369 0.0806944 -0.000487155)
(0.250385 0.0807324 -1.07563e-07)
(0.250385 0.0807324 1.07563e-07)
(0.250369 0.0806944 0.000487155)
(0.253132 0.0620623 -0.000563311)
(0.253085 0.0620992 -1.15403e-07)
(0.253085 0.0620992 1.15403e-07)
(0.253132 0.0620623 0.000563311)
(0.252935 0.0460941 -0.00056652)
(0.25292 0.0461242 -1.47506e-07)
(0.25292 0.0461242 1.47506e-07)
(0.252935 0.0460941 0.00056652)
(0.260012 0.0353781 -0.000537586)
(0.259987 0.0353971 -5.91789e-08)
(0.259987 0.0353971 5.91789e-08)
(0.260012 0.0353781 0.000537586)
(0.263244 0.0275155 -0.000495506)
(0.263241 0.0275298 -6.67783e-08)
(0.263241 0.0275298 6.67785e-08)
(0.263244 0.0275155 0.000495506)
(0.269668 0.0214344 -0.0004465)
(0.269654 0.0214478 -5.07145e-08)
(0.269654 0.0214478 5.07147e-08)
(0.269668 0.0214344 0.0004465)
(0.273411 0.0175179 -0.00039926)
(0.27341 0.0175274 -2.04762e-08)
(0.27341 0.0175274 2.04764e-08)
(0.273411 0.0175179 0.00039926)
(0.278089 0.0143539 -0.000356761)
(0.278096 0.0143587 5.34638e-08)
(0.278096 0.0143587 -5.34636e-08)
(0.278089 0.0143539 0.000356761)
(0.281138 0.0122085 -0.000319071)
(0.281147 0.0122163 1.55367e-08)
(0.281147 0.0122163 -1.55365e-08)
(0.281138 0.0122085 0.000319071)
(0.284633 0.00998038 -0.000283946)
(0.284635 0.00998414 7.01814e-09)
(0.284635 0.00998414 -7.01795e-09)
(0.284633 0.00998038 0.000283946)
(0.287166 0.00874771 -0.000253035)
(0.287164 0.00875653 -4.93094e-08)
(0.287164 0.00875653 4.93096e-08)
(0.287166 0.00874771 0.000253035)
(0.289688 0.00722239 -0.000226)
(0.289679 0.0072273 -5.95554e-08)
(0.289679 0.0072273 5.95557e-08)
(0.289688 0.00722239 0.000226)
(0.291531 0.00659854 -0.00020353)
(0.291523 0.00660171 -6.06318e-08)
(0.291523 0.00660171 6.0632e-08)
(0.291531 0.00659854 0.00020353)
(0.130357 -0.00470381 0.000430641)
(0.130364 -0.00473641 -9.40705e-08)
(0.130364 -0.00473641 9.40689e-08)
(0.130357 -0.0047038 -0.000430641)
(0.119962 -0.00304809 0.00039838)
(0.119972 -0.00303755 3.47441e-08)
(0.119972 -0.00303755 -3.47443e-08)
(0.119962 -0.00304809 -0.00039838)
(0.113778 -0.00233227 0.000362377)
(0.113778 -0.00233259 -1.05047e-07)
(0.113778 -0.00233259 1.05047e-07)
(0.113778 -0.00233227 -0.000362377)
(0.109932 -0.00341873 0.000333407)
(0.109959 -0.00341753 -1.05977e-08)
(0.109959 -0.00341753 1.05976e-08)
(0.109932 -0.00341873 -0.000333407)
(0.110245 -0.00453085 0.000304916)
(0.110253 -0.00451891 -8.86837e-09)
(0.110253 -0.00451891 8.86793e-09)
(0.110245 -0.00453085 -0.000304916)
(0.109956 -0.00541209 0.000277538)
(0.109958 -0.00540947 -2.96386e-08)
(0.109958 -0.00540947 2.9638e-08)
(0.109956 -0.00541209 -0.000277538)
(0.108325 -0.0061776 0.000251852)
(0.108342 -0.00616784 2.30168e-09)
(0.108342 -0.00616784 -2.30214e-09)
(0.108325 -0.0061776 -0.000251852)
(0.105657 -0.00717187 0.000225996)
(0.105654 -0.00716312 4.26137e-08)
(0.105654 -0.00716312 -4.26142e-08)
(0.105657 -0.00717187 -0.000225996)
(0.110629 -0.00783345 0.000192907)
(0.110615 -0.00783632 -5.73006e-08)
(0.110615 -0.00783632 5.72997e-08)
(0.110629 -0.00783345 -0.000192907)
(0.111658 -0.00806691 0.000167033)
(0.111663 -0.00806369 2.37413e-08)
(0.111663 -0.00806369 -2.37423e-08)
(0.111658 -0.00806691 -0.000167033)
(0.0509091 -0.00648377 0.000170207)
(0.0509151 -0.00648215 5.33264e-11)
(0.0509151 -0.00648215 -5.44469e-11)
(0.0509091 -0.00648377 -0.000170207)
(0.0118359 -0.00340654 0.000172892)
(0.0118429 -0.00340928 1.00451e-08)
(0.0118429 -0.00340928 -1.0046e-08)
(0.0118359 -0.00340654 -0.000172892)
(0.00188691 0.00117659 0.000176159)
(0.00189529 0.00117663 1.71299e-08)
(0.00189529 0.00117663 -1.71311e-08)
(0.00188691 0.00117659 -0.000176159)
(0.0229417 0.00542634 0.000174523)
(0.0229546 0.00542231 4.4366e-09)
(0.0229546 0.00542231 -4.43816e-09)
(0.0229417 0.00542634 -0.000174523)
(0.0682072 0.0088692 0.000176971)
(0.0682188 0.00885327 2.28328e-08)
(0.0682188 0.00885327 -2.28347e-08)
(0.0682072 0.0088692 -0.000176971)
(0.12732 0.0125844 0.000179264)
(0.127329 0.012577 6.9546e-08)
(0.127329 0.012577 -6.95479e-08)
(0.12732 0.0125844 -0.000179264)
(0.195228 0.0142143 0.000173983)
(0.195231 0.0142218 4.24047e-08)
(0.195231 0.0142218 -4.24064e-08)
(0.195228 0.0142143 -0.000173983)
(0.194274 0.0132651 0.000198372)
(0.194266 0.013256 -4.01883e-08)
(0.194266 0.013256 4.01862e-08)
(0.194274 0.0132651 -0.000198372)
(0.189342 0.0125933 0.000225709)
(0.189351 0.0126018 6.41223e-08)
(0.189351 0.0126018 -6.41238e-08)
(0.189342 0.0125933 -0.000225709)
(0.187357 0.0112115 0.000250811)
(0.187348 0.0111962 -7.63148e-08)
(0.187348 0.0111962 7.63139e-08)
(0.187357 0.0112115 -0.000250811)
(0.186556 0.0106171 0.000281491)
(0.186548 0.0106087 -1.59231e-08)
(0.186548 0.0106087 1.59225e-08)
(0.186556 0.0106171 -0.000281491)
(0.191082 0.00910042 0.000311477)
(0.191103 0.00909973 5.34169e-08)
(0.191103 0.00909973 -5.34168e-08)
(0.191082 0.00910042 -0.000311477)
(0.199614 0.00712315 0.00033819)
(0.199639 0.00713752 3.71164e-08)
(0.199639 0.00713752 -3.71162e-08)
(0.199614 0.00712315 -0.00033819)
(0.207972 0.00524257 0.000363031)
(0.207977 0.0052574 -5.38566e-08)
(0.207977 0.0052574 5.38562e-08)
(0.207972 0.00524257 -0.000363031)
(0.212627 0.00356134 0.000390862)
(0.212596 0.00354917 -2.04743e-07)
(0.212596 0.00354917 2.04742e-07)
(0.212627 0.00356134 -0.000390862)
(0.217636 0.00217778 0.000428782)
(0.217637 0.00218125 1.74708e-08)
(0.217637 0.00218125 -1.74721e-08)
(0.217636 0.00217778 -0.000428782)
(0.232364 -0.00202421 0.000462646)
(0.232373 -0.0020255 -5.909e-08)
(0.232373 -0.0020255 5.90888e-08)
(0.232364 -0.00202421 -0.000462646)
(0.246346 -0.00552574 0.000502564)
(0.246314 -0.00548209 -1.7894e-07)
(0.246314 -0.00548209 1.78939e-07)
(0.246346 -0.00552574 -0.000502564)
(0.262181 -0.0114214 0.000552947)
(0.262178 -0.0113686 1.53766e-07)
(0.262178 -0.0113686 -1.53767e-07)
(0.262181 -0.0114214 -0.000552947)
(0.288859 -0.0208874 0.000576528)
(0.288857 -0.0208096 -2.10394e-08)
(0.288857 -0.0208096 2.10378e-08)
(0.288859 -0.0208874 -0.000576528)
(0.293621 -0.0316142 0.000625074)
(0.293508 -0.0315717 -3.70238e-07)
(0.293508 -0.0315717 3.70237e-07)
(0.293621 -0.0316142 -0.000625074)
(0.283502 -0.0395215 0.000702615)
(0.28349 -0.0395128 6.46091e-07)
(0.28349 -0.0395128 -6.46091e-07)
(0.283502 -0.0395215 -0.000702615)
(0.331062 -0.064429 0.000625532)
(0.331077 -0.0644214 7.70945e-08)
(0.331077 -0.0644214 -7.70997e-08)
(0.331062 -0.064429 -0.000625532)
(0.318386 -0.0967099 0.000468789)
(0.318331 -0.0966452 -1.47835e-07)
(0.318331 -0.0966452 1.47825e-07)
(0.318386 -0.0967099 -0.000468789)
(0.309925 -0.121975 0.000204108)
(0.310012 -0.122013 7.01238e-07)
(0.310012 -0.122013 -7.01241e-07)
(0.309925 -0.121975 -0.000204108)
(0.270508 -0.0868627 -0.000231368)
(0.270585 -0.0869108 4.92088e-07)
(0.270585 -0.0869108 -4.9209e-07)
(0.270508 -0.0868627 0.000231368)
(0.266817 -0.074179 -0.000407365)
(0.266836 -0.0741956 8.24315e-08)
(0.266836 -0.0741956 -8.24322e-08)
(0.266817 -0.074179 0.000407365)
(0.260261 -0.0545957 -0.000469374)
(0.260264 -0.054607 -9.61326e-08)
(0.260264 -0.054607 9.61323e-08)
(0.260261 -0.0545957 0.000469374)
(0.264678 -0.0433086 -0.000482248)
(0.264664 -0.0433202 -9.53786e-08)
(0.264664 -0.0433202 9.53787e-08)
(0.264678 -0.0433086 0.000482248)
(0.26592 -0.0319415 -0.000460077)
(0.265912 -0.0319691 -1.29955e-07)
(0.265912 -0.0319691 1.29955e-07)
(0.26592 -0.0319415 0.000460077)
(0.271521 -0.0255013 -0.000423846)
(0.271501 -0.0255201 -1.36218e-07)
(0.271501 -0.0255201 1.36218e-07)
(0.271521 -0.0255013 0.000423846)
(0.274607 -0.0200109 -0.000383418)
(0.274598 -0.0200302 -8.93211e-08)
(0.274598 -0.0200302 8.93215e-08)
(0.274607 -0.0200109 0.000383418)
(0.27896 -0.0167215 -0.00034542)
(0.278959 -0.0167333 -2.7131e-08)
(0.278959 -0.0167333 2.71313e-08)
(0.27896 -0.0167215 0.00034542)
(0.281702 -0.013857 -0.000310716)
(0.281701 -0.0138734 -5.26022e-08)
(0.281701 -0.0138734 5.26025e-08)
(0.281702 -0.013857 0.000310716)
(0.28502 -0.0114898 -0.00027817)
(0.285011 -0.0115006 -7.87907e-08)
(0.285011 -0.0115006 7.8791e-08)
(0.28502 -0.0114898 0.00027817)
(0.287383 -0.00965499 -0.000249408)
(0.287375 -0.0096677 -6.70469e-08)
(0.287375 -0.0096677 6.70471e-08)
(0.287383 -0.00965499 0.000249408)
(0.289785 -0.00831394 -0.000223775)
(0.289778 -0.00831978 -4.93443e-08)
(0.289778 -0.00831978 4.93445e-08)
(0.289785 -0.00831394 0.000223775)
(0.291701 -0.00707728 -0.000200612)
(0.291693 -0.00708497 -5.45288e-08)
(0.291693 -0.00708497 5.4529e-08)
(0.291701 -0.00707728 0.000200612)
(0.293499 -0.00607251 -0.000180173)
(0.293491 -0.00607725 -3.9655e-08)
(0.293491 -0.00607725 3.96551e-08)
(0.293499 -0.00607251 0.000180173)
(0.293012 -0.00448793 -0.000190248)
(0.293003 -0.00449435 -5.0881e-08)
(0.293003 -0.00449435 5.08812e-08)
(0.293012 -0.00448793 0.000190248)
(0.292642 -0.00289249 -0.000197605)
(0.292632 -0.00289821 -6.41249e-08)
(0.292632 -0.00289821 6.41251e-08)
(0.292642 -0.00289249 0.000197605)
(0.292434 -0.00120578 -0.000202029)