/*--------------------------------*- C++ -*----------------------------------*\
| =========                 |                                                 |
| \\      /  F ield         | OpenFOAM: The Open Source CFD Toolbox           |
|  \\    /   O peration     | Version:  v1806                                 |
|   \\  /    A nd           | Web:      www.OpenFOAM.com                      |
|    \\/     M anipulation  |                                                 |
\*---------------------------------------------------------------------------*/
FoamFile
{
    version     2.0;
    format      ascii;
    class       volScalarField;
    location    "420";
    object      p;
}
// * * * * * * * * * * * * * * * * * * * * * * * * * * * * * * * * * * * * * //

dimensions      [0 2 -2 0 0 0 0];


internalField   nonuniform List<scalar> 
2400
(
2.63831e-05
2.76301e-05
2.90586e-05
3.16435e-05
3.47582e-05
3.93454e-05
4.42912e-05
5.07586e-05
5.7334e-05
6.53089e-05
7.27988e-05
8.08807e-05
8.71288e-05
9.19553e-05
9.25279e-05
8.82691e-05
7.66098e-05
5.67484e-05
2.85475e-05
-7.70227e-06
7.89182e-05
8.26752e-05
8.67464e-05
9.452e-05
0.000103599
0.000117366
0.000131857
0.000151295
0.000170631
0.000194688
0.000216816
0.00024138
0.000260004
0.00027508
0.000277059
0.000265099
0.0002309
0.000172349
8.7676e-05
-1.97348e-05
0.000130927
0.000137139
0.000143816
0.000156735
0.000171711
0.000194629
0.000218552
0.000251023
0.000283039
0.000323485
0.000360294
0.000402095
0.00043342
0.000460129
0.000464219
0.00044628
0.000390218
0.00029352
0.000151746
-2.88724e-05
0.000182041
0.000190679
0.000199909
0.000217976
0.00023878
0.000270896
0.000304139
0.000349855
0.000394474
0.00045192
0.000503515
0.000563931
0.000608466
0.000649225
0.000656431
0.000635422
0.000558158
0.000424124
0.000223473
-3.53904e-05
0.000231923
0.000242931
0.000254648
0.000277865
0.000304407
0.000345773
0.00038818
0.000447413
0.000504532
0.000579803
0.00064632
0.000727249
0.000785653
0.00084396
0.000855525
0.000835979
0.000738146
0.000568607
0.000305764
-3.80843e-05
0.000280253
0.000293512
0.000307664
0.000336005
0.000368199
0.000418818
0.000470238
0.000543245
0.000612791
0.000706825
0.000788489
0.000892272
0.000965402
0.00104589
0.00106328
0.00105183
0.000933853
0.000732561
0.000402379
-3.48343e-05
0.000326724
0.000342027
0.000358598
0.000391988
0.000429786
0.000489566
0.000549894
0.000636842
0.000718839
0.000832559
0.000929775
0.00105902
0.00114805
0.00125638
0.0012814
0.00128717
0.00114911
0.00092321
0.00051771
-2.2702e-05
0.000371046
0.000388076
0.000407111
0.000445404
0.000488816
0.000557519
0.000626738
0.000727616
0.00082225
0.000956404
0.00106987
0.00122722
0.00133382
0.00147642
0.0015115
0.00154631
0.00138792
0.00114986
0.000656766
3.03871e-06
0.000412949
0.000431261
0.000452879
0.000495836
0.00054495
0.000622145
0.000700369
0.000814886
0.000922581
0.00107755
0.00120842
0.00139616
0.00152281
0.00170632
0.00175524
0.00183323
0.00165473
0.00142387
0.000825185
5.11237e-05
0.000452176
0.000471187
0.000495599
0.000542867
0.000597868
0.000682882
0.000770388
0.000897886
0.00101937
0.00119498
0.00134496
0.00156467
0.00171504
0.00194559
0.00201431
0.00215103
0.00195493
0.00175803
0.0010292
0.000137904
0.000488483
0.00050748
0.00053499
0.000586086
0.000647259
0.000739149
0.0008364
0.000975771
0.00111211
0.00130744
0.00147896
0.00173106
0.00191032
0.00219271
0.00229048
0.00250124
0.00229542
0.00216565
0.0012769
0.000290099
0.000521636
0.000539803
0.000570793
0.000625103
0.000692813
0.000790358
0.000898001
0.00104764
0.00120026
0.00141351
0.00160972
0.00189315
0.00210822
0.00244494
0.00258542
0.00288345
0.00268502
0.00265944
0.00158109
0.000545811
0.000551406
0.000567877
0.000602769
0.000659555
0.000734214
0.000835942
0.000954772
0.00111258
0.00128323
0.0015116
0.00173641
0.00204827
0.00230796
0.00269836
0.00290043
0.00329467
0.00313445
0.00324974
0.00196473
0.000955444
0.000577509
0.000591502
0.000630699
0.000689134
0.000771114
0.000875386
0.00100625
0.00116969
0.00136032
0.00160009
0.001858
0.0021934
0.00250832
0.00294789
0.00323621
0.00372861
0.00365569
0.00394131
0.00246624
0.00158944
0.000599695
0.00061057
0.000654379
0.000713586
0.000803139
0.000908257
0.0010519
0.0012182
0.00143067
0.00167736
0.00197313
0.00232535
0.00270757
0.00318771
0.00359296
0.00417603
0.00426128
0.00473102
0.00313748
0.002528
0.000617652
0.000625068
0.000673584
0.00073273
0.000829822
0.000934247
0.00109111
0.00125745
0.0014934
0.00174186
0.00208005
0.00244082
0.0029027
0.00341161
0.00397011
0.00462775
0.00496656
0.00560226
0.00405468
0.00378389
0.000631116
0.000635088
0.000688082
0.000746459
0.000850587
0.000953213
0.00112295
0.00128709
0.00154688
0.00179251
0.00217677
0.00253564
0.00309088
0.00361017
0.00436355
0.00507676
0.00579929
0.00653609
0.00538423
0.00534264
0.000639616
0.000640791
0.000697699
0.000754735
0.000864914
0.000965136
0.00114641
0.00130697
0.00158884
0.00182866
0.00225845
0.00260779
0.00326429
0.0037706
0.00477046
0.00549126
0.006804
0.00754117
0.0074164
0.00733266
0.000642987
0.000642253
0.000702393
0.000757558
0.000872772
0.00097013
0.00116142
0.00131712
0.00161882
0.00184979
0.00232265
0.00265673
0.00341253
0.00389192
0.0051527
0.00584022
0.00793185
0.00867509
0.0100509
0.00974231
0.000640163
0.000640538
0.000700585
0.000754947
0.000871354
0.000968865
0.00116335
0.00131963
0.00162904
0.00186201
0.00235192
0.00268877
0.00349932
0.00398049
0.00544244
0.00610545
0.00912567
0.00970039
0.0152928
0.00211423
-3.52794e-05
-4.2372e-05
-4.80672e-05
-5.27353e-05
-5.72118e-05
-6.17449e-05
-6.62405e-05
-7.05693e-05
-7.4637e-05
-7.83808e-05
-8.95896e-05
-0.00010556
-0.000120616
-0.000135134
-0.000149523
-0.000163868
-0.000178083
-0.000192082
-0.000205835
-0.000219348
-0.000147596
-0.000175595
-0.000202162
-0.000227601
-0.000252614
-0.000277407
-0.000301862
-0.000325829
-0.000349208
-0.00037194
-0.000207735
-0.000248343
-0.000286626
-0.000323157
-0.000359104
-0.000394801
-0.000430058
-0.000464639
-0.000498401
-0.000531273
-0.000269203
-0.000323669
-0.000375046
-0.000424128
-0.000472471
-0.000520497
-0.000567928
-0.000614424
-0.000659781
-0.000703886
-0.000331975
-0.000402141
-0.000468595
-0.000532221
-0.000594889
-0.000657093
-0.000718468
-0.000778577
-0.000837144
-0.000894014
-0.000395876
-0.000484312
-0.000568656
-0.000649669
-0.000729404
-0.000808402
-0.000886218
-0.000962308
-0.00103631
-0.00110802
-0.000460364
-0.00057079
-0.000677132
-0.000779621
-0.000880287
-0.000979702
-0.00107736
-0.00117263
-0.00126504
-0.0013543
-0.000525023
-0.000663344
-0.000797752
-0.000927407
-0.00105424
-0.00117894
-0.00130099
-0.00141964
-0.00153429
-0.00164457
-0.000590596
-0.000766999
-0.000938489
-0.0011028
-0.00126247
-0.00141872
-0.00157103
-0.00171842
-0.00186012
-0.00199566
-0.000660488
-0.000892466
-0.0011143
-0.00132272
-0.00152332
-0.00171887
-0.00190876
-0.00209152
-0.00226606
-0.00243183
-0.000743737
-0.00105951
-0.00135045
-0.0016145
-0.0018655
-0.00210972
-0.00234616
-0.00257219
-0.00278623
-0.00298773
-0.000862311
-0.00130485
-0.00168965
-0.00202214
-0.00233401
-0.00263796
-0.00293163
-0.00321011
-0.00347096
-0.00371377
-0.00105792
-0.00169005
-0.00219963
-0.0026133
-0.00299623
-0.0033717
-0.00373439
-0.00407534
-0.00439072
-0.00468034
-0.00139279
-0.00230075
-0.0029777
-0.00349149
-0.00395933
-0.00441948
-0.00486208
-0.0052729
-0.00564719
-0.00598604
-0.0019841
-0.00326113
-0.00414834
-0.00479064
-0.0053747
-0.00595193
-0.00650201
-0.00700218
-0.00744566
-0.0078343
-0.0032384
-0.00493865
-0.00596414
-0.00664848
-0.00729254
-0.00795854
-0.00860299
-0.00918733
-0.00970207
-0.0101505
-0.00598175
-0.00856556
-0.00995042
-0.0107132
-0.0113824
-0.012076
-0.0127331
-0.0132986
-0.0137589
-0.0141203
-0.0069145
-0.0098493
-0.0114521
-0.0125946
-0.0137501
-0.0149126
-0.0159672
-0.016867
-0.0176178
-0.0182446
-0.0233386
-0.0243536
-0.0224227
-0.0211567
-0.020851
-0.020958
-0.0211672
-0.0214191
-0.0217189
-0.0219938
-8.77642e-05
-0.000104017
-0.000117284
-0.000126059
-0.000130146
-0.000130015
-0.000126364
-0.000120022
-0.000111692
-0.000102068
-9.16179e-05
-8.08532e-05
-7.00047e-05
-5.94385e-05
-4.91288e-05
-3.9269e-05
-2.9551e-05
-2.02613e-05
-1.1255e-05
-3.42891e-06
-0.000257553
-0.000309106
-0.000348546
-0.000374636
-0.000387028
-0.000386916
-0.00037633
-0.000357698
-0.00033314
-0.000304676
-0.00027374
-0.0002418
-0.000209598
-0.000178154
-0.000147502
-0.000118389
-9.0208e-05
-6.38183e-05
-3.78979e-05
-1.33031e-05
-0.000435027
-0.000522041
-0.000588405
-0.000631862
-0.000652001
-0.000650935
-0.000632222
-0.000600047
-0.00055807
-0.0005097
-0.00045738
-0.000403551
-0.000349475
-0.000296827
-0.000245677
-0.00019722
-0.000150376
-0.00010637
-6.28251e-05
-2.18977e-05
-0.000622787
-0.000747943
-0.000842494
-0.000903284
-0.000930053
-0.000926245
-0.000897329
-0.000849529
-0.000788196
-0.000718219
-0.000643093
-0.000566258
-0.000489488
-0.000415076
-0.000343067
-0.000275066
-0.000209479
-0.000148017
-8.73714e-05
-3.05323e-05
-0.000826438
-0.000992832
-0.00111682
-0.00119438
-0.00122582
-0.00121652
-0.00117438
-0.00110803
-0.00102469
-0.000930819
-0.000831016
-0.000729733
-0.000629226
-0.000532363
-0.000439105
-0.000351442
-0.000267232
-0.000188625
-0.000111236
-3.89179e-05
-0.00105178
-0.00126352
-0.00141828
-0.00151146
-0.00154462
-0.00152592
-0.00146644
-0.00137762
-0.00126878
-0.00114806
-0.00102121
-0.000893689
-0.000768187
-0.00064807
-0.000533169
-0.000425764
-0.000323141
-0.000227686
-0.000134106
-4.69251e-05
-0.00130643
-0.0015686
-0.0017553
-0.00186194
-0.00189241
-0.0018589
-0.00177659
-0.00166024
-0.00152147
-0.00137024
-0.00121346
-0.00105757
-0.000905618
-0.000761367
-0.000624421
-0.000497309
-0.00037641
-0.000264688
-0.000155688
-5.44564e-05
-0.00160041
-0.00191893
-0.00213811
-0.00225439
-0.00227575
-0.00222013
-0.00210787
-0.00195759
-0.00178344
-0.00159725
-0.00140716
-0.00122048
-0.00104046
-0.000871159
-0.00071188
-0.000564862
-0.00042628
-0.000299087
-0.000175635
-6.13908e-05
-0.00194724
-0.00232852
-0.00257927
-0.00269884
-0.00270189
-0.00261438
-0.00246311
-0.00227098
-0.00205485
-0.00182854
-0.00160127
-0.00138108
-0.00117129
-0.000976067
-0.000793854
-0.00062739
-0.000471886
-0.000330199
-0.000193504
-6.75818e-05
-0.00236547
-0.00281555
-0.00309427
-0.00320687
-0.00317867
-0.0030465
-0.0028448
-0.00260116
-0.00233528
-0.00206289
-0.00179414
-0.00153756
-0.00129631
-0.00107397
-0.000868934
-0.000683611
-0.000512108
-0.000357185
-0.000208769
-7.28708e-05
-0.00288076
-0.0034038
-0.00370206
-0.00379171
-0.00371443
-0.00352114
-0.00325487
-0.00294808
-0.00262343
-0.0022983
-0.00198343
-0.00168757
-0.00141273
-0.00116287
-0.000935302
-0.000731909
-0.000545601
-0.000379076
-0.000220817
-7.71032e-05
-0.00352857
-0.00412415
-0.00442556
-0.00446818
-0.0043177
-0.00404242
-0.00369432
-0.00331065
-0.00291687
-0.00253172
-0.00216607
-0.00182741
-0.00151781
-0.00124033
-0.000990733
-0.000770378
-0.000570815
-0.000394767
-0.000228931
-8.01424e-05
-0.00435815
-0.00501647
-0.00529201
-0.00525243
-0.00499676
-0.0046132
-0.00416269
-0.00368646
-0.00321185
-0.00275896
-0.00233687
-0.00195326
-0.00160828
-0.00130334
-0.0010326
-0.000796826
-0.000585996
-0.000402982
-0.000232274
-8.18633e-05
-0.00543711
-0.00613061
-0.00633199
-0.0061613
-0.00575921
-0.00523424
-0.00465642
-0.00407057
-0.00350359
-0.00297368
-0.00249109
-0.00206085
-0.00168018
-0.00134843
-0.00105802
-0.000808827
-0.000589225
-0.000402227
-0.000229899
-8.20609e-05
-0.00686196
-0.00753104
-0.00758041
-0.00721255
-0.00661264
-0.00590562
-0.00516851
-0.00445149
-0.00377869
-0.0031669
-0.00262181
-0.00214432
-0.00172868
-0.00137165
-0.00106397
-0.000803824
-0.000578577
-0.000390747
-0.000220774
-8.01074e-05
-0.00879259
-0.00931106
-0.00908246
-0.00842194
-0.00756112
-0.00662849
-0.00569998
-0.00482352
-0.00403059
-0.00333106
-0.00272189
-0.00219779
-0.00174937
-0.00136978
-0.00104826
-0.000780033
-0.000552958
-0.00036699
-0.000204184
-7.44285e-05
-0.0112738
-0.0114881
-0.0108384
-0.0097682
-0.00855447
-0.00734075
-0.00619107
-0.00515082
-0.00423787
-0.00345169
-0.00278146
-0.00221535
-0.00173915
-0.00134151
-0.00101074
-0.000737664
-0.000513177
-0.000330727
-0.000180539
-6.22886e-05
-0.0148524
-0.014134
-0.0128682
-0.0112759
-0.00960566
-0.00802313
-0.00661995
-0.00541086
-0.00438351
-0.00351977
-0.00279757
-0.0021975
-0.00170075
-0.00129134
-0.000956762
-0.000682192
-0.000464426
-0.000285034
-0.000152774
-4.09016e-05
-0.0194493
-0.0169593
-0.0146948
-0.0124182
-0.0103445
-0.00849016
-0.00690106
-0.00556523
-0.0044535
-0.00353466
-0.00277771
-0.00215726
-0.00164967
-0.00123536
-0.000901167
-0.000627475
-0.000417871
-0.000238908
-0.000127264
-9.20378e-06
-0.0211216
-0.0189816
-0.0163478
-0.0133292
-0.0108947
-0.00880076
-0.00707069
-0.00564424
-0.00447776
-0.00352577
-0.00274957
-0.00211885
-0.00160655
-0.00119102
-0.000858687
-0.000586401
-0.000384391
-0.000202433
-0.000112647
3.22711e-05
-0.0251877
-0.0187992
-0.0163348
-0.01321
-0.0108983
-0.00877275
-0.00705792
-0.0056234
-0.00445434
-0.00349945
-0.00272202
-0.00209133
-0.00158011
-0.00116524
-0.000837001
-0.000561847
-0.000371556
-0.000172263
-0.000118376
9.04672e-05
-0.0240009
-0.018844
-0.0163953
-0.0132154
-0.0109159
-0.00877327
-0.00705951
-0.0056201
-0.00444913
-0.00349244
-0.00271412
-0.00208304
-0.00157201
-0.00115725
-0.000830253
-0.000554434
-0.000367498
-0.000163596
-0.000120032
0.000108094
-0.0234447
-0.0188656
-0.0164449
-0.0132366
-0.0109363
-0.00878061
-0.00706451
-0.00562047
-0.00444721
-0.00348859
-0.00270924
-0.00207756
-0.00156655
-0.00115185
-0.000825628
-0.000549724
-0.000364515
-0.00015875
-0.000120127
0.000118156
-0.0230576
-0.0188592
-0.0164558
-0.0132438
-0.010948
-0.00878499
-0.0070675
-0.00562053
-0.00444568
-0.00348569
-0.00270559
-0.00207347
-0.00156253
-0.00114793
-0.000822376
-0.000546485
-0.000362584
-0.000155547
-0.00012027
0.000124864
-0.0227927
-0.0188295
-0.0164458
-0.0132501
-0.0109533
-0.00878663
-0.00706868
-0.0056202
-0.00444443
-0.00348359
-0.00270301
-0.00207063
-0.00155982
-0.00114536
-0.00082039
-0.000544584
-0.000361684
-0.000153757
-0.000120743
0.00012879
-0.0226967
-0.0188194
-0.0164408
-0.0132522
-0.0109546
-0.00878719
-0.007069
-0.00562005
-0.00444379
-0.0034825
-0.00270163
-0.00206913
-0.00155845
-0.00114421
-0.000819673
-0.000544092
-0.000361759
-0.000153551
-0.000121391
0.000129685
-0.0227851
-0.0188324
-0.0164425
-0.0132519
-0.010952
-0.00878689
-0.00706857
-0.00562008
-0.00444373
-0.00348237
-0.00270141
-0.00206894
-0.0015584
-0.00114445
-0.000820186
-0.000544975
-0.000362767
-0.000154902
-0.000122184
0.000127536
-0.0230328
-0.0188512
-0.0164421
-0.0132492
-0.0109449
-0.00878469
-0.00706673
-0.00561986
-0.00444393
-0.00348296
-0.00270216
-0.0020699
-0.00155955
-0.00114594
-0.000821857
-0.000547099
-0.000364694
-0.000157612
-0.000123217
0.000122528
-0.0234469
-0.0188621
-0.0164232
-0.0132422
-0.0109313
-0.00877989
-0.00706285
-0.00561908
-0.0044442
-0.00348417
-0.00270384
-0.002072
-0.0015619
-0.0011487
-0.000824678
-0.000550474
-0.000367476
-0.000161779
-0.000124228
0.00011412
-0.0240797
-0.018884
-0.0163834
-0.0132346
-0.0109103
-0.00877492
-0.00705799
-0.00561898
-0.00444554
-0.00348689
-0.00270725
-0.00207594
-0.00156607
-0.00115335
-0.000829004
-0.000555891
-0.000370877
-0.000168959
-0.000123575
9.89833e-05
-0.0236621
-0.019072
-0.0162835
-0.0132259
-0.0108616
-0.00876647
-0.00704891
-0.00562054
-0.00445049
-0.00349487
-0.00271684
-0.00208652
-0.00157699
-0.00116516
-0.000839439
-0.000569291
-0.000377889
-0.000187255
-0.000119563
6.15794e-05
-0.021894
-0.018275
-0.0157282
-0.0129654
-0.0106652
-0.00865806
-0.00698155
-0.00558565
-0.00443504
-0.00349247
-0.00272272
-0.00209765
-0.0015913
-0.00118155
-0.000856155
-0.00058759
-0.00039262
-0.000207918
-0.000124519
2.78308e-05
-0.019709
-0.0170987
-0.0148249
-0.0124372
-0.010308
-0.00843694
-0.0068448
-0.00550649
-0.00439299
-0.00347463
-0.00272056
-0.00210546
-0.00160534
-0.0011994
-0.000875489
-0.000608696
-0.000410707
-0.000230651
-0.000133099
-3.09834e-07
-0.0168322
-0.0152971
-0.013549
-0.0116339
-0.00977385
-0.00808735
-0.00661912
-0.00536592
-0.00430981
-0.00342977
-0.00270119
-0.00210271
-0.00161331
-0.00121422
-0.000893577
-0.000630015
-0.000429256
-0.000254083
-0.000142707
-2.3744e-05
-0.0141132
-0.0133781
-0.0121289
-0.0106279
-0.00909005
-0.00762376
-0.00630709
-0.00516042
-0.00417863
-0.00334984
-0.00265655
-0.00208202
-0.00160867
-0.0012204
-0.000905715
-0.000647405
-0.000445287
-0.00027492
-0.00015205
-4.1354e-05
-0.0117633
-0.0115623
-0.0107213
-0.0095767
-0.00832176
-0.00708453
-0.00592972
-0.00489951
-0.00400218
-0.00323395
-0.00258372
-0.00203953
-0.00158727
-0.00121392
-0.000908321
-0.000657544
-0.000456311
-0.000290747
-0.000159883
-5.30606e-05
-0.00981188
-0.00994629
-0.0094208
-0.00855978
-0.00755012
-0.00650932
-0.00551245
-0.0045994
-0.00378953
-0.00308634
-0.00248403
-0.00197487
-0.0015478
-0.00119292
-0.000899459
-0.000658421
-0.000460702
-0.00030024
-0.0001652
-5.96201e-05
-0.00820993
-0.00853967
-0.00824733
-0.00760926
-0.00680098
-0.00593278
-0.00507656
-0.00427476
-0.00355082
-0.00291349
-0.00236128
-0.00188996
-0.001491
-0.00115736
-0.000878722
-0.000649347
-0.000457776
-0.000303033
-0.000167435
-6.21691e-05
-0.00688602
-0.00732
-0.00719449
-0.00673023
-0.00608706
-0.00536623
-0.00463447
-0.00393609
-0.00329415
-0.00272141
-0.00221972
-0.00178766
-0.00141874
-0.00110829
-0.000846692
-0.000630599
-0.000447563
-0.000299439
-0.000166417
-6.18977e-05
-0.00578059
-0.0062583
-0.00624815
-0.00591904
-0.00541094
-0.00481582
-0.00419486
-0.00358992
-0.00302502
-0.00251469
-0.00206299
-0.00167073
-0.00133305
-0.0010472
-0.000804409
-0.000602968
-0.000430509
-0.000290118
-0.000162242
-5.97841e-05
-0.00484832
-0.0053296
-0.005395
-0.00516961
-0.00477172
-0.00428353
-0.00376001
-0.00323976
-0.0027472
-0.00229669
-0.00189399
-0.00154154
-0.00123587
-0.000975614
-0.000753021
-0.000567425
-0.00040724
-0.000275813
-0.000155146
-5.64852e-05
-0.00405408
-0.00451283
-0.00462327
-0.00447574
-0.00416723
-0.00376972
-0.00333194
-0.00288885
-0.00246339
-0.00206994
-0.00171501
-0.00140209
-0.00112885
-0.000894922
-0.000693643
-0.000524942
-0.000378436
-0.000257222
-0.000145429
-5.23728e-05
-0.00336989
-0.00378964
-0.00392219
-0.00383141
-0.00359484
-0.00327411
-0.00291175
-0.00253861
-0.00217556
-0.00183645
-0.00152793
-0.00125408
-0.00101347
-0.000806411
-0.000627317
-0.000476438
-0.000344771
-0.000234961
-0.000133407
-4.76308e-05
-0.0027731
-0.00314391
-0.00328169
-0.00323074
-0.00305166
-0.00279594
-0.00249996
-0.00219027
-0.00188529
-0.00159792
-0.0013344
-0.00109901
-0.000891068
-0.000711255
-0.000555025
-0.000422767
-0.0003069
-0.000209569
-0.000119397
-4.23472e-05
-0.00224523
-0.00256153
-0.00269239
-0.00266798
-0.00253457
-0.00233402
-0.00209666
-0.00184473
-0.00159397
-0.00135576
-0.00113582
-0.000938252
-0.000762866
-0.00061055
-0.000477694
-0.000364729
-0.000265449
-0.000181536
-0.0001037
-3.65812e-05
-0.00177113
-0.00203015
-0.00214555
-0.00213747
-0.00204027
-0.00188684
-0.00170158
-0.00150252
-0.00130252
-0.00111115
-0.000933428
-0.000773006
-0.000629991
-0.000505314
-0.000396205
-0.000303077
-0.000221021
-0.000151312
-8.6609e-05
-3.04079e-05
-0.00133835
-0.00153906
-0.00163316
-0.00163374
-0.00156534
-0.00145259
-0.00131412
-0.00116378
-0.00101156
-0.000865023
-0.000728276
-0.000604339
-0.00049345
-0.000396471
-0.000311367
-0.000238504
-0.000174168
-0.000119301
-6.8379e-05
-2.39265e-05
-0.000936577
-0.00107905
-0.00114809
-0.0011518
-0.00110658
-0.00102945
-0.000933502
-0.000828518
-0.00072156
-0.000618109
-0.00052122
-0.000433138
-0.000354096
-0.000284809
-0.000223868
-0.000171588
-0.000125336
-8.58035e-05
-4.91356e-05
-1.71531e-05
-0.000556378
-0.000641877
-0.000684024
-0.000687255
-0.000661136
-0.000615806
-0.000559038
-0.000496667
-0.000432893
-0.00037106
-0.000313016
-0.000260206
-0.000212724
-0.000171073
-0.000134377
-0.000102902
-7.49907e-05
-5.1148e-05
-2.89949e-05
-9.91381e-06
-0.000190362
-0.000217312
-0.000231399
-0.000232157
-0.000222921
-0.000207258
-0.000187821
-0.000166594
-0.000144965
-0.000123986
-0.000104332
-8.65722e-05
-7.06118e-05
-5.66464e-05
-4.43363e-05
-3.38172e-05
-2.4463e-05
-1.65087e-05
-9.04708e-06
-2.6688e-06
-0.0256284
-0.0274657
-0.0269838
-0.0269623
-0.0272555
-0.0274194
-0.0273639
-0.0271578
-0.0268963
-0.0265444
-0.0167565
-0.0202139
-0.0216065
-0.0223967
-0.0230851
-0.0236019
-0.0238667
-0.0239031
-0.0237621
-0.0234811
-0.011698
-0.0151352
-0.0168726
-0.0178192
-0.0186125
-0.0193299
-0.0198784
-0.0202158
-0.0203538
-0.0203241
-0.00817092
-0.0110033
-0.0125257
-0.0134223
-0.0142138
-0.0149762
-0.0156261
-0.0161118
-0.0164357
-0.0166202
-0.00579786
-0.00805656
-0.00933314
-0.0101453
-0.0108871
-0.0116147
-0.0122634
-0.0127913
-0.0131983
-0.013498
-0.00422925
-0.00602793
-0.00709917
-0.00781683
-0.00847967
-0.00913339
-0.00973035
-0.0102388
-0.0106573
-0.0109948
-0.00317105
-0.00459831
-0.00549544
-0.00612165
-0.00670218
-0.00727575
-0.00780808
-0.00827481
-0.00867352
-0.00901013
-0.00244204
-0.00356914
-0.00431747
-0.0048604
-0.00536462
-0.00586243
-0.00632962
-0.00674756
-0.00711342
-0.00743097
-0.00192942
-0.00281432
-0.0034347
-0.0039023
-0.00433738
-0.00476587
-0.00517112
-0.00553917
-0.00586724
-0.00615757
-0.00156078
-0.00225167
-0.00276209
-0.00316157
-0.00353434
-0.00390036
-0.00424842
-0.00456833
-0.00485761
-0.00511743
-0.00128819
-0.00182515
-0.00224181
-0.00257988
-0.00289668
-0.00320684
-0.00350297
-0.00377777
-0.00402914
-0.00425762
-0.00107835
-0.00149406
-0.00183155
-0.00211473
-0.00238143
-0.00264193
-0.00289139
-0.00312469
-0.00334013
-0.00353783
-0.000908398
-0.00122902
-0.00150014
-0.00173465
-0.00195669
-0.00217317
-0.00238097
-0.00257655
-0.00275854
-0.00292687
-0.000763264
-0.00100935
-0.00122497
-0.00141647
-0.00159873
-0.0017762
-0.00194688
-0.00210836
-0.00225957
-0.00240031
-0.000633295
-0.000820575
-0.000989604
-0.00114305
-0.00128979
-0.00143259
-0.00157015
-0.00170083
-0.00182383
-0.0019389
-0.000512332
-0.000652565
-0.000782087
-0.000901707
-0.00101658
-0.00112835
-0.00123617
-0.00133895
-0.00143607
-0.0015273
-0.000396415
-0.000498118
-0.000593686
-0.000683072
-0.000769168
-0.000852918
-0.000933791
-0.00101107
-0.00108431
-0.00115332
-0.000283419
-0.000352072
-0.000417562
-0.00047956
-0.000539446
-0.000597675
-0.000653926
-0.000707772
-0.00075892
-0.000807222
-0.000174095
-0.000213227
-0.000250707
-0.000286492
-0.000321245
-0.000355144
-0.000387956
-0.00041942
-0.000449409
-0.000477944
-6.63705e-05
-8.30764e-05
-9.71885e-05
-0.000109273
-0.000120825
-0.000132212
-0.00014323
-0.000153636
-0.000163194
-0.000171679
0.000588757
0.000588903
0.000650341
0.000694896
0.00081212
0.00089673
0.00109435
0.00123101
0.00154863
0.00175338
0.00226492
0.00256132
0.00341767
0.00383747
0.0053974
0.00597483
0.00927027
0.00980594
0.0174865
0.00560843
0.000572737
0.000572358
0.000632485
0.000676675
0.000790455
0.000874064
0.00106593
0.00120154
0.00150927
0.00171363
0.00220663
0.00250495
0.00331925
0.00374677
0.00517946
0.00577302
0.00850036
0.00898665
0.0125476
0.00630777
0.000554493
0.000553978
0.000612462
0.000655907
0.000765957
0.00084809
0.00103342
0.0011674
0.00146346
0.00166696
0.00213718
0.00243763
0.00319917
0.00363618
0.00491357
0.00552672
0.00762883
0.00813748
0.00913786
0.0072363
0.000534089
0.000533954
0.00059005
0.000632977
0.000738281
0.000819382
0.000996295
0.00112944
0.00141044
0.0016146
0.0020557
0.00236107
0.00305742
0.00350853
0.00460686
0.0052476
0.00675306
0.00733765
0.00696955
0.00699763
0.000511695
0.000512248
0.000565392
0.000607882
0.000707627
0.000787879
0.000954886
0.00108749
0.00135086
0.0015562
0.00196371
0.00227469
0.00289855
0.00336378
0.00427829
0.00494276
0.0059488
0.00664009
0.00545395
0.00599825
0.00048744
0.000488857
0.000538634
0.000580636
0.000674207
0.000753548
0.000909552
0.00104147
0.00128542
0.0014916
0.00186282
0.0021784
0.00272728
0.00320308
0.00394508
0.0046204
0.0052399
0.00600682
0.00433071
0.00484765
0.000461439
0.000463812
0.000509906
0.000551292
0.000638208
0.000716422
0.000860617
0.000991395
0.00121475
0.00142084
0.00175456
0.00207252
0.00254792
0.00302796
0.0036174
0.00429133
0.00461872
0.00539439
0.00346635
0.0037741
0.000433814
0.000437154
0.000479343
0.000519913
0.000599833
0.000676553
0.000808424
0.000937323
0.00113954
0.00134402
0.00164044
0.00195738
0.00236387
0.00284034
0.00329918
0.00395853
0.00406675
0.00479486
0.00279393
0.00285154
0.000404682
0.000408926
0.000447085
0.000486571
0.000559294
0.000634008
0.000753325
0.000879335
0.00106041
0.00126128
0.00152169
0.00183345
0.002177
0.00264234
0.00299142
0.00362189
0.00357078
0.00421689
0.00227027
0.00209599
0.000374161
0.000379183
0.000413278
0.000451348
0.000516806
0.000588874
0.000695657
0.000817542
0.000977953
0.00117284
0.00139921
0.00170142
0.00198849
0.0024353
0.00269388
0.00328287
0.00312281
0.00367107
0.00186073
0.00149915
0.00034237
0.000347992
0.000378068
0.000414337
0.000472577
0.000541258
0.000635737
0.0007521
0.00089263
0.00107899
0.00127365
0.00156196
0.0017991
0.00222049
0.00240605
0.00294428
0.00271695
0.0031637
0.00153622
0.00103994
0.000309428
0.000315432
0.000341599
0.000375649
0.00042681
0.000491293
0.000573849
0.000683212
0.000804838
0.000980109
0.00114555
0.00141576
0.00160931
0.00199933
0.00212737
0.00260893
0.00234767
0.00269702
0.0012735
0.000695117
0.000275454
0.000281594
0.000304013
0.000335407
0.000379695
0.000439142
0.000510247
0.000611122
0.00071493
0.000876597
0.00101536
0.00126359
0.00141945
0.00177317
0.00185721
0.00227895
0.00200942
0.00227071
0.00105515
0.000443425
0.000240569
0.000246587
0.000265451
0.00029375
0.000331411
0.000384991
0.000445174
0.000536109
0.000623222
0.000768907
0.00088342
0.0011062
0.00122974
0.00154323
0.00159472
0.00195568
0.0016969
0.00188274
0.000868648
0.000265918
0.000204896
0.000210531
0.000226047
0.000250831
0.000282132
0.000329049
0.000378853
0.000458482
0.000530001
0.000657512
0.000750059
0.000944307
0.00104029
0.00131048
0.00133891
0.00163971
0.00140519
0.00152989
0.000705073
0.000146003
0.000168555
0.000173562
0.000185936
0.000206818
0.000232022
0.000271545
0.000311493
0.000378573
0.000435527
0.000542904
0.000615539
0.000778592
0.000851142
0.00107565
0.00108867
0.00133099
0.00112989
0.00120799
0.00055797
6.95477e-05
0.000131669
0.000135827
0.000145249
0.000161892
0.000181242
0.000212733
0.000243299
0.000296749
0.00034005
0.000425598
0.000480104
0.000609702
0.000662269
0.000839251
0.000842889
0.00102886
0.000867112
0.000912162
0.000422567
2.47454e-05
9.43561e-05
9.74829e-05
0.000104119
0.000116246
0.000129957
0.00015289
0.000174488
0.000213413
0.000243849
0.000306154
0.000344046
0.000438293
0.000473728
0.000601665
0.000600616
0.000732231
0.000613629
0.000637074
0.000295409
1.70343e-06
5.67364e-05
5.86884e-05
6.26683e-05
7.00622e-05
7.83147e-05
9.22701e-05
0.000105254
0.000128922
0.000147178
0.000185047
0.000207642
0.000264862
0.000285606
0.000362957
0.0003611
0.000439437
0.000366891
0.000377004
0.000174316
-7.1187e-06
1.8935e-05
1.96047e-05
2.09698e-05
2.34558e-05
2.62964e-05
3.09584e-05
3.5458e-05
4.33219e-05
4.97132e-05
6.22363e-05
7.02665e-05
8.90966e-05
9.67145e-05
0.000121978
0.000122115
0.000147184
0.000123434
0.000125029
5.75761e-05
-5.30886e-06
0.000635679
0.000634782
0.000699878
0.000746701
0.000871069
0.000958552
0.00116642
0.00130649
0.00163882
0.00184524
0.00237782
0.00267043
0.00356199
0.0039648
0.00560455
0.0061542
0.00975516
0.0103538
0.0214458
0.017613
0.000633095
0.000632351
0.000697815
0.000743447
0.000868881
0.000954771
0.0011646
0.00130208
0.00163806
0.00184043
0.00238023
0.00266642
0.00357381
0.00396628
0.00565125
0.0061794
0.00996435
0.0106656
0.0227514
0.0225503
0.000630061
0.000629738
0.000694958
0.000740216
0.000865567
0.000951142
0.00116107
0.00129804
0.00163466
0.00183636
0.00237848
0.00266355
0.00357844
0.00396863
0.0056793
0.00620498
0.0101099
0.0109329
0.023598
0.0259283
0.00062669
0.000626644
0.000691693
0.000736528
0.000861741
0.000946893
0.0011568
0.00129312
0.00163013
0.00183096
0.00237481
0.0026585
0.00357896
0.00396659
0.00569579
0.00621899
0.0102075
0.0111163
0.0241604
0.02806
0.000622969
0.000623062
0.000687998
0.000732347
0.000857401
0.000941973
0.00115179
0.00128724
0.00162445
0.0018241
0.00236908
0.00265109
0.00357513
0.00396009
0.0057005
0.00622063
0.0102554
0.0112071
0.0244297
0.0290356
0.000618884
0.000619026
0.000683832
0.000727717
0.000852487
0.000936451
0.00114595
0.00128051
0.00161746
0.00181596
0.00236107
0.00264157
0.00356659
0.00394959
0.00569271
0.00621021
0.010251
0.0112022
0.0244026
0.0288906
0.000614437
0.00061454
0.0006792
0.000722641
0.000846997
0.000930332
0.00113927
0.00127294
0.00160917
0.00180655
0.00235075
0.00262998
0.00355336
0.00393509
0.00567243
0.00618766
0.0101947
0.0111021
0.0240809
0.0276237
0.000609637
0.000609586
0.000674131
0.000717096
0.000840969
0.000923576
0.00113182
0.00126446
0.00159965
0.00179576
0.00233831
0.00261612
0.00353574
0.00391625
0.00564022
0.0061527
0.0100884
0.0109124
0.0234637
0.025189
0.000604487
0.00060418
0.000668604
0.000711111
0.000834371
0.00091623
0.00112353
0.00125514
0.00158884
0.00178371
0.0023236
0.00260021
0.00351346
0.00389353
0.00559569
0.00610683
0.00993287
0.0106455
0.0225358
0.0214629
0.000598917
0.000598517
0.000662352
0.000704997
0.000826817
0.000908787
0.0011138
0.0012458
0.00157569
0.00177175
0.00230486
0.00258457
0.0034835
0.00387104
0.00553369
0.00605776
0.00972045
0.0103345
0.0211438
0.0162178
)
;

boundaryField
{
    inlet
    {
        type            zeroGradient;
    }
    outlet
    {
        type            fixedValue;
        value           uniform 0;
    }
    upAndBottom
    {
        type            empty;
    }
    obstacle
    {
        type            zeroGradient;
    }
}


// ************************************************************************* //
