/*--------------------------------*- C++ -*----------------------------------*\
| =========                 |                                                 |
| \\      /  F ield         | OpenFOAM: The Open Source CFD Toolbox           |
|  \\    /   O peration     | Version:  v1806                                 |
|   \\  /    A nd           | Web:      www.OpenFOAM.com                      |
|    \\/     M anipulation  |                                                 |
\*---------------------------------------------------------------------------*/
FoamFile
{
    version     2.0;
    format      ascii;
    class       volVectorField;
    location    "420";
    object      U;
}
// * * * * * * * * * * * * * * * * * * * * * * * * * * * * * * * * * * * * * //

dimensions      [0 1 -1 0 0 0 0];


internalField   nonuniform List<vector> 
2400
(
(0.3 -0.000170292 0)
(0.299995 -0.000587276 0)
(0.299988 -0.000953246 0)
(0.299975 -0.00141916 0)
(0.299957 -0.00184841 0)
(0.299929 -0.0024117 0)
(0.299897 -0.00296097 0)
(0.299852 -0.00367257 0)
(0.299803 -0.00439632 0)
(0.299739 -0.00530081 0)
(0.299672 -0.00624464 0)
(0.299592 -0.00736598 0)
(0.299514 -0.00853712 0)
(0.299433 -0.00983917 0)
(0.299367 -0.0111498 0)
(0.29932 -0.0124731 0)
(0.299311 -0.0136678 0)
(0.299352 -0.0146704 0)
(0.299457 -0.0153073 0)
(0.299634 -0.0155177 0)
(0.299999 -0.000166911 0)
(0.299988 -0.000586227 0)
(0.299972 -0.000943036 0)
(0.299947 -0.00141235 0)
(0.299912 -0.0018298 0)
(0.299864 -0.00239786 0)
(0.299808 -0.00293233 0)
(0.299736 -0.0036501 0)
(0.299658 -0.00435679 0)
(0.299562 -0.0052693 0)
(0.299465 -0.00619658 0)
(0.299354 -0.00732877 0)
(0.299256 -0.00848964 0)
(0.299161 -0.0098078 0)
(0.299106 -0.0111231 0)
(0.299093 -0.0124716 0)
(0.299158 -0.0136924 0)
(0.299313 -0.0147319 0)
(0.299574 -0.0154093 0)
(0.299941 -0.0156476 0)
(0.299997 -0.000160565 0)
(0.299981 -0.000583824 0)
(0.299953 -0.000924283 0)
(0.299914 -0.00140029 0)
(0.299858 -0.001797 0)
(0.299784 -0.00237523 0)
(0.299697 -0.0028839 0)
(0.299588 -0.0036157 0)
(0.29947 -0.00429259 0)
(0.299326 -0.00522412 0)
(0.299186 -0.00612212 0)
(0.299027 -0.00728042 0)
(0.298894 -0.0084226 0)
(0.29877 -0.00977771 0)
(0.298715 -0.0111003 0)
(0.298728 -0.0125015 0)
(0.298869 -0.0137659 0)
(0.299151 -0.0148722 0)
(0.299599 -0.015608 0)
(0.300202 -0.015906 0)
(0.299996 -0.000151064 0)
(0.299974 -0.0005804 0)
(0.299935 -0.000896359 0)
(0.299882 -0.00138319 0)
(0.299803 -0.00174879 0)
(0.299702 -0.00234408 0)
(0.29958 -0.00281365 0)
(0.299431 -0.00356986 0)
(0.299269 -0.00420052 0)
(0.299073 -0.00516608 0)
(0.298884 -0.00601651 0)
(0.298666 -0.00722195 0)
(0.298491 -0.00832959 0)
(0.298322 -0.00974985 0)
(0.298259 -0.0110747 0)
(0.298282 -0.0125631 0)
(0.298494 -0.0138858 0)
(0.298898 -0.0150922 0)
(0.29954 -0.0159143 0)
(0.300402 -0.0162822 0)
(0.299994 -0.000138486 0)
(0.299968 -0.000576143 0)
(0.299916 -0.000858971 0)
(0.29985 -0.00136121 0)
(0.299747 -0.00168416 0)
(0.29962 -0.00230438 0)
(0.299463 -0.00271911 0)
(0.299273 -0.00351222 0)
(0.299065 -0.00407576 0)
(0.298814 -0.00509445 0)
(0.298571 -0.00587158 0)
(0.298288 -0.00715223 0)
(0.298065 -0.00819812 0)
(0.297837 -0.00972257 0)
(0.29776 -0.0110308 0)
(0.297773 -0.0126546 0)
(0.298053 -0.0140404 0)
(0.298568 -0.0153941 0)
(0.299413 -0.0163311 0)
(0.300553 -0.0167918 0)
(0.299992 -0.000122992 0)
(0.299962 -0.000571081 0)
(0.299898 -0.000812083 0)
(0.299819 -0.00133455 0)
(0.299692 -0.00160272 0)
(0.299539 -0.00225664 0)
(0.299346 -0.0025989 0)
(0.299117 -0.00344364 0)
(0.298861 -0.00391498 0)
(0.298553 -0.00501068 0)
(0.298254 -0.00568047 0)
(0.297898 -0.0070735 0)
(0.297622 -0.00801602 0)
(0.29732 -0.00969922 0)
(0.297221 -0.0109511 0)
(0.2972 -0.012781 0)
(0.297545 -0.0142145 0)
(0.298154 -0.0157861 0)
(0.299217 -0.0168639 0)
(0.300661 -0.0174536 0)
(0.29999 -0.000104879 0)
(0.299958 -0.00056508 0)
(0.29988 -0.000755907 0)
(0.29979 -0.00130329 0)
(0.299638 -0.00150449 0)
(0.299461 -0.00220134 0)
(0.29923 -0.0024523 0)
(0.298962 -0.00336516 0)
(0.298656 -0.00371562 0)
(0.298291 -0.00491668 0)
(0.297931 -0.00543675 0)
(0.297497 -0.00698907 0)
(0.297161 -0.00776995 0)
(0.296766 -0.00968537 0)
(0.296639 -0.010813 0)
(0.296551 -0.0129519 0)
(0.296962 -0.0143839 0)
(0.297633 -0.0162837 0)
(0.298943 -0.0175158 0)
(0.300716 -0.0182899 0)
(0.299988 -8.46471e-05 0)
(0.299955 -0.000557743 0)
(0.299863 -0.000691012 0)
(0.299763 -0.00126719 0)
(0.299584 -0.00139004 0)
(0.299386 -0.00213843 0)
(0.299116 -0.0022793 0)
(0.298812 -0.0032771 0)
(0.298452 -0.00347596 0)
(0.29803 -0.00481343 0)
(0.297603 -0.00513461 0)
(0.297085 -0.00690125 0)
(0.29668 -0.00744582 0)
(0.296174 -0.00968647 0)
(0.296008 -0.0105892 0)
(0.295811 -0.0131808 0)
(0.296292 -0.0145116 0)
(0.296973 -0.0169133 0)
(0.298574 -0.0182776 0)
(0.3007 -0.0193344 0)
(0.299985 -6.30429e-05 0)
(0.299953 -0.000548305 0)
(0.299846 -0.000618451 0)
(0.299738 -0.00122547 0)
(0.299531 -0.00126066 0)
(0.299315 -0.0020671 0)
(0.299003 -0.00208096 0)
(0.298666 -0.00317859 0)
(0.298248 -0.00319576 0)
(0.297771 -0.00470008 0)
(0.297271 -0.00477001 0)
(0.296665 -0.0068098 0)
(0.296178 -0.00703065 0)
(0.295542 -0.00970543 0)
(0.295321 -0.0102497 0)
(0.294968 -0.0134817 0)
(0.295518 -0.0145477 0)
(0.296133 -0.0177141 0)
(0.298094 -0.0191167 0)
(0.300575 -0.020642 0)
(0.299983 -4.1102e-05 0)
(0.299954 -0.000535552 0)
(0.299831 -0.000539876 0)
(0.299716 -0.00117673 0)
(0.29948 -0.00111859 0)
(0.299249 -0.00198552 0)
(0.298893 -0.0018598 0)
(0.298526 -0.00306718 0)
(0.298047 -0.00287694 0)
(0.297517 -0.00457332 0)
(0.296935 -0.0043419 0)
(0.296239 -0.00671053 0)
(0.295655 -0.00651497 0)
(0.294871 -0.00973941 0)
(0.294572 -0.00976636 0)
(0.294009 -0.013863 0)
(0.294622 -0.0144343 0)
(0.295065 -0.0187336 0)
(0.297482 -0.0199755 0)
(0.300276 -0.0222957 0)
(0.29998 -2.01825e-05 0)
(0.299958 -0.000517764 0)
(0.299816 -0.000457647 0)
(0.299698 -0.00111882 0)
(0.299429 -0.00096721 0)
(0.299189 -0.00189063 0)
(0.298785 -0.0016201 0)
(0.298396 -0.00293849 0)
(0.297846 -0.00252415 0)
(0.297273 -0.00442673 0)
(0.296595 -0.00385335 0)
(0.295813 -0.00659414 0)
(0.295108 -0.00589493 0)
(0.294167 -0.00977691 0)
(0.293754 -0.00911629 0)
(0.292931 -0.0143218 0)
(0.29358 -0.0141117 0)
(0.293723 -0.0200182 0)
(0.296709 -0.0207789 0)
(0.299699 -0.0244125 0)
(0.299978 -1.94366e-06 0)
(0.299965 -0.000492664 0)
(0.299802 -0.000374922 0)
(0.299685 -0.00104872 0)
(0.299379 -0.000811212 0)
(0.299138 -0.0017779 0)
(0.298677 -0.00136833 0)
(0.29828 -0.00278578 0)
(0.297645 -0.00214546 0)
(0.297046 -0.00425021 0)
(0.296248 -0.00331254 0)
(0.295398 -0.00644538 0)
(0.294535 -0.00517399 0)
(0.293441 -0.00979614 0)
(0.292856 -0.00828509 0)
(0.291735 -0.014838 0)
(0.292362 -0.013523 0)
(0.292061 -0.0216008 0)
(0.295734 -0.0214344 0)
(0.298696 -0.0271602 0)
(0.299977 1.18226e-05 0)
(0.299974 -0.000457368 0)
(0.299789 -0.000295661 0)
(0.299676 -0.000962444 0)
(0.299329 -0.000656836 0)
(0.299098 -0.00164099 0)
(0.298568 -0.00111364 0)
(0.298184 -0.00259935 0)
(0.297439 -0.00175332 0)
(0.296847 -0.00402895 0)
(0.295885 -0.00273431 0)
(0.295016 -0.0062417 0)
(0.293921 -0.00436503 0)
(0.292723 -0.00976342 0)
(0.291858 -0.00727035 0)
(0.290447 -0.0153708 0)
(0.290923 -0.0126165 0)
(0.290047 -0.023491 0)
(0.294488 -0.0218197 0)
(0.297071 -0.0307852 0)
(0.299979 1.91929e-05 0)
(0.299982 -0.000408765 0)
(0.29978 -0.000224483 0)
(0.299669 -0.000855169 0)
(0.299283 -0.000511896 0)
(0.299068 -0.00147152 0)
(0.298459 -0.000868548 0)
(0.298109 -0.00236542 0)
(0.297225 -0.00136636 0)
(0.29669 -0.00374116 0)
(0.295495 -0.00214323 0)
(0.294696 -0.00594989 0)
(0.293238 -0.00349436 0)
(0.292072 -0.00962941 0)
(0.290704 -0.00608627 0)
(0.289145 -0.0158567 0)
(0.289172 -0.0113502 0)
(0.287705 -0.0256705 0)
(0.29285 -0.0217803 0)
(0.294563 -0.0355729 0)
(0.299991 1.8755e-05 0)
(0.299981 -0.000344322 0)
(0.299783 -0.000165657 0)
(0.299653 -0.000722232 0)
(0.29925 -0.000384581 0)
(0.299034 -0.00125992 0)
(0.298364 -0.000648516 0)
(0.298046 -0.00206569 0)
(0.297014 -0.00101157 0)
(0.296572 -0.00335457 0)
(0.295078 -0.00158017 0)
(0.294461 -0.00551747 0)
(0.292455 -0.00261244 0)
(0.291561 -0.00931513 0)
(0.289296 -0.0047744 0)
(0.287989 -0.0161968 0)
(0.286897 -0.00971021 0)
(0.285219 -0.0280934 0)
(0.290567 -0.0211392 0)
(0.290875 -0.041851 0)
(0.300019 1.03777e-05 0)
(0.299957 -0.000263332 0)
(0.29981 -0.000121451 0)
(0.29961 -0.000561491 0)
(0.299253 -0.000280344 0)
(0.29897 -0.000999648 0)
(0.298315 -0.000466563 0)
(0.297955 -0.00168307 0)
(0.296853 -0.000718167 0)
(0.296447 -0.00282865 0)
(0.294689 -0.00110657 0)
(0.294274 -0.00486057 0)
(0.291608 -0.00182086 0)
(0.291211 -0.00867598 0)
(0.287559 -0.00344118 0)
(0.28716 -0.0161947 0)
(0.283716 -0.00773849 0)
(0.283067 -0.0307129 0)
(0.286916 -0.0195996 0)
(0.286016 -0.0507597 0)
(0.300072 -3.7994e-06 0)
(0.299898 -0.000167773 0)
(0.299877 -9.06775e-05 0)
(0.299516 -0.000375646 0)
(0.299322 -0.000198914 0)
(0.298834 -0.00069273 0)
(0.298368 -0.000325925 0)
(0.297766 -0.00121446 0)
(0.296841 -0.000500147 0)
(0.296197 -0.0021404 0)
(0.294489 -0.000769671 0)
(0.293963 -0.00389845 0)
(0.290924 -0.00125686 0)
(0.290821 -0.00748575 0)
(0.285699 -0.00235982 0)
(0.286554 -0.0153929 0)
(0.279339 -0.00564896 0)
(0.281823 -0.0332203 0)
(0.279893 -0.016741 0)
(0.281406 -0.0643086 0)
(0.300151 -1.99486e-05 0)
(0.299795 -6.31217e-05 0)
(0.299992 -6.79728e-05 0)
(0.299356 -0.00017329 0)
(0.299479 -0.000132363 0)
(0.298595 -0.000352766 0)
(0.298574 -0.000215526 0)
(0.297409 -0.000679854 0)
(0.297089 -0.000343958 0)
(0.295674 -0.00131506 0)
(0.294719 -0.000560819 0)
(0.293215 -0.00264014 0)
(0.290901 -0.000966102 0)
(0.289803 -0.00562971 0)
(0.284606 -0.00180371 0)
(0.285251 -0.0131673 0)
(0.274666 -0.00400474 0)
(0.28071 -0.0342134 0)
(0.266852 -0.0121524 0)
(0.280624 -0.082588 0)
(0.300249 -3.11887e-05 0)
(0.299656 4.07313e-05 0)
(0.300144 -4.2717e-05 0)
(0.299141 3.24722e-05 0)
(0.299713 -5.94392e-05 0)
(0.29826 -2.88139e-06 0)
(0.29893 -9.79489e-05 0)
(0.296877 -0.000122767 0)
(0.297625 -0.000184268 0)
(0.29482 -0.000438215 0)
(0.295507 -0.000369635 0)
(0.291823 -0.00121413 0)
(0.291977 -0.000773634 0)
(0.287507 -0.00322513 0)
(0.285649 -0.00172308 0)
(0.281461 -0.00905885 0)
(0.273195 -0.00414218 0)
(0.275274 -0.0299344 0)
(0.251468 -0.0114959 0)
(0.284366 -0.106425 0)
(0.300345 -3.87248e-05 0)
(0.29951 0.000146093 0)
(0.300301 -2.18337e-05 0)
(0.298918 0.000237964 0)
(0.299971 7.20583e-06 0)
(0.297902 0.000351707 0)
(0.299346 8.40483e-06 0)
(0.296289 0.000451977 0)
(0.2983 -4.44176e-05 0)
(0.293823 0.000488829 0)
(0.296625 -0.000210792 0)
(0.29007 0.000306806 0)
(0.293863 -0.000616011 0)
(0.284199 -0.000602637 0)
(0.28891 -0.00153907 0)
(0.274472 -0.00424913 0)
(0.278426 -0.00396742 0)
(0.25763 -0.0221101 0)
(0.254256 -0.0115876 0)
(0.279232 -0.163664 0)
(0.29979 -0.0152958 0)
(0.299827 -0.0152327 0)
(0.29986 -0.0151598 0)
(0.299892 -0.0150779 0)
(0.299924 -0.0149872 0)
(0.299957 -0.0148876 0)
(0.299991 -0.0147791 0)
(0.300024 -0.014662 0)
(0.300058 -0.0145363 0)
(0.300091 -0.0144026 0)
(0.300198 -0.0154526 0)
(0.300258 -0.0153966 0)
(0.300315 -0.0153304 0)
(0.300372 -0.0152541 0)
(0.300429 -0.0151678 0)
(0.300486 -0.0150716 0)
(0.300543 -0.0149657 0)
(0.3006 -0.0148503 0)
(0.300657 -0.0147255 0)
(0.300713 -0.0145919 0)
(0.300618 -0.0157105 0)
(0.300715 -0.0156527 0)
(0.300808 -0.0155839 0)
(0.300899 -0.0155045 0)
(0.300989 -0.0154149 0)
(0.301078 -0.0153151 0)
(0.301167 -0.0152053 0)
(0.301255 -0.0150855 0)
(0.301341 -0.014956 0)
(0.301425 -0.0148175 0)
(0.300996 -0.0160914 0)
(0.301134 -0.0160338 0)
(0.301265 -0.0159644 0)
(0.301392 -0.0158836 0)
(0.301518 -0.0157917 0)
(0.301644 -0.0156887 0)
(0.301769 -0.0155746 0)
(0.301892 -0.0154495 0)
(0.302013 -0.0153138 0)
(0.302131 -0.0151681 0)
(0.301343 -0.0166099 0)
(0.301526 -0.016553 0)
(0.3017 -0.0164827 0)
(0.301869 -0.0163994 0)
(0.302037 -0.0163034 0)
(0.302204 -0.0161947 0)
(0.302369 -0.0160733 0)
(0.302532 -0.0159397 0)
(0.302692 -0.0157938 0)
(0.302847 -0.0156368 0)
(0.30167 -0.0172849 0)
(0.301904 -0.0172291 0)
(0.302127 -0.0171576 0)
(0.302344 -0.0170709 0)
(0.30256 -0.0169692 0)
(0.302774 -0.0168526 0)
(0.302986 -0.0167213 0)
(0.303194 -0.0165757 0)
(0.303398 -0.016416 0)
(0.303597 -0.0162434 0)
(0.301977 -0.0181418 0)
(0.302271 -0.018088 0)
(0.302553 -0.0180153 0)
(0.302827 -0.017924 0)
(0.303099 -0.0178145 0)
(0.30337 -0.017687 0)
(0.303637 -0.017542 0)
(0.303898 -0.0173799 0)
(0.304154 -0.017201 0)
(0.304402 -0.0170072 0)
(0.30226 -0.0192185 0)
(0.302626 -0.0191678 0)
(0.30298 -0.0190932 0)
(0.303326 -0.0189954 0)
(0.303667 -0.0188749 0)
(0.304006 -0.0187323 0)
(0.304339 -0.0185681 0)
(0.304665 -0.0183832 0)
(0.304982 -0.0181779 0)
(0.30529 -0.0179549 0)
(0.302511 -0.0205725 0)
(0.30297 -0.020525 0)
(0.303416 -0.0204463 0)
(0.303851 -0.0203377 0)
(0.30428 -0.0202006 0)
(0.304703 -0.0200358 0)
(0.305117 -0.0198442 0)
(0.305522 -0.019627 0)
(0.305914 -0.0193848 0)
(0.306292 -0.0191215 0)
(0.302724 -0.0222873 0)
(0.303308 -0.0222405 0)
(0.303876 -0.0221511 0)
(0.304425 -0.0220234 0)
(0.304963 -0.0218597 0)
(0.305492 -0.0216612 0)
(0.306008 -0.0214292 0)
(0.30651 -0.0211654 0)
(0.306994 -0.0208708 0)
(0.307457 -0.0205508 0)
(0.302901 -0.0244751 0)
(0.303665 -0.0244218 0)
(0.304394 -0.0243093 0)
(0.305088 -0.0241475 0)
(0.305764 -0.0239408 0)
(0.306425 -0.0236905 0)
(0.307069 -0.023398 0)
(0.30769 -0.023066 0)
(0.308286 -0.0226962 0)
(0.308853 -0.0222963 0)
(0.303055 -0.0272855 0)
(0.304083 -0.0272101 0)
(0.30503 -0.027052 0)
(0.305908 -0.0268316 0)
(0.306756 -0.0265557 0)
(0.307584 -0.0262255 0)
(0.308386 -0.0258424 0)
(0.309156 -0.0254103 0)
(0.309888 -0.024932 0)
(0.310579 -0.0244186 0)
(0.303231 -0.0309229 0)
(0.30465 -0.0307947 0)
(0.305886 -0.030553 0)
(0.306993 -0.0302345 0)
(0.308054 -0.029849 0)
(0.30909 -0.0293965 0)
(0.310092 -0.0288783 0)
(0.311044 -0.0283 0)
(0.311942 -0.0276655 0)
(0.31278 -0.0269913 0)
(0.303531 -0.0356295 0)
(0.305519 -0.0354035 0)
(0.307137 -0.0350234 0)
(0.308525 -0.0345484 0)
(0.309849 -0.0339924 0)
(0.311149 -0.0333544 0)
(0.312402 -0.0326363 0)
(0.313584 -0.0318462 0)
(0.314686 -0.0309891 0)
(0.315702 -0.0300901 0)
(0.304161 -0.0417008 0)
(0.30698 -0.041325 0)
(0.309121 -0.0407454 0)
(0.310881 -0.040044 0)
(0.31255 -0.0392372 0)
(0.314192 -0.0383236 0)
(0.315766 -0.0373079 0)
(0.317234 -0.036204 0)
(0.318587 -0.0350191 0)
(0.319821 -0.0337949 0)
(0.305749 -0.049788 0)
(0.309736 -0.0491067 0)
(0.3126 -0.0482024 0)
(0.314886 -0.0471773 0)
(0.317045 -0.0460351 0)
(0.319154 -0.0447624 0)
(0.321138 -0.0433603 0)
(0.322941 -0.0418472 0)
(0.324552 -0.0402248 0)
(0.325961 -0.0385737 0)
(0.310377 -0.0610158 0)
(0.315682 -0.0595363 0)
(0.31912 -0.0577518 0)
(0.321737 -0.0558588 0)
(0.324214 -0.0538723 0)
(0.326617 -0.0517695 0)
(0.328811 -0.0495468 0)
(0.33071 -0.0472294 0)
(0.3323 -0.0448098 0)
(0.333607 -0.042425 0)
(0.320612 -0.0773508 0)
(0.327184 -0.0752399 0)
(0.330352 -0.072701 0)
(0.331963 -0.0698725 0)
(0.333228 -0.0667575 0)
(0.334317 -0.0633761 0)
(0.335059 -0.0597771 0)
(0.335346 -0.0560269 0)
(0.335206 -0.052115 0)
(0.334618 -0.0482937 0)
(0.319956 -0.0797563 0)
(0.323477 -0.0733639 0)
(0.322616 -0.0680631 0)
(0.320168 -0.0633723 0)
(0.3174 -0.0588431 0)
(0.314332 -0.0543503 0)
(0.310801 -0.049894 0)
(0.306816 -0.0454703 0)
(0.302579 -0.0410399 0)
(0.297893 -0.0366116 0)
(0.269406 -0.101594 0)
(0.250504 -0.0874061 0)
(0.226215 -0.0750233 0)
(0.205878 -0.0640669 0)
(0.189474 -0.0541524 0)
(0.175253 -0.0451954 0)
(0.162522 -0.0371939 0)
(0.151284 -0.0300909 0)
(0.141376 -0.0237142 0)
(0.132256 -0.0174877 0)
(0.300187 -0.0139923 0)
(0.300357 -0.0131447 0)
(0.300523 -0.0121585 0)
(0.300673 -0.0110716 0)
(0.300807 -0.00992749 0)
(0.300917 -0.00876508 0)
(0.301008 -0.00762107 0)
(0.301075 -0.00652085 0)
(0.301129 -0.00548793 0)
(0.301159 -0.00453347 0)
(0.301184 -0.00367088 0)
(0.301185 -0.00290034 0)
(0.301191 -0.00222934 0)
(0.30117 -0.00165017 0)
(0.301165 -0.00116816 0)
(0.301127 -0.000770854 0)
(0.301117 -0.000464586 0)
(0.301062 -0.000235075 0)
(0.301053 -8.9296e-05 0)
(0.300985 -1.40153e-05 0)
(0.300873 -0.0141747 0)
(0.301107 -0.0133068 0)
(0.301307 -0.0122985 0)
(0.301464 -0.0111888 0)
(0.301578 -0.0100218 0)
(0.301644 -0.00883725 0)
(0.301676 -0.00767285 0)
(0.301672 -0.00655472 0)
(0.301649 -0.00550644 0)
(0.3016 -0.00453937 0)
(0.301549 -0.00366657 0)
(0.301474 -0.00288812 0)
(0.301414 -0.00221101 0)
(0.301328 -0.00162723 0)
(0.301272 -0.00114175 0)
(0.301177 -0.000741366 0)
(0.301133 -0.000431962 0)
(0.301026 -0.00019809 0)
(0.301003 -4.78324e-05 0)
(0.300871 2.99628e-05 0)
(0.301663 -0.0143889 0)
(0.302003 -0.0134918 0)
(0.30228 -0.0124448 0)
(0.302479 -0.0112923 0)
(0.302601 -0.010083 0)
(0.302645 -0.00886029 0)
(0.302631 -0.00766359 0)
(0.30256 -0.00651975 0)
(0.302461 -0.00545219 0)
(0.302324 -0.00447166 0)
(0.302186 -0.00359042 0)
(0.302019 -0.00280749 0)
(0.301877 -0.00212898 0)
(0.301701 -0.00154562 0)
(0.301576 -0.00106199 0)
(0.301396 -0.000663593 0)
(0.301303 -0.000357094 0)
(0.301111 -0.000125484 0)
(0.30106 2.09813e-05 0)
(0.300835 9.85963e-05 0)
(0.302463 -0.0147138 0)
(0.302929 -0.0137577 0)
(0.3033 -0.012642 0)
(0.303554 -0.011418 0)
(0.303697 -0.0101411 0)
(0.303726 -0.00885933 0)
(0.303674 -0.00761408 0)
(0.303543 -0.00643264 0)
(0.303375 -0.00533783 0)
(0.303155 -0.00433924 0)
(0.302936 -0.00344773 0)
(0.302678 -0.00266065 0)
(0.302457 -0.00198261 0)
(0.302191 -0.00140272 0)
(0.301998 -0.000924552 0)
(0.30173 -0.000532302 0)
(0.301586 -0.000232128 0)
(0.301303 -5.80078e-06 0)
(0.301223 0.000136878 0)
(0.300893 0.000212967 0)
(0.303284 -0.0151455 0)
(0.30389 -0.0141053 0)
(0.304362 -0.0128927 0)
(0.304674 -0.0115698 0)
(0.304834 -0.010201 0)
(0.304846 -0.00883979 0)
(0.304753 -0.0075302 0)
(0.304558 -0.00629964 0)
(0.304318 -0.00516979 0)
(0.304014 -0.00414859 0)
(0.303714 -0.00324475 0)
(0.303368 -0.0024535 0)
(0.30307 -0.00177715 0)
(0.302717 -0.00120305 0)
(0.302461 -0.000732883 0)
(0.302108 -0.000349715 0)
(0.301917 -5.79807e-05 0)
(0.301546 0.000160715 0)
(0.30144 0.000297998 0)
(0.301008 0.000370646 0)
(0.304152 -0.0157001 0)
(0.304913 -0.014544 0)
(0.305492 -0.0132005 0)
(0.305859 -0.0117465 0)
(0.30603 -0.0102581 0)
(0.306013 -0.00879578 0)
(0.305865 -0.00740578 0)
(0.305597 -0.00611511 0)
(0.305275 -0.00494349 0)
(0.30488 -0.00389649 0)
(0.304495 -0.00297969 0)
(0.304056 -0.0021855 0)
(0.303681 -0.00151322 0)
(0.303242 -0.000947996 0)
(0.302923 -0.000489185 0)
(0.302489 -0.000118103 0)
(0.302253 0.000162054 0)
(0.3018 0.000370286 0)
(0.301671 0.00050052 0)
(0.301145 0.000568632 0)
(0.305095 -0.0163926 0)
(0.306028 -0.0150806 0)
(0.30672 -0.0135646 0)
(0.307137 -0.0119419 0)
(0.307304 -0.0103032 0)
(0.307241 -0.00871681 0)
(0.307023 -0.00723036 0)
(0.306664 -0.00586947 0)
(0.306247 -0.00465079 0)
(0.30575 -0.00357646 0)
(0.30527 -0.00264776 0)
(0.304733 -0.00185354 0)
(0.304277 -0.00118913 0)
(0.30375 -0.000637343 0)
(0.303369 -0.000193822 0)
(0.302856 0.000160373 0)
(0.302576 0.000424917 0)
(0.302047 0.000619877 0)
(0.301895 0.000741149 0)
(0.301283 0.000803715 0)
(0.306144 -0.0172429 0)
(0.307272 -0.0157231 0)
(0.308079 -0.0139831 0)
(0.308535 -0.0121471 0)
(0.308679 -0.010324 0)
(0.308548 -0.00858919 0)
(0.308236 -0.00699057 0)
(0.307767 -0.00555059 0)
(0.307237 -0.00428147 0)
(0.306624 -0.00318024 0)
(0.306038 -0.0022428 0)
(0.305396 -0.00145317 0)
(0.304853 -0.000802429 0)
(0.304237 -0.000269431 0)
(0.303791 0.000152325 0)
(0.303201 0.000483926 0)
(0.302879 0.000728672 0)
(0.302277 0.000907123 0)
(0.302105 0.00101697 0)
(0.301414 0.00107276 0)
(0.30734 -0.0182754 0)
(0.308687 -0.0164794 0)
(0.30961 -0.0144506 0)
(0.310086 -0.0123488 0)
(0.310178 -0.0103033 0)
(0.309948 -0.00839505 0)
(0.309514 -0.00666937 0)
(0.308909 -0.00514346 0)
(0.308246 -0.00382302 0)
(0.3075 -0.00269797 0)
(0.306796 -0.00175741 0)
(0.306041 -0.000979469 0)
(0.305406 -0.000349577 0)
(0.304698 0.000156558 0)
(0.304185 0.000548463 0)
(0.30352 0.000851983 0)
(0.303156 0.00107168 0)
(0.302488 0.00122966 0)
(0.302296 0.00132496 0)
(0.301535 0.00137265 0)
(0.308736 -0.0195188 0)
(0.310326 -0.0173553 0)
(0.311358 -0.0149567 0)
(0.311823 -0.0125277 0)
(0.311825 -0.0102184 0)
(0.311456 -0.0081113 0)
(0.310864 -0.00624547 0)
(0.310095 -0.00462986 0)
(0.309273 -0.00326074 0)
(0.308376 -0.00211824 0)
(0.307541 -0.00118366 0)
(0.306664 -0.000426326 0)
(0.30593 0.000171848 0)
(0.305126 0.000641024 0)
(0.304547 0.000995068 0)
(0.303808 0.0012638 0)
(0.303404 0.00145178 0)
(0.302673 0.00158494 0)
(0.302463 0.00166193 0)
(0.301636 0.0017005 0)
(0.310407 -0.0210046 0)
(0.312263 -0.0183517 0)
(0.313381 -0.0154823 0)
(0.31379 -0.0126556 0)
(0.313647 -0.0100389 0)
(0.31309 -0.00770883 0)
(0.312297 -0.00569309 0)
(0.311326 -0.0039882 0)
(0.31032 -0.00257746 0)
(0.30925 -0.00142873 0)
(0.308269 -0.000511822 0)
(0.307257 0.000211139 0)
(0.306418 0.000763895 0)
(0.305513 0.00118623 0)
(0.304865 0.00149258 0)
(0.304049 0.00171885 0)
(0.303606 0.00186742 0)
(0.302808 0.00197158 0)
(0.302582 0.00202588 0)
(0.301686 0.00205517 0)
(0.312458 -0.022763 0)
(0.314591 -0.0194592 0)
(0.315755 -0.0159964 0)
(0.316037 -0.012694 0)
(0.315681 -0.00972549 0)
(0.314872 -0.00715169 0)
(0.313827 -0.00498181 0)
(0.31261 -0.00319314 0)
(0.311383 -0.00175367 0)
(0.310113 -0.000613461 0)
(0.308965 0.000267534 0)
(0.307798 0.000938712 0)
(0.306842 0.00143282 0)
(0.30582 0.00179691 0)
(0.305095 0.00204463 0)
(0.304183 0.00222038 0)
(0.303695 0.0023215 0)
(0.30281 0.00239302 0)
(0.302564 0.00241984 0)
(0.301572 0.0024412 0)
(0.315043 -0.0248232 0)
(0.31745 -0.0206557 0)
(0.318586 -0.0164553 0)
(0.318645 -0.0125926 0)
(0.317979 -0.00922704 0)
(0.316835 -0.00639332 0)
(0.315462 -0.00407213 0)
(0.313934 -0.0022137 0)
(0.312431 -0.000760667 0)
(0.310908 0.000348525 0)
(0.309548 0.00117187 0)
(0.308185 0.00177422 0)
(0.307076 0.00219566 0)
(0.305895 0.00248831 0)
(0.30506 0.00266688 0)
(0.304007 0.00278358 0)
(0.303445 0.00283008 0)
(0.302417 0.00286534 0)
(0.302135 0.00286018 0)
(0.30098 0.00287581 0)
(0.318424 -0.0271949 0)
(0.321068 -0.021887 0)
(0.322043 -0.0167848 0)
(0.321717 -0.0122721 0)
(0.320582 -0.00846354 0)
(0.318948 -0.00535456 0)
(0.317106 -0.00289183 0)
(0.315139 -0.000988484 0)
(0.31324 0.000446231 0)
(0.311352 0.00149529 0)
(0.30968 0.00224289 0)
(0.308024 0.0027583 0)
(0.306672 0.00309382 0)
(0.305239 0.00330039 0)
(0.304213 0.00340192 0)
(0.302923 0.00344904 0)
(0.302221 0.00343643 0)
(0.30095 0.00342833 0)
(0.300589 0.00338828 0)
(0.299153 0.00339677 0)
(0.32309 -0.0298622 0)
(0.325776 -0.0230626 0)
(0.32625 -0.0168614 0)
(0.325173 -0.0115999 0)
(0.323208 -0.00729767 0)
(0.320743 -0.00389516 0)
(0.318116 -0.0012878 0)
(0.315428 0.000628197 0)
(0.312885 0.0020005 0)
(0.310417 0.0029521 0)
(0.308236 0.00359524 0)
(0.306108 0.00399488 0)
(0.304344 0.00422638 0)
(0.302508 0.0043246 0)
(0.301149 0.00434056 0)
(0.299496 0.00429835 0)
(0.29854 0.00422362 0)
(0.296913 0.00415211 0)
(0.296403 0.00407616 0)
(0.294569 0.00406004 0)
(0.329573 -0.0330453 0)
(0.331438 -0.0241729 0)
(0.330416 -0.0165166 0)
(0.327662 -0.0103023 0)
(0.324063 -0.00544473 0)
(0.320082 -0.00176651 0)
(0.316079 0.000922874 0)
(0.312176 0.00280001 0)
(0.308597 0.00407428 0)
(0.305244 0.00488772 0)
(0.302297 0.00538773 0)
(0.2995 0.00563143 0)
(0.297152 0.00573099 0)
(0.294796 0.00568434 0)
(0.292984 0.00559749 0)
(0.290916 0.00542715 0)
(0.289623 0.00528287 0)
(0.287648 0.00510278 0)
(0.286937 0.00499046 0)
(0.284764 0.00489907 0)
(0.336527 -0.0344588 0)
(0.33478 -0.0233577 0)
(0.329891 -0.0141731 0)
(0.323589 -0.00700183 0)
(0.31696 -0.00170051 0)
(0.310495 0.0019886 0)
(0.30449 0.00446833 0)
(0.299012 0.00607288 0)
(0.294194 0.00706605 0)
(0.289882 0.00759501 0)
(0.286182 0.00783348 0)
(0.282819 0.00782004 0)
(0.280016 0.00770787 0)
(0.277349 0.00743956 0)
(0.275264 0.00720063 0)
(0.273071 0.00683317 0)
(0.271611 0.00659588 0)
(0.269671 0.00623075 0)
(0.268864 0.0060787 0)
(0.266868 0.00582188 0)
(0.33212 -0.0349903 0)
(0.32085 -0.0202121 0)
(0.309171 -0.00915783 0)
(0.297736 -0.00146709 0)
(0.287432 0.00381919 0)
(0.278538 0.00718187 0)
(0.271138 0.00919998 0)
(0.264995 0.0102885 0)
(0.259985 0.0107702 0)
(0.255816 0.0108185 0)
(0.252459 0.0106297 0)
(0.249609 0.0102294 0)
(0.24737 0.009801 0)
(0.245392 0.00922877 0)
(0.243921 0.00877897 0)
(0.242531 0.00815081 0)
(0.241613 0.00779869 0)
(0.240638 0.00717504 0)
(0.240171 0.00699179 0)
(0.239453 0.00647361 0)
(0.28569 -0.0233803 0)
(0.258358 -0.00806656 0)
(0.240692 0.00347176 0)
(0.226894 0.00932224 0)
(0.217258 0.0126224 0)
(0.210359 0.0141302 0)
(0.205703 0.014626 0)
(0.202621 0.0144703 0)
(0.200721 0.0139649 0)
(0.199594 0.0132457 0)
(0.199106 0.0124649 0)
(0.198971 0.0116094 0)
(0.199211 0.0108398 0)
(0.199599 0.00997991 0)
(0.200201 0.00934521 0)
(0.200934 0.0084861 0)
(0.201649 0.00807431 0)
(0.202777 0.00719051 0)
(0.203323 0.00705971 0)
(0.205129 0.0062382 0)
(0.124604 0.00820886 0)
(0.113859 0.00887607 0)
(0.112973 0.0142006 0)
(0.111202 0.0144694 0)
(0.113917 0.0154152 0)
(0.117158 0.0150511 0)
(0.12121 0.0145566 0)
(0.125492 0.0137476 0)
(0.129902 0.0128485 0)
(0.134251 0.0118957 0)
(0.138531 0.0109766 0)
(0.142637 0.0100575 0)
(0.146604 0.00926015 0)
(0.150405 0.00839002 0)
(0.153963 0.00779174 0)
(0.157582 0.00688973 0)
(0.160566 0.00660586 0)
(0.164392 0.00553798 0)
(0.166345 0.00568848 0)
(0.171239 0.00452706 0)
(0.0419946 -0.00343083 0)
(0.0386118 0.00392323 0)
(0.0505976 0.0100907 0)
(0.0544086 0.0104539 0)
(0.06294 0.0115962 0)
(0.0705201 0.0112203 0)
(0.0787465 0.0108752 0)
(0.0866393 0.0102174 0)
(0.0942906 0.00950076 0)
(0.101526 0.00873852 0)
(0.108369 0.00800458 0)
(0.114791 0.00727323 0)
(0.1208 0.00663778 0)
(0.126501 0.00594232 0)
(0.131676 0.00546563 0)
(0.136925 0.00472944 0)
(0.141114 0.00451311 0)
(0.146484 0.00360486 0)
(0.149118 0.00378524 0)
(0.155745 0.00271921 0)
(0.0169142 -0.0116671 0)
(0.0130288 0.00247476 0)
(0.027338 0.00838615 0)
(0.0329829 0.00878563 0)
(0.0436332 0.00971261 0)
(0.0528345 0.00932689 0)
(0.062637 0.00900336 0)
(0.0719027 0.00841877 0)
(0.0807968 0.00779338 0)
(0.0891452 0.00713193 0)
(0.0969818 0.00649713 0)
(0.104304 0.00586584 0)
(0.111108 0.00531655 0)
(0.117551 0.00471619 0)
(0.123356 0.00429929 0)
(0.129245 0.00366321 0)
(0.1339 0.00346177 0)
(0.139877 0.0026809 0)
(0.14277 0.00281252 0)
(0.150071 0.00189859 0)
(0.000892899 -0.0122487 0)
(-0.00570318 0.00136317 0)
(0.00911891 0.0063623 0)
(0.0160106 0.00685645 0)
(0.0282721 0.00752385 0)
(0.0387534 0.00716973 0)
(0.0498106 0.00687435 0)
(0.0601779 0.00638629 0)
(0.0700759 0.00587128 0)
(0.0793285 0.00533076 0)
(0.0879758 0.00481328 0)
(0.0960358 0.00429935 0)
(0.103494 0.00385039 0)
(0.110549 0.00336072 0)
(0.116872 0.00301217 0)
(0.123289 0.00249392 0)
(0.128327 0.00230609 0)
(0.134805 0.00168038 0)
(0.13791 0.00174422 0)
(0.145761 0.001025 0)
(-0.00846869 -0.00993747 0)
(-0.0182051 0.000511819 0)
(-0.00371305 0.00411889 0)
(0.0039645 0.00466257 0)
(0.017331 0.0050547 0)
(0.0287263 0.00476845 0)
(0.0406868 0.00452345 0)
(0.0518523 0.0041558 0)
(0.0624824 0.00377038 0)
(0.072399 0.0033688 0)
(0.0816447 0.00298417 0)
(0.0902526 0.00260226 0)
(0.0981966 0.00226548 0)
(0.10571 0.00189885 0)
(0.11242 0.00162704 0)
(0.119234 0.00123813 0)
(0.124559 0.00106882 0)
(0.131411 0.000610029 0)
(0.134676 0.00060914 0)
(0.142932 9.30346e-05 0)
(-0.0128904 -0.00614652 0)
(-0.0249145 -5.56874e-05 0)
(-0.0109347 0.00187505 0)
(-0.0028477 0.00231062 0)
(0.0111392 0.0024048 0)
(0.0230739 0.00220735 0)
(0.035566 0.00202573 0)
(0.0472043 0.00179304 0)
(0.0582716 0.0015491 0)
(0.0685886 0.00129778 0)
(0.0781987 0.00105585 0)
(0.0871437 0.000815469 0)
(0.0953885 0.000598591 0)
(0.103188 0.00036327 0)
(0.110141 0.000173854 0)
(0.117204 -7.78232e-05 0)
(0.12271 -0.000224942 0)
(0.129795 -0.000508739 0)
(0.133161 -0.000571533 0)
(0.141665 -0.000878611 0)
(-0.0133142 -0.00173288 0)
(-0.0261105 -0.000402542 0)
(-0.0124536 -0.000308248 0)
(-0.004264 -0.000123411 0)
(0.00989192 -0.000327915 0)
(0.0219827 -0.000426584 0)
(0.0346219 -0.000540023 0)
(0.0463938 -0.000632028 0)
(0.0575889 -0.000730009 0)
(0.0680292 -0.000826692 0)
(0.0777562 -0.000921985 0)
(0.0868145 -0.00101681 0)
(0.0951633 -0.00111049 0)
(0.103066 -0.00121061 0)
(0.110106 -0.001315 0)
(0.117263 -0.00142533 0)
(0.122836 -0.00154839 0)
(0.130006 -0.00165249 0)
(0.133411 -0.00177608 0)
(0.141998 -0.00186933 0)
(-0.00998027 0.00239703 0)
(-0.0219004 -0.00073942 0)
(-0.00825089 -0.00247626 0)
(-0.000235097 -0.00254689 0)
(0.0136436 -0.00304877 0)
(0.0255011 -0.00305075 0)
(0.0378965 -0.00309642 0)
(0.0494573 -0.00304968 0)
(0.0604657 -0.003004 0)
(0.0707468 -0.0029482 0)
(0.0803385 -0.00289871 0)
(0.0892819 -0.00284932 0)
(0.0975336 -0.00282092 0)
(0.105352 -0.00278644 0)
(0.112323 -0.00280616 0)
(0.119413 -0.0027752 0)
(0.124938 -0.00287372 0)
(0.13204 -0.00279788 0)
(0.135422 -0.00298144 0)
(0.143923 -0.00285943 0)
(-0.00248321 0.00531567 0)
(-0.0122084 -0.00121331 0)
(0.00162272 -0.0046441 0)
(0.00917405 -0.00487838 0)
(0.0223079 -0.00566378 0)
(0.0335378 -0.00558039 0)
(0.0452982 -0.00556494 0)
(0.0563057 -0.00538935 0)
(0.0668168 -0.0052093 0)
(0.0766605 -0.00500983 0)
(0.085869 -0.00482323 0)
(0.0944732 -0.00463641 0)
(0.10243 -0.00449149 0)
(0.109981 -0.00432751 0)
(0.116727 -0.00426605 0)
(0.123594 -0.00409783 0)
(0.128956 -0.00417317 0)
(0.135843 -0.00392093 0)
(0.139138 -0.00416518 0)
(0.14739 -0.00382822 0)
(0.0102011 0.00580932 0)
(0.00321689 -0.00189394 0)
(0.017026 -0.00674233 0)
(0.0237728 -0.00704209 0)
(0.0356577 -0.0080809 0)
(0.0458619 -0.00793079 0)
(0.0566037 -0.007868 0)
(0.0667271 -0.0075822 0)
(0.0764435 -0.00728416 0)
(0.0855854 -0.00695648 0)
(0.0941754 -0.00664616 0)
(0.102228 -0.00633397 0)
(0.109704 -0.00608242 0)
(0.116815 -0.00579836 0)
(0.12319 -0.00566221 0)
(0.129685 -0.00536471 0)
(0.134777 -0.00541983 0)
(0.14131 -0.00499883 0)
(0.14446 -0.00530504 0)
(0.152308 -0.00475666 0)
(0.0296392 0.00180336 0)
(0.0248311 -0.00295122 0)
(0.0377169 -0.00867476 0)
(0.0432249 -0.0089946 0)
(0.0533232 -0.0102197 0)
(0.0621059 -0.0100405 0)
(0.0714615 -0.00994267 0)
(0.0803917 -0.00957335 0)
(0.0890398 -0.00917841 0)
(0.0972385 -0.00874311 0)
(0.104997 -0.00832694 0)