/*--------------------------------*- C++ -*----------------------------------*\
| =========                 |                                                 |
| \\      /  F ield         | OpenFOAM: The Open Source CFD Toolbox           |
|  \\    /   O peration     | Version:  v1806                                 |
|   \\  /    A nd           | Web:      www.OpenFOAM.com                      |
|    \\/     M anipulation  |                                                 |
\*---------------------------------------------------------------------------*/
FoamFile
{
    version     2.0;
    format      ascii;
    class       surfaceScalarField;
    location    "310";
    object      phi;
}
// * * * * * * * * * * * * * * * * * * * * * * * * * * * * * * * * * * * * * //

dimensions      [0 3 -1 0 0 0 0];
oriented        oriented;


internalField   nonuniform List<scalar> 
4680
(
0.0750003
-0.000198732
0.0750015
-0.000598316
0.0750035
-0.000998897
0.0750067
-0.00139882
0.0750114
-0.00179657
0.0750178
-0.00219036
0.0750264
-0.00257814
0.0750378
-0.00295748
0.0750524
-0.00332553
0.0750709
-0.00367902
0.075094
-0.00401424
0.0751223
-0.00432711
0.0751566
-0.00461326
0.0751973
-0.00486821
0.0752449
-0.00508746
0.0752998
-0.0052667
0.075362
-0.00540192
0.0754305
-0.00548954
0.075505
-0.00552687
-0.00551807
0.0755985
0.0750009
-0.000199619
0.0750035
-0.000600966
0.075008
-0.0010034
0.0750147
-0.00140547
0.0750239
-0.00180579
0.0750363
-0.00220273
0.0750525
-0.00259432
0.0750732
-0.00297826
0.0750995
-0.00335178
0.0751321
-0.00371165
0.0751721
-0.00405417
0.0752202
-0.00437521
0.0752772
-0.00467028
0.0753437
-0.00493472
0.07542
-0.00516372
0.0755059
-0.00535269
0.0756012
-0.0054972
0.0757053
-0.00559364
0.0758175
-0.00563903
-0.00563175
0.0759312
0.0750014
-0.000201004
0.0750055
-0.00060507
0.0750124
-0.00101036
0.0750227
-0.00141571
0.0750368
-0.00181993
0.0750557
-0.0022216
0.0750803
-0.00261894
0.0751118
-0.00300978
0.0751515
-0.00339148
0.0752007
-0.00376086
0.0752608
-0.0041142
0.0753328
-0.00444728
0.0754179
-0.00475538
0.0755168
-0.00503354
0.0756295
-0.00527647
0.0757559
-0.00547908
0.0758949
-0.00563623
0.076045
-0.00574375
0.0762033
-0.00579735
-0.0057945
0.0763661
0.0750018
-0.000202782
0.075007
-0.000610334
0.075016
-0.00101931
0.0750292
-0.0014289
0.0750475
-0.00183824
0.0750721
-0.00224616
0.0751042
-0.00265113
0.0751457
-0.00305121
0.0751981
-0.0034439
0.0752633
-0.00382612
0.0753433
-0.00419412
0.0754395
-0.00454355
0.0755535
-0.00486939
0.0756862
-0.00516622
0.0758379
-0.0054281
0.0760079
-0.00564916
0.0761949
-0.00582324
0.0763964
-0.00594518
0.0766087
-0.00600965
-0.00601407
0.0768282
0.075002
-0.000204811
0.075008
-0.000616336
0.0750183
-0.00102954
0.0750335
-0.0014441
0.0750547
-0.0018595
0.0750835
-0.00227497
0.0751217
-0.0026893
0.0751713
-0.00310084
0.0752348
-0.00350731
0.0753144
-0.00390579
0.0754128
-0.00429251
0.0755322
-0.00466299
0.0756747
-0.00501182
0.0758415
-0.00533302
0.0760331
-0.00561975
0.0762491
-0.0058651
0.0764873
-0.00606151
0.0767447
-0.00620257
0.0770165
-0.00628139
-0.00629446
0.0772969
0.0750021
-0.000206905
0.0750083
-0.000622522
0.0750189
-0.00104014
0.0750348
-0.00146001
0.0750574
-0.00188212
0.0750886
-0.00230613
0.0751305
-0.00273127
0.075186
-0.0031563
0.0752579
-0.00357924
0.0753496
-0.00399744
0.0754642
-0.00440715
0.075605
-0.00480381
0.0757748
-0.00518154
0.0759755
-0.00553372
0.076208
-0.00585232
0.0764721
-0.00612915
0.0767653
-0.00635472
0.0770836
-0.00652089
0.0774207
-0.00661846
-0.00664256
0.0777688
0.0750019
-0.000208836
0.0750076
-0.000628199
0.0750174
-0.00104995
0.0750325
-0.00147506
0.0750544
-0.00190405
0.0750855
-0.00233719
0.0751284
-0.00277422
0.0751866
-0.00321449
0.0752638
-0.00365642
0.0753641
-0.00409779
0.0754919
-0.00453494
0.0756515
-0.00496339
0.0758466
-0.00537668
0.0760805
-0.00576761
0.0763548
-0.00612659
0.0766695
-0.00644387
0.0770221
-0.00670732
0.0774077
-0.00690648
0.077818
-0.0070288
-0.00706758
0.0782431
0.0750015
-0.000210326
0.0750058
-0.000632539
0.0750135
-0.00105761
0.0750257
-0.00148731
0.0750445
-0.00192282
0.0750725
-0.00236515
0.0751129
-0.00281466
0.0751699
-0.0032715
0.0752481
-0.00373459
0.0753528
-0.00420248
0.0754895
-0.00467161
0.075664
-0.00513797
0.0758817
-0.00559434
0.0761473
-0.00603323
0.0764637
-0.00644293
0.0768318
-0.00681204
0.0772492
-0.00712471
0.0777102
-0.00736749
0.0782043
-0.00752291
-0.00758158
0.0787183
0.0750007
-0.000211055
0.0750028
-0.000634586
0.0750067
-0.00106152
0.0750139
-0.00149452
0.0750266
-0.0019355
0.0750478
-0.00238639
0.0750814
-0.00284829
0.0751324
-0.00332243
0.0752061
-0.00380833
0.0753094
-0.00430582
0.0754492
-0.00481137
0.0756335
-0.00532226
0.0758692
-0.00583005
0.0761639
-0.00632793
0.0765218
-0.00680086
0.0769463
-0.00723655
0.0774349
-0.00761329
0.0779818
-0.00791434
0.0785735
-0.00811466
-0.00820091
0.0791929
0.0749996
-0.000210663
0.0749983
-0.000633259
0.0749966
-0.00105985
0.0749962
-0.00149409
0.0749994
-0.00193869
0.0750097
-0.00239668
0.0750314
-0.00286999
0.0750703
-0.00336133
0.0751328
-0.00387084
0.0752274
-0.00440046
0.0753625
-0.00494644
0.0755491
-0.00550889
0.075796
-0.00607699
0.0761153
-0.00664717
0.0765126
-0.00719823
0.0769961
-0.00771998
0.077563
-0.00818025
0.0782091
-0.00856039
0.078917
-0.00882257
-0.00894803
0.0796641
0.0749981
-0.00020876
0.0749922
-0.000627383
0.074983
-0.00105062
0.0749721
-0.00148317
0.074962
-0.00192859
0.0749565
-0.00239118
0.0749602
-0.00287375
0.0749799
-0.00338104
0.0750228
-0.00391373
0.0750995
-0.00447711
0.0752195
-0.0050665
0.0753983
-0.00568771
0.0756463
-0.00632495
0.0759827
-0.0069836
0.0764142
-0.0076297
0.0769584
-0.00826413
0.0776107
-0.00883261
0.0783733
-0.00932296
0.0792223
-0.00967155
-0.00985454
0.0801288
0.0749962
-0.000204936
0.0749845
-0.00061573
0.0749656
-0.00103175
0.0749412
-0.00145872
0.0749137
-0.00190106
0.074887
-0.00236452
0.0748661
-0.0028528
0.0748583
-0.00337322
0.0748714
-0.00392689
0.0749184
-0.00452411
0.07501
-0.00515812
0.0751672
-0.00584487
0.0754012
-0.00655894
0.0757433
-0.00732574
0.076198
-0.00808436
0.0768032
-0.00886931
0.0775453
-0.00957471
0.0784473
-0.010225
0.0794704
-0.0106946
-0.0109665
0.0805823
0.0749939
-0.000198789
0.0749752
-0.00059708
0.0749446
-0.00100113
0.0749035
-0.00141765
0.0748543
-0.00185185
0.0748008
-0.00231102
0.0747478
-0.00279977
0.074703
-0.00332845
0.0746747
-0.00389856
0.0746777
-0.00452715
0.0747238
-0.00520425
0.0748407
-0.00596169
0.0750393
-0.00675755
0.0753692
-0.00765564
0.075827
-0.00854221
0.0764909
-0.00953316
0.0773188
-0.0104026
0.0783929
-0.0112992
0.0796292
-0.0119308
-0.0123546
0.0810172
0.0749912
-0.000189946
0.0749644
-0.000570307
0.0749201
-0.00095683
0.0748594
-0.001357
0.0747844
-0.00177683
0.0746983
-0.00222496
0.0746056
-0.00270703
0.0745137
-0.00323652
0.0744308
-0.00381563
0.0743728
-0.00446919
0.0743525
-0.00518394
0.0744038
-0.00601304
0.0745379
-0.00689166
0.074827
-0.00794474
0.0752547
-0.00896986
0.075968
-0.0102465
0.0768605
-0.0112951
0.0781588
-0.0125974
0.0796403
-0.0134124
-0.0141303
0.0814161
0.0749882
-0.000178101
0.0749523
-0.000534481
0.0748927
-0.000897205
0.07481
-0.00127426
0.0747055
-0.00167232
0.0745815
-0.00210105
0.0744418
-0.00256729
0.0742924
-0.0030871
0.074141
-0.00366427
0.0740027
-0.00433091
0.0738916
-0.00507278
0.0738442
-0.00596565
0.0738761
-0.00692361
0.0740786
-0.00814721
0.0744265
-0.00931778
0.0751575
-0.0109775
0.0760656
-0.0122032
0.0776699
-0.0142017
0.0793938
-0.0151363
-0.0164959
0.0817593
0.074985
-0.000163053
0.0749395
-0.00048899
0.0748634
-0.000821142
0.0747568
-0.00116763
0.07462
-0.00153555
0.074454
-0.0019351
0.074261
-0.00237428
0.0740447
-0.00287076
0.0738115
-0.00343102
0.0735726
-0.00409207
0.0733436
-0.00484373
0.0731566
-0.00577865
0.0730386
-0.00680563
0.0730837
-0.00819234
0.0732882
-0.00952229
0.0739479
-0.0116371
0.0747932
-0.0130486
0.0767686
-0.0161771
0.0786707
-0.0170383
-0.0199635
0.0821384
0.0749817
-0.000144746
0.0749264
-0.000433654
0.0748335
-0.000728251
0.0747022
-0.00103635
0.0745318
-0.00136517
0.0743214
-0.00172467
0.0740709
-0.00212384
0.0737807
-0.00258052
0.0734542
-0.00310451
0.0730964
-0.00373423
0.0727214
-0.00446882
0.0723498
-0.00540701
0.0720224
-0.00647818
0.0718099
-0.00797989
0.0717865
-0.00949891
0.0722007
-0.0120513
0.0729111
-0.0137589
0.075103
-0.018369
0.0770308
-0.0189661
-0.0258411
0.0829083
0.0749786
-0.000123308
0.0749137
-0.000368818
0.0748045
-0.000619052
0.0746492
-0.000881059
0.0744458
-0.0011617
0.074191
-0.00146989
0.0738821
-0.00181501
0.0735152
-0.00221354
0.0730886
-0.00267799
0.072599
-0.00324463
0.0720537
-0.00392348
0.071456
-0.0048093
0.0708478
-0.00587002
0.0702621
-0.00739417
0.0698532
-0.00908999
0.0697693
-0.0119674
0.0702862
-0.0142759
0.0722104
-0.0202932
0.0742709
-0.0210266
-0.0354543
0.0838841
0.0749758
-9.9108e-05
0.0749024
-0.000295401
0.0747784
-0.000495101
0.0746013
-0.000703963
0.0743676
-0.000927946
0.0740717
-0.00117396
0.0737078
-0.0014512
0.0732671
-0.00177277
0.0727418
-0.00215269
0.0721179
-0.00262071
0.0713898
-0.00319543
0.0705388
-0.00395826
0.0695834
-0.00491464
0.0685122
-0.00632297
0.0674731
-0.0080509
0.066539
-0.0110333
0.0664723
-0.0142092
0.0674022
-0.0212231
0.0712714
-0.0248958
-0.0463792
0.0821964
0.0749737
-7.27916e-05
0.074893
-0.000214746
0.074757
-0.000359037
0.0745619
-0.000508912
0.074303
-0.000668993
0.0739724
-0.000843403
0.0735619
-0.00104066
0.0730572
-0.00126812
0.0724448
-0.00154028
0.0716988
-0.00187472
0.0707988
-0.00229539
0.0696972
-0.00285668
0.0683718
-0.00358929
0.0667393
-0.00469041
0.0648398
-0.00615143
0.0625809
-0.00877435
0.0605966
-0.0122249
0.059537
-0.0201636
0.0658909
-0.0312497
0.071777
-0.0522654
0.075635
-0.00218784
0.0756688
-0.00217245
0.075704
-0.00215541
0.0757399
-0.00213488
0.0757764
-0.00211118
0.0758133
-0.00208441
0.0758506
-0.00205459
0.0758882
-0.00202195
0.0759258
-0.00198569
-0.00194949
0.075962
0.0759773
-0.00223396
0.0760253
-0.00222041
0.0760733
-0.00220342
0.0761215
-0.0021831
0.0761697
-0.00215943
0.0762178
-0.00213251
0.0762656
-0.00210236
0.076313
-0.00206931
0.0763597
-0.00203239
-0.00199689
0.0764071
0.0764328
-0.0023007
0.0764996
-0.00228717
0.0765662
-0.00226998
0.0766323
-0.00224924
0.0766978
-0.00222497
0.0767626
-0.00219725
0.0768263
-0.0021661
0.0768889
-0.00213193
0.07695
-0.0020935
-0.00205692
0.0770101
0.0769165
-0.00238899
0.0770046
-0.00237524
0.0770923
-0.00235765
0.0771792
-0.00233617
0.0772651
-0.00231086
0.0773497
-0.00228183
0.0774327
-0.00224908
0.0775138
-0.0022131
0.0775926
-0.00217231
-0.00213449
0.0776702
0.0774093
-0.00250141
0.0775214
-0.00248741
0.0776329
-0.00246913
0.0777433
-0.00244654
0.0778522
-0.00241971
0.0779591
-0.00238877
0.0780637
-0.0023537
0.0781658
-0.00231518
0.0782645
-0.00227107
-0.00223149
0.0783615
0.0779084
-0.002641
0.0780475
-0.00262654
0.0781856
-0.00260722
0.0783221
-0.00258302
0.0784564
-0.00255404
0.0785881
-0.00252044
0.0787166
-0.00248221
0.0788417
-0.00244024
0.0789623
-0.0023917
-0.00234984
0.0790806
0.0784134
-0.00281139
0.0785831
-0.00279619
0.0787512
-0.00277538
0.0789172
-0.00274893
0.0790801
-0.00271697
0.0792394
-0.00267975
0.0793944
-0.00263724
0.0795449
-0.00259069
0.0796894
-0.00253627
-0.00249147
0.0798311
0.0789243
-0.0030174
0.0791293
-0.00300113
0.0793321
-0.00297821
0.0795318
-0.0029486
0.0797273
-0.00291252
0.0799179
-0.00287032
0.0801027
-0.00282199
0.0802812
-0.00276925
0.0804519
-0.002707
-0.00265828
0.0806188
0.0794411
-0.00326567
0.0796878
-0.00324784
0.0799315
-0.0032219
0.0801707
-0.00318781
0.0804041
-0.00314591
0.0806305
-0.00309672
0.0808488
-0.0030403
0.0810586
-0.00297903
0.0812578
-0.00290621
-0.00285197
0.0814515
0.0799639
-0.00356546
0.0802614
-0.00354535
0.0805545
-0.00351501
0.0808411
-0.00347441
0.0811193
-0.00342408
0.0813874
-0.00336484
0.081644
-0.0032969
0.0818886
-0.00322356
0.0821185
-0.00313617
-0.00307359
0.0823401
0.0804933
-0.00393001
0.0808546
-0.00390666
0.0812094
-0.00386982
0.0815545
-0.00381948
0.081887
-0.00375661
0.0822047
-0.00368252
0.0825055
-0.00359773
0.0827888
-0.00350678
0.0830515
-0.00339885
-0.00332308
0.0833009
0.0810312
-0.0043789
0.0814757
-0.00435109
0.0819103
-0.00430441
0.0823299
-0.00423916
0.0827304
-0.00415712
0.0831084
-0.00406053
0.0834612
-0.00395052
0.0837877
-0.00383324
0.0840846
-0.00369575
-0.00359845
0.08436
0.0815819
-0.00494361
0.0821397
-0.00490887
0.0826817
-0.00484637
0.0831998
-0.0047573
0.083688
-0.00464527
0.0841414
-0.00451397
0.0845564
-0.0043655
0.0849312
-0.00420809
0.0852627
-0.00402719
-0.00389428
0.0855585
0.0821536
-0.0056811
0.0828762
-0.00563155
0.0835702
-0.00554031
0.0842234
-0.00541048
0.0848276
-0.00524954
0.0853766
-0.00506299
0.0858655
-0.00485433
0.0862916
-0.00463419
0.0866523
-0.00438793
-0.00419609
0.0869541
0.0827679
-0.00668972
0.0837435
-0.00660712
0.0846622
-0.00645899
0.0855069
-0.00625513
0.0862664
-0.00600905
0.0869319
-0.00572853
0.0874973
-0.00541969
0.0879593
-0.00509624
0.0883184
-0.00474705
-0.00445396
0.0885763
0.08355
-0.00810134
0.0848909
-0.00794805
0.086113
-0.00768107
0.0871951
-0.00733727
0.0881201
-0.006934
0.0888745
-0.00648297
0.0894531
-0.00599822
0.0898555
-0.00549865
0.0900924
-0.00498395
-0.00451351
0.0901519
0.0849141
-0.0101072
0.086643
-0.00967694
0.0880818
-0.00911981
0.0892307
-0.00848622
0.09008
-0.00778327
0.0906279
-0.00703093
0.0908883
-0.00625862
0.0908804
-0.00549072
0.0906348
-0.00473839
-0.00402985
0.0901512
0.0865352
-0.0127582
0.0882341
-0.0113759
0.0892309
-0.0101165
0.0896264
-0.00888176
0.089497
-0.00765383
0.0889323
-0.00646625
0.0880271
-0.00535341
0.0868631
-0.00432674
0.0854962
-0.00337149
-0.00246359
0.0839299
0.0829705
-0.0135324
0.0824645
-0.0108699
0.0809616
-0.00861359
0.0787217
-0.00664194
0.0760018
-0.0049339
0.0730613
-0.00352574
0.0701014
-0.00239347
0.0672534
-0.00147877
0.0645936
-0.000711706
-4.6183e-05
0.0621762
0.0582447
0.0473748
0.0387612
0.0321193
0.0271854
0.0236597
0.0212662
0.0197874
0.0190757
0.0190295
0.0762871
-0.0161567
0.0765938
-0.0111463
0.0768505
-0.00540947
0.0769386
0.00139021
0.0767681
0.00708156
0.0764277
0.00938436
0.0763529
0.00510968
0.0766038
0.000147221
0.0770074
-0.00142599
0.07747
-0.000289768
0.0775811
0.00726478
0.0772337
0.0124795
0.0766701
0.0126484
0.0760132
0.0105184
0.0761615
-0.00179625
0.0767574
-0.007701
0.0773337
-0.00689601
0.0781541
-0.00825823
0.078131
0.00603835
0.00959312
0.0767186
-0.0164682
0.077009
-0.0114367
0.0772181
-0.00561856
0.0771835
0.00142484
0.0768414
0.00742363
0.0763632
0.00986257
0.0762775
0.00519538
0.0766544
-0.000229659
0.0771763
-0.00194796
0.0776945
-0.000807929
0.0777072
0.00725212
0.0772637
0.012923
0.0765721
0.0133401
0.0758462
0.0112443
0.076123
-0.00207306
0.0768513
-0.00842932
0.0775347
-0.0075794
0.0784083
-0.00913174
0.0782672
0.00617946
0.0101753
0.0773514
-0.0168096
0.0776605
-0.0117459
0.0778402
-0.00579821
0.0776594
0.00160567
0.0770509
0.00803209
0.0763333
0.0105802
0.0762196
0.00530903
0.0767594
-0.000769393
0.077497
-0.00268563
0.078075
-0.00138588
0.0779811
0.00734601
0.0773548
0.0135493
0.0764253
0.0142696
0.0755756
0.0120939
0.0760241
-0.00252156
0.0769874
-0.00939264
0.0778728
-0.00846481
0.0788271
-0.010086
0.0785181
0.00648847
0.0109336
0.0780632
-0.0172025
0.0784255
-0.0121082
0.0786136
-0.00598634
0.0783031
0.00191616
0.0773833
0.00895189
0.0763543
0.0116092
0.0761767
0.00548659
0.0769145
-0.00150715
0.0779326
-0.00370374
0.0786211
-0.00207436
0.078401
0.00756607
0.0775279
0.0144225
0.0762744
0.015523
0.0752387
0.0131296
0.0758609
-0.00314379
0.0771151
-0.0106468
0.0782731
-0.00962282
0.0793623
-0.0111752
0.0788567
0.00699414
0.0119052
0.0788091
-0.0176501
0.0792481
-0.0125472
0.0794753
-0.00621353
0.0790555
0.00233595
0.0777985
0.0102089
0.0764036
0.013004
0.0761307
0.00575952
0.0770974
-0.0024738
0.0784627
-0.00506907
0.0793067
-0.0029184
0.0789578
0.00791498
0.0777891
0.0155912
0.0761461
0.017166
0.0748632
0.0144125
0.0756188
-0.00389937
0.0771807
-0.0122087
0.0786639
-0.011106
0.0799463
-0.0124576
0.0792497
0.00769082
0.0131107
0.0795748
-0.0181442
0.080111
-0.0130834
0.0804005
-0.00650304
0.0798827
0.0028537
0.0782601
0.0118316
0.0764477
0.0148165
0.0760485
0.00615873
0.0772778
-0.00370317
0.079061
-0.00685224
0.0801064
-0.00396377
0.0796316
0.00838974
0.0781304
0.0170924
0.0760533
0.019243
0.0744665
0.0159994
0.0752709
-0.00470384
0.0771158
-0.0140536
0.0789581
-0.0129483
0.0804938
-0.0139934
0.0796455
0.00853909
0.0145462
0.080356
-0.0186691
0.0810129
-0.0137404
0.0813869
-0.00687701
0.0807715
0.0034691
0.078744
0.0138591
0.076457
0.0171034
0.0758941
0.00672167
0.0774184
-0.00522746
0.0796948
-0.00912868
0.0809874
-0.00525632
0.0803924
0.00898471
0.0785325
0.0189523
0.0760005
0.0217751
0.0740568
0.0179431
0.0747763
-0.00542338
0.0768295
-0.0161068
0.0790413
-0.0151601
0.0808961
-0.0158482
0.0799755
0.00945977
0.0161795
0.0811503
-0.0192006
0.0819586
-0.0145487
0.0824441
-0.00736248
0.0817198
0.00419337
0.0792352
0.0163437
0.0764124
0.0199261
0.0756346
0.00749952
0.0774675
-0.00706036
0.0803084
-0.0119696
0.0818994
-0.00684734
0.0811966
0.00968747
0.0789666
0.0211824
0.0759856
0.024756
0.0736335
0.0202953
0.074084
-0.00587393
0.0762132
-0.018236
0.0787753
-0.0177222
0.0810252
-0.0180981
0.0801561
0.0103288
0.0179481
0.0819548
-0.0197038
0.0829541
-0.015548
0.083587
-0.00799535
0.0827287
0.00505161
0.0797223
0.0193501
0.0763065
0.0233419
0.0752402
0.00856583
0.0773429
-0.00916308
0.080795
-0.0154217
0.0827508
-0.0088031
0.0819763
0.0104619
0.079392
0.0237667
0.0759975
0.0281505
0.0731844
0.0231084
0.0731425
-0.00583212
0.0751603
-0.0202537
0.0780178
-0.0205797
0.0807476
-0.0208279
0.080097
0.0109794
0.0197616
0.0827668
-0.0201305
0.0840025
-0.0167836
0.0848282
-0.0088211
0.0837939
0.00608593
0.0801918
0.0229522
0.0761432
0.0273905
0.0746805
0.0100285
0.0769089
-0.0113914
0.0809606
-0.0194735
0.0833786
-0.0112211
0.0826234
0.0112172
0.0797517
0.0266384
0.07601
0.0318921
0.0726824
0.0264361
0.0719134
-0.00506313
0.073597
-0.0219373
0.0766591
-0.0236418
0.079952
-0.0241207
0.0797154
0.0112159
0.0215094
0.083586
-0.0204156
0.0850927
-0.0182903
0.08616
-0.00988837
0.084892
0.00735396
0.0806218
0.0272224
0.075933
0.0320794
0.0739127
0.0120488
0.0759576
-0.0134363
0.0804973
-0.0240132
0.0835234
-0.0142472
0.0829758
0.0117648
0.0799656
0.0296487
0.0759759
0.0358819
0.0720847
0.0303272
0.0703862
-0.00336459
0.0715179
-0.023069
0.0746662
-0.0267901
0.0785843
-0.0280389
0.0789561
0.0108441
0.0230759
0.0844142
-0.0204698
0.086169
-0.0200451
0.0875104
-0.0112298
0.0859543
0.00890997
0.0809717
0.032205
0.0756746
0.0373764
0.072862
0.0148614
0.0742169
-0.0147912
0.0790035
-0.0287999
0.0828387
-0.0180823
0.0828193
0.0117842
0.0799286
0.0325394
0.0758235
0.039987
0.0713385
0.0348122
0.0685904
-0.000616467
0.0690084
-0.023487
0.0721179
-0.0298996
0.0766775
-0.0325984
0.0778095
0.00971209
0.0243612
0.0852377
-0.020149
0.0870543
-0.0218618
0.0886528
-0.0128282
0.086816
0.0107468
0.0811634
0.0378575
0.0753237
0.0432162
0.071401
0.0187841
0.0714088
-0.014799
0.0760905
-0.0334815
0.0809682
-0.0229601
0.0819227
0.0108296
0.0795197
0.0349424
0.0754635
0.0440432
0.0703938
0.0398819
0.0666001
0.00317722
0.066244
-0.0231309
0.0692085
-0.0328641
0.0743604
-0.0377504
0.0763203
0.00775215
0.0253011
0.0859532
-0.0191481
0.0872972
-0.0232057
0.0890521
-0.0145831
0.087134
0.0126649
0.0810457
0.0439458
0.0747529
0.049509
0.0693489
0.024188
0.0673703
-0.0128203
0.0715752
-0.0376864
0.0776986
-0.0290835
0.0801177
0.00841053
0.0786305
0.0364295
0.0748057
0.047868
0.06922
0.0454676
0.0645286
0.00786869
0.0634601
-0.0220624
0.0662126
-0.0356166
0.071834
-0.0433718
0.0745799
0.00500622
0.0258803
0.0861675
-0.0167392
0.0859402
-0.0229785
0.0876848
-0.0163278
0.0862904
0.0140593
0.0803463
0.04989
0.073727
0.0561283
0.0665191
0.0313959
0.0622048
-0.0085061
0.0656841
-0.0411656
0.0731275
-0.0365269
0.0773952
0.00414288
0.0772061
0.0366186
0.0737827
0.0512914
0.0678245
0.0514258
0.062509
0.0131843
0.0609034
-0.0204569
0.0634204
-0.0381336
0.0693228
-0.0492741
0.0727041
0.00162486
0.0261337
0.0847949
-0.0113822
0.081324
-0.0195075
0.0830109
-0.0180147
0.0833813
0.0136889
0.0786442
0.0546272
0.0719172
0.0628553
0.0628203
0.0404928
0.0563788
-0.00206468
0.0591214
-0.0439082
0.0677293
-0.0451348
0.0739581
-0.00208592
0.075276
0.0353007
0.0723715
0.0541958
0.0662521
0.0575452
0.0606797
0.0187567
0.0587844
-0.0185616
0.0610709
-0.0404202
0.0670194
-0.0552227
0.070806
-0.00216166
0.0261347
0.0795406
-0.000771664
0.0712734
-0.0112403
0.0734873
-0.0202286
0.07753
0.00964615
0.075459
0.0566982
0.0689834
0.0693309
0.058368
0.0511082
0.0506759
0.00562737
0.0528972
-0.0461295
0.0622355
-0.0544731
0.0701723
-0.0100227
0.072949
0.0325241
0.0706003
0.0565446
0.0645802
0.0635653
0.0591641
0.0241728
0.0572458
-0.0166433
0.0593098
-0.0424841
0.0650475
-0.0609603
0.0689734
-0.00608765
0.0259755
0.0668548
0.0163034
0.0543893
0.0012253
0.0589633
-0.0248027
0.0686774
-6.7897e-05
0.0705373
0.0548383
0.0647229
0.0751453
0.053536
0.0622951
0.0459922
0.0131712
0.0479872
-0.0481245
0.0573765
-0.0638624
0.0664395
-0.0190857
0.0703692
0.0285943
0.0685387
0.0583751
0.0629055
0.0691985
0.0580558
0.0290226
0.0563562
-0.0149437
0.058186
-0.044314
0.0634553
-0.0662297
0.0672612
-0.00989355
0.0257463
0.0444168
0.0340628
0.0328112
0.0128308
0.0421457
-0.0341371
0.0580942
-0.0160164
0.0641003
0.0488322
0.0592133
0.0800323
0.0488909
0.0726175
0.0430609
0.0190013
0.045041
-0.0501046
0.0536638
-0.0724852
0.0630576
-0.0284795
0.0676632
0.0239887
0.0662787
0.0597596
0.0613304
0.0741467
0.0574097
0.0329433
0.056119
-0.0136529
0.0576783
-0.0458733
0.0622357
-0.0707871
0.0656969
-0.0133547
0.0255206
0.0180313
0.035061
0.0134058
0.0174564
0.0272425
-0.0479738
0.0472813
-0.0360552
0.0565791
0.0395343
0.0528146
0.0837968
0.0450356
0.0803965
0.0422357
0.0218011
0.0442563
-0.0521252
0.0513009
-0.0795297
0.0601829
-0.0373616
0.0649214
0.0192502
0.0639193
0.0607617
0.0599401
0.078126
0.0572414
0.035642
0.0565048
-0.0129164
0.0576986
-0.0470671
0.0613586
-0.074447
0.064305
-0.0163011
0.0253636
0.00330192
0.0317591
0.00246902
0.0182893
0.00805567
-0.0535605
0.0159863
-0.0439858
0.0204872
0.0350334
0.0193007
0.0849834
0.0172622
0.0824349
0.0172539
0.0218094
0.0180725
-0.0529438
0.0202088
-0.081666
0.0234062
-0.040559
0.0252549
0.0174016
0.0249324
0.0610841
0.0236399
0.0794185
0.022956
0.0363259
0.0228887
-0.0128492
0.0231908
-0.0473691
0.0243812
-0.0756375
0.0254057
-0.0173256
0.0253573
0.00164299
0.0301161
0.00148989
0.0184424
0.00683371
-0.0589043
0.0144387
-0.0515908
0.0192021
0.03027
0.0182897
0.0858958
0.0169566
0.083768
0.0175769
0.0211891
0.0183857
-0.0537526
0.0201317
-0.0834119
0.0230486
-0.043476
0.0248312
0.0156189
0.0245652
0.0613501
0.0234822
0.0805015
0.0230293
0.0367788
0.0230631
-0.0128829
0.0233024
-0.0476085
0.0243097
-0.0766448
0.0252182
-0.0182341
0.0253594
0.000547338
0.0295688
0.00114829
0.0178414
0.00602338
-0.0637794
0.0130352
-0.0586026
0.0178856
0.0254196
0.0173194
0.086462
0.0167701
0.0843174
0.0180006
0.0199586
0.0187877
-0.0545397
0.0201331
-0.0847573
0.0227277
-0.0460706
0.0244072
0.0139394
0.0242008
0.0615566
0.0233478
0.0813545
0.0231338
0.0369928
0.0232602
-0.0130093
0.0234412
-0.0477895
0.0242573
-0.0774609
0.0250415
-0.0190183
0.0253704
2.40235e-05
0.0295448
0.00139799
0.0164675
0.00563818
-0.0680196
0.0117954
-0.0647599
0.0165896
0.0206254
0.0164169
0.0866347
0.0166955
0.0840387
0.0185095
0.0181446
0.0192671
-0.0552973
0.0202046
-0.0856948
0.0224395
-0.0483054
0.0239914
0.0123874
0.0238477
0.0617003
0.0232361
0.081966
0.0232628
0.0369662
0.023481
-0.0132276
0.0236028
-0.0479112
0.0242231
-0.0780813
0.0248777
-0.0196729
0.0253905
-3.97782e-06
0.0295487
0.00218117
0.0142823
0.00568018
-0.0715186
0.0107625
-0.0698422
0.0153425
0.0160454
0.0156076
0.0863696
0.0167369
0.0829094
0.0190893
0.0157922
0.0198103
-0.0560183
0.02034
-0.0862246
0.0221843
-0.0501497
0.0235864
0.0109853
0.0235092
0.0617776
0.0231485
0.0823267
0.023415
0.0366997
0.023723
-0.0135356
0.0237855
-0.0479738
0.024207
-0.0785028
0.0247276
-0.0201934
0.0254197
0.000431109
0.0291176
0.00343384
0.0112796
0.0061415
-0.0742263
0.0099782
-0.0736789
0.0141794
0.0118443
0.0149181
0.0856309
0.0168967
0.0809308
0.0197263
0.0129626
0.0204041
-0.0566961
0.0205332
-0.0863537
0.0219629
-0.0515794
0.0231955
0.00975278
0.0231887
0.0617843
0.023086
0.0824294
0.0235888
0.0361969
0.0239834
-0.0139302
0.0239875
-0.0479779
0.0242088
-0.0787241
0.0245918
-0.0205764
0.0254576
0.00136562
0.027752
0.00509259
0.00755263
0.0070013
-0.076135
0.00947738
-0.076155
0.0131417
0.0081799
0.0143751
0.0843975
0.0171754
0.0781306
0.0204076
0.00973039
0.0210359
-0.0573245
0.0207778
-0.0860955
0.0217764
-0.052578
0.0228223
0.00870688
0.0228899
0.0617167
0.0230497
0.0822695
0.0237829
0.0354637
0.0242599
-0.0144072
0.0242068
-0.0479248
0.0242282
-0.0787455
0.0244712
-0.0208193
0.0255039
0.0027733
0.0249787
0.00709488
0.00323105
0.00822461
-0.0772647
0.0092845
-0.0772148
0.012276
0.00518841
0.0140053
0.0826682
0.0175718
0.0745641
0.021122
0.00618021
0.0216946
-0.0578971
0.021068
-0.085469
0.0216261
-0.0531361
0.0224709
0.00786208
0.0226163
0.0615713
0.0230409
0.081845
0.023996
0.0345085
0.02455
-0.0149612
0.0244416
-0.0478164
0.0242651
-0.078569
0.0243664
-0.0209206
0.0255579
0.00464492
0.0203338
0.00938044
-0.00150447
0.00976332
-0.0776476
0.00941198
-0.0768635
0.0116318
0.00296856
0.0138354
0.0804647
0.0180836
0.0703158
0.0218601
0.00240378
0.0223697
-0.0584067
0.0213978
-0.084497
0.0215137
-0.0532519
0.0221458
0.00722995
0.0223716
0.0613456
0.0230604
0.0811561
0.024227
0.0333419
0.0248515
-0.0155856
0.0246898
-0.0476548
0.024319
-0.0781982
0.0242782
-0.0208798
0.0256189
0.00697022
0.0133636
0.0119096
-0.00644388
0.0115185
-0.0772565
0.00988314
-0.0752281
0.0112607
0.00159099
0.0138947
0.0778307
0.0187199
0.0654907
0.0226029
-0.00147924
0.0230347
-0.0588385
0.0217656
-0.0832279
0.0214518
-0.0529382
0.0218476
0.00683411
0.0221588
0.0610344
0.0231121
0.0802028
0.0244755
0.0319786
0.0251576
-0.0162677
0.0249507
-0.0474479
0.0243866
-0.0776341
0.0242105
-0.0207036
0.0256912
0.0444867
0.00626883
-0.0373919
0.0591801
-0.0211373
0.0526693
-0.0707457
0.0388602
-0.061419
0.0375295
0.00292175
0.0490599
0.0663002
0.068186
0.0463645
0.0809693
-0.0142625
0.0819036
-0.0597728
0.0759502
-0.0772745
0.0718242
-0.0488121
0.0711632
0.00749509
0.0730558
0.0591417
0.0781045
0.0751542
0.0837569
0.0263261
0.0865618
-0.0190726
0.0855668
-0.046453
0.082335
-0.0744023
0.0807721
-0.0191407
0.026039
0.0923838
0.0177359
-0.103851
0.0921773
-0.0209308
0.0794087
-0.0579772
0.0582805
-0.0402908
0.0496154
0.0115869
0.0610949
0.0548207
0.0791648
0.0282946
0.0895733
-0.024671
0.0892007
-0.0594002
0.0811448
-0.0692186
0.0732198
-0.0408871
0.0702053
0.0105096
0.0729911
0.0563559
0.0802646
0.0678807
0.0872039
0.0193868
0.090368
-0.0222367
0.0887679
-0.0448528
0.0839199
-0.0695543
0.0809514
-0.0161722
0.0264988
0.114274
0.0238337
-0.120371
0.108723
-0.01538
0.0956109
-0.0448654
0.0777121
-0.0223919
0.0686734
0.0206255
0.0782658
0.0452283
0.0918127
0.0147476
0.0976914
-0.0305496
0.09526
-0.0569688
0.0862515
-0.0602101
0.0762504
-0.030886
0.0717214
0.0150386
0.0751702
0.0529071
0.0838777
0.0591732
0.0912419
0.0120226
0.0941625
-0.0251574
0.0920294
-0.0427197
0.0859303
-0.0634552
0.0818524
-0.0120944
0.0270202
0.120677
0.0248038
-0.121647
0.114608
-0.0093116
0.103252
-0.0335093
0.0915839
-0.0107235
0.0870441
0.0251653
0.0952342
0.0370382
0.103464
0.00651805
0.104426
-0.0315119
0.0997533
-0.052296
0.0907072
-0.0511641
0.0805118
-0.0206905
0.0757231
0.0198273
0.0797614
0.0488688
0.0889596
0.049975
0.0957729
0.00520936
0.0978073
-0.0271918
0.0951201
-0.0400325
0.0882157
-0.0565508
0.083408
-0.00728671
0.0275119
0.120376
0.0236722
-0.119244
0.115325
-0.00426067
0.105956
-0.024141
0.0993944
-0.00416167
0.0998191
0.0247407
0.10722
0.0296375
0.11139
0.0023477
0.108787
-0.0289084
0.102518
-0.0460277
0.094113
-0.0427588
0.0852924
-0.0118699
0.0815933
0.0235264
0.0862707
0.0441913
0.0950612
0.0411846
0.100468
-0.000197539
0.101107
-0.0278305
0.0978183
-0.0367441
0.0905605
-0.0492929
0.085507
-0.00223323
0.0278432
0.118338
0.02189
-0.116556
0.11455
-0.000472978
0.10684
-0.0164305
0.103317
-0.000638753
0.106608
0.0214498
0.113144
0.0231015
0.114971
0.000520403
0.110759
-0.0246962
0.103871
-0.0391399
0.09643
-0.035318
0.089836
-0.00527587
0.0881711
0.0251913
0.0934954
0.038867
0.101221
0.033459
0.104742
-0.00371845
0.103808
-0.0268971
0.0999488
-0.0328844
0.0927494
-0.0420935
0.0879892
0.002527
0.0278455
0.116119
0.0200564
-0.114285
0.113318
0.00232812
0.107143
-0.0102556
0.10518
0.00132379
0.109272
0.0173583
0.114676
0.0176977
0.115426
-0.000229955
0.111075
-0.0203451
0.104345
-0.0324099
0.0979
-0.0288729
0.0936355
-0.00101142
0.0941893
0.0246376
0.0999439
0.0331124
0.10632
0.0270832
0.107981
-0.0053794
0.105705
-0.0246219
0.101431
-0.0286095
0.0946133
-0.0352762
0.090655
0.00648536
0.0273514
0.114042
0.0183853
-0.112371
0.112014
0.00435597
0.107248
-0.00548907
0.106071
0.0025002
0.109775
0.0136548
0.113975
0.0134971
0.114316
-0.000570586
0.110505
-0.0165344
0.104394
-0.0262982
0.0988701
-0.0233494
0.0965308
0.00132794
0.098789
0.0223794
0.104549
0.0273528
0.109618
0.0220137
0.109861
-0.00562216
0.106748
-0.0215088
0.102306
-0.0241676
0.0960834
-0.0290538
0.093274
0.00929474
0.0262507
0.1122
0.0169207
-0.110735
0.110748
0.00580796
0.1072
-0.00194119
0.106439
0.00326034
0.109363
0.0107314
0.112498
0.0103616
0.112673
-0.000745141
0.109556
-0.0134174
0.104278
-0.02102
0.0996078
-0.0186796
0.0986067
0.00232903
0.101747
0.0192388
0.107058
0.0220423
0.11105
0.0180213
0.110462
-0.00503372
0.107058
-0.0181051
0.102714
-0.0198236
0.0971911
-0.0235309
0.0956348
0.010851
0.0245468
0.110578
0.0156598
-0.109318
0.109559
0.00682724
0.106988
0.000630036
0.10647
0.00377835
0.108629
0.00857274
0.110921
0.00806913
0.110999
-0.000823381
0.108498
-0.0109162
0.104107
-0.0166289
0.100242
-0.0148139
0.10003
0.00254099
0.103322
0.0159468
0.10788
0.017484
0.111059
0.0148417
0.110133
-0.00410776
0.106852
-0.0148238
0.102827
-0.0157989
0.0980313
-0.0187348
0.0975891
0.0112932
0.0223691
0.109153
0.0145813
-0.108074
0.108459
0.00752104
0.106627
0.00246162
0.10626
0.00414609