x,y,z,U_0,U_1,U_2
0,0,0,0.3,-0.0013576,0
0,0.1,0,0.3,-0.000814557,0
0,0.2,0,0.3,-0.000271519,0
0,0.3,0,0.3,0,0
0,0.4,0,0.3,0,0
0,0.5,0,0.3,0,0
0,0.6,0,0.3,0,0
0,0.7,0,0.3,0,0
0,0.8,0,0.3,0,0
0,0.9,0,0.3,0,0
0,1,0,0.3,0,0
0,1.1,0,0.3,0,0
0,1.2,0,0.3,0,0
0,1.3,0,0.3,0,0
0,1.4,0,0.3,0,0
0,1.5,0,0.3,0,0
0,1.6,0,0.3,0,0
0,1.7,0,0.3,0,0
0,1.8,0,0.3,0,0
0,1.9,0,0.3,0,0
0,2,0,0.3,0,0
0,2.1,0,0.3,0,0
0,2.2,0,0.3,0,0
0,2.3,0,0.3,0,0
0,2.4,0,0.3,0,0
0,2.5,0,0.3,0,0
0,2.6,0,0.3,0,0
0,2.7,0,0.3,0,0
0,2.8,0,0.3,0,0
0,2.9,0,0.3,0,0
0,3,0,0.3,0,0
0,3.1,0,0.3,0,0
0,3.2,0,0.3,0,0
0,3.3,0,0.3,0,0
0,3.4,0,0.3,0,0
0,3.5,0,0.3,0,0
0,3.6,0,0.3,0,0
0,3.7,0,0.3,0,0
0,3.8,0,0.3,0,0
0,3.9,0,0.3,0,0
0,4,0,0.3,0,0
0,4.1,0,0.3,0,0
0,4.2,0,0.3,0,0
0,4.3,0,0.3,0,0
0,4.4,0,0.3,0,0
0,4.5,0,0.3,0,0
0,4.6,0,0.3,0,0
0,4.7,0,0.3,0,0
0,4.8,0,0.3,0,0
0,4.9,0,0.3,0,0
0,5,0,0.3,0,0
0,5.1,0,0.3,0,0
0,5.2,0,0.3,0,0
0,5.3,0,0.3,0,0
0,5.4,0,0.3,0,0
0,5.5,0,0.3,0,0
0,5.6,0,0.3,0,0
0,5.7,0,0.3,0,0
0,5.8,0,0.3,0,0
0,5.9,0,0.3,0,0
0,6,0,0.3,0,0
0,6.1,0,0.3,0,0
0,6.2,0,0.3,0,0
0,6.3,0,0.3,0,0
0,6.4,0,0.3,0,0
0,6.5,0,0.3,0,0
0,6.6,0,0.3,0,0
0,6.7,0,0.3,0,0
0,6.8,0,0.3,0,0
0,6.9,0,0.3,0,0
0,7,0,0.3,0,0
0,7.1,0,0.3,0,0
0,7.2,0,0.3,0,0
0,7.3,0,0.3,0,0
0,7.4,0,0.3,0,0
0,7.5,0,0.3,0,0
0,7.6,0,0.3,0,0
0,7.7,0,0.3,0,0
0,7.8,0,0.3,0,0
0,7.9,0,0.3,0,0
0,8,0,0.3,0,0
0,8.1,0,0.3,0,0
0,8.2,0,0.3,0,0
0,8.3,0,0.3,0,0
0,8.4,0,0.3,0,0
0,8.5,0,0.3,0,0
0,8.6,0,0.3,0,0
0,8.7,0,0.3,0,0
0,8.8,0,0.3,0,0
0,8.9,0,0.3,0,0
0,9,0,0.3,0,0
0,9.1,0,0.3,0,0
0,9.2,0,0.3,0,0
0,9.3,0,0.3,0,0
0,9.4,0,0.3,0,0
0,9.5,0,0.3,0,0
0,9.6,0,0.3,0,0
0,9.7,0,0.3,0,0
0,9.8,0,0.3,0,0
0,9.9,0,0.3,0,0
0,10,0,0.3,0,0
0,10.1,0,0.3,0,0
0,10.2,0,0.3,0,0
0,10.3,0,0.3,0,0
0,10.4,0,0.3,0,0
0,10.5,0,0.3,0,0
0,10.6,0,0.3,0,0
0,10.7,0,0.3,0,0
0,10.8,0,0.3,0,0
0,10.9,0,0.3,0,0
0,11,0,0.3,0,0
0,11.1,0,0.3,0,0
0,11.2,0,0.3,0,0
0,11.3,0,0.3,0,0
0,11.4,0,0.3,0,0
0,11.5,0,0.3,0,0
0,11.6,0,0.3,0,0
0,11.7,0,0.3,0,0
0,11.8,0,0.3,0,0
0,11.9,0,0.3,0,0
0,12,0,0.3,0,0
0,12.1,0,0.3,0,0
0,12.2,0,0.3,0,0
0,12.3,0,0.3,0,0
0,12.4,0,0.3,0,0
0,12.5,0,0.3,0.000217626,0
0,12.6,0,0.3,0.000839413,0
0,12.7,0,0.3,0.0014612,0
0.1,0,0,0.300002,-0.00298548,0
0.1,0.1,0,0.3,-0.00244367,0
0.1,0.2,0,0.300002,-0.0021734,0
0.1,0.3,0,0.300002,-0.00217702,0
0.1,0.4,0,0.300001,-0.0021794,0
0.1,0.5,0,0.300008,-0.00218543,0
0.1,0.6,0,0.300002,-0.00219336,0
0.1,0.7,0,0.300006,-0.00219796,0
0.1,0.8,0,0.300007,-0.00220792,0
0.1,0.9,0,0.300002,-0.00221329,0
0.1,1,0,0.300014,-0.00222521,0
0.1,1.1,0,0.300003,-0.00223822,0
0.1,1.2,0,0.30001,-0.00224528,0
0.1,1.3,0,0.30001,-0.00225968,0
0.1,1.4,0,0.300003,-0.00226702,0
0.1,1.5,0,0.300017,-0.00228271,0
0.1,1.6,0,0.300003,-0.00229832,0
0.1,1.7,0,0.300011,-0.00230656,0
0.1,1.8,0,0.300011,-0.00232261,0
0.1,1.9,0,0.300003,-0.00233043,0
0.1,2,0,0.300017,-0.00234675,0
0.1,2.1,0,0.300003,-0.00236138,0
0.1,2.2,0,0.300009,-0.00236891,0
0.1,2.3,0,0.300009,-0.00238263,0
0.1,2.4,0,0.300003,-0.00238882,0
0.1,2.5,0,0.300012,-0.00240131,0
0.1,2.6,0,0.300002,-0.00241006,0
0.1,2.7,0,0.300005,-0.00241428,0
0.1,2.8,0,0.300004,-0.00242028,0
0.1,2.9,0,0.300001,-0.00242206,0
0.1,3,0,0.300001,-0.0024248,0
0.1,3.1,0,0.3,-0.00242148,0
0.1,3.2,0,0.299996,-0.0024191,0
0.1,3.3,0,0.299995,-0.00241072,0
0.1,3.4,0,0.299998,-0.00240474,0
0.1,3.5,0,0.299981,-0.0023906,0
0.1,3.6,0,0.299996,-0.00236815,0
0.1,3.7,0,0.299982,-0.00235547,0
0.1,3.8,0,0.299981,-0.00232546,0
0.1,3.9,0,0.299994,-0.00230812,0
0.1,4,0,0.299954,-0.00226981,0
0.1,4.1,0,0.29999,-0.00222135,0
0.1,4.2,0,0.299964,-0.00219497,0
0.1,4.3,0,0.299962,-0.00213684,0
0.1,4.4,0,0.299986,-0.0021051,0
0.1,4.5,0,0.29992,-0.00203671,0
0.1,4.6,0,0.299983,-0.00195739,0
0.1,4.7,0,0.299943,-0.00191496,0
0.1,4.8,0,0.299941,-0.0018247,0
0.1,4.9,0,0.299979,-0.00177686,0
0.1,5,0,0.299884,-0.00166429,0
0.1,5.1,0,0.29996,-0.00156045,0
0.1,5.2,0,0.299957,-0.00151561,0
0.1,5.3,0,0.299864,-0.00139526,0
0.1,5.4,0,0.299954,-0.00126688,0
0.1,5.5,0,0.299951,-0.00121381,0
0.1,5.6,0,0.299847,-0.0010768,0
0.1,5.7,0,0.299948,-0.000933434,0
0.1,5.8,0,0.299946,-0.000874715,0
0.1,5.9,0,0.299833,-0.000724488,0
0.1,6,0,0.299944,-0.000569757,0
0.1,6.1,0,0.299943,-0.000507004,0
0.1,6.2,0,0.299825,-0.00034797,0
0.1,6.3,0,0.299941,-0.000186498,0
0.1,6.4,0,0.299941,-0.000121645,0
0.1,6.5,0,0.299822,4.1152e-05,0
0.1,6.6,0,0.299941,0.000204189,0
0.1,6.7,0,0.299941,0.000269054,0
0.1,6.8,0,0.299825,0.000430344,0
0.1,6.9,0,0.299943,0.000589664,0
0.1,7,0,0.299944,0.000652464,0
0.1,7.1,0,0.299833,0.000807144,0
0.1,7.2,0,0.299946,0.000957764,0
0.1,7.3,0,0.299948,0.00101657,0
0.1,7.4,0,0.299847,0.00115998,0
0.1,7.5,0,0.299951,0.00129741,0
0.1,7.6,0,0.299954,0.00135061,0
0.1,7.7,0,0.299864,0.00147918,0
0.1,7.8,0,0.299957,0.0016,0
0.1,7.9,0,0.29996,0.00164457,0
0.1,8,0,0.299883,0.00174655,0
0.1,8.1,0,0.299979,0.0018569,0
0.1,8.2,0,0.29993,0.00191434,0
0.1,8.3,0,0.299957,0.00200454,0
0.1,8.4,0,0.299966,0.00204927,0
0.1,8.5,0,0.29994,0.00212792,0
0.1,8.6,0,0.299986,0.00217324,0
0.1,8.7,0,0.299937,0.00223301,0
0.1,8.8,0,0.29999,0.00228911,0
0.1,8.9,0,0.299966,0.00231773,0
0.1,9,0,0.299976,0.00236435,0
0.1,9.1,0,0.299986,0.00238632,0
0.1,9.2,0,0.299972,0.00242366,0
0.1,9.3,0,0.299995,0.00244431,0
0.1,9.4,0,0.299978,0.00246779,0
0.1,9.5,0,0.299996,0.00248766,0
0.1,9.6,0,0.299991,0.00249704,0
0.1,9.7,0,0.299993,0.00251027,0
0.1,9.8,0,0.299998,0.00251527,0
0.1,9.9,0,0.299996,0.00252275,0
0.1,10,0,0.3,0.00252422,0
0.1,10.1,0,0.300002,0.00252559,0
0.1,10.2,0,0.300001,0.00252243,0
0.1,10.3,0,0.300004,0.00252038,0
0.1,10.4,0,0.300004,0.00251422,0
0.1,10.5,0,0.300003,0.00250977,0
0.1,10.6,0,0.30001,0.00250129,0
0.1,10.7,0,0.300002,0.00249219,0
0.1,10.8,0,0.300011,0.00248427,0
0.1,10.9,0,0.300005,0.00247151,0
0.1,11,0,0.300008,0.00246487,0
0.1,11.1,0,0.300009,0.00245186,0
0.1,11.2,0,0.300004,0.00244454,0
0.1,11.3,0,0.300014,0.00243168,0
0.1,11.4,0,0.300003,0.00242027,0
0.1,11.5,0,0.300011,0.00241173,0
0.1,11.6,0,0.300005,0.0023993,0
0.1,11.7,0,0.300006,0.00239313,0
0.1,11.8,0,0.300008,0.00238215,0
0.1,11.9,0,0.300002,0.0023764,0
0.1,12,0,0.300009,0.00236718,0
0.1,12.1,0,0.300002,0.00235978,0
0.1,12.2,0,0.300005,0.00235532,0
0.1,12.3,0,0.300002,0.00234938,0
0.1,12.4,0,0.300002,0.00234684,0
0.1,12.5,0,0.300002,0.00234331,0
0.1,12.6,0,0.3,0.00259688,0
0.1,12.7,0,0.300002,0.00321768,0
0.2,0,0,0.300004,-0.00461337,0
0.2,0.1,0,0.300004,-0.00434433,0
0.2,0.2,0,0.300006,-0.00434804,0
0.2,0.3,0,0.300006,-0.00435167,0
0.2,0.4,0,0.30001,-0.00436245,0
0.2,0.5,0,0.300015,-0.00437086,0
0.2,0.6,0,0.300014,-0.00438339,0
0.2,0.7,0,0.300017,-0.00440052,0
0.2,0.8,0,0.300018,-0.00441048,0
0.2,0.9,0,0.30002,-0.00443313,0
0.2,1,0,0.300027,-0.00445041,0
0.2,1.1,0,0.300023,-0.00447048,0
0.2,1.2,0,0.300025,-0.00449761,0
0.2,1.3,0,0.300025,-0.00451202,0
0.2,1.4,0,0.300027,-0.00454239,0
0.2,1.5,0,0.300035,-0.00456541,0
0.2,1.6,0,0.300028,-0.00458926,0
0.2,1.7,0,0.300028,-0.00462135,0
0.2,1.8,0,0.300028,-0.0046374,0
0.2,1.9,0,0.300028,-0.00466937,0
0.2,2,0,0.300035,-0.00469351,0
0.2,2.1,0,0.300027,-0.00471566,0
0.2,2.2,0,0.300025,-0.00474534,0
0.2,2.3,0,0.300025,-0.00475906,0
0.2,2.4,0,0.300022,-0.00478394,0
0.2,2.5,0,0.300025,-0.00480263,0
0.2,2.6,0,0.300017,-0.0048156,0
0.2,2.7,0,0.300012,-0.00483279,0
0.2,2.8,0,0.300011,-0.00483879,0
0.2,2.9,0,0.300005,-0.00484508,0
0.2,3,0,0.300001,-0.00484959,0
0.2,3.1,0,0.299997,-0.00484389,0
0.2,3.2,0,0.299988,-0.00483581,0
0.2,3.3,0,0.299987,-0.00482743,0
0.2,3.4,0,0.299976,-0.00480132,0
0.2,3.5,0,0.299962,-0.0047812,0
0.2,3.6,0,0.299963,-0.00474607,0
0.2,3.7,0,0.299951,-0.00469827,0
0.2,3.8,0,0.299949,-0.00466825,0
0.2,3.9,0,0.299935,-0.00459527,0
0.2,4,0,0.299908,-0.00453962,0
0.2,4.1,0,0.299918,-0.00446477,0
0.2,4.2,0,0.299902,-0.00436354,0
0.2,4.3,0,0.2999,-0.00430542,0
0.2,4.4,0,0.299882,-0.00417355,0
0.2,4.5,0,0.299841,-0.00407343,0
0.2,4.6,0,0.299863,-0.00395167,0
0.2,4.7,0,0.299845,-0.00378749,0
0.2,4.8,0,0.299843,-0.00369723,0
0.2,4.9,0,0.299825,-0.00348899,0
0.2,5,0,0.299768,-0.00332858,0
0.2,5.1,0,0.299807,-0.0031766,0
0.2,5.2,0,0.299791,-0.0029524,0
0.2,5.3,0,0.299729,-0.00279051,0
0.2,5.4,0,0.299777,-0.00260734,0
0.2,5.5,0,0.299762,-0.00234196,0
0.2,5.6,0,0.299694,-0.00215361,0
0.2,5.7,0,0.29975,-0.00195015,0
0.2,5.8,0,0.299739,-0.00165655,0
0.2,5.9,0,0.299667,-0.00144898,0
0.2,6,0,0.29973,-0.00123063,0
0.2,6.1,0,0.299723,-0.000916866,0
0.2,6.2,0,0.299649,-0.00069594,0
0.2,6.3,0,0.299718,-0.00046935,0
0.2,6.4,0,0.299716,-0.000145081,0
0.2,6.5,0,0.299643,8.2304e-05,0
0.2,6.6,0,0.299716,0.000309857,0
0.2,6.7,0,0.299718,0.000634183,0
0.2,6.8,0,0.299649,0.000860687,0
0.2,6.9,0,0.299723,0.00108188,0
0.2,7,0,0.29973,0.00139588,0
0.2,7.1,0,0.299666,0.00161429,0
0.2,7.2,0,0.299739,0.00182227,0
0.2,7.3,0,0.29975,0.0021163,0
0.2,7.4,0,0.299693,0.00231995,0
0.2,7.5,0,0.299762,0.00250881,0
0.2,7.6,0,0.299776,0.00277481,0
0.2,7.7,0,0.299728,0.00295836,0
0.2,7.8,0,0.29979,0.00311998,0
0.2,7.9,0,0.299806,0.00334279,0
0.2,8,0,0.299767,0.00349311,0
0.2,8.1,0,0.299825,0.0036621,0
0.2,8.2,0,0.299831,0.00386276,0
0.2,8.3,0,0.299846,0.00396773,0
0.2,8.4,0,0.299864,0.00413608,0
0.2,8.5,0,0.299857,0.00423459,0
0.2,8.6,0,0.299884,0.00436115,0
0.2,8.7,0,0.299871,0.00446939,0
0.2,8.8,0,0.299903,0.00455148,0
0.2,8.9,0,0.299915,0.00465665,0
0.2,9,0,0.299922,0.00470844,0
0.2,9.1,0,0.299936,0.00479063,0
0.2,9.2,0,0.299935,0.00483984,0
0.2,9.3,0,0.299953,0.00489157,0
0.2,9.4,0,0.299953,0.00493837,0
0.2,9.5,0,0.299966,0.00496581,0
0.2,9.6,0,0.299977,0.005002,0
0.2,9.7,0,0.299979,0.00501593,0
0.2,9.8,0,0.299989,0.00503444,0
0.2,9.9,0,0.299991,0.0050451,0
0.2,10,0,0.299998,0.00504836,0
0.2,10.1,0,0.300004,0.00505144,0
0.2,10.2,0,0.300006,0.00504682,0
0.2,10.3,0,0.300011,0.00503896,0
0.2,10.4,0,0.300012,0.00503244,0
0.2,10.5,0,0.300016,0.00501601,0
0.2,10.6,0,0.300021,0.00500431,0
0.2,10.7,0,0.30002,0.00498551,0
0.2,10.8,0,0.300025,0.0049664,0
0.2,10.9,0,0.300023,0.00494959,0
0.2,11,0,0.300024,0.00492405,0
0.2,11.1,0,0.300024,0.00490998,0
0.2,11.2,0,0.300024,0.00488355,0
0.2,11.3,0,0.300028,0.00486471,0
0.2,11.4,0,0.300023,0.00484333,0
0.2,11.5,0,0.300025,0.00482036,0
0.2,11.6,0,0.300022,0.0048048,0
0.2,11.7,0,0.30002,0.00478116,0
0.2,11.8,0,0.30002,0.00476856,0
0.2,11.9,0,0.300017,0.00474921,0
0.2,12,0,0.300019,0.00473478,0
0.2,12.1,0,0.300014,0.00472242,0
0.2,12.2,0,0.300012,0.00470854,0
0.2,12.3,0,0.30001,0.00470164,0
0.2,12.4,0,0.300007,0.00469194,0
0.2,12.5,0,0.300006,0.00468742,0
0.2,12.6,0,0.300004,0.00468419,0
0.2,12.7,0,0.300004,0.00497417,0
0.3,0,0,0.300009,-0.00650978,0
0.3,0.1,0,0.300009,-0.00651403,0
0.3,0.2,0,0.30001,-0.00651775,0
0.3,0.3,0,0.300017,-0.00652899,0
0.3,0.4,0,0.300021,-0.00653978,0
0.3,0.5,0,0.30003,-0.00655386,0
0.3,0.6,0,0.300031,-0.00657503,0
0.3,0.7,0,0.300034,-0.00659216,0
0.3,0.8,0,0.30004,-0.00662244,0
0.3,0.9,0,0.300043,-0.00664509,0
0.3,1,0,0.300053,-0.00667405,0
0.3,1.1,0,0.30005,-0.00670784,0
0.3,1.2,0,0.300052,-0.00673497,0
0.3,1.3,0,0.300056,-0.00677876,0
0.3,1.4,0,0.300057,-0.00680913,0
0.3,1.5,0,0.300067,-0.00684778,0
0.3,1.6,0,0.30006,-0.006888,0
0.3,1.7,0,0.300061,-0.00692009,0
0.3,1.8,0,0.300061,-0.00696907,0
0.3,1.9,0,0.300061,-0.00700103,0
0.3,2,0,0.300067,-0.00704159,0
0.3,2.1,0,0.300057,-0.0070792,0
0.3,2.2,0,0.300055,-0.00710888,0
0.3,2.3,0,0.300051,-0.00715108,0
0.3,2.4,0,0.300047,-0.00717596,0
0.3,2.5,0,0.300048,-0.0072074,0
0.3,2.6,0,0.300036,-0.00722997,0
0.3,2.7,0,0.300031,-0.00724716,0
0.3,2.8,0,0.300019,-0.00726632,0
0.3,2.9,0,0.300013,-0.00727261,0
0.3,3,0,0.300003,-0.00728041,0
0.3,3.1,0,0.29999,-0.00727201,0
0.3,3.2,0,0.299982,-0.00726392,0
0.3,3.3,0,0.299963,-0.00723995,0
0.3,3.4,0,0.299952,-0.00721383,0
0.3,3.5,0,0.299928,-0.00718056,0
0.3,3.6,0,0.299918,-0.00712306,0
0.3,3.7,0,0.299905,-0.00707526,0
0.3,3.8,0,0.299879,-0.00698616,0
0.3,3.9,0,0.299865,-0.00691317,0
0.3,4,0,0.299822,-0.00682056,0
0.3,4.1,0,0.29982,-0.00669663,0
0.3,4.2,0,0.299804,-0.0065954,0
0.3,4.3,0,0.299772,-0.00642142,0
0.3,4.4,0,0.299754,-0.00628956,0
0.3,4.5,0,0.299693,-0.00612253,0
0.3,4.6,0,0.299703,-0.00592003,0
0.3,4.7,0,0.299685,-0.00575584,0
0.3,4.8,0,0.299651,-0.00548474,0
0.3,4.9,0,0.299633,-0.00527651,0
0.3,5,0,0.299552,-0.00500495,0
0.3,5.1,0,0.29958,-0.00472684,0
0.3,5.2,0,0.299563,-0.00450265,0
0.3,5.3,0,0.299477,-0.00419673,0
0.3,5.4,0,0.299514,-0.00385723,0
0.3,5.5,0,0.2995,-0.00359186,0
0.3,5.6,0,0.299409,-0.00323932,0
0.3,5.7,0,0.299459,-0.0028615,0
0.3,5.8,0,0.299448,-0.0025679,0
0.3,5.9,0,0.299357,-0.0021798,0
0.3,6,0,0.299419,-0.00177366,0
0.3,6.1,0,0.299412,-0.0014599,0
0.3,6.2,0,0.299323,-0.00104728,0
0.3,6.3,0,0.299397,-0.000625184,0
0.3,6.4,0,0.299394,-0.000300916,0
0.3,6.5,0,0.299312,0.000123263,0
0.3,6.6,0,0.299394,0.000547707,0
0.3,6.7,0,0.299397,0.000872033,0
0.3,6.8,0,0.299323,0.00129402,0
0.3,6.9,0,0.299412,0.00170708,0
0.3,7,0,0.299419,0.00202108,0
0.3,7.1,0,0.299356,0.00242741,0
0.3,7.2,0,0.299447,0.00281623,0
0.3,7.3,0,0.299459,0.00311026,0
0.3,7.4,0,0.299408,0.00348851,0
0.3,7.5,0,0.299499,0.00384197,0
0.3,7.6,0,0.299514,0.00410797,0
0.3,7.7,0,0.299475,0.00444822,0
0.3,7.8,0,0.299562,0.00475447,0
0.3,7.9,0,0.299578,0.00497728,0
0.3,8,0,0.299549,0.00525145,0
0.3,8.1,0,0.299631,0.00552919,0
0.3,8.2,0,0.29964,0.00575371,0
0.3,8.3,0,0.299682,0.00600783,0
0.3,8.4,0,0.2997,0.00617619,0
0.3,8.5,0,0.299716,0.00639486,0
0.3,8.6,0,0.29975,0.00654492,0
0.3,8.7,0,0.299746,0.00671069,0
0.3,8.8,0,0.299797,0.00685085,0
0.3,8.9,0,0.299811,0.00696357,0
0.3,9,0,0.299842,0.0070969,0
0.3,9.1,0,0.299857,0.00717909,0
0.3,9.2,0,0.299873,0.00728048,0
0.3,9.3,0,0.299897,0.00734478,0
0.3,9.4,0,0.299906,0.00741237,0
0.3,9.5,0,0.299932,0.00746219,0
0.3,9.6,0,0.299943,0.00749908,0
0.3,9.7,0,0.299963,0.00753693,0
0.3,9.8,0,0.299972,0.00755543,0
0.3,9.9,0,0.299985,0.00757452,0
0.3,10,0,0.299996,0.00757852,0
0.3,10.1,0,0.300006,0.00758224,0
0.3,10.2,0,0.300015,0.00757378,0
0.3,10.3,0,0.300021,0.00756592,0
0.3,10.4,0,0.30003,0.00754678,0
0.3,10.5,0,0.300034,0.00753036,0
0.3,10.6,0,0.300043,0.00750677,0
0.3,10.7,0,0.300043,0.00748057,0
0.3,10.8,0,0.30005,0.00745511,0
0.3,10.9,0,0.300049,0.00742119,0
0.3,11,0,0.30005,0.00739565,0
0.3,11.1,0,0.300051,0.00735669,0
0.3,11.2,0,0.300051,0.00732971,0
0.3,11.3,0,0.300056,0.00729523,0
0.3,11.4,0,0.300049,0.00726398,0
0.3,11.5,0,0.300051,0.00723513,0
0.3,11.6,0,0.300046,0.00720148,0
0.3,11.7,0,0.300044,0.00717784,0
0.3,11.8,0,0.300041,0.00714563,0
0.3,11.9,0,0.300037,0.00712483,0
0.3,12,0,0.300037,0.00709994,0
0.3,12.1,0,0.300029,0.00708101,0
0.3,12.2,0,0.300027,0.00706443,0
0.3,12.3,0,0.30002,0.00704811,0
0.3,12.4,0,0.300017,0.00703842,0
0.3,12.5,0,0.300011,0.00702783,0
0.3,12.6,0,0.300008,0.00702418,0
0.3,12.7,0,0.300008,0.00702021,0
0.4,0,0,0.300016,-0.0086747,0
0.4,0.1,0,0.300014,-0.00867948,0
0.4,0.2,0,0.300022,-0.00868677,0
0.4,0.3,0,0.300029,-0.00869802,0
0.4,0.4,0,0.300037,-0.00871705,0
0.4,0.5,0,0.300051,-0.00873444,0
0.4,0.6,0,0.30005,-0.00875963,0
0.4,0.7,0,0.300064,-0.00879066,0
0.4,0.8,0,0.30007,-0.00882095,0
0.4,0.9,0,0.300073,-0.00886084,0
0.4,1,0,0.300091,-0.00889614,0
0.4,1.1,0,0.300082,-0.00893658,0
0.4,1.2,0,0.300096,-0.0089853,0
0.4,1.3,0,0.300099,-0.00902909,0
0.4,1.4,0,0.300096,-0.00908288,0
0.4,1.5,0,0.300115,-0.0091298,0
0.4,1.6,0,0.3001,-0.00917816,0
0.4,1.7,0,0.30011,-0.00923574,0
0.4,1.8,0,0.300111,-0.00928473,0
0.4,1.9,0,0.300101,-0.00934185,0
0.4,2,0,0.300115,-0.00939099,0
0.4,2.1,0,0.300097,-0.00943654,0
0.4,2.2,0,0.300098,-0.00948998,0
0.4,2.3,0,0.300094,-0.00953218,0
0.4,2.4,0,0.300078,-0.00957762,0
0.4,2.5,0,0.300082,-0.00961562,0
0.4,2.6,0,0.300062,-0.00964357,0
0.4,2.7,0,0.300052,-0.00967504,0
0.4,2.8,0,0.30004,-0.00969421,0
0.4,2.9,0,0.300018,-0.00970795,0
0.4,3,0,0.300005,-0.00971725,0
0.4,3.1,0,0.299989,-0.00970853,0
0.4,3.2,0,0.29996,-0.00969544,0
0.4,3.3,0,0.299942,-0.00967146,0
0.4,3.4,0,0.299916,-0.00962912,0
0.4,3.5,0,0.299878,-0.00958869,0
0.4,3.6,0,0.29987,-0.0095215,0
0.4,3.7,0,0.29982,-0.00943813,0
0.4,3.8,0,0.299794,-0.00934903,0
0.4,3.9,0,0.299767,-0.00922488,0
0.4,4,0,0.299697,-0.00911264,0
0.4,4.1,0,0.299709,-0.00896601,0
0.4,4.2,0,0.299635,-0.00878786,0
0.4,4.3,0,0.299603,-0.00861389,0
0.4,4.4,0,0.299583,-0.00838621,0
0.4,4.5,0,0.299477,-0.00818401,0
0.4,4.6,0,0.299515,-0.0079432,0
0.4,4.7,0,0.29942,-0.00765319,0
0.4,4.8,0,0.299386,-0.00738209,0
0.4,4.9,0,0.299379,-0.00702826,0
0.4,5,0,0.299236,-0.00669339,0
0.4,5.1,0,0.299293,-0.00637934,0
0.4,5.2,0,0.299242,-0.0059743,0
0.4,5.3,0,0.299108,-0.00561391,0
0.4,5.4,0,0.299181,-0.005225,0
0.4,5.5,0,0.299134,-0.00474459,0
0.4,5.6,0,0.298992,-0.00433395,0
0.4,5.7,0,0.299084,-0.00389997,0
0.4,5.8,0,0.299048,-0.00336806,0
0.4,5.9,0,0.298903,-0.00291695,0
0.4,6,0,0.299012,-0.00244924,0
0.4,6.1,0,0.298989,-0.00188051,0
0.4,6.2,0,0.298846,-0.00140199,0
0.4,6.3,0,0.298971,-0.000914675,0
0.4,6.4,0,0.298963,-0.000326757,0
0.4,6.5,0,0.298827,0.000164029,0
0.4,6.6,0,0.298963,0.000655218,0
0.4,6.7,0,0.298971,0.00124325,0
0.4,6.8,0,0.298846,0.00173035,0
0.4,6.9,0,0.298989,0.00220944,0
0.4,7,0,0.299012,0.00277862,0
0.4,7.1,0,0.298902,0.0032465,0
0.4,7.2,0,0.299047,0.00369852,0
0.4,7.3,0,0.299083,0.00423124,0
0.4,7.4,0,0.298991,0.00466564,0
0.4,7.5,0,0.299133,0.00507741,0
0.4,7.6,0,0.299179,0.00555903,0
0.4,7.7,0,0.299106,0.00594878,0
0.4,7.8,0,0.29924,0.00631065,0
0.4,7.9,0,0.29929,0.00671318,0
0.4,8,0,0.299231,0.00702158,0
0.4,8.1,0,0.299379,0.00737524,0
0.4,8.2,0,0.299371,0.00772629,0
0.4,8.3,0,0.299433,0.00799613,0
0.4,8.4,0,0.299491,0.00828844,0
0.4,8.5,0,0.299492,0.00852575,0
0.4,8.6,0,0.299588,0.00875865,0
0.4,8.7,0,0.299567,0.00897061,0
0.4,8.8,0,0.299655,0.00913817,0
0.4,8.9,0,0.299673,0.00932471,0
0.4,9,0,0.299713,0.00946349,0
0.4,9.1,0,0.299764,0.0096049,0
0.4,9.2,0,0.299774,0.00971702,0
0.4,9.3,0,0.299831,0.00981222,0
0.4,9.4,0,0.29984,0.00990104,0
0.4,9.5,0,0.299881,0.00995863,0
0.4,9.6,0,0.299907,0.0100196,0
0.4,9.7,0,0.299928,0.0100582,0
0.4,9.8,0,0.299959,0.0100885,0
0.4,9.9,0,0.299973,0.0101099,0
0.4,10,0,0.299994,0.0101146,0
0.4,10.1,0,0.300013,0.0101186,0
0.4,10.2,0,0.300023,0.0101082,0
0.4,10.3,0,0.300042,0.0100926,0
0.4,10.4,0,0.300051,0.010073,0
0.4,10.5,0,0.30006,0.0100428,0
0.4,10.6,0,0.300074,0.0100156,0
0.4,10.7,0,0.300072,0.00997845,0
0.4,10.8,0,0.300087,0.00994101,0
0.4,10.9,0,0.300082,0.00990242,0
0.4,11,0,0.300089,0.00985677,0
0.4,11.1,0,0.300091,0.00981674,0
0.4,11.2,0,0.300085,0.00976895,0
0.4,11.3,0,0.300096,0.00972858,0
0.4,11.4,0,0.300082,0.00968621,0
0.4,11.5,0,0.300089,0.00964267,0
0.4,11.6,0,0.300079,0.00960537,0
0.4,11.7,0,0.300076,0.0095635,0
0.4,11.8,0,0.300074,0.00952974,0
0.4,11.9,0,0.300061,0.00949401,0
0.4,12,0,0.300064,0.00946423,0
0.4,12.1,0,0.300049,0.00943943,0
0.4,12.2,0,0.300046,0.00941348,0
0.4,12.3,0,0.300037,0.00939585,0
0.4,12.4,0,0.300027,0.00937843,0
0.4,12.5,0,0.300022,0.00936697,0
0.4,12.6,0,0.300013,0.00936062,0
0.4,12.7,0,0.300015,0.0093558,0
0.5,0,0,0.300023,-0.0108396,0
0.5,0.1,0,0.30003,-0.0108474,0
0.5,0.2,0,0.300036,-0.0108553,0
0.5,0.3,0,0.300046,-0.0108703,0
0.5,0.4,0,0.300059,-0.0108927,0
0.5,0.5,0,0.300072,-0.010915,0
0.5,0.6,0,0.300084,-0.0109501,0
0.5,0.7,0,0.300096,-0.0109851,0
0.5,0.8,0,0.300108,-0.0110258,0
0.5,0.9,0,0.300118,-0.011072,0
0.5,1,0,0.300128,-0.0111182,0
0.5,1.1,0,0.300136,-0.0111736,0
0.5,1.2,0,0.300145,-0.011229,0
0.5,1.3,0,0.300151,-0.0112877,0
0.5,1.4,0,0.300157,-0.0113498,0
0.5,1.5,0,0.300162,-0.0114118,0
0.5,1.6,0,0.300165,-0.0114775,0
0.5,1.7,0,0.300167,-0.0115433,0
0.5,1.8,0,0.300167,-0.011609,0
0.5,1.9,0,0.300165,-0.0116747,0
0.5,2,0,0.300163,-0.0117404,0
0.5,2.1,0,0.300157,-0.0118018,0
0.5,2.2,0,0.30015,-0.0118631,0
0.5,2.3,0,0.30014,-0.0119198,0
0.5,2.4,0,0.300128,-0.0119718,0
0.5,2.5,0,0.300116,-0.0120238,0
0.5,2.6,0,0.300098,-0.0120607,0
0.5,2.7,0,0.30008,-0.0120975,0
0.5,2.8,0,0.300058,-0.0121236,0
0.5,2.9,0,0.300033,-0.0121388,0
0.5,3,0,0.300008,-0.0121541,0
0.5,3.1,0,0.299975,-0.0121407,0
0.5,3.2,0,0.299943,-0.0121273,0
0.5,3.3,0,0.299907,-0.0120958,0
0.5,3.4,0,0.299867,-0.0120463,0
0.5,3.5,0,0.299827,-0.0119968,0
0.5,3.6,0,0.29978,-0.0119038,0
0.5,3.7,0,0.299732,-0.0118107,0
0.5,3.8,0,0.299681,-0.0116923,0
0.5,3.9,0,0.299627,-0.0115485,0
0.5,4,0,0.299573,-0.0114047,0
0.5,4.1,0,0.299512,-0.0112039,0
0.5,4.2,0,0.299452,-0.011003,0
0.5,4.3,0,0.299389,-0.0107712,0
0.5,4.4,0,0.299325,-0.0105083,0
0.5,4.5,0,0.299261,-0.0102455,0
0.5,4.6,0,0.299194,-0.00991718,0
0.5,4.7,0,0.299127,-0.00958886,0
0.5,4.8,0,0.299059,-0.00921612,0
0.5,4.9,0,0.29899,-0.00879898,0
0.5,5,0,0.29892,-0.00838183,0
0.5,5.1,0,0.29886,-0.00793158,0
0.5,5.2,0,0.2988,-0.00748133,0
0.5,5.3,0,0.298739,-0.00703108,0
0.5,5.4,0,0.298685,-0.00649691,0
0.5,5.5,0,0.29863,-0.00596274,0
0.5,5.6,0,0.298576,-0.00542857,0
0.5,5.7,0,0.298534,-0.00483708,0
0.5,5.8,0,0.298492,-0.0042456,0
0.5,5.9,0,0.29845,-0.00365411,0
0.5,6,0,0.298423,-0.00302164,0
0.5,6.1,0,0.298396,-0.00238917,0
0.5,6.2,0,0.29837,-0.0017567,0
0.5,6.3,0,0.298361,-0.00110287,0
0.5,6.4,0,0.298351,-0.000449037,0
0.5,6.5,0,0.298342,0.000204794,0
0.5,6.6,0,0.298351,0.000858755,0
0.5,6.7,0,0.29836,0.00151271,0
0.5,6.8,0,0.298369,0.00216668,0
0.5,6.9,0,0.298396,0.00279965,0
0.5,7,0,0.298422,0.00343262,0
0.5,7.1,0,0.298449,0.00406559,0
0.5,7.2,0,0.29849,0.00465799,0
0.5,7.3,0,0.298532,0.00525038,0
0.5,7.4,0,0.298574,0.00584278,0
0.5,7.5,0,0.298628,0.0063783,0
0.5,7.6,0,0.298682,0.00691382,0
0.5,7.7,0,0.298736,0.00744934,0
0.5,7.8,0,0.298795,0.0078968,0
0.5,7.9,0,0.298854,0.00834425,0
0.5,8,0,0.298914,0.00879171,0
0.5,8.1,0,0.298984,0.00922183,0
0.5,8.2,0,0.299055,0.00965196,0
0.5,8.3,0,0.299122,0.0100214,0
0.5,8.4,0,0.299188,0.0103582,0
0.5,8.5,0,0.299254,0.0106765,0
0.5,8.6,0,0.299318,0.0109517,0
0.5,8.7,0,0.299382,0.011227,0
0.5,8.8,0,0.299443,0.0114467,0
0.5,8.9,0,0.299504,0.0116635,0
0.5,9,0,0.299562,0.0118476,0
0.5,9.1,0,0.299618,0.01201,0
0.5,9.2,0,0.299672,0.0121601,0
0.5,9.3,0,0.299721,0.0122735,0
0.5,9.4,0,0.29977,0.0123868,0
0.5,9.5,0,0.299813,0.0124616,0
0.5,9.6,0,0.299855,0.0125321,0
0.5,9.7,0,0.299893,0.0125826,0
0.5,9.8,0,0.299928,0.0126169,0
0.5,9.9,0,0.299962,0.0126453,0
0.5,10,0,0.29999,0.01265,0
0.5,10.1,0,0.300018,0.0126548,0
0.5,10.2,0,0.30004,0.0126399,0
0.5,10.3,0,0.300061,0.0126216,0
0.5,10.4,0,0.300079,0.0125948,0
0.5,10.5,0,0.300094,0.0125596,0
0.5,10.6,0,0.300108,0.0125226,0
0.5,10.7,0,0.300117,0.012476,0
0.5,10.8,0,0.300126,0.0124294,0
0.5,10.9,0,0.300132,0.0123776,0
0.5,11,0,0.300136,0.0123246,0
0.5,11.1,0,0.300138,0.0122706,0
0.5,11.2,0,0.300138,0.0122155,0
0.5,11.3,0,0.300138,0.0121606,0
0.5,11.4,0,0.300134,0.0121072,0
0.5,11.5,0,0.300131,0.0120538,0
0.5,11.6,0,0.300125,0.012004,0
0.5,11.7,0,0.300118,0.0119555,0
0.5,11.8,0,0.30011,0.0119099,0
0.5,11.9,0,0.300101,0.0118688,0
0.5,12,0,0.300091,0.0118281,0
0.5,12.1,0,0.30008,0.0117966,0
0.5,12.2,0,0.300069,0.0117651,0
0.5,12.3,0,0.300057,0.0117415,0
0.5,12.4,0,0.300044,0.0117213,0
0.5,12.5,0,0.300034,0.0117056,0
0.5,12.6,0,0.300028,0.0116985,0
0.5,12.7,0,0.300021,0.0116914,0
0.6,0,0,0.300037,-0.0129913,0
0.6,0.1,0,0.300034,-0.0129998,0
0.6,0.2,0,0.300049,-0.0130097,0
0.6,0.3,0,0.300068,-0.0130297,0
0.6,0.4,0,0.300082,-0.0130549,0
0.6,0.5,0,0.300109,-0.0130846,0
0.6,0.6,0,0.30012,-0.0131284,0
0.6,0.7,0,0.30014,-0.0131689,0
0.6,0.8,0,0.300157,-0.0132209,0
0.6,0.9,0,0.300165,-0.0132729,0
0.6,1,0,0.300193,-0.013333,0
0.6,1.1,0,0.300193,-0.0134025,0
0.6,1.2,0,0.30021,-0.0134662,0
0.6,1.3,0,0.300221,-0.0135412,0
0.6,1.4,0,0.300221,-0.0136113,0
0.6,1.5,0,0.300245,-0.0136919,0
0.6,1.6,0,0.300233,-0.0137749,0
0.6,1.7,0,0.300243,-0.0138505,0
0.6,1.8,0,0.300244,-0.013935,0
0.6,1.9,0,0.300233,-0.0140095,0
0.6,2,0,0.300246,-0.0140953,0
0.6,2.1,0,0.300221,-0.0141737,0
0.6,2.2,0,0.30022,-0.0142447,0
0.6,2.3,0,0.300206,-0.0143186,0
0.6,2.4,0,0.300185,-0.0143781,0
0.6,2.5,0,0.300176,-0.0144473,0
0.6,2.6,0,0.30014,-0.014496,0
0.6,2.7,0,0.30012,-0.0145396,0
0.6,2.8,0,0.300088,-0.0145759,0
0.6,2.9,0,0.300054,-0.0145947,0
0.6,3,0,0.300015,-0.0146177,0
0.6,3.1,0,0.29997,-0.0146051,0
0.6,3.2,0,0.299924,-0.0145917,0
0.6,3.3,0,0.29987,-0.0145566,0
0.6,3.4,0,0.299826,-0.0145034,0
0.6,3.5,0,0.299745,-0.0144439,0
0.6,3.6,0,0.299697,-0.0143333,0
0.6,3.7,0,0.29962,-0.0142292,0
0.6,3.8,0,0.299544,-0.0140849,0
0.6,3.9,0,0.299493,-0.0139263,0
0.6,4,0,0.299364,-0.0137463,0
0.6,4.1,0,0.299321,-0.0135017,0
0.6,4.2,0,0.299214,-0.0132747,0
0.6,4.3,0,0.29912,-0.0129871,0
0.6,4.4,0,0.299071,-0.0126945,0
0.6,4.5,0,0.298896,-0.0123621,0
0.6,4.6,0,0.298874,-0.0119581,0
0.6,4.7,0,0.298744,-0.0115855,0
0.6,4.8,0,0.298643,-0.0111331,0
0.6,4.9,0,0.298605,-0.0106804,0
0.6,5,0,0.298386,-0.0101233,0
0.6,5.1,0,0.298389,-0.00959604,0
0.6,5.2,0,0.298314,-0.00909972,0
0.6,5.3,0,0.298116,-0.00849613,0
0.6,5.4,0,0.298136,-0.00784126,0
0.6,5.5,0,0.298068,-0.00725189,0
0.6,5.6,0,0.297872,-0.0065624,0
0.6,5.7,0,0.297922,-0.0058309,0
0.6,5.8,0,0.297869,-0.00517795,0
0.6,5.9,0,0.297682,-0.00441918,0
0.6,6,0,0.297765,-0.00363049,0
0.6,6.1,0,0.297731,-0.00293208,0
0.6,6.2,0,0.297563,-0.00212615,0
0.6,6.3,0,0.297677,-0.00130444,0
0.6,6.4,0,0.297666,-0.00058234,0
0.6,6.5,0,0.297521,0.000244975,0
0.6,6.6,0,0.297665,0.00107286,0
0.6,6.7,0,0.297676,0.00179511,0
0.6,6.8,0,0.297562,0.00261659,0
0.6,6.9,0,0.29773,0.00342342,0
0.6,7,0,0.297763,0.00412239,0
0.6,7.1,0,0.29768,0.00491148,0
0.6,7.2,0,0.297867,0.00567175,0
0.6,7.3,0,0.297919,0.00632571,0
0.6,7.4,0,0.297868,0.00705806,0
0.6,7.5,0,0.298064,0.00774947,0
0.6,7.6,0,0.298132,0.00834035,0
0.6,7.7,0,0.298111,0.00899675,0
0.6,7.8,0,0.298308,0.00960295,0
0.6,7.9,0,0.298382,0.0100962,0
0.6,8,0,0.298377,0.0106138,0
0.6,8.1,0,0.298597,0.0111848,0
0.6,8.2,0,0.298625,0.0116549,0
0.6,8.3,0,0.298755,0.0121042,0
0.6,8.4,0,0.298847,0.0124858,0
0.6,8.5,0,0.298912,0.0128822,0
0.6,8.6,0,0.299051,0.0132014,0
0.6,8.7,0,0.299082,0.0135363,0
0.6,8.8,0,0.299235,0.0138086,0
0.6,8.9,0,0.299283,0.0140534,0
0.6,9,0,0.299381,0.0142809,0
0.6,9.1,0,0.299462,0.0144633,0
0.6,9.2,0,0.299522,0.0146481,0
0.6,9.3,0,0.299617,0.0147781,0
0.6,9.4,0,0.299662,0.0149132,0
0.6,9.5,0,0.299749,0.0150018,0
0.6,9.6,0,0.299794,0.0150804,0
0.6,9.7,0,0.299853,0.0151396,0
0.6,9.8,0,0.299903,0.015176,0
0.6,9.9,0,0.299947,0.0152087,0
0.6,10,0,0.299991,0.01521,0
0.6,10.1,0,0.300029,0.0152144,0
0.6,10.2,0,0.300062,0.0151907,0
0.6,10.3,0,0.300091,0.0151688,0
0.6,10.4,0,0.300118,0.015132,0
0.6,10.5,0,0.300135,0.0150895,0
0.6,10.6,0,0.300162,0.0150416,0
0.6,10.7,0,0.300167,0.0149818,0
0.6,10.8,0,0.300189,0.0149257,0
0.6,10.9,0,0.300189,0.0148573,0
0.6,11,0,0.300198,0.0147962,0
0.6,11.1,0,0.300203,0.0147264,0
0.6,11.2,0,0.300196,0.0146622,0
0.6,11.3,0,0.300207,0.0145923,0
0.6,11.4,0,0.300189,0.014525,0
0.6,11.5,0,0.300194,0.0144617,0
0.6,11.6,0,0.300178,0.0143973,0
0.6,11.7,0,0.30017,0.0143415,0
0.6,11.8,0,0.300161,0.0142832,0
0.6,11.9,0,0.300142,0.0142354,0
0.6,12,0,0.300137,0.0141839,0
0.6,12.1,0,0.300112,0.0141439,0
0.6,12.2,0,0.300102,0.0141069,0
0.6,12.3,0,0.30008,0.0140763,0
0.6,12.4,0,0.300064,0.0140528,0
0.6,12.5,0,0.300047,0.0140321,0
0.6,12.6,0,0.300031,0.014023,0
0.6,12.7,0,0.300034,0.0140147,0
0.7,0,0,0.30005,-0.015143,0
0.7,0.1,0,0.300055,-0.0151535,0
0.7,0.2,0,0.30007,-0.0151662,0
0.7,0.3,0,0.300089,-0.0151862,0
0.7,0.4,0,0.300118,-0.0152217,0
0.7,0.5,0,0.300146,-0.0152542,0
0.7,0.6,0,0.300165,-0.0153035,0
0.7,0.7,0,0.300192,-0.0153582,0
0.7,0.8,0,0.300209,-0.0154101,0
0.7,0.9,0,0.300232,-0.0154819,0
0.7,1,0,0.300258,-0.0155478,0
0.7,1.1,0,0.300267,-0.0156256,0
0.7,1.2,0,0.300285,-0.0157116,0
0.7,1.3,0,0.300296,-0.0157867,0
0.7,1.4,0,0.300308,-0.0158833,0
0.7,1.5,0,0.300326,-0.015972,0
0.7,1.6,0,0.300323,-0.0160649,0
0.7,1.7,0,0.300328,-0.0161676,0
0.7,1.8,0,0.300328,-0.0162521,0
0.7,1.9,0,0.300324,-0.0163555,0
0.7,2,0,0.300329,-0.0164501,0
0.7,2.1,0,0.300309,-0.0165382,0
0.7,2.2,0,0.300295,-0.0166358,0
0.7,2.3,0,0.300281,-0.0167097,0
0.7,2.4,0,0.300254,-0.016794,0
0.7,2.5,0,0.300237,-0.0168707,0
0.7,2.6,0,0.300198,-0.0169262,0
0.7,2.7,0,0.300158,-0.0169883,0
0.7,2.8,0,0.300126,-0.0170246,0
0.7,2.9,0,0.30007,-0.0170548,0
0.7,3,0,0.300022,-0.0170814,0
0.7,3.1,0,0.299963,-0.0170688,0
0.7,3.2,0,0.299891,-0.0170562,0
0.7,3.3,0,0.299837,-0.017021,0
0.7,3.4,0,0.299748,-0.0169542,0
0.7,3.5,0,0.299662,-0.0168911,0
0.7,3.6,0,0.299585,-0.0167694,0
0.7,3.7,0,0.299479,-0.0166367,0
0.7,3.8,0,0.299402,-0.0164924,0
0.7,3.9,0,0.29928,-0.0162827,0
0.7,4,0,0.299154,-0.0160878,0
0.7,4.1,0,0.299066,-0.0158171,0
0.7,4.2,0,0.29893,-0.0155203,0
0.7,4.3,0,0.298836,-0.0152326,0
0.7,4.4,0,0.298692,-0.0148408,0
0.7,4.5,0,0.298532,-0.0144787,0
0.7,4.6,0,0.298446,-0.0140304,0
0.7,4.7,0,0.298297,-0.013538,0
0.7,4.8,0,0.298196,-0.0130855,0
0.7,4.9,0,0.29804,-0.0124574,0
0.7,5,0,0.297853,-0.0118648,0
0.7,5.1,0,0.2978,-0.0112762,0
0.7,5.2,0,0.297666,-0.0105956,0
0.7,5.3,0,0.297493,-0.00996117,0
0.7,5.4,0,0.297456,-0.00924418,0
0.7,5.5,0,0.297334,-0.00843399,0
0.7,5.6,0,0.297167,-0.00769622,0
0.7,5.7,0,0.29716,-0.00689781,0
0.7,5.8,0,0.297065,-0.00599902,0
0.7,5.9,0,0.296915,-0.00518424,0
0.7,6,0,0.296941,-0.00432617,0
0.7,6.1,0,0.296881,-0.00336402,0
0.7,6.2,0,0.296756,-0.0024956,0
0.7,6.3,0,0.296816,-0.0016045,0
0.7,6.4,0,0.296795,-0.00060931,0
0.7,6.5,0,0.2967,0.000285156,0
0.7,6.6,0,0.296795,0.00118005,0
0.7,6.7,0,0.296815,0.00217546,0
0.7,6.8,0,0.296754,0.00306651,0
0.7,6.9,0,0.296879,0.00393579,0
0.7,7,0,0.296938,0.00489874,0
0.7,7.1,0,0.296912,0.00575737,0
0.7,7.2,0,0.297062,0.00657362,0
0.7,7.3,0,0.297155,0.00747384,0
0.7,7.4,0,0.297162,0.00827334,0
0.7,7.5,0,0.297329,0.00901311,0
0.7,7.6,0,0.29745,0.00982541,0
0.7,7.7,0,0.297486,0.0105442,0
0.7,7.8,0,0.297657,0.0111784,0
0.7,7.9,0,0.29779,0.0118548,0
0.7,8,0,0.297839,0.0124359,0
0.7,8.1,0,0.298031,0.0130518,0
0.7,8.2,0,0.29817,0.0136815,0
0.7,8.3,0,0.29829,0.0141456,0
0.7,8.4,0,0.298439,0.0146511,0
0.7,8.5,0,0.298534,0.0150674,0
0.7,8.6,0,0.298685,0.0154669,0
0.7,8.7,0,0.298781,0.0158489,0
0.7,8.8,0,0.298923,0.0161467,0
0.7,8.9,0,0.299052,0.0164642,0
0.7,9,0,0.299148,0.0166966,0
0.7,9.1,0,0.299273,0.0169347,0
0.7,9.2,0,0.299356,0.01713,0
0.7,9.3,0,0.299467,0.0172877,0
0.7,9.4,0,0.299553,0.0174421,0
0.7,9.5,0,0.299641,0.0175374,0
0.7,9.6,0,0.299735,0.0176357,0
0.7,9.7,0,0.299794,0.0176954,0
0.7,9.8,0,0.299873,0.0177393,0
0.7,9.9,0,0.299929,0.017773,0
0.7,10,0,0.299988,0.0177728,0
0.7,10.1,0,0.300043,0.017774,0
0.7,10.2,0,0.300082,0.017748,0