/*--------------------------------*- C++ -*----------------------------------*\
| =========                 |                                                 |
| \\      /  F ield         | OpenFOAM: The Open Source CFD Toolbox           |
|  \\    /   O peration     | Version:  v1806                                 |
|   \\  /    A nd           | Web:      www.OpenFOAM.com                      |
|    \\/     M anipulation  |                                                 |
\*---------------------------------------------------------------------------*/
FoamFile
{
    version     2.0;
    format      ascii;
    class       volVectorField;
    location    "11";
    object      U;
}
// * * * * * * * * * * * * * * * * * * * * * * * * * * * * * * * * * * * * * //

dimensions      [0 1 -1 0 0 0 0];


internalField   nonuniform List<vector> 
2400
(
(2.99993 -0.00605596 0)
(3.00004 -0.024441 0)
(3.00016 -0.0402096 0)
(2.99876 -0.0554965 0)
(3.00024 -0.0722446 0)
(2.99922 -0.0888512 0)
(2.99963 -0.105606 0)
(2.99832 -0.124709 0)
(3.00007 -0.149123 0)
(2.99742 -0.158237 0)
(2.99811 -0.175523 0)
(2.99905 -0.201674 0)
(2.99833 -0.227434 0)
(2.99747 -0.235187 0)
(2.9974 -0.251608 0)
(3.00061 -0.277876 0)
(2.99827 -0.296742 0)
(2.99982 -0.304823 0)
(3.00095 -0.315312 0)
(3.00353 -0.328931 0)
(2.99992 -0.00586432 0)
(2.99991 -0.0249191 0)
(2.99982 -0.0391742 0)
(2.99799 -0.0556036 0)
(2.99968 -0.0723685 0)
(2.99821 -0.0886163 0)
(2.99838 -0.104905 0)
(2.99663 -0.125087 0)
(2.99845 -0.148619 0)
(2.99479 -0.156875 0)
(2.99566 -0.176655 0)
(2.99683 -0.201862 0)
(2.99591 -0.226738 0)
(2.99519 -0.234389 0)
(2.99516 -0.25406 0)
(3.00053 -0.278514 0)
(2.99779 -0.296661 0)
(3.00208 -0.30577 0)
(3.00217 -0.317904 0)
(3.01042 -0.33148 0)
(3.0001 -0.00553129 0)
(2.99957 -0.025182 0)
(2.99944 -0.0381756 0)
(2.99727 -0.0558145 0)
(2.99937 -0.0718715 0)
(2.99674 -0.0881763 0)
(2.99732 -0.104228 0)
(2.99477 -0.125046 0)
(2.99672 -0.147628 0)
(2.99191 -0.156087 0)
(2.9939 -0.177216 0)
(2.9939 -0.201607 0)
(2.99357 -0.226543 0)
(2.99268 -0.234556 0)
(2.99396 -0.255943 0)
(2.99915 -0.279635 0)
(2.99797 -0.298343 0)
(3.00399 -0.308158 0)
(3.00692 -0.321207 0)
(3.01535 -0.335526 0)
(3.00015 -0.00503234 0)
(2.99931 -0.0255414 0)
(2.99901 -0.0368116 0)
(2.99655 -0.0558915 0)
(2.99884 -0.071302 0)
(2.99536 -0.0874787 0)
(2.99609 -0.103254 0)
(2.99283 -0.124784 0)
(2.9948 -0.146518 0)
(2.98902 -0.154512 0)
(2.99141 -0.178209 0)
(2.99103 -0.201236 0)
(2.99053 -0.226434 0)
(2.99009 -0.234361 0)
(2.99138 -0.259247 0)
(2.99823 -0.281129 0)
(2.99644 -0.300601 0)
(3.00525 -0.311344 0)
(3.00709 -0.326682 0)
(3.02083 -0.341141 0)
(3.00037 -0.0042948 0)
(2.99877 -0.0259199 0)
(2.99863 -0.0351193 0)
(2.99559 -0.0562593 0)
(2.99862 -0.0701295 0)
(2.99344 -0.0866859 0)
(2.99513 -0.102035 0)
(2.99041 -0.124245 0)
(2.9929 -0.144804 0)
(2.98535 -0.153085 0)
(2.98929 -0.179003 0)
(2.987 -0.200371 0)
(2.98723 -0.226596 0)
(2.98642 -0.234663 0)
(2.9889 -0.262719 0)
(2.99535 -0.282825 0)
(2.99465 -0.30437 0)
(3.0058 -0.315789 0)
(3.00994 -0.332949 0)
(3.02468 -0.347897 0)
(3.00044 -0.00323813 0)
(2.9982 -0.0264731 0)
(2.99809 -0.0329588 0)
(2.99472 -0.0569188 0)
(2.99813 -0.0683449 0)
(2.99145 -0.0859291 0)
(2.99405 -0.100326 0)
(2.98775 -0.123418 0)
(2.99056 -0.142621 0)
(2.98158 -0.151401 0)
(2.98643 -0.179684 0)
(2.98239 -0.199 0)
(2.98296 -0.226986 0)
(2.98223 -0.2348 0)
(2.98474 -0.266974 0)
(2.99206 -0.284728 0)
(2.99119 -0.309413 0)
(3.00535 -0.321194 0)
(3.00761 -0.340656 0)
(3.0282 -0.355753 0)
(3.00058 -0.00171033 0)
(2.99734 -0.0273997 0)
(2.99757 -0.0302311 0)
(2.99366 -0.0582733 0)
(2.99758 -0.0654686 0)
(2.98909 -0.0856157 0)
(2.99311 -0.0977076 0)
(2.98441 -0.122608 0)
(2.98817 -0.139468 0)
(2.97693 -0.150046 0)
(2.98349 -0.179593 0)
(2.97614 -0.197111 0)
(2.9785 -0.227485 0)
(2.97599 -0.234856 0)
(2.98005 -0.271567 0)
(2.98627 -0.286512 0)
(2.98727 -0.316711 0)
(3.00346 -0.327131 0)
(3.00764 -0.351714 0)
(3.02942 -0.3623 0)
(3.0005 0.000613022 0)
(2.99661 -0.0288635 0)
(2.99665 -0.0266518 0)
(2.99288 -0.0604468 0)
(2.99632 -0.061094 0)
(2.98717 -0.0861808 0)
(2.9914 -0.0934079 0)
(2.98118 -0.12244 0)
(2.98475 -0.134553 0)
(2.97224 -0.149635 0)
(2.97918 -0.177486 0)
(2.96919 -0.195932 0)
(2.97267 -0.226342 0)
(2.96826 -0.23622 0)
(2.97364 -0.274386 0)
(2.97846 -0.291069 0)
(2.98146 -0.321815 0)
(2.99837 -0.338437 0)
(3.0041 -0.361983 0)
(3.02899 -0.383507 0)
(3.0006 0.00348572 0)
(2.9954 -0.0306241 0)
(2.99525 -0.0226763 0)
(2.99206 -0.0628954 0)
(2.99422 -0.0556413 0)
(2.98553 -0.0868796 0)
(2.98851 -0.0881603 0)
(2.97818 -0.12189 0)
(2.97987 -0.129034 0)
(2.96763 -0.148498 0)
(2.97305 -0.175258 0)
(2.96158 -0.192404 0)
(2.96493 -0.227119 0)
(2.95902 -0.233871 0)
(2.96489 -0.281107 0)
(2.96827 -0.290715 0)
(2.97315 -0.33386 0)
(2.99046 -0.344203 0)
(2.99696 -0.378503 0)
(3.02937 -0.391416 0)
(3.0017 0.00844085 0)
(2.99309 -0.0350739 0)
(2.99425 -0.0161937 0)
(2.99081 -0.0679774 0)
(2.9918 -0.0463287 0)
(2.98402 -0.0911042 0)
(2.98449 -0.0782267 0)
(2.97546 -0.125425 0)
(2.97346 -0.117969 0)
(2.96335 -0.152292 0)
(2.9649 -0.166264 0)
(2.95337 -0.193972 0)
(2.95545 -0.221592 0)
(2.94756 -0.235898 0)
(2.95431 -0.282751 0)
(2.95418 -0.294073 0)
(2.96402 -0.343263 0)
(2.97842 -0.353568 0)
(2.9934 -0.39392 0)
(3.02393 -0.405716 0)
(3.00467 0.0146405 0)
(2.98914 -0.041017 0)
(2.99469 -0.00817355 0)
(2.98853 -0.0740001 0)
(2.98975 -0.0347501 0)
(2.98234 -0.0969952 0)
(2.97949 -0.0654395 0)
(2.97335 -0.13101 0)
(2.96513 -0.103165 0)
(2.96027 -0.158939 0)
(2.95349 -0.151964 0)
(2.94631 -0.199279 0)
(2.94217 -0.210534 0)
(2.93573 -0.241266 0)
(2.93976 -0.280052 0)
(2.9384 -0.299518 0)
(2.95094 -0.352649 0)
(2.96227 -0.363352 0)
(2.98459 -0.413763 0)
(3.014 -0.423943 0)
(3.01071 0.0225565 0)
(2.98209 -0.0489312 0)
(2.99856 0.0021096 0)
(2.983 -0.0815536 0)
(2.99062 -0.0204706 0)
(2.97766 -0.105198 0)
(2.97649 -0.0489902 0)
(2.96881 -0.139513 0)
(2.95789 -0.0834024 0)
(2.95534 -0.169599 0)
(2.94137 -0.130299 0)
(2.93811 -0.210725 0)
(2.92662 -0.190161 0)
(2.92227 -0.254409 0)
(2.92204 -0.267518 0)
(2.91898 -0.312894 0)
(2.93391 -0.35606 0)
(2.9418 -0.378395 0)
(2.9749 -0.436441 0)
(2.99904 -0.445204 0)
(3.01938 0.031457 0)
(2.97221 -0.0578875 0)
(3.00658 0.0138072 0)
(2.97336 -0.0895606 0)
(2.9963 -0.00462663 0)
(2.96805 -0.114226 0)
(2.97869 -0.030122 0)
(2.95893 -0.149248 0)
(2.95556 -0.059954 0)
(2.9451 -0.182338 0)
(2.93249 -0.102434 0)
(2.9258 -0.226631 0)
(2.91123 -0.160414 0)
(2.90582 -0.27533 0)
(2.90103 -0.242383 0)
(2.89623 -0.337497 0)
(2.91037 -0.34698 0)
(2.91593 -0.404808 0)
(2.95433 -0.457679 0)
(2.98221 -0.472102 0)
(3.02919 0.0410906 0)
(2.96098 -0.0677889 0)
(3.01847 0.0267012 0)
(2.9601 -0.0977928 0)
(3.00782 0.0123481 0)
(2.95268 -0.123494 0)
(2.98874 -0.00955172 0)
(2.9412 -0.158941 0)
(2.96274 -0.0342647 0)
(2.92522 -0.195 0)
(2.93337 -0.0707525 0)
(2.90356 -0.243785 0)
(2.90326 -0.123738 0)
(2.87998 -0.300554 0)
(2.88254 -0.205308 0)
(2.8643 -0.372263 0)
(2.88353 -0.322334 0)
(2.87932 -0.447 0)
(2.92876 -0.468399 0)
(2.96218 -0.504878 0)
(3.03838 0.0504646 0)
(2.95123 -0.0782802 0)
(3.03233 0.0399253 0)
(2.94631 -0.106114 0)
(3.02291 0.0295994 0)
(2.93454 -0.132549 0)
(3.00472 0.0115283 0)
(2.91836 -0.168407 0)
(2.97821 -0.007929 0)
(2.8974 -0.206796 0)
(2.94485 -0.0377355 0)
(2.87091 -0.260175 0)
(2.90616 -0.0832981 0)
(2.84167 -0.326641 0)
(2.87153 -0.15886 0)
(2.81781 -0.41345 0)
(2.85741 -0.280508 0)
(2.825 -0.5078 0)
(2.89843 -0.461794 0)
(2.92297 -0.562853 0)
(3.04921 0.0592659 0)
(2.94231 -0.0884778 0)
(3.049 0.0538273 0)
(2.93255 -0.113989 0)
(3.04039 0.0476892 0)
(2.91537 -0.140637 0)
(3.02347 0.034381 0)
(2.89347 -0.17685 0)
(2.99767 0.0210151 0)
(2.86558 -0.217129 0)
(2.96249 -0.000895089 0)
(2.83115 -0.274084 0)
(2.91719 -0.0368305 0)
(2.79206 -0.349759 0)
(2.86877 -0.102381 0)
(2.75434 -0.454012 0)
(2.8353 -0.221125 0)
(2.74539 -0.582263 0)
(2.8706 -0.435726 0)
(2.85236 -0.65382 0)
(3.06901 0.0597494 0)
(2.92626 -0.0886524 0)
(3.07424 0.0601851 0)
(2.91173 -0.112821 0)
(3.0643 0.0570737 0)
(2.89025 -0.140118 0)
(3.0472 0.0491147 0)
(2.86351 -0.176756 0)
(3.02043 0.0418691 0)
(2.82932 -0.219131 0)
(2.98224 0.0272965 0)
(2.78616 -0.27999 0)
(2.92956 -1.46779e-05 0)
(2.73428 -0.36629 0)
(2.86631 -0.0556336 0)
(2.67917 -0.49772 0)
(2.80914 -0.162023 0)
(2.64521 -0.686245 0)
(2.83882 -0.389253 0)
(2.7359 -0.822195 0)
(3.11229 0.0573502 0)
(2.88735 -0.0819964 0)
(3.12264 0.061674 0)
(2.86664 -0.10521 0)
(3.11196 0.062026 0)
(2.84145 -0.131253 0)
(3.09643 0.0606579 0)
(2.81004 -0.166435 0)
(3.0692 0.0616186 0)
(2.76969 -0.208164 0)
(3.02778 0.0587339 0)
(2.71801 -0.269223 0)
(2.96529 0.0486257 0)
(2.65309 -0.361208 0)
(2.87657 0.0188783 0)
(2.58391 -0.513827 0)
(2.76488 -0.0577974 0)
(2.5332 -0.759111 0)
(2.74585 -0.271069 0)
(2.59054 -0.977413 0)
(3.18206 0.0405856 0)
(2.81465 -0.0563718 0)
(3.20255 0.0411811 0)
(2.7842 -0.0738001 0)
(3.20102 0.0388563 0)
(2.75054 -0.0910071 0)
(3.19679 0.0346146 0)
(2.70793 -0.116425 0)
(3.18046 0.0321498 0)
(2.65357 -0.146594 0)
(3.14877 0.0273736 0)
(2.58304 -0.193645 0)
(3.09188 0.019885 0)
(2.49103 -0.272439 0)
(2.99811 0.0014011 0)
(2.3828 -0.431272 0)
(2.84861 -0.0584116 0)
(2.32175 -0.794328 0)
(2.72339 -0.249742 0)
(2.48009 -1.45482 0)
(3.22821 0.0387955 0)
(2.76383 -0.0524905 0)
(3.26684 0.0413984 0)
(2.72224 -0.0703744 0)
(3.28901 0.0440062 0)
(2.67547 -0.0879732 0)
(3.31627 0.0460209 0)
(2.61435 -0.114489 0)
(3.34223 0.0520777 0)
(2.53548 -0.146384 0)
(3.36855 0.0598489 0)
(2.43193 -0.195335 0)
(3.39422 0.0708911 0)
(2.29294 -0.276682 0)
(3.41945 0.0791252 0)
(2.11038 -0.446827 0)
(3.44867 0.0533729 0)
(1.9388 -0.896653 0)
(3.58367 -0.122097 0)
(2.67061 -2.34365 0)
(3.00027 -0.334362 0)
(3.0018 -0.336494 0)
(3.00436 -0.338468 0)
(3.00618 -0.339839 0)
(3.00693 -0.341397 0)
(3.00723 -0.341712 0)
(3.00794 -0.342666 0)
(3.00798 -0.341829 0)
(3.00922 -0.34214 0)
(3.00889 -0.340423 0)
(3.01683 -0.337236 0)
(3.0179 -0.339972 0)
(3.01604 -0.34187 0)
(3.01615 -0.343521 0)
(3.01658 -0.344584 0)
(3.01819 -0.345175 0)
(3.01952 -0.345621 0)
(3.02094 -0.345285 0)
(3.02262 -0.345222 0)
(3.02358 -0.344133 0)
(3.01285 -0.341035 0)
(3.01619 -0.343608 0)
(3.0201 -0.345364 0)
(3.02449 -0.34711 0)
(3.02627 -0.348125 0)
(3.0289 -0.348946 0)
(3.03027 -0.349273 0)
(3.03267 -0.349243 0)
(3.0345 -0.34897 0)
(3.03663 -0.34829 0)
(3.02889 -0.346565 0)
(3.03187 -0.349278 0)
(3.03074 -0.350897 0)
(3.03296 -0.352892 0)
(3.03402 -0.353694 0)
(3.03785 -0.354908 0)
(3.03962 -0.354946 0)
(3.04333 -0.355451 0)
(3.04534 -0.354846 0)
(3.04866 -0.35484 0)
(3.02329 -0.353581 0)
(3.02869 -0.356476 0)
(3.03302 -0.3581 0)
(3.03981 -0.360334 0)
(3.04197 -0.360932 0)
(3.04729 -0.362475 0)
(3.04886 -0.362137 0)
(3.05407 -0.363194 0)
(3.05589 -0.362076 0)
(3.06091 -0.362899 0)
(3.03729 -0.362421 0)
(3.04273 -0.365858 0)
(3.04204 -0.367701 0)
(3.04732 -0.370137 0)
(3.04864 -0.370387 0)
(3.05573 -0.372097 0)
(3.05719 -0.371276 0)
(3.06424 -0.372888 0)
(3.06546 -0.371228 0)
(3.07236 -0.372916 0)
(3.02791 -0.373448 0)
(3.03635 -0.379244 0)
(3.04199 -0.382101 0)
(3.05336 -0.384835 0)
(3.05595 -0.384716 0)
(3.06504 -0.386672 0)
(3.06533 -0.385328 0)
(3.07424 -0.387543 0)
(3.07428 -0.385044 0)
(3.08386 -0.387625 0)
(3.02939 -0.386369 0)
(3.04036 -0.386809 0)
(3.04632 -0.387182 0)
(3.05963 -0.389866 0)
(3.06161 -0.390479 0)
(3.07288 -0.393848 0)
(3.07216 -0.392842 0)
(3.0838 -0.396325 0)
(3.08234 -0.393312 0)
(3.09516 -0.39739 0)
(3.04149 -0.399564 0)
(3.05198 -0.402319 0)
(3.05164 -0.404688 0)
(3.06251 -0.407851 0)
(3.06279 -0.408914 0)
(3.07652 -0.412456 0)
(3.07561 -0.411393 0)
(3.09078 -0.415293 0)
(3.08805 -0.411643 0)
(3.10466 -0.416526 0)
(3.02966 -0.41763 0)
(3.04202 -0.420406 0)
(3.0483 -0.424016 0)
(3.06329 -0.426453 0)
(3.06572 -0.4279 0)
(3.08099 -0.430404 0)
(3.08069 -0.429281 0)
(3.09794 -0.432475 0)
(3.09502 -0.428425 0)
(3.1145 -0.43319 0)
(3.03685 -0.439664 0)
(3.04745 -0.441289 0)
(3.05249 -0.446431 0)
(3.0638 -0.44741 0)
(3.06934 -0.450221 0)
(3.08385 -0.450955 0)
(3.08743 -0.450944 0)
(3.10379 -0.452375 0)
(3.10386 -0.449199 0)
(3.12246 -0.452547 0)
(3.02322 -0.465466 0)
(3.03322 -0.465891 0)
(3.04906 -0.47316 0)
(3.06071 -0.471833 0)
(3.07424 -0.476621 0)
(3.08493 -0.474214 0)
(3.09607 -0.476422 0)
(3.10697 -0.474282 0)
(3.11514 -0.473713 0)
(3.12713 -0.47322 0)
(3.02621 -0.497036 0)
(3.03421 -0.496864 0)
(3.05224 -0.505393 0)
(3.059 -0.500951 0)
(3.08001 -0.50619 0)
(3.08554 -0.499331 0)
(3.10628 -0.503152 0)
(3.1087 -0.496477 0)
(3.12832 -0.499185 0)
(3.12877 -0.493675 0)
(3.00255 -0.539037 0)
(3.01606 -0.541348 0)
(3.04601 -0.549341 0)
(3.05921 -0.540745 0)
(3.08683 -0.54286 0)
(3.08893 -0.530291 0)
(3.11392 -0.532845 0)
(3.10816 -0.520622 0)
(3.13594 -0.524727 0)
(3.1253 -0.513337 0)
(2.97528 -0.59729 0)
(3.00584 -0.596262 0)
(3.04475 -0.598048 0)
(3.069 -0.585207 0)
(3.09626 -0.582635 0)
(3.10008 -0.566266 0)
(3.12092 -0.564791 0)
(3.11306 -0.546874 0)
(3.13866 -0.547165 0)
(3.12346 -0.527979 0)
(2.94198 -0.669173 0)
(2.99954 -0.658987 0)
(3.0445 -0.648406 0)
(3.08072 -0.634939 0)
(3.10149 -0.63099 0)
(3.11404 -0.62348 0)
(3.12721 -0.623736 0)
(3.12976 -0.616179 0)
(3.14663 -0.616165 0)
(3.1404 -0.606472 0)
(2.94139 -0.776825 0)
(3.02495 -0.722599 0)
(3.0591 -0.667053 0)
(3.08101 -0.613242 0)
(3.07671 -0.579113 0)
(3.08862 -0.543119 0)
(3.08825 -0.524024 0)
(3.1038 -0.495129 0)
(3.10853 -0.484686 0)
(3.12088 -0.459234 0)
(3.08156 -0.977565 0)
(3.22744 -0.944396 0)
(3.265 -0.91481 0)
(3.25649 -0.896126 0)
(3.22329 -0.877501 0)
(3.20784 -0.860526 0)
(3.18421 -0.837518 0)
(3.17607 -0.817259 0)
(3.15522 -0.792212 0)
(3.14225 -0.773795 0)
(3.08393 -0.820715 0)
(3.20761 -0.555452 0)
(3.17975 -0.411207 0)
(3.13199 -0.346329 0)
(3.08837 -0.303081 0)
(3.0652 -0.265026 0)
(3.034 -0.241013 0)
(3.00559 -0.218404 0)
(2.9589 -0.217136 0)
(2.91596 -0.204423 0)
(3.83946 -1.73804 0)
(3.55064 -1.47389 0)
(2.98987 -1.2709 0)
(2.60222 -1.15437 0)
(2.38503 -1.02737 0)
(2.19958 -0.944149 0)
(2.0088 -0.83294 0)
(1.81921 -0.79141 0)
(1.62828 -0.698088 0)
(1.46452 -0.706085 0)
(3.01792 -0.338801 0)
(3.00707 -0.316067 0)
(3.02552 -0.247068 0)
(3.06767 -0.232235 0)
(3.0591 -0.164782 0)
(3.03026 -0.0292765 0)
(3.05644 0.0206574 0)
(3.0529 0.0313862 0)
(3.01089 0.0018316 0)
(3.04137 -0.158346 0)
(3.03914 -0.339203 0)
(2.92996 -0.501458 0)
(2.86929 -0.77303 0)
(2.83623 -1.08112 0)
(2.67789 -1.26295 0)
(2.32972 -1.28976 0)
(1.90361 -1.27117 0)
(1.45059 -1.16175 0)
(1.11227 -1.09435 0)
(0.72431 -0.654853 0)
(3.03458 -0.341464 0)
(3.03001 -0.317945 0)
(3.06801 -0.261277 0)
(3.11299 -0.243784 0)
(3.09766 -0.156305 0)
(3.07386 -0.0266933 0)
(3.09743 0.0149966 0)
(3.05864 0.0423005 0)
(3.00652 0.00477712 0)
(3.03857 -0.165895 0)
(2.97876 -0.31272 0)
(2.83527 -0.463557 0)
(2.80365 -0.757635 0)
(2.76174 -1.03758 0)
(2.54995 -1.13372 0)
(2.18853 -1.0869 0)
(1.82185 -1.04453 0)
(1.46261 -0.956911 0)
(1.19788 -0.918917 0)
(0.90958 -0.567922 0)
(3.04814 -0.344152 0)
(3.04938 -0.324411 0)
(3.10145 -0.270126 0)
(3.14179 -0.247366 0)
(3.12333 -0.151197 0)
(3.11217 -0.0249643 0)
(3.1249 0.0233213 0)
(3.05818 0.0566587 0)
(3.00124 0.00689882 0)
(3.00732 -0.153623 0)
(2.91642 -0.282542 0)
(2.80058 -0.449105 0)
(2.79937 -0.748163 0)
(2.74812 -1.00405 0)
(2.53425 -1.09596 0)
(2.18626 -1.07168 0)
(1.82146 -1.05142 0)
(1.45331 -0.960796 0)
(1.18427 -0.920025 0)
(0.918689 -0.560041 0)
(3.06107 -0.349063 0)
(3.06624 -0.332619 0)
(3.13631 -0.282656 0)
(3.17684 -0.256521 0)
(3.15339 -0.146385 0)
(3.15166 -0.0204653 0)
(3.1568 0.031122 0)
(3.05935 0.0752268 0)
(2.99167 0.0169117 0)
(2.98718 -0.141008 0)
(2.86719 -0.251248 0)
(2.75332 -0.429109 0)
(2.76406 -0.742667 0)
(2.67767 -0.96431 0)
(2.40132 -0.980841 0)
(2.03793 -0.892893 0)
(1.73505 -0.856189 0)
(1.45857 -0.790466 0)
(1.26745 -0.787463 0)
(1.02517 -0.505656 0)
(3.07216 -0.353756 0)
(3.08456 -0.344919 0)
(3.17435 -0.296247 0)
(3.20809 -0.262234 0)
(3.18359 -0.142305 0)
(3.19896 -0.0178406 0)
(3.18587 0.0488731 0)
(3.05546 0.100767 0)
(2.9918 0.025571 0)
(2.9593 -0.117586 0)
(2.80187 -0.216065 0)
(2.72047 -0.421534 0)
(2.7474 -0.727544 0)
(2.63372 -0.901158 0)
(2.36129 -0.914392 0)
(2.0293 -0.869212 0)
(1.72957 -0.867929 0)
(1.44657 -0.799416 0)
(1.23948 -0.782852 0)
(1.04598 -0.489448 0)
(3.08066 -0.359796 0)
(3.10317 -0.360846 0)
(3.21316 -0.311258 0)
(3.23885 -0.270977 0)
(3.21912 -0.141363 0)
(3.24816 -0.0114528 0)
(3.20986 0.0722197 0)
(3.05547 0.128488 0)
(2.99151 0.041183 0)
(2.92177 -0.0879263 0)
(2.74706 -0.182396 0)
(2.70134 -0.411549 0)
(2.72411 -0.714259 0)
(2.55391 -0.851035 0)
(2.21617 -0.808643 0)
(1.87813 -0.720059 0)
(1.65058 -0.712459 0)
(1.45023 -0.666774 0)
(1.31257 -0.68921 0)
(1.11509 -0.455222 0)
(3.08546 -0.368232 0)
(3.12457 -0.38255 0)
(3.25744 -0.328238 0)
(3.26775 -0.27877 0)
(3.25496 -0.142245 0)
(3.29947 -0.00479232 0)
(3.23314 0.103617 0)
(3.05801 0.159487 0)
(2.99083 0.0591788 0)
(2.87715 -0.0474101 0)
(2.69719 -0.15024 0)
(2.69192 -0.415616 0)
(2.68642 -0.687275 0)
(2.46884 -0.761426 0)
(2.15325 -0.726152 0)
(1.85909 -0.694848 0)
(1.63918 -0.72658 0)
(1.43156 -0.677226 0)
(1.29262 -0.678464 0)
(1.13652 -0.437795 0)
(3.08695 -0.372757 0)
(3.15267 -0.406741 0)
(3.30667 -0.342807 0)
(3.28994 -0.286147 0)
(3.28987 -0.145276 0)
(3.35322 0.00676916 0)
(3.253 0.14038 0)
(3.06232 0.194155 0)
(2.98783 0.0885695 0)
(2.82539 -0.00414143 0)
(2.65834 -0.128059 0)
(2.68878 -0.407433 0)
(2.64915 -0.649735 0)
(2.36402 -0.692556 0)
(1.99761 -0.629867 0)
(1.72581 -0.580182 0)
(1.58089 -0.612468 0)
(1.44436 -0.582309 0)
(1.34597 -0.61486 0)
(1.18482 -0.413398 0)
(3.08493 -0.385298 0)
(3.19104 -0.44323 0)
(3.35732 -0.359754 0)
(3.29755 -0.294084 0)
(3.31974 -0.154743 0)
(3.40205 0.0189455 0)
(3.26762 0.186214 0)
(3.07653 0.230593 0)
(2.97986 0.1208 0)
(2.76558 0.0470893 0)
(2.64142 -0.109579 0)
(2.69416 -0.411459 0)
(2.57161 -0.594885 0)
(2.23935 -0.583446 0)
(1.92053 -0.549467 0)
(1.70064 -0.562533 0)
(1.56674 -0.628763 0)
(1.42627 -0.590143 0)
(1.34096 -0.60044 0)
(1.20714 -0.397358 0)
(3.0871 -0.397224 0)
(3.24501 -0.482518 0)
(3.39623 -0.365418 0)
(3.27717 -0.297688 0)
(3.33923 -0.166737 0)
(3.45139 0.0359823 0)
(3.28922 0.232664 0)
(3.09497 0.27067 0)
(2.96562 0.169972 0)
(2.72123 0.0936264 0)
(2.64013 -0.103402 0)
(2.67964 -0.389358 0)
(2.49552 -0.523152 0)
(2.10428 -0.497532 0)
(1.77302 -0.470207 0)
(1.60166 -0.485474 0)
(1.53657 -0.552962 0)
(1.44414 -0.528374 0)
(1.37986 -0.557449 0)
(1.24345 -0.378147 0)
(3.10472 -0.418804 0)
(3.30631 -0.525233 0)
(3.39362 -0.360607 0)
(3.22073 -0.30075 0)
(3.36721 -0.193551 0)
(3.51007 0.049278 0)
(3.32291 0.288144 0)
(3.13759 0.316739 0)
(2.94963 0.220754 0)
(2.67936 0.140534 0)
(2.66813 -0.0971665 0)
(2.65956 -0.365975 0)
(2.35486 -0.431394 0)
(1.95848 -0.385258 0)
(1.70778 -0.409497 0)
(1.58802 -0.482633 0)
(1.53084 -0.570303 0)
(1.43813 -0.532226 0)
(1.38754 -0.541928 0)
(1.26646 -0.363394 0)
(3.15005 -0.452859 0)
(3.34525 -0.555794 0)
(3.32371 -0.335319 0)
(3.15898 -0.31715 0)
(3.42992 -0.233742 0)
(3.606 0.0642091 0)
(3.39127 0.337569 0)
(3.19121 0.370043 0)
(2.93908 0.292987 0)
(2.67423 0.177587 0)
(2.68508 -0.0942996 0)
(2.59888 -0.305771 0)
(2.21939 -0.326314 0)
(1.80762 -0.302642 0)
(1.60737 -0.360973 0)
(1.54667 -0.440339 0)
(1.53422 -0.524268 0)
(1.46243 -0.493594 0)
(1.42019 -0.511057 0)
(1.29663 -0.346799 0)
(3.21894 -0.494726 0)
(3.32073 -0.564903 0)
(3.19533 -0.2998 0)
(3.16112 -0.364135 0)
(3.55382 -0.30685 0)
(3.72969 0.0819936 0)
(3.48632 0.40742 0)
(3.26402 0.435246 0)
(2.93243 0.363037 0)
(2.69785 0.216418 0)
(2.71331 -0.0709937 0)
(2.48523 -0.22946 0)
(2.02961 -0.208502 0)
(1.6879 -0.215292 0)
(1.57925 -0.335571 0)
(1.55258 -0.452048 0)
(1.54173 -0.537924 0)
(1.46943 -0.492224 0)
(1.4364 -0.49459 0)
(1.31993 -0.332398 0)
(3.27983 -0.534352 0)
(3.20167 -0.534531 0)
(3.10955 -0.288616 0)
(3.2676 -0.463188 0)
(3.67751 -0.386635 0)
(3.82029 0.0922854 0)
(3.58542 0.463092 0)
(3.30808 0.517353 0)
(2.87713 0.447918 0)
(2.68453 0.24257 0)
(2.66501 -0.0331266 0)
(2.31947 -0.11723 0)
(1.83409 -0.0978556 0)
(1.57924 -0.165958 0)
(1.55678 -0.321462 0)
(1.56849 -0.433978 0)
(1.57276 -0.510083 0)
(1.5006 -0.466242 0)
(1.46728 -0.469697 0)
(1.34693 -0.316671 0)
(3.29569 -0.540624 0)
(3.03484 -0.481378 0)
(3.17823 -0.297394 0)
(3.38641 -0.565148 0)
(3.65749 -0.447354 0)
(3.74322 0.135335 0)
(3.55964 0.542389 0)
(3.29649 0.6147 0)
(2.85106 0.538182 0)
(2.69951 0.282599 0)
(2.55944 0.0364689 0)
(2.08551 0.00679377 0)
(1.6509 0.000850716 0)
(1.53278 -0.136425 0)
(1.58237 -0.331529 0)
(1.60248 -0.450122 0)
(1.59819 -0.514647 0)
(1.52014 -0.458291 0)
(1.48951 -0.451188 0)
(1.37026 -0.301592 0)
(3.24557 -0.604791 0)
(2.94745 -0.511227 0)
(3.32611 -0.419768 0)
(3.29964 -0.649514 0)
(3.29908 -0.479008 0)
(3.3912 0.135752 0)
(3.30809 0.581796 0)
(3.0646 0.701398 0)
(2.67588 0.612496 0)
(2.58872 0.328357 0)
(2.32202 0.144042 0)
(1.78941 0.138321 0)
(1.49908 0.0620336 0)
(1.52955 -0.140933 0)
(1.63031 -0.341165 0)
(1.65436 -0.441443 0)
(1.64343 -0.492602 0)
(1.55499 -0.436049 0)
(1.51953 -0.427674 0)
(1.3952 -0.285349 0)
(3.15859 -0.450906 0)
(2.95668 -0.432307 0)
(3.26655 -0.371426 0)
(2.76993 -0.563184 0)
(2.58067 -0.42687 0)
(2.68683 0.170804 0)
(2.82538 0.628171 0)
(2.67312 0.770324 0)
(2.41127 0.667059 0)
(2.36092 0.385762 0)
(1.95898 0.266814 0)
(1.49023 0.241831 0)
(1.42635 0.0755539 0)
(1.57461 -0.170816 0)
(1.68945 -0.365307 0)
(1.698 -0.449724 0)
(1.67413 -0.485229 0)
(1.57929 -0.421099 0)
(1.54375 -0.406272 0)
(1.41772 -0.268902 0)
(3.02583 -0.658741 0)
(2.68794 -0.558769 0)
(2.62904 -0.418264 0)
(1.7444 -0.504383 0)
(1.64957 -0.432301 0)
(1.92173 0.095704 0)
(2.20935 0.589267 0)
(2.05707 0.808105 0)
(2.07289 0.685687 0)
(1.99863 0.452121 0)
(1.52128 0.390709 0)
(1.28179 0.29057 0)
(1.44554 0.040325 0)
(1.64811 -0.210875 0)
(1.74936 -0.377246 0)
(1.74113 -0.439015 0)
(1.70858 -0.462772 0)
(1.60768 -0.398894 0)
(1.57002 -0.382258 0)
(1.4402 -0.251572 0)
(2.64937 -0.285103 0)
(1.7648 -0.239759 0)
(1.46267 -0.0788568 0)
(0.727725 -0.313384 0)
(0.843709 -0.449414 0)
(1.08495 0.0414979 0)
(1.34302 0.581375 0)
(1.45694 0.785503 0)
(1.69024 0.671082 0)
(1.44858 0.546528 0)
(1.11361 0.474798 0)
(1.22093 0.263949 0)
(1.52859 -0.0258079 0)
(1.72538 -0.25414 0)
(1.79111 -0.391598 0)
(1.76079 -0.436007 0)
(1.72379 -0.447934 0)
(1.62505 -0.38062 0)
(1.59109 -0.359365 0)
(1.46054 -0.23396 0)
(0.533 -0.210146 0)
(-0.0672451 -0.217164 0)
(0.3965 -0.145138 0)
(-0.123041 -0.360555 0)
(-0.0160249 -0.520295 0)
(0.169066 -0.0166481 0)
(0.521754 0.501321 0)
(0.899363 0.697065 0)
(1.07561 0.681671 0)
(0.867008 0.614501 0)
(0.91926 0.456179 0)
(1.30021 0.173523 0)
(1.64982 -0.100627 0)
(1.80888 -0.28559 0)
(1.83403 -0.390607 0)
(1.78169 -0.421337 0)
(1.74028 -0.426847 0)
(1.64273 -0.360516 0)
(1.61184 -0.336042 0)
(1.48009 -0.215963 0)
(0.0872133 0.141904 0)
(-0.131953 -0.204612 0)
(0.130638 -0.0879672 0)
(-0.502712 -0.25998 0)
(-0.625964 -0.533965 0)
(-0.399822 -0.0765202 0)
(0.0454751 0.40942 0)
(0.488795 0.637531 0)
(0.641751 0.681064 0)
(0.601191 0.603699 0)
(0.928205 0.386568 0)
(1.4124 0.0937686 0)
(1.75236 -0.147562 0)
(1.87571 -0.299216 0)
(1.86797 -0.385681 0)
(1.79572 -0.411669 0)
(1.74908 -0.414124 0)
(1.65266 -0.348204 0)
(1.62485 -0.320319 0)
(1.49289 -0.203189 0)
(-0.0278592 -0.0049553 0)
(-0.191285 -0.208972 0)
(-0.0373171 -0.0707458 0)
(-0.701419 -0.223939 0)
(-0.979155 -0.533189 0)
(-0.691605 -0.115577 0)
(-0.202492 0.35535 0)
(0.245358 0.604678 0)
(0.39944 0.673418 0)
(0.493337 0.57932 0)
(0.972636 0.333713 0)
(1.48856 0.0461856 0)
(1.81381 -0.172656 0)
(1.91604 -0.304475 0)
(1.89076 -0.380107 0)
(1.80729 -0.403996 0)
(1.75653 -0.405765 0)
(1.65945 -0.340973 0)
(1.63267 -0.311323 0)
(1.50023 -0.195853 0)
(-0.120357 0.123533 0)
(-0.265198 -0.205569 0)
(-0.184933 -0.037258 0)
(-0.880753 -0.164043 0)
(-1.30024 -0.528868 0)
(-0.955005 -0.160785 0)
(-0.439212 0.300559 0)
(-0.000972785 0.570943 0)
(0.17277 0.653951 0)
(0.450061 0.5366 0)
(1.04926 0.272333 0)
(1.57173 -0.00130712 0)
(1.87629 -0.195573 0)
(1.95707 -0.307645 0)
(1.91465 -0.373317 0)
(1.81976 -0.395944 0)
(1.76439 -0.397474 0)
(1.66635 -0.333859 0)
(1.64046 -0.302378 0)
(1.50746 -0.188471 0)
(-0.166797 0.0735252 0)
(-0.283382 -0.196207 0)
(-0.297716 -0.00279499 0)
(-1.01792 -0.0993021 0)
(-1.55754 -0.517538 0)
(-1.20171 -0.210514 0)
(-0.668707 0.244838 0)
(-0.251304 0.534693 0)
(-0.00829537 0.620671 0)
(0.479823 0.476846 0)
(1.14782 0.206086 0)
(1.65837 -0.0472872 0)
(1.93854 -0.21601 0)
(1.99875 -0.308615 0)
(1.94085 -0.364755 0)
(1.83487 -0.386752 0)
(1.77395 -0.3887 0)
(1.67396 -0.326664 0)
(1.64845 -0.293433 0)
(1.51465 -0.181039 0)
(-0.199582 0.149224 0)
(-0.273332 -0.188164 0)
(-0.365768 0.0393633 0)
(-1.09918 -0.0255123 0)
(-1.71549 -0.49922 0)
(-1.43652 -0.260203 0)
(-0.893113 0.190903 0)
(-0.49957 0.493869 0)
(-0.0925441 0.569417 0)
(0.570375 0.403022 0)
(1.26006 0.138513 0)
(1.7465 -0.0907629 0)
(1.99976 -0.233871 0)
(2.04053 -0.307616 0)
(1.96902 -0.354777 0)
(1.85254 -0.376654 0)
(1.78533 -0.379503 0)
(1.68242 -0.31935 0)
(1.65672 -0.284449 0)
(1.52181 -0.173543 0)
(-0.211311 0.137775 0)
(-0.213249 -0.174924 0)
(-0.38056 0.0847842 0)
(-1.10324 0.0519773 0)
(-1.74886 -0.469329 0)
(-1.6328 -0.301865 0)
(-1.10182 0.138114 0)
(-0.669852 0.441769 0)
(-0.0574904 0.497604 0)
(0.700901 0.321153 0)
(1.38141 0.0724878 0)
(1.83525 -0.131083 0)
(2.05934 -0.249153 0)
(2.08205 -0.304857 0)
(1.99933 -0.343478 0)
(1.87334 -0.365547 0)
(1.79904 -0.369706 0)
(1.69204 -0.3118 0)
(1.66538 -0.275365 0)
(1.52899 -0.165965 0)
(-0.194426 0.211269 0)
(-0.105681 -0.162416 0)
(-0.334599 0.133062 0)
(-1.0149 0.128543 0)
(-1.63616 -0.428523 0)
(-1.71334 -0.331864 0)
(-1.1999 0.0801974 0)
(-0.68777 0.372388 0)
(0.0697731 0.410921 0)
(0.856762 0.237443 0)
(1.50994 0.00970258 0)
(1.92419 -0.167651 0)
(2.11684 -0.26182 0)
(2.1229 -0.300624 0)
(2.03169 -0.331168 0)
(1.89752 -0.353545 0)
(1.81548 -0.359217 0)
(1.70308 -0.303893 0)
(1.67455 -0.266102 0)
(1.53622 -0.15828 0)
(-0.145892 0.138974 0)
(0.0478737 -0.167157 0)
(-0.228534 0.176943 0)
(-0.828746 0.19892 0)
(-1.37653 -0.381715 0)
(-1.60187 -0.354515 0)
(-1.10232 0.0175391 0)
(-0.576827 0.291553 0)
(0.253491 0.318212 0)
(1.03076 0.155735 0)
(1.64431 -0.0485519 0)
(2.01282 -0.199798 0)
(2.17182 -0.271684 0)
(2.1627 -0.295106 0)
(2.06598 -0.318086 0)
(1.92534 -0.340744 0)
(1.83502 -0.347967 0)
(1.71581 -0.295507 0)
(1.68436 -0.256564 0)
(1.54353 -0.150455 0)
(0.00871287 0.274736 0)
(0.274598 -0.128882 0)
(-0.0620899 0.233919 0)
(-0.557363 0.261943 0)
(-1.00593 -0.333546 0)
(-1.30795 -0.36903 0)
(-0.869791 -0.042438 0)
(-0.377285 0.211028 0)
(0.471328 0.225091 0)
(1.21796 0.0780996 0)
(1.78234 -0.101324 0)
(2.10029 -0.227054 0)
(2.22388 -0.278496 0)
(2.2011 -0.288325 0)
(2.10201 -0.30433 0)
(1.95691 -0.327105 0)
(1.85798 -0.335875 0)
(1.73051 -0.286521 0)
(1.69494 -0.24668 0)
(1.55096 -0.142449 0)
(0.339793 0.0356111 0)
(0.56323 -0.194611 0)
(0.161119 0.248444 0)
(-0.226378 0.304465 0)
(-0.573817 -0.287791 0)
(-0.906663 -0.373312 0)
(-0.576086 -0.0907826 0)
(-0.107093 0.135714 0)
(0.712155 0.135029 0)
(1.41265 0.00519925 0)
(1.92079 -0.148148 0)
(2.18549 -0.249359 0)
(2.27272 -0.282363 0)
(2.23779 -0.280315 0)
(2.1395 -0.289912 0)
(1.9922 -0.312343 0)
(1.88456 -0.322676 0)
(1.74742 -0.276718 0)
(1.70642 -0.236425 0)
(1.55854 -0.134262 0)
(1.66072 0.509221 0)
(1.53034 0.105579 0)
(0.587772 0.45473 0)
(0.544026 0.415971 0)
(0.444237 -0.20013 0)
(0.0696051 -0.392239 0)
(0.207834 -0.201596 0)
(0.611065 -0.0303762 0)
(1.27591 -0.0505857 0)
(1.84007 -0.139418 0)
(2.21558 -0.235002 0)
(2.36352 -0.287084 0)
(2.37176 -0.285905 0)
(2.31359 -0.26155 0)
(2.22365 -0.25798 0)
(2.07662 -0.277959 0)
(1.95036 -0.290987 0)
(1.78932 -0.252943 0)
(1.73353 -0.21301 0)
(1.57539 -0.11609 0)
(2.88896 0.146637 0)
(3.21053 0.0626154 0)
(2.32288 0.429298 0)
(2.23092 0.314099 0)
(2.36707 -0.151383 0)
(1.91248 -0.283844 0)
(1.72018 -0.249578 0)
(1.86426 -0.196534 0)
(2.19524 -0.23948 0)
(2.46628 -0.284925 0)
(2.6097 -0.302552 0)
(2.58707 -0.28986 0)
(2.4844 -0.263876 0)
(2.40651 -0.23713 0)
(2.36375 -0.222352 0)
(2.2481 -0.227254 0)
(2.09778 -0.231769 0)
(1.88489 -0.202943 0)
(1.7889 -0.166665 0)
(1.60387 -0.08338 0)
(3.00746 0.604608 0)
(3.26927 0.351551 0)
(2.94734 0.731213 0)
(3.10035 0.48074 0)
(3.11778 -0.0224401 0)
(2.80446 -0.146244 0)
(2.68896 -0.178841 0)
(2.74525 -0.212705 0)
(2.82828 -0.263843 0)
(2.81762 -0.285692 0)
(2.76403 -0.268007 0)
(2.68445 -0.228892 0)
(2.57386 -0.207263 0)
(2.48624 -0.204906 0)
(2.47093 -0.190726 0)
(2.4054 -0.172558 0)
(2.26447 -0.156977 0)
(2.00796 -0.136615 0)
(1.86054 -0.109722 0)
(1.63553 -0.0466586 0)
(3.14749 0.276525 0)
(3.28431 0.120772 0)
(3.17321 0.489267 0)
(3.44249 0.305098 0)
(3.44435 -0.0361259 0)
(3.2321 -0.148838 0)
(3.15606 -0.217026 0)
(3.10637 -0.261847 0)
(3.04147 -0.275596 0)
(2.94 -0.273414 0)
(2.82765 -0.262812 0)
(2.77277 -0.225781 0)
(2.72156 -0.196504 0)
(2.58806 -0.205988 0)
(2.45954 -0.199927 0)
(2.35098 -0.152355 0)
(2.25776 -0.0833067 0)
(2.04542 -0.0451486 0)
(1.90647 -0.0238106 0)
(1.66185 0.00362297 0)
(3.24314 0.483339 0)
(3.23711 0.315036 0)
(3.20183 0.548305 0)
(3.48869 0.384632 0)
(3.49188 0.0800095 0)
(3.32557 -0.0589096 0)
(3.25727 -0.135599 0)
(3.18289 -0.18112 0)
(3.07504 -0.198061 0)
(2.98957 -0.192769 0)
(2.86833 -0.190815 0)
(2.74222 -0.176165 0)
(2.67087 -0.124866 0)
(2.54103 -0.0919138 0)
(2.32713 -0.0932488 0)
(2.1049 -0.0942476 0)
(1.99072 -0.046772 0)
(1.85608 -0.00430528 0)
(1.81183 0.0327912 0)
(1.63309 0.0460846 0)
(3.22797 0.342265 0)
(3.24388 0.196606 0)
(3.23759 0.377057 0)
(3.45194 0.268396 0)
(3.50139 0.054339 0)
(3.36691 -0.0652313 0)
(3.26633 -0.159819 0)
(3.21845 -0.198275 0)
(3.10514 -0.206516 0)
(3.00392 -0.200399 0)
(2.93887 -0.174645 0)
(2.81981 -0.155131 0)
(2.71523 -0.126806 0)
(2.63683 -0.082458 0)
(2.48411 -0.0364675 0)
(2.2347 -0.0163382 0)
(2.04349 0.0144909 0)
(1.86539 0.0277736 0)
(1.80666 0.062399 0)
(1.62984 0.073871 0)
(3.23787 0.379082 0)
(3.2542 0.281628 0)
(3.22852 0.386827 0)
(3.39311 0.282837 0)
(3.46673 0.113875 0)
(3.39164 0.0123086 0)
(3.27434 -0.0892906 0)
(3.19801 -0.135405 0)