x,y,z,U_0,U_1,U_2
0,0,0,3.00005,-0.0054006,0
0,0.1,0,3.00003,-0.00324036,0
0,0.2,0,3.00001,-0.00108012,0
0,0.3,0,3,0,0
0,0.4,0,3,0,0
0,0.5,0,3,0,0
0,0.6,0,3,0,0
0,0.7,0,3,0,0
0,0.8,0,3,0,0
0,0.9,0,3,0,0
0,1,0,3,0,0
0,1.1,0,3,0,0
0,1.2,0,3,0,0
0,1.3,0,3,0,0
0,1.4,0,3,0,0
0,1.5,0,3,0,0
0,1.6,0,3,0,0
0,1.7,0,3,0,0
0,1.8,0,3,0,0
0,1.9,0,3,0,0
0,2,0,3,0,0
0,2.1,0,3,0,0
0,2.2,0,3,0,0
0,2.3,0,3,0,0
0,2.4,0,3,0,0
0,2.5,0,3,0,0
0,2.6,0,3,0,0
0,2.7,0,3,0,0
0,2.8,0,3,0,0
0,2.9,0,3,0,0
0,3,0,3,0,0
0,3.1,0,3,0,0
0,3.2,0,3,0,0
0,3.3,0,3,0,0
0,3.4,0,3,0,0
0,3.5,0,3,0,0
0,3.6,0,3,0,0
0,3.7,0,3,0,0
0,3.8,0,3,0,0
0,3.9,0,3,0,0
0,4,0,3,0,0
0,4.1,0,3,0,0
0,4.2,0,3,0,0
0,4.3,0,3,0,0
0,4.4,0,3,0,0
0,4.5,0,3,0,0
0,4.6,0,3,0,0
0,4.7,0,3,0,0
0,4.8,0,3,0,0
0,4.9,0,3,0,0
0,5,0,3,0,0
0,5.1,0,3,0,0
0,5.2,0,3,0,0
0,5.3,0,3,0,0
0,5.4,0,3,0,0
0,5.5,0,3,0,0
0,5.6,0,3,0,0
0,5.7,0,3,0,0
0,5.8,0,3,0,0
0,5.9,0,3,0,0
0,6,0,3,0,0
0,6.1,0,3,0,0
0,6.2,0,3,0,0
0,6.3,0,3,0,0
0,6.4,0,3,0,0
0,6.5,0,3,0,0
0,6.6,0,3,0,0
0,6.7,0,3,0,0
0,6.8,0,3,0,0
0,6.9,0,3,0,0
0,7,0,3,0,0
0,7.1,0,3,0,0
0,7.2,0,3,0,0
0,7.3,0,3,0,0
0,7.4,0,3,0,0
0,7.5,0,3,0,0
0,7.6,0,3,0,0
0,7.7,0,3,0,0
0,7.8,0,3,0,0
0,7.9,0,3,0,0
0,8,0,3,0,0
0,8.1,0,3,0,0
0,8.2,0,3,0,0
0,8.3,0,3,0,0
0,8.4,0,3,0,0
0,8.5,0,3,0,0
0,8.6,0,3,0,0
0,8.7,0,3,0,0
0,8.8,0,3,0,0
0,8.9,0,3,0,0
0,9,0,3,0,0
0,9.1,0,3,0,0
0,9.2,0,3,0,0
0,9.3,0,3,0,0
0,9.4,0,3,0,0
0,9.5,0,3,0,0
0,9.6,0,3,0,0
0,9.7,0,3,0,0
0,9.8,0,3,0,0
0,9.9,0,3,0,0
0,10,0,3,0,0
0,10.1,0,3,0,0
0,10.2,0,3,0,0
0,10.3,0,3,0,0
0,10.4,0,3,0,0
0,10.5,0,3,0,0
0,10.6,0,3,0,0
0,10.7,0,3,0,0
0,10.8,0,3,0,0
0,10.9,0,3,0,0
0,11,0,3,0,0
0,11.1,0,3,0,0
0,11.2,0,3,0,0
0,11.3,0,3,0,0
0,11.4,0,3,0,0
0,11.5,0,3,0,0
0,11.6,0,3,0,0
0,11.7,0,3,0,0
0,11.8,0,3,0,0
0,11.9,0,3,0,0
0,12,0,3,0,0
0,12.1,0,3,0,0
0,12.2,0,3,0,0
0,12.3,0,3,0,0
0,12.4,0,3,0,0
0,12.5,0,3,0.00152564,0
0,12.6,0,3,0.00332052,0
0,12.7,0,2.99999,0.00511539,0
0.1,0,0,3.00004,-0.012086,0
0.1,0.1,0,3.0001,-0.00972108,0
0.1,0.2,0,3.00004,-0.00873884,0
0.1,0.3,0,3.00008,-0.00867768,0
0.1,0.4,0,3.00017,-0.00851864,0
0.1,0.5,0,2.99997,-0.00880781,0
0.1,0.6,0,3.00019,-0.00827488,0
0.1,0.7,0,3.00006,-0.00852682,0
0.1,0.8,0,3.00005,-0.00829083,0
0.1,0.9,0,3.00017,-0.00780291,0
0.1,1,0,2.99992,-0.0087856,0
0.1,1.1,0,3.00026,-0.00717517,0
0.1,1.2,0,3.00008,-0.00799622,0
0.1,1.3,0,3.00023,-0.00759074,0
0.1,1.4,0,3.00055,-0.00636422,0
0.1,1.5,0,2.99987,-0.0088487,0
0.1,1.6,0,3.00104,-0.00522971,0
0.1,1.7,0,3.00043,-0.00706603,0
0.1,1.8,0,3.00086,-0.00634636,0
0.1,1.9,0,3.0019,-0.00379038,0
0.1,2,0,2.9998,-0.00899672,0
0.1,2.1,0,3.00356,-0.00221635,0
0.1,2.2,0,3.00166,-0.00565779,0
0.1,2.3,0,3.00303,-0.00486376,0
0.1,2.4,0,3.0063,-0.000628306,0
0.1,2.5,0,2.99966,-0.00916169,0
0.1,2.6,0,3.01012,0.000874872,0
0.1,2.7,0,3.0048,-0.00412974,0
0.1,2.8,0,3.0071,-0.00353962,0
0.1,2.9,0,3.01471,0.00205513,0
0.1,3,0,2.99924,-0.00896063,0
0.1,3.1,0,3.01957,0.00273918,0
0.1,3.2,0,3.00925,-0.00292339,0
0.1,3.3,0,3.01158,-0.00268731,0
0.1,3.4,0,3.02424,0.00321133,0
0.1,3.5,0,2.99853,-0.00804328,0
0.1,3.6,0,3.02799,0.00465464,0
0.1,3.7,0,3.01303,-0.00146212,0
0.1,3.8,0,3.01371,0.000897845,0
0.1,3.9,0,3.02934,0.00937456,0
0.1,4,0,2.99773,-0.0074832,0
0.1,4.1,0,3.027,0.0186693,0
0.1,4.2,0,3.01235,0.00543847,0
0.1,4.3,0,3.01108,0.0112715,0
0.1,4.4,0,3.02446,0.0303353,0
0.1,4.5,0,2.99795,-0.00821019,0
0.1,4.6,0,3.03118,0.0412656,0
0.1,4.7,0,3.01469,0.0165309,0
0.1,4.8,0,3.02458,0.0195481,0
0.1,4.9,0,3.05097,0.0473001,0
0.1,5,0,2.99846,-0.0076235,0
0.1,5.1,0,2.99885,-0.0069128,0
0.1,5.2,0,2.99911,-0.00647084,0
0.1,5.3,0,2.99915,-0.00594061,0
0.1,5.4,0,2.99889,-0.00533385,0
0.1,5.5,0,2.9985,-0.0047021,0
0.1,5.6,0,2.9983,-0.00411147,0
0.1,5.7,0,2.99857,-0.00360237,0
0.1,5.8,0,2.9993,-0.00316423,0
0.1,5.9,0,3.00025,-0.00274512,0
0.1,6,0,3.00112,-0.00228816,0
0.1,6.1,0,3.00176,-0.00176273,0
0.1,6.2,0,3.00219,-0.00116945,0
0.1,6.3,0,3.00247,-0.00052693,0
0.1,6.4,0,3.00265,0.000141411,0
0.1,6.5,0,3.00277,0.000813074,0
0.1,6.6,0,3.00283,0.00146667,0
0.1,6.7,0,3.00288,0.00207858,0
0.1,6.8,0,3.00294,0.00262036,0
0.1,6.9,0,3.00298,0.00303193,0
0.1,7,0,3.00213,0.00378668,0
0.1,7.1,0,3.08273,-0.0299418,0
0.1,7.2,0,3.07031,-0.0244859,0
0.1,7.3,0,3.01955,-0.00297641,0
0.1,7.4,0,3.14313,-0.0579034,0
0.1,7.5,0,3.08794,-0.0326811,0
0.1,7.6,0,3.03299,-0.0143308,0
0.1,7.7,0,3.12495,-0.0753039,0
0.1,7.8,0,3.06012,-0.0313891,0
0.1,7.9,0,3.03524,-0.0304922,0
0.1,8,0,3.08976,-0.091888,0
0.1,8.1,0,3.03062,-0.0251435,0
0.1,8.2,0,3.0315,-0.0423607,0
0.1,8.3,0,3.06106,-0.0903264,0
0.1,8.4,0,3.01147,-0.011152,0
0.1,8.5,0,3.02592,-0.0476328,0
0.1,8.6,0,3.03914,-0.0750563,0
0.1,8.7,0,3.00079,0.00272511,0
0.1,8.8,0,3.01923,-0.0454427,0
0.1,8.9,0,3.02047,-0.0486708,0
0.1,9,0,2.99777,0.00749403,0
0.1,9.1,0,3.01332,-0.0382843,0
0.1,9.2,0,3.00958,-0.0270005,0
0.1,9.3,0,2.99939,0.00298044,0
0.1,9.4,0,3.00835,-0.0264578,0
0.1,9.5,0,3.00397,-0.0112414,0
0.1,9.6,0,3.00016,0.00186079,0
0.1,9.7,0,3.00472,-0.0141263,0
0.1,9.8,0,3.00138,-0.00124401,0
0.1,9.9,0,3.00056,0.00252951,0
0.1,10,0,3.00286,-0.0055227,0
0.1,10.1,0,3.00036,0.00443071,0
0.1,10.2,0,3.00077,0.00380144,0
0.1,10.3,0,3.00191,2.8093e-06,0
0.1,10.4,0,3.00001,0.00736248,0
0.1,10.5,0,3.00071,0.00496273,0
0.1,10.6,0,3.00108,0.00372912,0
0.1,10.7,0,2.99987,0.00874909,0
0.1,10.8,0,3.00045,0.00582481,0
0.1,10.9,0,3.00043,0.00599811,0
0.1,11,0,2.99993,0.00879433,0
0.1,11.1,0,3.00018,0.0064432,0
0.1,11.2,0,3.0001,0.00726608,0
0.1,11.3,0,2.99997,0.00862309,0
0.1,11.4,0,3.0001,0.00717658,0
0.1,11.5,0,3.00003,0.00805609,0
0.1,11.6,0,3.00008,0.00855859,0
0.1,11.7,0,3.00031,0.00768032,0
0.1,11.8,0,3.00011,0.00850703,0
0.1,11.9,0,3.00016,0.00852725,0
0.1,12,0,3.00034,0.00797058,0
0.1,12.1,0,3.00008,0.00876552,0
0.1,12.2,0,3.00006,0.00841035,0
0.1,12.3,0,3.0001,0.00800864,0
0.1,12.4,0,3,0.00892796,0
0.1,12.5,0,2.99999,0.00838262,0
0.1,12.6,0,2.99999,0.00953991,0
0.1,12.7,0,2.99997,0.012167,0
0.2,0,0,3.00002,-0.0187714,0
0.2,0.1,0,3.00005,-0.0175845,0
0.2,0.2,0,3.00004,-0.0175756,0
0.2,0.3,0,3.00008,-0.0175144,0
0.2,0.4,0,3.00005,-0.0174855,0
0.2,0.5,0,2.99994,-0.0176156,0
0.2,0.6,0,3.00003,-0.0173346,0
0.2,0.7,0,2.99999,-0.0173056,0
0.2,0.8,0,2.99998,-0.0170696,0
0.2,0.9,0,2.99997,-0.0170764,0
0.2,1,0,2.99984,-0.0175712,0
0.2,1.1,0,3,-0.0167818,0
0.2,1.2,0,2.99999,-0.0168135,0
0.2,1.3,0,3.00013,-0.016408,0
0.2,1.4,0,3.00009,-0.0164394,0
0.2,1.5,0,2.99973,-0.0176974,0
0.2,1.6,0,3.0003,-0.0159147,0
0.2,1.7,0,3.00025,-0.0159684,0
0.2,1.8,0,3.00068,-0.0152487,0
0.2,1.9,0,3.00066,-0.0153431,0
0.2,2,0,2.9996,-0.0179934,0
0.2,2.1,0,3.00146,-0.0146545,0
0.2,2.2,0,3.00142,-0.014757,0
0.2,2.3,0,3.00279,-0.013963,0
0.2,2.4,0,3.00269,-0.0140255,0
0.2,2.5,0,2.99933,-0.0183234,0
0.2,2.6,0,3.00446,-0.0132914,0
0.2,2.7,0,3.00428,-0.0132641,0
0.2,2.8,0,3.00658,-0.012674,0
0.2,2.9,0,3.00633,-0.0125002,0
0.2,3,0,2.99847,-0.0179213,0
0.2,3.1,0,3.00848,-0.011884,0
0.2,3.2,0,3.00817,-0.0115093,0
0.2,3.3,0,3.01051,-0.0112733,0
0.2,3.4,0,3.01011,-0.0107306,0
0.2,3.5,0,2.99705,-0.0160866,0
0.2,3.6,0,3.01156,-0.0095054,0
0.2,3.7,0,3.01111,-0.00904099,0
0.2,3.8,0,3.01179,-0.00668103,0
0.2,3.9,0,3.01144,-0.00658536,0
0.2,4,0,2.99547,-0.0149664,0
0.2,4.1,0,3.01009,-0.00204473,0
0.2,4.2,0,3.01006,-0.00235386,0
0.2,4.3,0,3.00878,0.00347914,0
0.2,4.4,0,3.00903,0.00306128,0
0.2,4.5,0,2.9959,-0.0164204,0
0.2,4.6,0,3.01263,0.00832067,0
0.2,4.7,0,3.01288,0.00832699,0
0.2,4.8,0,3.02278,0.0113442,0
0.2,4.9,0,3.02304,0.0119246,0
0.2,5,0,2.99691,-0.015247,0
0.2,5.1,0,2.99769,-0.0138256,0
0.2,5.2,0,2.99823,-0.0129417,0
0.2,5.3,0,2.9983,-0.0118812,0
0.2,5.4,0,2.99778,-0.0106677,0
0.2,5.5,0,2.99699,-0.0094042,0
0.2,5.6,0,2.9966,-0.00822294,0
0.2,5.7,0,2.99713,-0.00720474,0
0.2,5.8,0,2.99861,-0.00632846,0
0.2,5.9,0,3.0005,-0.00549024,0
0.2,6,0,3.00223,-0.00457632,0
0.2,6.1,0,3.00352,-0.00352546,0
0.2,6.2,0,3.00438,-0.0023389,0
0.2,6.3,0,3.00494,-0.00105386,0
0.2,6.4,0,3.00531,0.000282822,0
0.2,6.5,0,3.00553,0.00162615,0
0.2,6.6,0,3.00566,0.00293335,0
0.2,6.7,0,3.00576,0.00415715,0
0.2,6.8,0,3.00588,0.00524072,0
0.2,6.9,0,3.00596,0.00606386,0
0.2,7,0,3.00425,0.00757337,0
0.2,7.1,0,3.04971,-0.0110638,0
0.2,7.2,0,3.04857,-0.0096961,0
0.2,7.3,0,3.02037,0.00236944,0
0.2,7.4,0,3.07246,-0.0198648,0
0.2,7.5,0,3.07187,-0.0180232,0
0.2,7.6,0,3.03314,-0.00688553,0
0.2,7.7,0,3.0624,-0.0251372,0
0.2,7.8,0,3.0598,-0.0218406,0
0.2,7.9,0,3.03492,-0.0209437,0
0.2,8,0,3.04361,-0.0305513,0
0.2,8.1,0,3.02928,-0.0142089,0
0.2,8.2,0,3.02849,-0.0287573,0
0.2,8.3,0,3.02751,-0.0286227,0
0.2,8.4,0,3.00902,-6.4089e-05,0
0.2,8.5,0,3.01656,-0.0225442,0
0.2,8.6,0,3.01604,-0.0230571,0
0.2,8.7,0,2.99774,0.0132284,0
0.2,8.8,0,3.00802,-0.0146344,0
0.2,8.9,0,3.00806,-0.0152663,0
0.2,9,0,2.99476,0.017277,0
0.2,9.1,0,3.00305,-0.00675475,0
0.2,9.2,0,3.00348,-0.00722761,0
0.2,9.3,0,2.99687,0.0122243,0
0.2,9.4,0,3.00076,0.000471049,0
0.2,9.5,0,3.00135,0.000207707,0
0.2,9.6,0,2.99831,0.0108045,0
0.2,9.7,0,3,0.00626794,0
0.2,9.8,0,3.00014,0.0075763,0
0.2,9.9,0,2.99933,0.0113498,0
0.2,10,0,2.99997,0.0104855,0
0.2,10.1,0,2.99961,0.0132712,0
0.2,10.2,0,2.99986,0.0132682,0
0.2,10.3,0,3.00017,0.0133454,0
0.2,10.4,0,2.99961,0.0162908,0
0.2,10.5,0,3.00004,0.0150457,0
0.2,10.6,0,3.00022,0.0151086,0
0.2,10.7,0,2.99968,0.0177492,0
0.2,10.8,0,3.00003,0.0161048,0
0.2,10.9,0,3.00011,0.0161305,0
0.2,11,0,2.99983,0.0178238,0
0.2,11.1,0,2.99996,0.0167187,0
0.2,11.2,0,2.99999,0.0167187,0
0.2,11.3,0,2.9999,0.0176525,0
0.2,11.4,0,2.99996,0.0171347,0
0.2,11.5,0,2.99999,0.0171382,0
0.2,11.6,0,3.00004,0.0175919,0
0.2,11.7,0,3.00011,0.0173995,0
0.2,11.8,0,3.0001,0.0175532,0
0.2,11.9,0,3.00014,0.0175734,0
0.2,12,0,3.00015,0.0175574,0
0.2,12.1,0,3.00007,0.0178149,0
0.2,12.2,0,3.00003,0.0175805,0
0.2,12.3,0,3.00002,0.0175961,0
0.2,12.4,0,2.99998,0.0179952,0
0.2,12.5,0,2.99996,0.0176829,0
0.2,12.6,0,2.99996,0.0177096,0
0.2,12.7,0,2.99995,0.0192186,0
0.3,0,0,2.99999,-0.0265625,0
0.3,0.1,0,2.99997,-0.0266347,0
0.3,0.2,0,2.99996,-0.0266258,0
0.3,0.3,0,2.9999,-0.0266514,0
0.3,0.4,0,2.99987,-0.0266225,0
0.3,0.5,0,2.99987,-0.0264903,0
0.3,0.6,0,2.99973,-0.0266353,0
0.3,0.7,0,2.99969,-0.0266063,0
0.3,0.8,0,2.99965,-0.0268061,0
0.3,0.9,0,2.99964,-0.0268129,0
0.3,1,0,2.99976,-0.0265153,0
0.3,1.1,0,2.99958,-0.0272096,0
0.3,1.2,0,2.99957,-0.0272413,0
0.3,1.3,0,2.99937,-0.0277099,0
0.3,1.4,0,2.99933,-0.0277413,0
0.3,1.5,0,2.99956,-0.0266763,0
0.3,1.6,0,2.99893,-0.0284137,0
0.3,1.7,0,2.99889,-0.0284674,0
0.3,1.8,0,2.99839,-0.029339,0
0.3,1.9,0,2.99837,-0.0294334,0
0.3,2,0,2.99937,-0.0270325,0
0.3,2.1,0,2.99749,-0.0305444,0
0.3,2.2,0,2.99745,-0.0306469,0
0.3,2.3,0,2.99596,-0.0316254,0
0.3,2.4,0,2.99586,-0.0316878,0
0.3,2.5,0,2.99908,-0.0273262,0
0.3,2.6,0,2.99353,-0.0325224,0
0.3,2.7,0,2.99335,-0.0324951,0
0.3,2.8,0,2.99061,-0.0329105,0
0.3,2.9,0,2.99037,-0.0327367,0
0.3,3,0,2.99845,-0.026698,0
0.3,3.1,0,2.98711,-0.0322844,0
0.3,3.2,0,2.9868,-0.0319097,0
0.3,3.3,0,2.98377,-0.0311673,0
0.3,3.4,0,2.98337,-0.0306246,0
0.3,3.5,0,2.99699,-0.024307,0
0.3,3.6,0,2.98017,-0.0296505,0
0.3,3.7,0,2.97972,-0.0291861,0
0.3,3.8,0,2.97815,-0.0308806,0
0.3,3.9,0,2.9778,-0.0307849,0
0.3,4,0,2.99428,-0.0224807,0
0.3,4.1,0,2.97831,-0.0358218,0
0.3,4.2,0,2.97828,-0.0361309,0
0.3,4.3,0,2.97992,-0.0429177,0
0.3,4.4,0,2.98016,-0.0433355,0
0.3,4.5,0,2.99423,-0.0229118,0
0.3,4.6,0,2.97766,-0.0497242,0
0.3,4.7,0,2.97791,-0.0497178,0
0.3,4.8,0,2.96839,-0.0519921,0
0.3,4.9,0,2.96865,-0.0514117,0
0.3,5,0,2.99647,-0.0200464,0
0.3,5.1,0,2.99766,-0.0180511,0
0.3,5.2,0,2.99834,-0.0168192,0
0.3,5.3,0,2.99847,-0.0153871,0
0.3,5.4,0,2.99805,-0.0137725,0
0.3,5.5,0,2.99747,-0.0120858,0
0.3,5.6,0,2.9974,-0.0104842,0
0.3,5.7,0,2.99827,-0.00907659,0
0.3,5.8,0,2.99999,-0.007855,0
0.3,5.9,0,3.00196,-0.00670276,0
0.3,6,0,3.00363,-0.00547621,0
0.3,6.1,0,3.0048,-0.00408802,0
0.3,6.2,0,3.00556,-0.00252973,0
0.3,6.3,0,3.00605,-0.00084265,0
0.3,6.4,0,3.0064,0.000916637,0
0.3,6.5,0,3.00664,0.00269292,0
0.3,6.6,0,3.00682,0.00443472,0
0.3,6.7,0,3.00702,0.00608722,0
0.3,6.8,0,3.00733,0.00758765,0
0.3,6.9,0,3.00773,0.00880418,0
0.3,7,0,3.00689,0.010763,0
0.3,7.1,0,2.95851,0.0322223,0
0.3,7.2,0,2.95737,0.03359,0
0.3,7.3,0,2.98525,0.0237037,0
0.3,7.4,0,2.92981,0.0507997,0
0.3,7.5,0,2.92922,0.0526413,0
0.3,7.6,0,2.9688,0.0437659,0
0.3,7.7,0,2.93756,0.0671867,0
0.3,7.8,0,2.9394,0.0674261,0
0.3,7.9,0,2.96328,0.0694086,0
0.3,8,0,2.95246,0.0825107,0
0.3,8.1,0,2.96527,0.0670367,0
0.3,8.2,0,2.96347,0.0841335,0
0.3,8.3,0,2.96249,0.0842681,0
0.3,8.4,0,2.97967,0.0535705,0
0.3,8.5,0,2.97003,0.0774108,0
0.3,8.6,0,2.96951,0.0768979,0
0.3,8.7,0,2.98783,0.0372459,0
0.3,8.8,0,2.97652,0.0659528,0
0.3,8.9,0,2.97656,0.0653209,0
0.3,9,0,2.99091,0.0301297,0
0.3,9.1,0,2.98264,0.0545559,0
0.3,9.2,0,2.98307,0.054083,0
0.3,9.3,0,2.99103,0.033294,0
0.3,9.4,0,2.98802,0.0449982,0
0.3,9.5,0,2.9886,0.0447348,0
0.3,9.6,0,2.99289,0.0336318,0
0.3,9.7,0,2.99226,0.0380996,0
0.3,9.8,0,2.99319,0.0365476,0
0.3,9.9,0,2.99498,0.0326604,0
0.3,10,0,2.99521,0.0335841,0
0.3,10.1,0,2.99634,0.0307505,0
0.3,10.2,0,2.99687,0.0310514,0
0.3,10.3,0,2.99718,0.0311285,0
0.3,10.4,0,2.99818,0.0280717,0
0.3,10.5,0,2.99834,0.0296959,0
0.3,10.6,0,2.99852,0.0297588,0
0.3,10.7,0,2.99922,0.0268139,0
0.3,10.8,0,2.99922,0.0289878,0
0.3,10.9,0,2.9993,0.0290136,0
0.3,11,0,2.99961,0.0268805,0
0.3,11.1,0,2.99961,0.0284146,0
0.3,11.2,0,2.99964,0.0284145,0
0.3,11.3,0,2.99974,0.0271606,0
0.3,11.4,0,2.99974,0.0280309,0
0.3,11.5,0,2.99977,0.0280343,0
0.3,11.6,0,2.99976,0.0273638,0
0.3,11.7,0,2.99974,0.0277798,0
0.3,11.8,0,2.9998,0.0274896,0
0.3,11.9,0,2.9998,0.027661,0
0.3,12,0,2.9998,0.0277109,0
0.3,12.1,0,2.99988,0.0270456,0
0.3,12.2,0,2.99991,0.0276454,0
0.3,12.3,0,2.9999,0.027661,0
0.3,12.4,0,2.99992,0.0266344,0
0.3,12.5,0,2.99992,0.0277293,0
0.3,12.6,0,2.99992,0.0277561,0
0.3,12.7,0,2.99992,0.0262816,0
0.4,0,0,2.99994,-0.0354593,0
0.4,0.1,0,2.99991,-0.0356128,0
0.4,0.2,0,2.99988,-0.0355264,0
0.4,0.3,0,2.99982,-0.0355519,0
0.4,0.4,0,2.99973,-0.0356673,0
0.4,0.5,0,2.99977,-0.0354317,0
0.4,0.6,0,2.99953,-0.035751,0
0.4,0.7,0,2.99962,-0.0356394,0
0.4,0.8,0,2.99958,-0.0358392,0
0.4,0.9,0,2.99942,-0.03622,0
0.4,1,0,2.99968,-0.0356178,0
0.4,1.1,0,2.99934,-0.0369749,0
0.4,1.2,0,2.99942,-0.03635,0
0.4,1.3,0,2.99922,-0.0368186,0
0.4,1.4,0,2.99884,-0.0379469,0
0.4,1.5,0,2.99934,-0.0357853,0
0.4,1.6,0,2.99814,-0.0392066,0
0.4,1.7,0,2.99865,-0.0375893,0
0.4,1.8,0,2.99816,-0.0384609,0
0.4,1.9,0,2.99709,-0.0410101,0
0.4,2,0,2.99911,-0.036114,0
0.4,2.1,0,2.99538,-0.0430352,0
0.4,2.2,0,2.99718,-0.0396203,0
0.4,2.3,0,2.99569,-0.0405987,0
0.4,2.4,0,2.99239,-0.0449559,0
0.4,2.5,0,2.99893,-0.0361702,0
0.4,2.6,0,2.98801,-0.0465899,0
0.4,2.7,0,2.99355,-0.0412105,0
0.4,2.8,0,2.99081,-0.0416259,0
0.4,2.9,0,2.98276,-0.0471946,0
0.4,3,0,2.99918,-0.0352908,0
0.4,3.1,0,2.97681,-0.0468382,0
0.4,3.2,0,2.98802,-0.0403931,0
0.4,3.3,0,2.98498,-0.0396507,0
0.4,3.4,0,2.9707,-0.0447971,0
0.4,3.5,0,2.99834,-0.0327047,0
0.4,3.6,0,2.96515,-0.0438561,0
0.4,3.7,0,2.98059,-0.0373765,0
0.4,3.8,0,2.97901,-0.039071,0
0.4,3.9,0,2.96088,-0.0465389,0
0.4,4,0,2.99417,-0.0300261,0
0.4,4.1,0,2.96227,-0.0563992,0
0.4,4.2,0,2.97726,-0.0424657,0
0.4,4.3,0,2.97889,-0.0492525,0
0.4,4.4,0,2.96505,-0.0689497,0
0.4,4.5,0,2.99295,-0.0276844,0
0.4,4.6,0,2.95957,-0.0813155,0
0.4,4.7,0,2.97749,-0.0528164,0
0.4,4.8,0,2.96797,-0.0550907,0
0.4,4.9,0,2.94175,-0.084172,0
0.4,5,0,2.99712,-0.0220218,0
0.4,5.1,0,2.99875,-0.0195893,0
0.4,5.2,0,2.99944,-0.0181034,0
0.4,5.3,0,2.99967,-0.0164583,0
0.4,5.4,0,2.99969,-0.0146481,0
0.4,5.5,0,2.99993,-0.0127469,0
0.4,5.6,0,3.00069,-0.0108952,0
0.4,5.7,0,3.00199,-0.00921792,0
0.4,5.8,0,3.00345,-0.00774385,0
0.4,5.9,0,3.00462,-0.00638267,0
0.4,6,0,3.0053,-0.00498783,0
0.4,6.1,0,3.0056,-0.00345041,0
0.4,6.2,0,3.00572,-0.00174195,0
0.4,6.3,0,3.00581,0.0001067,0
0.4,6.4,0,3.00592,0.00204286,0
0.4,6.5,0,3.00608,0.00401338,0
0.4,6.6,0,3.00631,0.00597079,0
0.4,6.7,0,3.00668,0.00786877,0
0.4,6.8,0,3.00729,0.00966116,0
0.4,6.9,0,3.00828,0.0112529,0
0.4,7,0,3.01004,0.0133554,0
0.4,7.1,0,2.92602,0.0499717,0
0.4,7.2,0,2.93926,0.0456706,0
0.4,7.3,0,2.99099,0.0257905,0
0.4,7.4,0,2.86111,0.087153,0
0.4,7.5,0,2.91787,0.0618051,0
0.4,7.6,0,2.97441,0.0450176,0
0.4,7.7,0,2.87778,0.113929,0
0.4,7.8,0,2.94279,0.0682598,0
0.4,7.9,0,2.96667,0.0702423,0
0.4,8,0,2.90807,0.140076,0
0.4,8.1,0,2.96634,0.0688694,0
0.4,8.2,0,2.96279,0.0889031,0
0.4,8.3,0,2.9298,0.142611,0
0.4,8.4,0,2.97919,0.0571639,0
0.4,8.5,0,2.96222,0.0962502,0
0.4,8.6,0,2.94708,0.126252,0
0.4,8.7,0,2.98665,0.042464,0
0.4,8.8,0,2.96648,0.0929707,0
0.4,8.9,0,2.96495,0.0965656,0
0.4,9,0,2.98939,0.0367333,0
0.4,9.1,0,2.9731,0.0841432,0
0.4,9.2,0,2.97758,0.072444,0
0.4,9.3,0,2.98936,0.0408302,0
0.4,9.4,0,2.98081,0.0709983,0
0.4,9.5,0,2.98621,0.0553463,0
0.4,9.6,0,2.99127,0.0416925,0
0.4,9.7,0,2.98766,0.058053,0
0.4,9.8,0,2.99183,0.0448065,0
0.4,9.9,0,2.99362,0.0409194,0
0.4,10,0,2.99227,0.0492141,0
0.4,10.1,0,2.99528,0.0389895,0
0.4,10.2,0,2.99569,0.0399614,0
0.4,10.3,0,2.99532,0.0441058,0
0.4,10.4,0,2.99742,0.036216,0
0.4,10.5,0,2.9974,0.0391527,0
0.4,10.6,0,2.99754,0.0405905,0
0.4,10.7,0,2.99872,0.0348691,0
0.4,10.8,0,2.99863,0.0386667,0
0.4,10.9,0,2.99887,0.0384119,0
0.4,11,0,2.99932,0.0348416,0
0.4,11.1,0,2.9993,0.0381055,0
0.4,11.2,0,2.99945,0.0368425,0
0.4,11.3,0,2.99958,0.0349785,0
0.4,11.4,0,2.99956,0.0373764,0
0.4,11.5,0,2.99965,0.0357676,0
0.4,11.6,0,2.99965,0.0350114,0
0.4,11.7,0,2.99952,0.0367499,0
0.4,11.8,0,2.99973,0.0349867,0
0.4,11.9,0,2.99973,0.0351581,0
0.4,12,0,2.99961,0.0365016,0
0.4,12.1,0,2.99984,0.0344064,0
0.4,12.2,0,2.99986,0.0353096,0
0.4,12.3,0,2.99982,0.0362697,0
0.4,12.4,0,2.99989,0.033827,0
0.4,12.5,0,2.99988,0.0356304,0
0.4,12.6,0,2.99988,0.035963,0
0.4,12.7,0,2.99989,0.033356,0
0.5,0,0,2.99989,-0.0443562,0
0.5,0.1,0,2.99986,-0.044351,0
0.5,0.2,0,2.99982,-0.0443457,0
0.5,0.3,0,2.99978,-0.0443491,0
0.5,0.4,0,2.99973,-0.0443612,0
0.5,0.5,0,2.99967,-0.0443732,0
0.5,0.6,0,2.99966,-0.0444358,0
0.5,0.7,0,2.99965,-0.0444984,0
0.5,0.8,0,2.99964,-0.0445679,0
0.5,0.9,0,2.99962,-0.0446441,0
0.5,1,0,2.99961,-0.0447204,0
0.5,1.1,0,2.99952,-0.0447582,0
0.5,1.2,0,2.99944,-0.0447959,0
0.5,1.3,0,2.99934,-0.0448307,0
0.5,1.4,0,2.99924,-0.0448626,0
0.5,1.5,0,2.99913,-0.0448944,0
0.5,1.6,0,2.99907,-0.0449609,0
0.5,1.7,0,2.999,-0.0450274,0
0.5,1.8,0,2.99894,-0.0450876,0
0.5,1.9,0,2.99889,-0.0451416,0
0.5,2,0,2.99884,-0.0451955,0
0.5,2.1,0,2.99879,-0.0451899,0
0.5,2.2,0,2.99874,-0.0451843,0
0.5,2.3,0,2.99873,-0.045148,0
0.5,2.4,0,2.99876,-0.0450811,0
0.5,2.5,0,2.99878,-0.0450141,0
0.5,2.6,0,2.99895,-0.0448583,0
0.5,2.7,0,2.99912,-0.0447024,0
0.5,2.8,0,2.99935,-0.0444763,0
0.5,2.9,0,2.99963,-0.04418,0
0.5,3,0,2.99991,-0.0438836,0
0.5,3.1,0,3.00009,-0.0433996,0
0.5,3.2,0,3.00026,-0.0429155,0
0.5,3.3,0,3.00022,-0.0423593,0
0.5,3.4,0,2.99995,-0.0417308,0
0.5,3.5,0,2.99968,-0.0411023,0
0.5,3.6,0,2.99875,-0.0404307,0
0.5,3.7,0,2.99782,-0.039759,0
0.5,3.8,0,2.9967,-0.0390529,0
0.5,3.9,0,2.99538,-0.0383122,0
0.5,4,0,2.99407,-0.0375715,0
0.5,4.1,0,2.99312,-0.03667,0
0.5,4.2,0,2.99217,-0.0357686,0
0.5,4.3,0,2.99169,-0.0347457,0
0.5,4.4,0,2.99168,-0.0336013,0
0.5,4.5,0,2.99167,-0.0324569,0
0.5,4.6,0,2.99278,-0.0307766,0
0.5,4.7,0,2.99389,-0.0290963,0
0.5,4.8,0,2.99511,-0.0274043,0
0.5,4.9,0,2.99645,-0.0257007,0
0.5,5,0,2.99778,-0.0239971,0
0.5,5.1,0,2.99984,-0.0211275,0
0.5,5.2,0,3.00055,-0.0193876,0
0.5,5.3,0,3.00088,-0.0175294,0
0.5,5.4,0,3.00134,-0.0155237,0
0.5,5.5,0,3.00238,-0.013408,0
0.5,5.6,0,3.00399,-0.0113063,0
0.5,5.7,0,3.00571,-0.00935925,0
0.5,5.8,0,3.00691,-0.0076327,0
0.5,5.9,0,3.00728,-0.00606258,0
0.5,6,0,3.00697,-0.00449945,0
0.5,6.1,0,3.00639,-0.0028128,0
0.5,6.2,0,3.00588,-0.000954175,0
0.5,6.3,0,3.00556,0.00105605,0
0.5,6.4,0,3.00545,0.00316908,0
0.5,6.5,0,3.00552,0.00533384,0
0.5,6.6,0,3.0058,0.00750685,0
0.5,6.7,0,3.00633,0.00965032,0
0.5,6.8,0,3.00726,0.0117347,0
0.5,6.9,0,3.00884,0.0137016,0
0.5,7,0,3.0132,0.0159479,0
0.5,7.1,0,3.01432,0.016872,0
0.5,7.2,0,3.01544,0.0177962,0
0.5,7.3,0,3.01629,0.018748,0
0.5,7.4,0,3.01559,0.0198571,0
0.5,7.5,0,3.01489,0.0209662,0
0.5,7.6,0,3.01369,0.022186,0
0.5,7.7,0,3.01133,0.0236642,0
0.5,7.8,0,3.00897,0.0251424,0
0.5,7.9,0,3.00636,0.0268969,0
0.5,8,0,3.00342,0.0289891,0
0.5,8.1,0,3.00049,0.0310813,0
0.5,8.2,0,2.99791,0.0329256,0
0.5,8.3,0,2.99558,0.0346046,0
0.5,8.4,0,2.99324,0.0362836,0
0.5,8.5,0,2.99181,0.0373876,0
0.5,8.6,0,2.99067,0.0382998,0
0.5,8.7,0,2.98954,0.0392121,0
0.5,8.8,0,2.98919,0.0398285,0
0.5,8.9,0,2.98893,0.0404121,0
0.5,9,0,2.98869,0.0409837,0
0.5,9.1,0,2.98899,0.0413288,0
0.5,9.2,0,2.98928,0.041674,0
0.5,9.3,0,2.98964,0.0419894,0
0.5,9.4,0,2.99028,0.0421862,0
0.5,9.5,0,2.99091,0.042383,0
0.5,9.6,0,2.99159,0.0425339,0
0.5,9.7,0,2.99236,0.0425996,0
0.5,9.8,0,2.99312,0.0426654,0
0.5,9.9,0,2.99385,0.0426983,0
0.5,10,0,2.99455,0.0426985,0
0.5,10.1,0,2.99525,0.0426986,0
0.5,10.2,0,2.99586,0.0426948,0
0.5,10.3,0,2.99642,0.0426889,0
0.5,10.4,0,2.99698,0.042683,0
0.5,10.5,0,2.99743,0.0426696,0
0.5,10.6,0,2.99784,0.0426542,0
0.5,10.7,0,2.99825,0.0426389,0
0.5,10.8,0,2.99853,0.0425842,0
0.5,10.9,0,2.99879,0.0425274,0
0.5,11,0,2.99905,0.0424637,0
0.5,11.1,0,2.99919,0.0423381,0
0.5,11.2,0,2.99933,0.0422125,0
0.5,11.3,0,2.99945,0.0420818,0
0.5,11.4,0,2.99951,0.0419358,0
0.5,11.5,0,2.99958,0.0417898,0
0.5,11.6,0,2.99964,0.041654,0
0.5,11.7,0,2.9997,0.0415333,0
0.5,11.8,0,2.99976,0.0414125,0
0.5,11.9,0,2.99981,0.041294,0
0.5,12,0,2.99984,0.0411774,0
0.5,12.1,0,2.99988,0.0410607,0
0.5,12.2,0,2.99989,0.0409334,0
0.5,12.3,0,2.99988,0.0408015,0
0.5,12.4,0,2.99987,0.0406696,0
0.5,12.5,0,2.99987,0.0405844,0
0.5,12.6,0,2.99986,0.0405074,0
0.5,12.7,0,2.99986,0.0404304,0
0.6,0,0,2.99988,-0.0530102,0
0.6,0.1,0,2.99987,-0.0530996,0
0.6,0.2,0,2.99983,-0.0530617,0
0.6,0.3,0,2.99976,-0.0530152,0
0.6,0.4,0,2.99969,-0.05301,0
0.6,0.5,0,2.99972,-0.05312,0
0.6,0.6,0,2.99974,-0.0530646,0
0.6,0.7,0,2.99972,-0.0531968,0
0.6,0.8,0,2.99979,-0.0531783,0
0.6,0.9,0,2.99987,-0.053097,0
0.6,1,0,2.99959,-0.0534472,0
0.6,1.1,0,2.99978,-0.0525897,0
0.6,1.2,0,2.99955,-0.0530712,0
0.6,1.3,0,2.99951,-0.0526299,0
0.6,1.4,0,2.9996,-0.0517418,0
0.6,1.5,0,2.99915,-0.053667,0
0.6,1.6,0,2.99995,-0.0506823,0
0.6,1.7,0,2.99946,-0.0522878,0
0.6,1.8,0,2.99988,-0.051582,0
0.6,1.9,0,3.00072,-0.049331,0
0.6,2,0,2.99885,-0.0539737,0
0.6,2.1,0,3.00218,-0.0474058,0
0.6,2.2,0,3.00043,-0.0506737,0
0.6,2.3,0,3.00184,-0.0496229,0
0.6,2.4,0,3.005,-0.0452679,0
0.6,2.5,0,2.99868,-0.0537556,0
0.6,2.6,0,3.00972,-0.0432429,0
0.6,2.7,0,3.00432,-0.04824,0
0.6,2.8,0,3.00757,-0.0473968,0
0.6,2.9,0,3.01645,-0.0413302,0
0.6,3,0,2.99898,-0.0525045,0
0.6,3.1,0,3.02362,-0.0401714,0
0.6,3.2,0,3.01118,-0.04559,0
0.6,3.3,0,3.0143,-0.0451539,0
0.6,3.4,0,3.02982,-0.0387429,0
0.6,3.5,0,2.99727,-0.0496618,0
0.6,3.6,0,3.03307,-0.0370131,0
0.6,3.7,0,3.0136,-0.0422714,0
0.6,3.8,0,3.0126,-0.0392258,0
0.6,3.9,0,3.02994,-0.0302158,0
0.6,4,0,2.99157,-0.0457736,0
0.6,4.1,0,3.02318,-0.0171321,0
0.6,4.2,0,3.00622,-0.0299664,0
0.6,4.3,0,3.00348,-0.0211855,0
0.6,4.4,0,3.01721,0.00145261,0
0.6,4.5,0,2.9897,-0.0401259,0
0.6,4.6,0,3.02484,0.0189848,0
0.6,4.7,0,3.00847,-0.00796951,0
0.6,4.8,0,3.02137,-0.00155715,0
0.6,4.9,0,3.05185,0.0335015,0
0.6,5,0,2.99381,-0.0314076,0
0.6,5.1,0,2.9953,-0.0282409,0
0.6,5.2,0,2.99579,-0.0260912,0
0.6,5.3,0,2.99566,-0.0237487,0
0.6,5.4,0,2.99533,-0.0211948,0
0.6,5.5,0,2.99541,-0.0185163,0
0.6,5.6,0,2.99633,-0.015884,0
0.6,5.7,0,2.99801,-0.0134455,0
0.6,5.8,0,2.99985,-0.0112308,0
0.6,5.9,0,3.00116,-0.00912942,0
0.6,6,0,3.00169,-0.00696913,0
0.6,6.1,0,3.00167,-0.00462386,0
0.6,6.2,0,3.00148,-0.0020603,0
0.6,6.3,0,3.00135,0.00068811,0
0.6,6.4,0,3.00135,0.00356414,0
0.6,6.5,0,3.0015,0.00651128,0
0.6,6.6,0,3.00181,0.00948134,0
0.6,6.7,0,3.00236,0.0124304,0
0.6,6.8,0,3.0033,0.0153135,0
0.6,6.9,0,3.00484,0.0180821,0
0.6,7,0,3.00785,0.0213464,0
0.6,7.1,0,3.10291,-0.0163458,0
0.6,7.2,0,3.08953,-0.00935864,0
0.6,7.3,0,3.03092,0.0155192,0
0.6,7.4,0,3.1727,-0.047333,0
0.6,7.5,0,3.10876,-0.0173013,0
0.6,7.6,0,3.04417,0.00389015,0
0.6,7.7,0,3.14603,-0.067548,0
0.6,7.8,0,3.07139,-0.0142662,0
0.6,7.9,0,3.04105,-0.0117552,0
0.6,8,0,3.09894,-0.0825499,0
0.6,8.1,0,3.0319,-0.00190787,0
0.6,8.2,0,3.03019,-0.0187001,0
0.6,8.3,0,3.05981,-0.0720074,0
0.6,8.4,0,3.00567,0.0204762,0
0.6,8.5,0,3.02004,-0.0191535,0
0.6,8.6,0,3.0331,-0.0491521,0
0.6,8.7,0,2.99208,0.0401139,0
0.6,8.8,0,3.01123,-0.0120498,0
0.6,8.9,0,3.01237,-0.0149083,0
0.6,9,0,2.98862,0.0481276,0
0.6,9.1,0,3.00448,-0.00111091,0
0.6,9.2,0,3.00103,0.0115881,0
0.6,9.3,0,2.99094,0.0447867,0
0.6,9.4,0,2.99945,0.0135644,0
0.6,9.5,0,2.99609,0.0300282,0
0.6,9.6,0,2.99295,0.0442147,0
0.6,9.7,0,2.99707,0.0272548,0
0.6,9.8,0,2.99517,0.0409667,0
0.6,9.9,0,2.9949,0.0448901,0
0.6,10,0,2.99697,0.0362239,0
0.6,10.1,0,2.99602,0.0467025,0
0.6,10.2,0,2.9966,0.0455879,0
0.6,10.3,0,2.99769,0.041245,0
0.6,10.4,0,2.99728,0.0492457,0
0.6,10.5,0,2.99783,0.0462569,0
0.6,10.6,0,2.99835,0.0447498,0
0.6,10.7,0,2.99841,0.050255,0
0.6,10.8,0,2.99867,0.0465129,0
0.6,10.9,0,2.99895,0.0465972,0
0.6,11,0,2.99923,0.0497399,0
0.6,11.1,0,2.99921,0.0466637,0
0.6,11.2,0,2.99942,0.0474888,0
0.6,11.3,0,2.99965,0.0487913,0
0.6,11.4,0,2.99951,0.046431,0
0.6,11.5,0,2.9997,0.047517,0
0.6,11.6,0,2.99987,0.0479409,0
0.6,11.7,0,2.99986,0.0463232,0
0.6,11.8,0,2.99997,0.0474736,0
0.6,11.9,0,3.00009,0.0471082,0
0.6,12,0,3.00016,0.0458373,0
0.6,12.1,0,3.00016,0.0473046,0
0.6,12.2,0,3.00003,0.0463753,0
0.6,12.3,0,2.99994,0.0453838,0
0.6,12.4,0,3.0001,0.0471599,0
0.6,12.5,0,2.99991,0.0453023,0
0.6,12.6,0,2.99986,0.0448569,0
0.6,12.7,0,3.00006,0.0471728,0
0.7,0,0,2.99987,-0.0616642,0
0.7,0.1,0,2.99986,-0.0617209,0
0.7,0.2,0,2.99984,-0.061745,0
0.7,0.3,0,2.99977,-0.0616985,0
0.7,0.4,0,2.99976,-0.061774,0
0.7,0.5,0,2.99977,-0.0618668,0
0.7,0.6,0,2.99978,-0.061881,0
0.7,0.7,0,2.99977,-0.0619648,0
0.7,0.8,0,2.99984,-0.0619462,0
0.7,0.9,0,2.99976,-0.0619814,0
0.7,1,0,2.99958,-0.0621741,0
0.7,1.1,0,2.99962,-0.0617603,0
0.7,1.2,0,2.99952,-0.0617903,0
0.7,1.3,0,2.99948,-0.061349,0
0.7,1.4,0,2.99942,-0.0614343,0
0.7,1.5,0,2.99916,-0.0624396,0
0.7,1.6,0,2.99954,-0.0609939,0
0.7,1.7,0,2.9995,-0.0610872,0
0.7,1.8,0,2.99991,-0.0603814,0
0.7,1.9,0,2.99984,-0.0604141,0
0.7,2,0,2.99886,-0.0627518,0
0.7,2.1,0,3.00049,-0.0594575,0
0.7,2.2,0,3.00041,-0.0594367,0
0.7,2.3,0,3.00182,-0.0583858,0
0.7,2.4,0,3.00177,-0.0582974,0
0.7,2.5,0,2.99858,-0.062497,0
0.7,2.6,0,3.00405,-0.0571373,0
0.7,2.7,0,3.00395,-0.0569306,0
0.7,2.8,0,3.0072,-0.0560873,0
0.7,2.9,0,3.00692,-0.0557213,0
0.7,3,0,2.99805,-0.0611254,0
0.7,3.1,0,3.01008,-0.0546949,0
0.7,3.2,0,3.00949,-0.0541671,0
0.7,3.3,0,3.01261,-0.053731,0
0.7,3.4,0,3.01162,-0.0530849,0
0.7,3.5,0,2.99486,-0.0582212,0
0.7,3.6,0,3.01211,-0.0515025,0
0.7,3.7,0,3.01083,-0.0507136,0
0.7,3.8,0,3.00983,-0.0476681,0
0.7,3.9,0,3.00878,-0.0466873,0
0.7,4,0,2.98906,-0.0539758,0
0.7,4.1,0,3.00467,-0.03907,0
0.7,4.2,0,3.00426,-0.0379,0
0.7,4.3,0,3.00152,-0.0291191,0
0.7,4.4,0,3.0015,-0.0277101,0
0.7,4.5,0,2.98774,-0.0477949,0
0.7,4.6,0,3.0054,-0.0173188,0
0.7,4.7,0,3.00558,-0.0154773,0
0.7,4.8,0,3.01848,-0.00906496,0
0.7,4.9,0,3.01874,-0.00726403,0
0.7,5,0,2.98985,-0.0388181,0
0.7,5.1,0,2.99076,-0.0353544,0
0.7,5.2,0,2.99103,-0.0327948,0
0.7,5.3,0,2.99045,-0.0299681,0
0.7,5.4,0,2.98932,-0.0268658,0
0.7,5.5,0,2.98844,-0.0236247,0
0.7,5.6,0,2.98866,-0.0204618,0
0.7,5.7,0,2.99031,-0.0175319,0
0.7,5.8,0,2.99279,-0.0148288,0
0.7,5.9,0,2.99505,-0.0121963,0
0.7,6,0,2.99641,-0.00943881,0
0.7,6.1,0,2.99695,-0.00643492,0
0.7,6.2,0,2.99708,-0.00316643,0
0.7,6.3,0,2.99713,0.00032017,0
0.7,6.4,0,2.99725,0.00395921,0
0.7,6.5,0,2.99747,0.00768873,0
0.7,6.6,0,2.99783,0.0114558,0
0.7,6.7,0,2.99839,0.0152106,0
0.7,6.8,0,2.99935,0.0188923,0
0.7,6.9,0,3.00083,0.0224626,0
0.7,7,0,3.0025,0.0267449,0
0.7,7.1,0,3.05656,0.00605894,0
0.7,7.2,0,3.05627,0.00791623,0
0.7,7.3,0,3.02396,0.0219815,0
0.7,7.4,0,3.08382,-0.00339154,0
0.7,7.5,0,3.0833,-0.00115666,0
0.7,7.6,0,3.03742,0.0116359,0
0.7,7.7,0,3.0697,-0.00959521,0
0.7,7.8,0,3.06642,-0.00538345,0
0.7,7.9,0,3.03608,-0.00287243,0
0.7,8,0,3.04507,-0.0130028,0
0.7,8.1,0,3.02867,0.00756233,0
0.7,8.2,0,3.02521,-0.00616906,0
0.7,8.3,0,3.02385,-0.00428891,0
0.7,8.4,0,3.00354,0.0301757,0
0.7,8.5,0,3.01073,0.00644971,0
0.7,8.6,0,3.01019,0.00739504,0
0.7,8.7,0,2.99063,0.0498511,0
0.7,8.8,0,3.00134,0.0202467,0
0.7,8.9,0,3.0016,0.0207302,0
0.7,9,0,2.98777,0.0577507,0
0.7,9.1,0,2.99636,0.032253,0
0.7,9.2,0,2.99707,0.0324746,0
0.7,9.3,0,2.99057,0.054269,0
0.7,9.4,0,2.99444,0.0419558,0
0.7,9.5,0,2.99528,0.0419259,0
0.7,9.6,0,2.99281,0.0534385,0
0.7,9.7,0,2.99458,0.0485841,0
0.7,9.8,0,2.99515,0.0499291,0
0.7,9.9,0,2.99487,0.0538525,0
0.7,10,0,2.99577,0.0526468,0
0.7,10.1,0,2.99606,0.0553486,0
0.7,10.2,0,2.99655,0.0549154,0
0.7,10.3,0,2.99716,0.0545763,0
0.7,10.4,0,2.99736,0.057512,0
0.7,10.5,0,2.99784,0.0557928,0
0.7,10.6,0,2.99829,0.0554492,0
0.7,10.7,0,2.99855,0.058147,0
0.7,10.8,0,2.99883,0.0558834,0
0.7,10.9,0,2.99915,0.0555452,0
0.7,11,0,2.99944,0.0573113,0
0.7,11.1,0,2.99953,0.0556874,0
0.7,11.2,0,2.99972,0.0553514,0
0.7,11.3,0,2.99991,0.0561228,0
0.7,11.4,0,2.9999,0.0550403,0
0.7,11.5,0,2.99997,0.0546878,0
0.7,11.6,0,3.00013,0.0550371,0
0.7,11.7,0,3.00016,0.0544224,0
0.7,11.8,0,3.00021,0.0543636,0
0.7,11.9,0,3.00033,0.0539982,0
0.7,12,0,3.00039,0.0537733,0
0.7,12.1,0,3.00043,0.0541143,0
0.7,12.2,0,3.00032,0.0534355,0
0.7,12.3,0,3.0003,0.0532771,0
0.7,12.4,0,3.00035,0.0539392,0
0.7,12.5,0,3.00022,0.0527516,0
0.7,12.6,0,3.00017,0.0526423,0
0.7,12.7,0,3.00026,0.0539153,0
0.8,0,0,2.9999,-0.0704143,0
0.8,0.1,0,2.99985,-0.0702855,0
0.8,0.2,0,2.99983,-0.0703096,0
0.8,0.3,0,2.99982,-0.0704525,0
0.8,0.4,0,2.99982,-0.070528,0
0.8,0.5,0,2.99986,-0.0706794,0
0.8,0.6,0,2.99982,-0.0707861,0
0.8,0.7,0,2.99982,-0.0708698,0
0.8,0.8,0,2.99967,-0.0710176,0
0.8,0.9,0,2.99959,-0.0710527,0
0.8,1,0,2.99963,-0.0709988,0
0.8,1.1,0,2.9993,-0.0713503,0
0.8,1.2,0,2.9992,-0.0713804,0
0.8,1.3,0,2.99906,-0.0719305,0
0.8,1.4,0,2.99901,-0.0720159,0
0.8,1.5,0,2.99927,-0.0713774,0
0.8,1.6,0,2.99873,-0.0728673,0
0.8,1.7,0,2.99869,-0.0729606,0
0.8,1.8,0,2.99815,-0.0738071,0
0.8,1.9,0,2.99808,-0.0738398,0
0.8,2,0,2.9989,-0.0716438,0
0.8,2.1,0,2.99708,-0.0747985,0
0.8,2.2,0,2.997,-0.0747777,0