/*--------------------------------*- C++ -*----------------------------------*\
| =========                 |                                                 |
| \\      /  F ield         | OpenFOAM: The Open Source CFD Toolbox           |
|  \\    /   O peration     | Version:  v1806                                 |
|   \\  /    A nd           | Web:      www.OpenFOAM.com                      |
|    \\/     M anipulation  |                                                 |
\*---------------------------------------------------------------------------*/
FoamFile
{
    version     2.0;
    format      ascii;
    class       surfaceScalarField;
    location    "70";
    object      phi;
}
// * * * * * * * * * * * * * * * * * * * * * * * * * * * * * * * * * * * * * //

dimensions      [0 3 -1 0 0 0 0];
oriented        oriented;


internalField   nonuniform List<scalar> 
13369
(
-1.48441e-08
-0.00238333
0.00253275
0.00195788
-0.00210729
-2.72644e-13
-0.002384
0.0025328
0.00195856
-0.00210738
1.48444e-08
-0.002384
0.0025328
0.00195856
-0.00210738
-0.00238333
0.00253275
0.00195788
-0.00210729
-1.41899e-08
0.00397567
-0.00434008
-0.0020189
-3.0643e-13
0.00397426
-0.00433779
-0.00202048
1.41902e-08
0.00397426
-0.00433779
-0.00202048
0.00397567
-0.00434008
-0.0020189
-9.73599e-09
7.79552e-05
0.0041191
-0.000221372
-1.10854e-13
7.69778e-05
0.00411875
-0.000221476
9.73641e-09
7.69777e-05
0.00411875
-0.000221476
7.79552e-05
0.0041191
-0.000221372
-6.6915e-09
-0.000265473
0.00287619
-5.04651e-15
-0.000266547
0.00287632
6.69181e-09
-0.000266547
0.00287632
-0.000265473
0.00287619
-1.27517e-08
0.00225375
-0.000561338
-9.06523e-14
0.00225396
-0.000561956
1.27521e-08
0.00225396
-0.000561956
0.00225375
-0.000561338
-6.13323e-09
-0.00086614
0.000728605
0.00425664
1.28258e-13
-0.000866439
0.000728769
0.00425641
6.13381e-09
-0.000866439
0.000728769
0.00425641
-0.00086614
0.000728605
0.00425664
-7.2927e-09
-0.00083149
0.00284155
4.35103e-14
-0.000831236
0.00284111
7.29315e-09
-0.000831236
0.00284111
-0.00083149
0.00284155
-3.36927e-09
-0.00082299
0.00224526
9.87263e-14
-0.000823413
0.00224613
3.37023e-09
-0.000823413
0.00224613
-0.00082299
0.00224526
3.43362e-08
-0.0151049
0.0206511
0.0506735
-0.0562197
2.03011e-13
-0.015107
0.0206432
0.0506746
-0.0562107
-3.4336e-08
-0.015107
0.0206432
0.0506746
-0.0562107
-0.0151049
0.0206511
0.0506735
-0.0562197
5.0206e-08
-0.00603488
-0.0629948
0.0539248
-1.11589e-13
-0.00603783
-0.0629891
0.0539199
-5.0206e-08
-0.00603783
-0.0629891
0.0539199
-0.00603488
-0.0629948
0.0539248
-3.55277e-08
-0.0579557
0.0527152
-0.000794382
-7.99788e-13
-0.0579542
0.0527086
-0.000792261
3.55279e-08
-0.0579542
0.0527086
-0.000792261
-0.0579557
0.0527152
-0.000794382
-1.05809e-08
-0.00335901
0.0022238
-0.000972069
-4.67177e-13
-0.00335994
0.00222421
-0.00097166
1.05813e-08
-0.00335994
0.00222421
-0.000971659
-0.00335901
0.0022238
-0.000972069
3.07068e-09
-0.00376825
-0.00393084
-4.53212e-13
-0.0037659
-0.00393182
-3.07033e-09
-0.0037659
-0.00393182
-0.00376825
-0.00393084
2.40707e-08
-0.0143206
0.0154916
0.0563061
-0.0574771
9.63762e-14
-0.0143263
0.0154882
0.0563126
-0.0574745
-2.40709e-08
-0.0143263
0.0154882
0.0563126
-0.0574745
-0.0143206
0.0154916
0.0563061
-0.0574771
1.05565e-08
0.0539052
-0.0553361
-0.0128897
-8.6067e-15
0.0538997
-0.0553295
-0.0128965
-1.05564e-08
0.0538997
-0.0553295
-0.0128965
0.0539052
-0.0553361
-0.0128897
2.61337e-08
0.0591807
-0.0590759
0.0153869
1.08242e-13
0.0591878
-0.0590852
0.0153856
-2.61337e-08
0.0591878
-0.0590852
0.0153856
0.0591807
-0.0590759
0.0153869
-1.7788e-07
0.0443549
-0.0105879
-0.0494162
0.0156494
-9.00777e-13
0.0443557
-0.0105938
-0.0494121
0.0156501
1.77881e-07
0.0443557
-0.0105938
-0.0494121
0.0156501
0.0443549
-0.0105879
-0.0494162
0.0156494
-2.2748e-07
-0.0128949
0.0363888
0.0208612
-8.80092e-13
-0.0128818
0.0363809
0.0208564
2.2748e-07
-0.0128818
0.0363809
0.0208564
-0.0128949
0.0363888
0.0208612
1.3648e-08
0.00512307
-0.0115123
-0.00331101
0.00970026
-9.24606e-13
0.00512022
-0.0115093
-0.00331238
0.00970144
-1.3648e-08
0.00512022
-0.0115093
-0.00331238
0.00970144
0.00512307
-0.0115123
-0.00331101
0.00970026
-9.12815e-11
-0.0104169
0.00256368
0.0114949
-0.00364168
-3.62585e-13
-0.0104176
0.00256484
0.0114946
-0.00364179
9.14849e-11
-0.0104176
0.00256484
0.0114946
-0.00364179
-0.0104169
0.00256368
0.0114949
-0.00364168
1.17798e-08
0.00840834
-0.0137022
-5.75974e-13
0.00840673
-0.0137041
-1.17797e-08
0.00840673
-0.0137041
0.00840834
-0.0137022
-8.81944e-08
-0.00702514
-0.0188545
0.0143674
-3.74711e-13
-0.00702639
-0.0188546
0.0143716
8.81944e-08
-0.00702639
-0.0188546
0.0143716
-0.00702514
-0.0188545
0.0143674
-8.69415e-08
-0.000606287
-0.00574726
-0.0627558
0.0691094
-4.96131e-13
-0.000596932
-0.0057519
-0.0627585
0.0691072
8.69414e-08
-0.000596932
-0.0057519
-0.0627585
0.0691072
-0.000606287
-0.00574726
-0.0627558
0.0691094
2.99367e-08
-0.00218758
-0.00852128
0.00368369
-1.79752e-13
-0.00218561
-0.00852282
0.00368208
-2.99366e-08
-0.00218561
-0.00852282
0.00368208
-0.00218758
-0.00852128
0.00368369
-3.56598e-08
0.0134887
0.00867714
-0.0137575
-1.79277e-13
0.0134938
0.00867599
-0.0137631
3.56597e-08
0.0134938
0.00867599
-0.0137631
0.0134887
0.00867714
-0.0137575
-3.46259e-08
0.00359122
0.0124612
-2.93596e-13
0.00359174
0.0124668
3.46261e-08
0.00359174
0.0124668
0.00359122
0.0124612
-8.3499e-09
0.00967198
0.0129424
-0.0139372
2.129e-13
0.00967124
0.0129463
-0.0139416
8.3499e-09
0.00967124
0.0129463
-0.0139416
0.00967198
0.0129424
-0.0139372
-3.49953e-08
0.0135945
0.00939791
-0.0133204
8.55086e-14
0.0135931
0.00939548
-0.0133174
3.49957e-08
0.0135931
0.00939548
-0.0133174
0.0135945
0.00939791
-0.0133204
-9.40977e-09
-0.00285486
0.00436195
0.0120875
4.42779e-14
-0.00285782
0.00436192
0.012089
9.41023e-09
-0.00285782
0.00436192
0.012089
-0.00285486
0.00436195
0.0120875
-1.04486e-08
0.0136787
4.01658e-14
0.0136802
1.04492e-08
0.0136802
0.0136787
-1.71555e-08
-0.019039
-0.00200306
1.40036e-13
-0.0190452
-0.00199497
1.71554e-08
-0.0190452
-0.00199497
-0.019039
-0.00200306
-2.44481e-08
-0.0175638
-0.0035187
0.00204345
3.38774e-13
-0.0175677
-0.00352051
0.00204291
2.44479e-08
-0.0175677
-0.00352051
0.00204291
-0.0175638
-0.0035187
0.00204345
-4.16192e-08
-0.0497207
0.0544022
0.0155041
-0.0201855
3.0055e-12
-0.049735
0.0543993
0.0155206
-0.0201849
4.16173e-08
-0.049735
0.0543993
0.0155206
-0.0201849
-0.0497207
0.0544022
0.0155041
-0.0201855
2.94195e-07
-0.057154
0.0178676
-0.0104347
3.22958e-13
-0.0571519
0.0178532
-0.0104361
-2.94193e-07
-0.0571519
0.0178532
-0.0104361
-0.057154
0.0178676
-0.0104347
-2.49383e-07
-0.0481744
0.0177662
-0.0267454
1.55217e-13
-0.0481765
0.0177676
-0.0267432
2.49382e-07
-0.0481765
0.0177676
-0.0267432
-0.0481744
0.0177662
-0.0267454
1.89676e-08
-0.0553058
-0.0134301
0.0205614
4.6352e-13
-0.0552946
-0.0134417
0.0205598
-1.89682e-08
-0.0552946
-0.0134417
0.0205598
-0.0553058
-0.0134301
0.0205614
-1.31981e-07
0.0192507
1.68375e-13
0.0192481
1.31981e-07
0.0192481
0.0192507
-2.21911e-08
0.011468
-0.0122582
0.0101882
6.82091e-14
0.0114683
-0.0122595
0.0101867
2.21914e-08
0.0114683
-0.0122595
0.0101867
0.011468
-0.0122582
0.0101882
1.49502e-08
0.00672864
0.00910126
1.90123e-14
0.00672895
0.0091013
-1.49498e-08
0.00672895
0.0091013
0.00672864
0.00910126
3.33513e-07
0.0452205
0.0422968
-0.0331155
3.52961e-13
0.0452299
0.0422846
-0.0331149
-3.33513e-07
0.0452299
0.0422846
-0.0331149
0.0452205
0.0422968
-0.0331155
-1.3127e-07
-0.0108942
0.0481378
-5.95341e-15
-0.0108915
0.0481243
1.3127e-07
-0.0108915
0.0481243
-0.0108942
0.0481378
-2.38522e-08
-0.0158336
-0.00310942
0.00137931
2.81381e-13
-0.0158381
-0.00311003
0.00138048
2.38522e-08
-0.0158381
-0.00311003
0.00138048
-0.0158336
-0.00310942
0.00137931
-2.60672e-08
-0.0153689
-0.00133089
0.000866231
1.14626e-14
-0.0153738
-0.00133117
0.000866828
2.60668e-08
-0.0153738
-0.00133117
0.000866828
-0.0153689
-0.00133089
0.000866231
-3.22423e-08
-0.0156224
-0.000299706
0.000553172
-3.83836e-13
-0.015627
-0.000300573
0.000553749
3.22416e-08
-0.015627
-0.000300573
0.000553749
-0.0156224
-0.000299706
0.000553172
-3.14668e-08
-0.0163504
0.000420743
0.000307294
-6.24863e-13
-0.016356
0.000421989
0.000306913
3.14661e-08
-0.016356
0.000421989
0.000306914
-0.0163504
0.000420743
0.000307294
-4.06652e-08
-0.0170176
0.000405523
0.000261732
-3.87535e-13
-0.0170237
0.000405675
0.00026201
4.06651e-08
-0.0170237
0.000405675
0.00026201
-0.0170176
0.000405523
0.000261733
-4.86816e-08
-0.0191263
0.0018314
0.000277338
3.01745e-14
-0.0191348
0.00183434
0.000276693
4.86819e-08
-0.0191348
0.00183434
0.000276693
-0.0191263
0.0018314
0.000277338
-5.00165e-08
-0.023604
0.00432718
0.000150566
1.23367e-13
-0.0236133
0.00432603
0.000152473
5.00166e-08
-0.0236133
0.00432604
0.000152473
-0.023604
0.00432718
0.000150566
-7.9621e-08
-0.0276475
0.00418055
-0.000137004
-2.03579e-13
-0.0276553
0.00417739
-0.000135542
7.96213e-08
-0.0276553
0.00417739
-0.000135542
-0.0276475
0.00418055
-0.000137004
-4.82682e-08
-0.034643
0.00740107
-0.000405455
2.01076e-13
-0.0346522
0.00739411
-0.000397191
4.8268e-08
-0.0346522
0.00739411
-0.000397191
-0.034643
0.00740107
-0.000405455
-1.35899e-07
-0.0432619
0.011204
-0.00258498
5.94636e-13
-0.043272
0.011206
-0.00258632
1.359e-07
-0.043272
0.011206
-0.00258632
-0.0432619
0.011204
-0.00258498
3.32492e-07
-0.0548381
0.0165177
-0.00494178
-2.34411e-13
-0.0548411
0.0165071
-0.00493771
-3.32492e-07
-0.0548411
0.0165071
-0.00493771
-0.0548381
0.0165177
-0.00494178
-3.18632e-07
-0.0622626
0.0221234
-0.0146987
-1.05039e-12
-0.0622764
0.0221301
-0.0146951
3.18633e-07
-0.0622764
0.0221301
-0.0146951
-0.0622626
0.0221234
-0.0146987
2.84674e-07
-0.0684148
0.0229985
-0.0168466
-2.71403e-12
-0.0684178
0.0229939
-0.0168522
-2.84675e-07
-0.0684178
0.0229939
-0.0168522
-0.0684148
0.0229985
-0.0168466
-3.58776e-08
-0.0581682
0.0349739
-3.7058e-12
-0.0581495
0.0349616
3.58802e-08
-0.0581495
0.0349616
-0.0581682
0.0349739
-3.00519e-07
-0.0573357
0.014672
-8.72223e-13
-0.05733
0.0147007
3.00521e-07
-0.05733
0.0147007
-0.0573357
0.014672
7.53122e-08
-0.060453
0.0209848
-7.90387e-13
-0.0604425
0.0209659
-7.53107e-08
-0.0604425
0.0209659
-0.060453
0.0209848
-1.28456e-07
-0.0595288
0.0168421
-5.62305e-13
-0.0595333
0.0168582
1.28457e-07
-0.0595333
0.0168582
-0.0595288
0.0168421
7.93021e-09
-0.0565709
0.0176035
2.18508e-14
-0.0565657
0.0175922
-7.93027e-09
-0.0565657
0.0175922
-0.0565709
0.0176035
-3.37107e-08
0.00843357
0.0103826
5.66445e-14
0.00843593
0.010382
3.37111e-08
0.00843593
0.010382
0.00843357
0.0103826
-5.57866e-08
-0.00137629
-0.0622248
-3.28234e-13
-0.00136986
-0.0622162
5.57869e-08
-0.00136986
-0.0622162
-0.00137629
-0.0622248
-6.73392e-08
0.0499774
-0.00694671
3.01051e-14
0.049966
-0.00693766
6.73394e-08
0.049966
-0.00693766
0.0499774
-0.00694671
3.99928e-08
-0.0106179
0.0320101
-4.29796e-14
-0.0106197
0.0320009
-3.99931e-08
-0.0106197
0.0320009
-0.0106179
0.0320101
6.26842e-08
0.0158369
-0.0151717
-1.75243e-13
0.0158421
-0.0151746
-6.26838e-08
0.0158421
-0.0151746
0.0158369
-0.0151717
-2.77229e-08
0.0169901
-0.0149106
-6.4108e-14
0.0169896
-0.0149105
2.77228e-08
0.0169896
-0.0149105
0.0169901
-0.0149106
-2.66319e-09
0.0157296
-0.0126767
3.58812e-13
0.0157273
-0.0126793
2.66327e-09
0.0157273
-0.0126793
0.0157296
-0.0126767
-1.50924e-08
0.0141273
-0.011718
3.71597e-13
0.0141269
-0.011717
1.50926e-08
0.0141269
-0.011717
0.0141273
-0.011718
-9.61874e-09
0.0134183
-0.0115492
1.11149e-13
0.0134175
-0.0115502
9.61908e-09
0.0134175
-0.0115502
0.0134183
-0.0115492
-2.00542e-08
0.00948715
-0.00902915
0.0129603
2.36386e-14
0.00948709
-0.00903044
0.0129608
2.00545e-08
0.00948709
-0.00903044
0.0129608
0.00948715
-0.00902915
0.0129603
-2.00386e-08
0.00857046
0.0111049
-7.38262e-14
0.00856962
0.0111041
2.00389e-08
0.00856962
0.0111041
0.00857046
0.0111049
-1.28307e-08
0.00846729
0.00920444
-4.42469e-14
0.00846832
0.00920259
1.28311e-08
0.00846832
0.00920259
0.00846729
0.00920444
-3.05282e-08
0.00747998
0.00942091
1.33372e-13
0.00748305
0.00942117
3.05285e-08
0.00748305
0.00942117
0.00747998
0.00942091
-9.58642e-08
0.0189859
3.49214e-13
0.0189949
9.58645e-08
0.0189949
0.0189859
-5.42973e-08
0.00400153
-0.0650848
-3.30581e-13
0.00400255
-0.065084
5.42973e-08
0.00400255
-0.065084
0.00400153
-0.0650848
1.26645e-08
0.0331881
0.00617136
-2.69554e-13
0.0331793
0.00616696
-1.26641e-08
0.0331793
0.00616696
0.0331881
0.00617136
-3.25054e-07
0.0511566
0.014042
-7.5686e-13
0.0511299
0.01405
3.25054e-07
0.0511299
0.01405
0.0511566
0.014042
1.17951e-07
0.0354073
0.00531453
-3.29688e-13
0.035398
0.00529587
-1.17952e-07
0.035398
0.00529587
0.0354073
0.00531453
-5.12185e-07
-0.00386886
0.0190911
-5.09202e-13
-0.00386657
0.0190792
5.12183e-07
-0.00386657
0.0190792
-0.00386886
0.0190911
-4.09575e-08
-0.0628742
0.0093986
-2.21067e-13
-0.0628757
0.0094037
4.09572e-08
-0.0628757
0.0094037
-0.0628742
0.0093986
8.96773e-09
-0.0615839
0.00225192
-1.61006e-13
-0.0615776
0.00225348
-8.96716e-09
-0.0615776
0.00225348
-0.0615839
0.00225192
-5.29675e-08
-0.00376636
0.00591356
-0.063731
1.63183e-13
-0.00376103
0.00591355
-0.0637301
5.29677e-08
-0.00376103
0.00591355
-0.0637301
-0.00376636
0.00591356
-0.063731
-3.6003e-08
-0.00305142
-0.0629397
-1.99912e-13
-0.00304681
-0.0629305
3.60031e-08
-0.00304681
-0.0629305
-0.00305142
-0.0629397
-3.81459e-08
-0.00100417
-0.064803
-3.46664e-13
-0.00100177
-0.0648036
3.81459e-08
-0.00100177
-0.0648036
-0.00100417
-0.064803
-5.95461e-08
0.000485921
-0.0665749
-5.00151e-13
0.000489932
-0.0665757
5.9546e-08
0.000489932
-0.0665757
0.000485921
-0.0665749
-1.48419e-08
0.00524031
-0.0676285
-4.49253e-13
0.00524348
-0.0676293
1.48417e-08
0.00524348
-0.0676293
0.00524031
-0.0676285
-8.43129e-09
0.0439627
0.0018058
-6.67525e-13
0.0439639
0.00180708
8.43117e-09
0.0439639
0.00180708
0.0439627
0.0018058
-5.89142e-10
0.00298116
-0.0006908
-0.00605861
-1.02531e-12
0.00298304
-0.000689328
-0.00605961
5.8939e-10
0.00298304
-0.000689328
-0.00605961
0.00298116
-0.0006908
-0.00605861
-5.0539e-08
0.0625549
0.0156118
3.28142e-13
0.0625629
0.0156197
5.05391e-08
0.0625629
0.0156197
0.0625549
0.0156118
-5.00909e-08
0.0617309
0.0184275
-1.11305e-13
0.0617307
0.0184244
5.00906e-08
0.0617307
0.0184244
0.0617309
0.0184275
-1.15625e-07
0.0624546
0.0161186
-5.70688e-13
0.0624496
0.0161392
1.15626e-07
0.0624496
0.0161392
0.0624546
0.0161186
1.3818e-08
0.0656121
0.0178273
-1.14777e-12
0.0656074
0.0178082
-1.38167e-08
0.0656074
0.0178082
0.0656121
0.0178273
2.15366e-07
0.0639854
0.0162985
-1.46101e-12
0.0640007
0.0163076
-2.15366e-07
0.0640007
0.0163076
0.0639854
0.0162985
6.64095e-08
0.0713873
0.0275719
-4.32572e-13
0.0713947
0.0275677
-6.64129e-08
0.0713947
0.0275677
0.0713873
0.0275719
5.68182e-07
0.0701346
0.0242507
-7.07312e-14
0.0701507
0.0242384
-5.68186e-07
0.0701507
0.0242384
0.0701346
0.0242507
-1.41431e-07
0.0689922
0.023266
-4.13254e-12
0.0689958
0.0232848
1.41431e-07
0.0689958
0.0232848
0.0689922
0.023266
3.11461e-07
0.0651638
0.0203458
5.43632e-14
0.0651727
0.0203306
-3.11462e-07
0.0651727
0.0203306
0.0651638
0.0203458
-5.07088e-08
0.0594489
0.0169189
4.81464e-13
0.0594616
0.016917
5.07084e-08
0.0594616
0.016917
0.0594489
0.0169189
-4.80732e-08
0.0528327
0.0140173
3.82045e-13
0.0528414
0.0140142
4.80729e-08
0.0528414
0.0140142
0.0528327
0.0140173
-5.69656e-08
0.0473105
0.00970281
9.67268e-13
0.0473169
0.00970187
5.69649e-08
0.0473169
0.00970187
0.0473105
0.00970281
-1.89147e-08
0.0430856
0.00855218
1.10307e-12
0.0430909
0.00855204
1.89141e-08
0.0430909
0.00855204
0.0430856
0.00855218
-3.4635e-08
0.0388698
0.00604716
1.56882e-13
0.0388766
0.00604855
3.46354e-08
0.0388766
0.00604855
0.0388698
0.00604716
-4.43545e-08
0.0344938
0.00478164
-7.2298e-13
0.0345004
0.00478184
4.43542e-08
0.0345004
0.00478184
0.0344938
0.00478164
-2.22374e-08
0.0308844
0.0040301
-5.55772e-13
0.030891
0.00403134
2.22365e-08
0.030891
0.00403134
0.0308844
0.0040301
-3.70507e-08
0.0292751
0.00130967
-8.04762e-14
0.0292824
0.001308
3.70501e-08
0.0292824
0.001308
0.0292751
0.00130967
-3.36744e-08
0.0275041
0.000440108
5.43793e-15
0.0275111
0.000440153
3.36741e-08
0.0275111
0.000440153
0.0275041
0.000440108
-3.74639e-08
0.0270259
-0.00263112
1.2172e-13
0.0270328
-0.00263178
3.74638e-08
0.0270328
-0.00263178
0.0270259
-0.00263112
-5.75656e-08
0.0260505
-0.00254324
2.47883e-13
0.0260551
-0.00254285
5.7566e-08
0.0260551
-0.00254285
0.0260505
-0.00254324
5.49019e-08
0.0293679
-0.0053206
4.51273e-14
0.0293782
-0.0053181
-5.49009e-08
0.0293782
-0.0053181
0.0293679
-0.0053206
-1.28783e-08
0.0255231
-0.0113269
-9.17668e-14
0.0255288
-0.0113251
1.28792e-08
0.0255288
-0.0113251
0.0255231
-0.0113269
-3.68271e-08
0.0229996
-0.0123871
1.02238e-14
0.0230043
-0.0123861
3.68273e-08
0.0230043
-0.0123861
0.0229996
-0.0123871
-1.34961e-08
0.0208984
-0.0105755
3.37778e-13
0.0209021
-0.0105771
1.34962e-08
0.0209021
-0.0105771
0.0208984
-0.0105755
-1.52608e-08
0.0191441
-0.00996371
2.283e-13
0.0191489
-0.00996382
1.5261e-08
0.0191489
-0.00996382
0.0191441
-0.00996371
-2.26118e-08
0.0160502
-0.00845532
2.01556e-14
0.0160529
-0.00845418
2.26121e-08
0.0160529
-0.00845418
0.0160502
-0.00845532
-2.57577e-08
0.014407
-0.00738594
1.72984e-14
0.0144089
-0.00738642
2.5758e-08
0.0144089
-0.00738642
0.014407
-0.00738594
-1.55724e-08
0.00652716
-0.00532114
0.013201
1.28881e-13
0.00652749
-0.00532141
0.0132028
1.55726e-08
0.00652749
-0.00532141
0.0132028
0.00652716
-0.00532114
0.013201
-1.30473e-08
0.00713352
0.012354
1.48674e-14
0.00713405
0.0123543
1.30474e-08
0.00713405
0.0123543
0.00713352
0.012354
-1.50835e-08
0.00748477
0.0107536
-9.03585e-14
0.00748473
0.0107534
1.50837e-08
0.00748473
0.0107534
0.00748477
0.0107536
-3.91815e-09
0.00735323
0.009336
-7.3763e-14
0.00735266
0.00933466
3.91845e-09
0.00735266
0.00933466
0.00735323
0.009336
-1.79429e-08
0.00775584
0.00707739
1.4867e-13
0.00775639
0.0070793
1.79432e-08
0.00775639
0.0070793
0.00775584
0.00707739
-9.99013e-09
-0.00582403
0.00737453
0.00620534
3.05765e-13
-0.00582252
0.00737424
0.00620466
9.99041e-09
-0.00582252
0.00737424
0.00620466
-0.00582403
0.00737453
0.00620534
-9.89409e-09
-0.00570264
0.00929953
2.79368e-13
-0.00570269
0.00930133
9.89434e-09
-0.00570269
0.00930133
-0.00570264
0.00929953
1.75986e-08
-0.00527261
0.00995251
4.79207e-14
-0.00527446
0.0099538
-1.75982e-08
-0.00527446
0.0099538
-0.00527261
0.00995251
-3.69655e-08
-0.00245072
0.0108569
-1.08067e-13
-0.00245173
0.0108574
3.69659e-08
-0.00245173
0.0108574
-0.00245072
0.0108569
-1.50987e-08
0.000244793
0.0097657
-3.14818e-13
0.000246395
0.00976867
1.5099e-08
0.000246395
0.00976867
0.000244793
0.0097657
-1.72054e-08
0.00780887
-3.27177e-13
0.00780915
1.72057e-08
0.00780915
0.00780887
-8.51762e-08
0.0432264
0.00690772
-7.01214e-13
0.0432274
0.00690341
8.5176e-08
0.0432274
0.00690341
0.0432264
0.00690772
5.58517e-08
0.0466805
-5.57671e-13
0.0466836
-5.58511e-08
0.0466836
0.0466805
3.46965e-09
-0.0633206
0.0136432
-1.61833e-13
-0.0633284
0.0136469
-3.46991e-09
-0.0633284
0.0136469
-0.0633206
0.0136432
1.39058e-07
0.0391
7.48058e-13
0.0390978
-1.39057e-07
0.0390978
0.0391
3.04108e-08
-0.0651576
0.00707729
-4.10601e-13
-0.065158
0.00707307
-3.0411e-08
-0.065158
0.00707307
-0.0651576
0.00707729
1.33301e-07
0.0141387
0.0210923
2.74956e-13
0.0141378
0.0210935
-1.33302e-07
0.0141378
0.0210935
0.0141387
0.0210923
-2.03049e-08
-0.000303311
0.0060933
-2.00283e-13
-0.000303731
0.00609237
2.03053e-08
-0.000303731
0.00609237
-0.000303311
0.0060933
-2.13553e-08
0.00165526
0.00780715
-2.53315e-13
0.00165662
0.0078083
2.13555e-08
0.00165662
0.0078083
0.00165526
0.00780715
-1.80969e-08
0.00288821
0.00962396
-1.7836e-13
0.00288753
0.0096265
1.80971e-08
0.00288753
0.0096265
0.00288821
0.00962396
-2.54621e-08
0.00390144
0.00893931
-6.29015e-14
0.00390105
0.00894026
2.54623e-08
0.00390105
0.00894026
0.00390144
0.00893931
-2.00479e-08
0.00507625
0.00812474
9.81529e-14
0.00507619
0.00812616
2.00481e-08
0.00507619
0.00812616
0.00507625
0.00812474
-1.10148e-08
0.00530548
0.00714532
3.00424e-13
0.00530511
0.0071453
1.10151e-08
0.00530511
0.0071453
0.00530548
0.00714532
-3.36422e-07
0.0293666
0.0211613
-1.12747e-12
0.0293547
0.0211637
3.36421e-07
0.0293547
0.0211637
0.0293666
0.0211613
9.20018e-09
-0.0471414
0.00463286
-9.02989e-13
-0.0471411
0.00463238
-9.19947e-09
-0.0471411
0.00463238
-0.0471414
0.00463286
-8.41937e-08
-0.0521665
0.00683104
-1.40701e-12
-0.0521683
0.00683417
8.41945e-08
-0.0521683
0.00683417
-0.0521665
0.00683104
1.14069e-08
-0.058929
0.00596812
-6.93398e-13
-0.0589269
0.00596631
-1.14064e-08
-0.0589269
0.00596631
-0.058929
0.00596812
-3.9651e-08
-0.0597868
0.0031097
1.03806e-13
-0.0597869
0.00311349
3.96514e-08
-0.0597869
0.00311349
-0.0597868
0.0031097
-3.9063e-08
-0.0641343
0.0102611
-9.76801e-14
-0.0641349
0.0102615
3.90633e-08
-0.0641349
0.0102615
-0.0641343
0.0102611
-4.20604e-08
-0.00629362
-0.065505
0.0076644
-4.76798e-13
-0.00629261
-0.065506
0.00766362
4.20603e-08
-0.00629261
-0.065506
0.00766362
-0.00629362
-0.065505
0.0076644
-3.32202e-08
-0.00460827
-0.0654163
-2.44428e-13
-0.00461058
-0.0654122
3.32202e-08
-0.00461058
-0.0654122
-0.00460827
-0.0654163
-5.63884e-08
-0.00192215
-0.0656258
-3.93475e-13
-0.00192268
-0.0656184
5.63885e-08
-0.00192268
-0.0656184
-0.00192215
-0.0656258
-3.97657e-08
0.000318038
-0.0670431
-5.41436e-13
0.000315863
-0.0670421
3.97657e-08
0.000315863
-0.0670421
0.000318038
-0.0670431
-6.34964e-08
0.00197211
-0.0682289
-6.16152e-13
0.00196946
-0.0682294
6.34963e-08
0.00196946
-0.0682294
0.00197211
-0.0682289
-5.1594e-08
0.00344446
-0.0691008
-5.57065e-13
0.00344441
-0.0691043
5.15937e-08
0.00344441
-0.0691043
0.00344446
-0.0691008
-4.25201e-08
0.00582213
-0.0675352
-3.85201e-13
0.00582192
-0.0675355
4.25198e-08
0.00582192
-0.0675355
0.00582213
-0.0675352
-4.59491e-08
0.0640662
0.00868795
-0.066932
-1.60908e-13
0.0640629
0.00869192
-0.066933
4.59486e-08
0.0640629
0.00869192
-0.066933
0.0640662
0.00868795
-0.066932
1.60624e-08
0.0594925
0.011651
-3.46499e-13
0.0594849
0.0116511
-1.60629e-08
0.0594849
0.0116511
0.0594925
0.011651
1.46912e-08
0.0587446
0.0143911
-1.48422e-13
0.0587371
0.0143947
-1.46915e-08
0.0587371
0.0143947
0.0587446
0.0143911
1.54321e-08
0.0628204
0.0113111
3.36307e-13
0.0628213
0.0113015
-1.54319e-08
0.0628213
0.0113015
0.0628204
0.0113111
-3.74887e-08
0.0646312
0.013801
3.94901e-13
0.0646385
0.0138025
3.74882e-08
0.0646385
0.0138025
0.0646312
0.013801
-7.7146e-08
0.0667682
0.0162905
3.55711e-13
0.066774
0.0162888
7.71451e-08
0.066774
0.0162888
0.0667682
0.0162905
-6.83123e-08
0.0668849
0.0160019
5.00875e-13
0.0668997
0.0160134
6.83126e-08
0.0668997
0.0160134
0.0668849
0.0160019
-2.57923e-08
0.0680495
0.0166627
-3.87936e-13
0.0680469
0.016661
2.5793e-08
0.0680469
0.016661
0.0680495
0.0166627
2.08092e-07
0.0675431
0.0168047
-1.74709e-12
0.0675552
0.0167995
-2.08094e-07
0.0675552
0.0167995
0.0675431
0.0168047
-6.70561e-08
0.0714703
0.0236448
3.05305e-12
0.0714714
0.0236515
6.70517e-08
0.0714714
0.0236515
0.0714703
0.0236448
3.26554e-07
0.0738619
0.0218588
2.43393e-12
0.0738722
0.0218379
-3.26555e-07
0.0738722
0.0218379
0.0738619
0.0218588
-2.62056e-07
0.0746672
0.0224609
-6.36842e-13
0.0746842
0.0224726
2.62055e-07
0.0746842
0.0224726
0.0746672
0.0224609
-2.97042e-08
0.0735258
0.0214872
1.76689e-12
0.0735383
0.0214764
2.97043e-08
0.0735383
0.0214764
0.0735258
0.0214872
-1.05476e-07
0.0706893
0.0197555
1.28931e-14
0.0707031
0.019752
1.05476e-07
0.0707031
0.019752
0.0706893
0.0197555
-1.18853e-07
0.0668164
0.0178903
1.39715e-12
0.0668294
0.0178879
1.18853e-07
0.0668294
0.0178879
0.0668164
0.0178903
-8.77335e-08
0.0630222
0.013497
1.70575e-12
0.0630336
0.0134976
8.77331e-08
0.0630336
0.0134976
0.0630222
0.013497
-3.63338e-08
0.0603035
0.011271
8.1391e-13
0.0603132
0.0112724
3.63346e-08
0.0603132
0.0112724
0.0603035
0.011271
-3.55657e-08
0.0559358
0.0104149
-8.26061e-13
0.0559453
0.0104164
3.5566e-08
0.0559453
0.0104164
0.0559358
0.0104149
-5.26428e-08
0.0507111
0.0100064
-1.197e-12
0.0507191
0.010008
5.26419e-08
0.0507191
0.010008
0.0507111
0.0100064
-2.45487e-08
0.0472844
0.00745683
-3.21488e-13
0.0472926
0.00745782
2.4548e-08
0.0472926
0.00745782
0.0472844
0.00745683
-5.45081e-08
0.0435564
0.00503775
5.72805e-14
0.0435632
0.00503733
5.45081e-08
0.0435632
0.00503733
0.0435564
0.00503775
-2.61306e-08
0.0393936
0.00460286
-5.53408e-14
0.039399
0.00460436
2.61307e-08
0.039399
0.00460436
0.0393936
0.00460286
-4.42911e-08
0.0364072
0.000355414
-1.95987e-13
0.0364128
0.000354326
4.42909e-08
0.0364128
0.000354326
0.0364072
0.000355414
-5.09997e-08
0.034835
-0.000971045
8.41236e-14
0.0348375
-0.000967598
5.09997e-08
0.0348375
-0.000967598
0.034835
-0.000971045
2.18964e-08
0.0334797
-0.00396533
5.25704e-14
0.0334847
-0.00396522
-2.1896e-08
0.0334847
-0.00396522
0.0334797
-0.00396532
-1.84689e-08
0.0292405
-0.00708761
-7.70232e-14
0.0292456
-0.00708602
1.84693e-08
0.0292456
-0.00708602
0.0292405
-0.00708761
-5.40142e-08
0.0270737
-0.0102203
-4.63082e-14
0.0270779
-0.0102185
5.40142e-08
0.0270779
-0.0102185
0.0270737
-0.0102203
-3.54163e-08
0.0240985
-0.0076003
-1.08036e-14
0.0241007
-0.00759994
3.54162e-08
0.0241007
-0.00759994
0.0240985
-0.0076003
-1.85739e-08
0.0212044
-0.0070695
-3.56272e-14
0.0212059
-0.00706906
1.8574e-08
0.0212059
-0.00706906
0.0212044
-0.0070695
-1.44037e-08
0.0188603
-0.00611129
1.07399e-14
0.0188634
-0.00611166
1.4404e-08
0.0188634
-0.00611166
0.0188603
-0.00611129
-2.57449e-08
0.0160872
-0.0046128
2.23917e-13
0.0160897
-0.00461274
2.57453e-08
0.0160897
-0.00461274
0.0160872
-0.0046128
-1.57627e-08
0.0140005
-0.00323434
2.87095e-13
0.0140016
-0.00323333
1.57631e-08
0.0140016
-0.00323333
0.0140005
-0.00323434
-7.19426e-09
0.00373715
0.0129888
-0.00272543
1.5328e-14
0.00373718
0.0129904
-0.00272598
7.19456e-09
0.00373718
0.0129904
-0.00272598
0.00373715
0.0129888
-0.00272543
-1.22643e-08
0.00495033
0.0119878
4.12548e-14
0.00495114
0.0119888
1.22644e-08
0.00495114
0.0119888
0.00495033
0.0119878
-1.15164e-08
0.00572129
0.011583
3.01935e-14
0.00572216
0.0115832
1.15165e-08
0.00572216
0.0115832
0.00572129
0.011583
-1.21341e-08
0.0062419
0.010233
-1.37087e-13
0.00624181
0.0102338
1.21343e-08
0.00624181
0.0102338
0.0062419
0.010233
-6.11396e-09
0.00678057
0.00879733
-1.16153e-13
0.00677991
0.00879655
6.1142e-09
0.00677991
0.00879655
0.00678057
0.00879733
-1.5491e-08
0.00650889
0.00734908
5.48311e-14
0.00650893
0.00735027
1.54912e-08
0.00650893
0.00735027
0.00650889
0.00734908
-1.08753e-08
0.00628447
0.00642978
3.4257e-13
0.00628414
0.00642944
1.08756e-08
0.00628414
0.00642944
0.00628447
0.00642978
-9.0663e-09
0.00611915
0.0054708
3.67808e-13
0.00611894
0.0054703
9.06665e-09
0.00611894
0.0054703
0.00611915
0.0054708
-8.52614e-09
-0.00456075
0.00483538
0.00584453
2.35523e-13
-0.00456034
0.00483495
0.00584433
8.52643e-09
-0.00456034
0.00483495
0.00584433
-0.00456075
0.00483538
0.00584453
-1.00767e-08
-0.00389282
0.00647739
6.52125e-14
-0.00389243
0.00647738
1.00769e-08
-0.00389243
0.00647738
-0.00389282
0.00647739
-1.32966e-08
-0.00295308
0.00718501
-6.01426e-14
-0.00295277
0.00718649
1.32967e-08
-0.00295277
0.00718649
-0.00295308
0.00718501
-1.49283e-08
-0.00242633
0.00841258
-1.997e-13
-0.00242658
0.00841405
1.49284e-08
-0.00242658
0.00841405
-0.00242633
0.00841258
-2.10738e-08
-0.00083341
0.00803106
-1.18425e-13
-0.000833357
0.00803326
2.10741e-08
-0.000833357
0.00803326
-0.00083341
0.00803106
-1.59537e-08
-0.000221993
0.00719575
-1.95717e-14
-0.000221487
0.00719641
1.59541e-08
-0.000221487
0.00719641
-0.000221993
0.00719575
-1.04098e-08
0.00564995
-3.14408e-14
0.0056494
1.04099e-08
0.0056494
0.00564995
-1.27053e-08
-0.000110828
0.0017733
-3.84004e-13
-0.000110841
0.00177308
1.27059e-08
-0.000110841
0.00177308
-0.000110828
0.0017733
-2.60393e-08
0.00158137
0.000427743
-5.29578e-13
0.00158229
0.000429063
2.604e-08
0.00158229
0.000429063
0.00158137
0.000427743
-9.5487e-09
0.00253034
-0.00132083
0.0117793
-3.74637e-13
0.00253034
-0.00132075
0.0117808
9.5488e-09
0.00253034
-0.00132075
0.0117808
0.00253034
-0.00132083
0.0117793
-1.27229e-08
0.00342082
0.0110974
-2.82415e-13
0.00342057
0.0110986
1.27227e-08
0.00342057
0.0110986
0.00342082
0.0110974
-1.02386e-08
0.00444647
0.0105574
-2.83168e-13
0.00444652
0.0105573
1.02385e-08
0.00444652
0.0105573
0.00444647
0.0105574
-1.25923e-08
0.00512914
0.00955038
-3.96467e-13
0.00512942
0.00955085
1.25923e-08
0.00512942
0.00955085
0.00512914
0.00955038
-8.4074e-09
0.00545862
0.00846786
-3.11458e-13
0.00545845
0.00846751
8.40748e-09
0.00545845
0.00846751
0.00545862
0.00846786
-1.32578e-08
0.00540174
0.00740598
-1.10391e-14
0.00540205
0.00740666
1.32579e-08
0.00540205
0.00740666
0.00540174
0.00740598
-9.86139e-09
0.00529976
0.00653177
2.73614e-13
0.00529962
0.00653186
9.86164e-09
0.00529962
0.00653186
0.00529976
0.00653177
-7.49365e-09
0.0052434
0.00552717
3.54039e-13
0.00524309
0.00552682
7.49399e-09
0.00524309
0.00552682
0.0052434
0.00552716
-5.97299e-09
0.00491074
0.00516804
2.5694e-13
0.00491033
0.0051677
5.97328e-09
0.00491033
0.0051677
0.00491074
0.00516804
-3.64657e-08
0.0610402
-0.064755
0.0124028
-2.13148e-13
0.0610416
-0.0647559
0.0124062
3.64651e-08
0.0610416
-0.0647559
0.0124062
0.0610402
-0.064755
0.0124028
2.60393e-09
0.0605615
0.0121296
-4.81051e-13
0.0605677
0.012125
-2.60468e-09
0.0605677
0.012125
0.0605615
0.0121296
2.26879e-08
0.0672363
0.0077163
-5.27996e-14
0.0672505
0.00771192
-2.26881e-08
0.0672505
0.00771192
0.0672363
0.0077163
-2.10307e-09
0.0692149
0.00933251
5.95067e-13
0.0692251
0.00932694
2.10299e-09
0.0692251
0.00932694
0.0692149
0.00933251
-2.61104e-08
0.0705084
0.0125075
4.5292e-13
0.0705161
0.0125114
2.61094e-08
0.0705161
0.0125114
0.0705084
0.0125075
-8.84251e-08
0.0715179
0.0152812
4.13155e-13
0.0715201
0.0152847
8.84246e-08
0.0715201
0.0152847
0.0715179
0.0152812
-2.7667e-08
0.0718119
0.0157079
9.19403e-14
0.0718196
0.0157138
2.76677e-08
0.0718196
0.0157138
0.0718119
0.0157079
-5.05437e-08
0.07057
0.0179046
-1.51646e-12
0.0705691
0.0179115
5.05438e-08
0.0705691
0.0179115
0.07057
0.0179046
2.28026e-07
0.0705386
0.016836
5.85704e-14
0.0705466
0.0168222
-2.28029e-07
0.0705466
0.0168222
0.0705386
0.016836
-3.00158e-08
0.0718922
0.0222912
3.37132e-12
0.0718972
0.0223009
3.00139e-08