x,y,z,U_0,U_1,U_2
0,0,0,0.3,-0.000124814,0
0,0.1,0,0.3,-8.91527e-05,0
0,0.2,0,0.3,-5.34916e-05,0
0,0.3,0,0.3,-1.78305e-05,0
0,0.4,0,0.3,0,0
0,0.5,0,0.3,0,0
0,0.6,0,0.3,0,0
0,0.7,0,0.3,0,0
0,0.8,0,0.3,0,0
0,0.9,0,0.3,0,0
0,1,0,0.3,0,0
0,1.1,0,0.3,0,0
0,1.2,0,0.3,0,0
0,1.3,0,0.3,0,0
0,1.4,0,0.3,0,0
0,1.5,0,0.3,0,0
0,1.6,0,0.3,0,0
0,1.7,0,0.3,0,0
0,1.8,0,0.3,0,0
0,1.9,0,0.3,0,0
0,2,0,0.3,0,0
0,2.1,0,0.3,0,0
0,2.2,0,0.3,0,0
0,2.3,0,0.3,0,0
0,2.4,0,0.3,0,0
0,2.5,0,0.3,0,0
0,2.6,0,0.3,0,0
0,2.7,0,0.3,0,0
0,2.8,0,0.3,0,0
0,2.9,0,0.3,0,0
0,3,0,0.3,0,0
0,3.1,0,0.3,0,0
0,3.2,0,0.3,0,0
0,3.3,0,0.3,0,0
0,3.4,0,0.3,0,0
0,3.5,0,0.3,0,0
0,3.6,0,0.3,0,0
0,3.7,0,0.3,0,0
0,3.8,0,0.3,0,0
0,3.9,0,0.3,0,0
0,4,0,0.3,0,0
0,4.1,0,0.3,0,0
0,4.2,0,0.3,0,0
0,4.3,0,0.3,0,0
0,4.4,0,0.3,0,0
0,4.5,0,0.3,0,0
0,4.6,0,0.3,0,0
0,4.7,0,0.3,0,0
0,4.8,0,0.3,0,0
0,4.9,0,0.3,0,0
0,5,0,0.3,0,0
0,5.1,0,0.3,0,0
0,5.2,0,0.3,0,0
0,5.3,0,0.3,0,0
0,5.4,0,0.3,0,0
0,5.5,0,0.3,0,0
0,5.6,0,0.3,0,0
0,5.7,0,0.3,0,0
0,5.8,0,0.3,0,0
0,5.9,0,0.3,0,0
0,6,0,0.3,0,0
0,6.1,0,0.3,0,0
0,6.2,0,0.3,0,0
0,6.3,0,0.3,0,0
0,6.4,0,0.3,0,0
0,6.5,0,0.3,0,0
0,6.6,0,0.3,0,0
0,6.7,0,0.3,0,0
0,6.8,0,0.3,0,0
0,6.9,0,0.3,0,0
0,7,0,0.3,0,0
0,7.1,0,0.3,0,0
0,7.2,0,0.3,0,0
0,7.3,0,0.3,0,0
0,7.4,0,0.3,0,0
0,7.5,0,0.3,0,0
0,7.6,0,0.3,0,0
0,7.7,0,0.3,0,0
0,7.8,0,0.3,0,0
0,7.9,0,0.3,0,0
0,8,0,0.3,0,0
0,8.1,0,0.3,0,0
0,8.2,0,0.3,0,0
0,8.3,0,0.3,0,0
0,8.4,0,0.3,0,0
0,8.5,0,0.3,0,0
0,8.6,0,0.3,0,0
0,8.7,0,0.3,0,0
0,8.8,0,0.3,0,0
0,8.9,0,0.3,0,0
0,9,0,0.3,0,0
0,9.1,0,0.3,0,0
0,9.2,0,0.3,0,0
0,9.3,0,0.3,0,0
0,9.4,0,0.3,0,0
0,9.5,0,0.3,0,0
0,9.6,0,0.3,0,0
0,9.7,0,0.3,0,0
0,9.8,0,0.3,0,0
0,9.9,0,0.3,0,0
0,10,0,0.3,0,0
0,10.1,0,0.3,0,0
0,10.2,0,0.3,0,0
0,10.3,0,0.3,0,0
0,10.4,0,0.3,0,0
0,10.5,0,0.3,0,0
0,10.6,0,0.3,0,0
0,10.7,0,0.3,0,0
0,10.8,0,0.3,0,0
0,10.9,0,0.3,0,0
0,11,0,0.3,0,0
0,11.1,0,0.3,0,0
0,11.2,0,0.3,0,0
0,11.3,0,0.3,0,0
0,11.4,0,0.3,0,0
0,11.5,0,0.3,0,0
0,11.6,0,0.3,0,0
0,11.7,0,0.3,0,0
0,11.8,0,0.3,0,0
0,11.9,0,0.3,0,0
0,12,0,0.3,0,0
0,12.1,0,0.3,0,0
0,12.2,0,0.3,0,0
0,12.3,0,0.3,0,0
0,12.4,0,0.3,0,0
0,12.5,0,0.3,1.52327e-05,0
0,12.6,0,0.299999,5.87548e-05,0
0,12.7,0,0.299998,0.000102277,0
0.1,0,0,0.3,-0.000188749,0
0.1,0.1,0,0.3,-0.000151588,0
0.1,0.2,0,0.3,-0.000115926,0
0.1,0.3,0,0.3,-8.17259e-05,0
0.1,0.4,0,0.3,-8.10305e-05,0
0.1,0.5,0,0.3,-8.0888e-05,0
0.1,0.6,0,0.3,-8.0888e-05,0
0.1,0.7,0,0.299999,-8.21271e-05,0
0.1,0.8,0,0.3,-7.94012e-05,0
0.1,0.9,0,0.3,-7.94012e-05,0
0.1,1,0,0.3,-7.9507e-05,0
0.1,1.1,0,0.299999,-7.73959e-05,0
0.1,1.2,0,0.299999,-7.71277e-05,0
0.1,1.3,0,0.299999,-7.71277e-05,0
0.1,1.4,0,0.299998,-7.91591e-05,0
0.1,1.5,0,0.299999,-7.40305e-05,0
0.1,1.6,0,0.299999,-7.40305e-05,0
0.1,1.7,0,0.299999,-7.42408e-05,0
0.1,1.8,0,0.299999,-7.05625e-05,0
0.1,1.9,0,0.299999,-7.00692e-05,0
0.1,2,0,0.299999,-7.00692e-05,0
0.1,2.1,0,0.299996,-7.43467e-05,0
0.1,2.2,0,0.299998,-6.522e-05,0
0.1,2.3,0,0.299998,-6.522e-05,0
0.1,2.4,0,0.299998,-6.56537e-05,0
0.1,2.5,0,0.299998,-6.03409e-05,0
0.1,2.6,0,0.299998,-5.94985e-05,0
0.1,2.7,0,0.299998,-5.94985e-05,0
0.1,2.8,0,0.299995,-6.7828e-05,0
0.1,2.9,0,0.299998,-5.29831e-05,0
0.1,3,0,0.299998,-5.29831e-05,0
0.1,3.1,0,0.299997,-5.37674e-05,0
0.1,3.2,0,0.299997,-4.71345e-05,0
0.1,3.3,0,0.299997,-4.584e-05,0
0.1,3.4,0,0.299997,-4.584e-05,0
0.1,3.5,0,0.299995,-5.96971e-05,0
0.1,3.6,0,0.299996,-3.83471e-05,0
0.1,3.7,0,0.299996,-3.83471e-05,0
0.1,3.8,0,0.299996,-3.95374e-05,0
0.1,3.9,0,0.299996,-3.26294e-05,0
0.1,4,0,0.299996,-3.09077e-05,0
0.1,4.1,0,0.299996,-3.09077e-05,0
0.1,4.2,0,0.299994,-4.98646e-05,0
0.1,4.3,0,0.299996,-2.40468e-05,0
0.1,4.4,0,0.299996,-2.40468e-05,0
0.1,4.5,0,0.299996,-2.54857e-05,0
0.1,4.6,0,0.299997,-2.02087e-05,0
0.1,4.7,0,0.299997,-1.83638e-05,0
0.1,4.8,0,0.299997,-1.83638e-05,0
0.1,4.9,0,0.299995,-3.79005e-05,0
0.1,5,0,0.3,-1.44013e-05,0
0.1,5.1,0,0.3,-1.44013e-05,0
0.1,5.2,0,0.3,-1.55798e-05,0
0.1,5.3,0,0.300007,-1.37314e-05,0
0.1,5.4,0,0.300007,-1.24106e-05,0
0.1,5.5,0,0.300007,-1.24106e-05,0
0.1,5.6,0,0.299995,-2.31438e-05,0
0.1,5.7,0,0.30002,-1.20992e-05,0
0.1,5.8,0,0.30002,-1.20992e-05,0
0.1,5.9,0,0.300018,-1.2283e-05,0
0.1,6,0,0.300036,-1.2697e-05,0
0.1,6.1,0,0.300039,-1.2545e-05,0
0.1,6.2,0,0.300039,-1.2545e-05,0
0.1,6.3,0,0.299992,-5.61014e-06,0
0.1,6.4,0,0.300062,-1.19303e-05,0
0.1,6.5,0,0.300062,-1.19303e-05,0
0.1,6.6,0,0.300057,-1.07947e-05,0
0.1,6.7,0,0.300078,-9.53326e-06,0
0.1,6.8,0,0.300085,-1.05718e-05,0
0.1,6.9,0,0.300085,-1.05718e-05,0
0.1,7,0,0.299986,1.13408e-05,0
0.1,7.1,0,0.299985,1.46426e-05,0
0.1,7.2,0,0.299984,1.64781e-05,0
0.1,7.3,0,0.299984,1.82886e-05,0
0.1,7.4,0,0.299984,2.01119e-05,0
0.1,7.5,0,0.299984,2.19382e-05,0
0.1,7.6,0,0.299984,2.3762e-05,0
0.1,7.7,0,0.299984,2.55805e-05,0
0.1,7.8,0,0.299984,2.73897e-05,0
0.1,7.9,0,0.299985,2.92126e-05,0
0.1,8,0,0.299986,3.18013e-05,0
0.1,8.1,0,0.300089,4.23708e-05,0
0.1,8.2,0,0.300086,4.21753e-05,0
0.1,8.3,0,0.300074,4.70031e-05,0
0.1,8.4,0,0.300074,4.70031e-05,0
0.1,8.5,0,0.300045,4.87232e-05,0
0.1,8.6,0,0.300057,5.01529e-05,0
0.1,8.7,0,0.300001,4.76065e-05,0
0.1,8.8,0,0.30004,5.20111e-05,0
0.1,8.9,0,0.30004,5.20111e-05,0
0.1,9,0,0.300024,5.27422e-05,0
0.1,9.1,0,0.300024,5.27422e-05,0
0.1,9.2,0,0.300007,5.42505e-05,0
0.1,9.3,0,0.300012,5.27486e-05,0
0.1,9.4,0,0.300001,5.97992e-05,0
0.1,9.5,0,0.300002,5.24625e-05,0
0.1,9.6,0,0.300002,5.24625e-05,0
0.1,9.7,0,0.299996,5.22492e-05,0
0.1,9.8,0,0.299996,5.22492e-05,0
0.1,9.9,0,0.299995,6.08247e-05,0
0.1,10,0,0.299992,5.23689e-05,0
0.1,10.1,0,0.299995,6.56929e-05,0
0.1,10.2,0,0.299991,5.29597e-05,0
0.1,10.3,0,0.299991,5.29597e-05,0
0.1,10.4,0,0.29999,5.40465e-05,0
0.1,10.5,0,0.29999,5.40465e-05,0
0.1,10.6,0,0.299995,7.08441e-05,0
0.1,10.7,0,0.299991,5.55662e-05,0
0.1,10.8,0,0.299994,6.84409e-05,0
0.1,10.9,0,0.299992,5.74028e-05,0
0.1,11,0,0.299992,5.74028e-05,0
0.1,11.1,0,0.299993,5.94148e-05,0
0.1,11.2,0,0.299993,5.94148e-05,0
0.1,11.3,0,0.299997,8.11838e-05,0
0.1,11.4,0,0.299994,6.14563e-05,0
0.1,11.5,0,0.299995,7.03848e-05,0
0.1,11.6,0,0.299995,6.33926e-05,0
0.1,11.7,0,0.299995,6.33926e-05,0
0.1,11.8,0,0.299996,6.51058e-05,0
0.1,11.9,0,0.299996,6.51058e-05,0
0.1,12,0,0.299998,8.91556e-05,0
0.1,12.1,0,0.299997,6.64938e-05,0
0.1,12.2,0,0.299998,7.10964e-05,0
0.1,12.3,0,0.299998,6.74745e-05,0
0.1,12.4,0,0.299998,6.74745e-05,0
0.1,12.5,0,0.299999,6.88368e-05,0
0.1,12.6,0,0.299998,0.000111028,0
0.1,12.7,0,0.299998,0.000180665,0
0.2,0,0,0.299999,-0.000252684,0
0.2,0.1,0,0.3,-0.000214237,0
0.2,0.2,0,0.3,-0.000178361,0
0.2,0.3,0,0.299999,-0.000164609,0
0.2,0.4,0,0.299999,-0.000163913,0
0.2,0.5,0,0.299999,-0.000161776,0
0.2,0.6,0,0.299999,-0.000161953,0
0.2,0.7,0,0.299998,-0.000164254,0
0.2,0.8,0,0.299999,-0.000159192,0
0.2,0.9,0,0.299999,-0.000158802,0
0.2,1,0,0.299998,-0.000160389,0
0.2,1.1,0,0.299998,-0.000158278,0
0.2,1.2,0,0.299999,-0.000154255,0
0.2,1.3,0,0.299999,-0.000154546,0
0.2,1.4,0,0.299995,-0.000158318,0
0.2,1.5,0,0.299999,-0.000148794,0
0.2,1.6,0,0.299999,-0.000148061,0
0.2,1.7,0,0.299996,-0.000151216,0
0.2,1.8,0,0.299996,-0.000147537,0
0.2,1.9,0,0.299998,-0.000140138,0
0.2,2,0,0.299998,-0.00014075,0
0.2,2.1,0,0.299993,-0.000148693,0
0.2,2.2,0,0.299997,-0.000131744,0
0.2,2.3,0,0.299997,-0.00013044,0
0.2,2.4,0,0.299994,-0.000136946,0
0.2,2.5,0,0.299994,-0.000131633,0
0.2,2.6,0,0.299996,-0.000118997,0
0.2,2.7,0,0.299996,-0.000120187,0
0.2,2.8,0,0.299991,-0.000135656,0
0.2,2.9,0,0.299995,-0.000108087,0
0.2,3,0,0.299995,-0.000105966,0
0.2,3.1,0,0.299992,-0.000117731,0
0.2,3.2,0,0.299992,-0.000111098,0
0.2,3.3,0,0.299994,-9.168e-05,0
0.2,3.4,0,0.299994,-9.36596e-05,0
0.2,3.5,0,0.299989,-0.000119394,0
0.2,3.6,0,0.299992,-7.97442e-05,0
0.2,3.7,0,0.299993,-7.66942e-05,0
0.2,3.8,0,0.299991,-9.45483e-05,0
0.2,3.9,0,0.29999,-8.76403e-05,0
0.2,4,0,0.299992,-6.18154e-05,0
0.2,4.1,0,0.299992,-6.45235e-05,0
0.2,4.2,0,0.299989,-9.97292e-05,0
0.2,4.3,0,0.299992,-5.17818e-05,0
0.2,4.4,0,0.299992,-4.80935e-05,0
0.2,4.5,0,0.29999,-6.9677e-05,0
0.2,4.6,0,0.299991,-6.44e-05,0
0.2,4.7,0,0.299994,-3.67277e-05,0
0.2,4.8,0,0.299994,-3.95186e-05,0
0.2,4.9,0,0.29999,-7.5801e-05,0
0.2,5,0,0.3,-3.21596e-05,0
0.2,5.1,0,0.300001,-2.88025e-05,0
0.2,5.2,0,0.299995,-4.6481e-05,0
0.2,5.3,0,0.300002,-4.46325e-05,0
0.2,5.4,0,0.300015,-2.48212e-05,0
0.2,5.5,0,0.300013,-2.63545e-05,0
0.2,5.6,0,0.29999,-4.62877e-05,0
0.2,5.7,0,0.300036,-2.57762e-05,0
0.2,5.8,0,0.30004,-2.41984e-05,0
0.2,5.9,0,0.300012,-2.6956e-05,0
0.2,6,0,0.300029,-2.737e-05,0
0.2,6.1,0,0.300078,-2.50901e-05,0
0.2,6.2,0,0.300071,-2.40994e-05,0
0.2,6.3,0,0.299983,-1.12203e-05,0
0.2,6.4,0,0.300114,-2.29577e-05,0
0.2,6.5,0,0.300124,-2.38606e-05,0
0.2,6.6,0,0.300046,-6.82763e-06,0
0.2,6.7,0,0.300067,-5.56614e-06,0
0.2,6.8,0,0.30017,-2.11435e-05,0
0.2,6.9,0,0.300156,-1.80131e-05,0
0.2,7,0,0.299972,2.26815e-05,0
0.2,7.1,0,0.29997,2.92853e-05,0
0.2,7.2,0,0.299969,3.29561e-05,0
0.2,7.3,0,0.299968,3.65772e-05,0
0.2,7.4,0,0.299968,4.02239e-05,0
0.2,7.5,0,0.299967,4.38765e-05,0
0.2,7.6,0,0.299968,4.75241e-05,0
0.2,7.7,0,0.299968,5.11611e-05,0
0.2,7.8,0,0.299969,5.47794e-05,0
0.2,7.9,0,0.29997,5.84252e-05,0
0.2,8,0,0.299972,6.36026e-05,0
0.2,8.1,0,0.300178,8.47415e-05,0
0.2,8.2,0,0.300073,7.84216e-05,0
0.2,8.3,0,0.30013,9.18319e-05,0
0.2,8.4,0,0.300142,9.3671e-05,0
0.2,8.5,0,0.300035,9.04762e-05,0
0.2,8.6,0,0.300113,0.000100306,0
0.2,8.7,0,0.299993,9.48044e-05,0
0.2,8.8,0,0.300079,0.000104022,0
0.2,8.9,0,0.300039,0.000104457,0
0.2,9,0,0.300038,0.000105401,0
0.2,9.1,0,0.300049,0.000105484,0
0.2,9.2,0,0.300002,0.000111867,0
0.2,9.3,0,0.300023,0.000105497,0
0.2,9.4,0,0.299998,0.000122294,0
0.2,9.5,0,0.300004,0.000104925,0
0.2,9.6,0,0.300001,0.000115958,0
0.2,9.7,0,0.299993,0.000111593,0
0.2,9.8,0,0.299992,0.000104498,0
0.2,9.9,0,0.299992,0.000132119,0
0.2,10,0,0.299985,0.000104738,0
0.2,10.1,0,0.299993,0.000140834,0
0.2,10.2,0,0.299982,0.000105919,0
0.2,10.3,0,0.299986,0.000121741,0
0.2,10.4,0,0.299985,0.000123244,0
0.2,10.5,0,0.299981,0.000108093,0
0.2,10.6,0,0.299992,0.000152522,0
0.2,10.7,0,0.299982,0.000111132,0
0.2,10.8,0,0.299991,0.000152822,0
0.2,10.9,0,0.299984,0.000114806,0
0.2,11,0,0.299987,0.000128843,0
0.2,11.1,0,0.299989,0.000139458,0
0.2,11.2,0,0.299986,0.00011883,0
0.2,11.3,0,0.299994,0.000169911,0
0.2,11.4,0,0.299988,0.000122913,0
0.2,11.5,0,0.299993,0.000160782,0
0.2,11.6,0,0.29999,0.000126785,0
0.2,11.7,0,0.299991,0.000136438,0
0.2,11.8,0,0.299994,0.00015402,0
0.2,11.9,0,0.299992,0.000130212,0
0.2,12,0,0.299997,0.000181948,0
0.2,12.1,0,0.299994,0.000132988,0
0.2,12.2,0,0.299997,0.00016463,0
0.2,12.3,0,0.299996,0.000136612,0
0.2,12.4,0,0.299997,0.000140306,0
0.2,12.5,0,0.299998,0.000162813,0
0.2,12.6,0,0.299997,0.000163301,0
0.2,12.7,0,0.299998,0.000259053,0
0.3,0,0,0.299999,-0.000316619,0
0.3,0.1,0,0.3,-0.000278172,0
0.3,0.2,0,0.3,-0.000245178,0
0.3,0.3,0,0.299999,-0.000247491,0
0.3,0.4,0,0.299998,-0.000246796,0
0.3,0.5,0,0.299999,-0.000243091,0
0.3,0.6,0,0.299998,-0.00024408,0
0.3,0.7,0,0.299996,-0.000246381,0
0.3,0.8,0,0.299998,-0.000241319,0
0.3,0.9,0,0.299999,-0.000238521,0
0.3,1,0,0.299996,-0.000241271,0
0.3,1.1,0,0.299996,-0.00023916,0
0.3,1.2,0,0.299998,-0.000232188,0
0.3,1.3,0,0.299996,-0.000233705,0
0.3,1.4,0,0.299993,-0.000237477,0
0.3,1.5,0,0.299996,-0.000227953,0
0.3,1.6,0,0.299998,-0.000222722,0
0.3,1.7,0,0.299993,-0.000228191,0
0.3,1.8,0,0.299993,-0.000224512,0
0.3,1.9,0,0.299997,-0.000211687,0
0.3,2,0,0.299994,-0.000215096,0
0.3,2.1,0,0.299989,-0.00022304,0
0.3,2.2,0,0.299993,-0.000206091,0
0.3,2.3,0,0.299995,-0.000196961,0
0.3,2.4,0,0.29999,-0.000208238,0
0.3,2.5,0,0.29999,-0.000202925,0
0.3,2.6,0,0.299994,-0.000181023,0
0.3,2.7,0,0.299991,-0.000188015,0
0.3,2.8,0,0.299986,-0.000203484,0
0.3,2.9,0,0.29999,-0.000175915,0
0.3,3,0,0.299992,-0.000161302,0
0.3,3.1,0,0.299987,-0.000181694,0
0.3,3.2,0,0.299987,-0.000175061,0
0.3,3.3,0,0.29999,-0.000141404,0
0.3,3.4,0,0.299988,-0.000153357,0
0.3,3.5,0,0.299984,-0.000179091,0
0.3,3.6,0,0.299987,-0.000139441,0
0.3,3.7,0,0.299989,-0.000118612,0
0.3,3.8,0,0.299985,-0.000149559,0
0.3,3.9,0,0.299985,-0.000142651,0
0.3,4,0,0.299988,-9.78881e-05,0
0.3,4.1,0,0.299986,-0.000114388,0
0.3,4.2,0,0.299983,-0.000149594,0
0.3,4.3,0,0.299986,-0.000101646,0
0.3,4.4,0,0.299988,-7.6457e-05,0
0.3,4.5,0,0.299985,-0.000113868,0
0.3,4.6,0,0.299986,-0.000108591,0
0.3,4.7,0,0.29999,-6.0626e-05,0
0.3,4.8,0,0.299988,-7.74191e-05,0
0.3,4.9,0,0.299985,-0.000113701,0
0.3,5,0,0.299995,-7.006e-05,0
0.3,5.1,0,0.3,-4.67395e-05,0
0.3,5.2,0,0.29999,-7.73821e-05,0
0.3,5.3,0,0.299997,-7.55336e-05,0
0.3,5.4,0,0.30002,-4.11941e-05,0
0.3,5.5,0,0.300008,-4.94984e-05,0
0.3,5.6,0,0.299984,-6.94315e-05,0
0.3,5.7,0,0.300031,-4.892e-05,0
0.3,5.8,0,0.300054,-3.68491e-05,0
0.3,5.9,0,0.300005,-4.16289e-05,0
0.3,6,0,0.300023,-4.20429e-05,0
0.3,6.1,0,0.300107,-3.80911e-05,0
0.3,6.2,0,0.300062,-2.97095e-05,0
0.3,6.3,0,0.299975,-1.68304e-05,0
0.3,6.4,0,0.300106,-2.85678e-05,0
0.3,6.5,0,0.300171,-3.23842e-05,0
0.3,6.6,0,0.300034,-2.8605e-06,0
0.3,6.7,0,0.300055,-1.59902e-06,0
0.3,6.8,0,0.300234,-2.85998e-05,0
0.3,6.9,0,0.300142,-6.67239e-06,0
0.3,7,0,0.299959,3.40223e-05,0
0.3,7.1,0,0.299955,4.39279e-05,0
0.3,7.2,0,0.299953,4.94342e-05,0
0.3,7.3,0,0.299952,5.48658e-05,0
0.3,7.4,0,0.299951,6.03358e-05,0
0.3,7.5,0,0.299951,6.58147e-05,0
0.3,7.6,0,0.299951,7.12861e-05,0
0.3,7.7,0,0.299952,7.67416e-05,0
0.3,7.8,0,0.299953,8.21692e-05,0
0.3,7.9,0,0.299955,8.76377e-05,0
0.3,8,0,0.299958,9.5404e-05,0
0.3,8.1,0,0.300243,0.000124639,0
0.3,8.2,0,0.300061,0.000114668,0
0.3,8.3,0,0.300117,0.000128078,0
0.3,8.4,0,0.300132,0.000135424,0
0.3,8.5,0,0.300025,0.000132229,0
0.3,8.6,0,0.300164,0.000150176,0
0.3,8.7,0,0.299986,0.000142002,0
0.3,8.8,0,0.300101,0.000154241,0
0.3,8.9,0,0.300033,0.000156955,0
0.3,9,0,0.300033,0.000157899,0
0.3,9.1,0,0.300046,0.000162738,0
0.3,9.2,0,0.299998,0.000169484,0
0.3,9.3,0,0.300035,0.000158246,0
0.3,9.4,0,0.299994,0.000184789,0
0.3,9.5,0,0.300004,0.00016251,0
0.3,9.6,0,0.299998,0.000183028,0
0.3,9.7,0,0.29999,0.000178663,0
0.3,9.8,0,0.299989,0.00017174,0
0.3,9.9,0,0.29999,0.000203412,0
0.3,10,0,0.299977,0.000157107,0
0.3,10.1,0,0.299991,0.000215975,0
0.3,10.2,0,0.299977,0.000173273,0
0.3,10.3,0,0.299983,0.000200342,0
0.3,10.4,0,0.299983,0.000201845,0
0.3,10.5,0,0.299976,0.00018007,0
0.3,10.6,0,0.29999,0.000234199,0
0.3,10.7,0,0.299973,0.000166698,0
0.3,10.8,0,0.299989,0.000237203,0
0.3,10.9,0,0.29998,0.000193446,0
0.3,11,0,0.299984,0.000215569,0
0.3,11.1,0,0.299987,0.000226184,0
0.3,11.2,0,0.299981,0.000193212,0
0.3,11.3,0,0.299992,0.000258637,0
0.3,11.4,0,0.299982,0.000184369,0
0.3,11.5,0,0.299991,0.000251179,0
0.3,11.6,0,0.299988,0.000215171,0
0.3,11.7,0,0.299989,0.000228187,0
0.3,11.8,0,0.299992,0.000245769,0
0.3,11.9,0,0.299989,0.000205626,0
0.3,12,0,0.299995,0.000274741,0
0.3,12.1,0,0.299992,0.000202,0
0.3,12.2,0,0.299996,0.000258165,0
0.3,12.3,0,0.299995,0.000230146,0
0.3,12.4,0,0.299996,0.000234282,0
0.3,12.5,0,0.299998,0.000256789,0
0.3,12.6,0,0.299996,0.000221686,0
0.3,12.7,0,0.299998,0.00033744,0
0.4,0,0,0.299999,-0.000380554,0
0.4,0.1,0,0.299999,-0.000342107,0
0.4,0.2,0,0.299999,-0.000328489,0
0.4,0.3,0,0.299998,-0.000330374,0
0.4,0.4,0,0.299998,-0.000329678,0
0.4,0.5,0,0.299998,-0.000326328,0
0.4,0.6,0,0.299997,-0.000326207,0
0.4,0.7,0,0.299995,-0.000328508,0
0.4,0.8,0,0.299997,-0.000323446,0
0.4,0.9,0,0.299997,-0.000320182,0
0.4,1,0,0.299994,-0.000322153,0
0.4,1.1,0,0.299994,-0.000320042,0
0.4,1.2,0,0.299996,-0.00031365,0
0.4,1.3,0,0.299994,-0.000312864,0
0.4,1.4,0,0.299991,-0.000316636,0
0.4,1.5,0,0.299994,-0.000307112,0
0.4,1.6,0,0.299994,-0.000301163,0
0.4,1.7,0,0.29999,-0.000305166,0
0.4,1.8,0,0.29999,-0.000301487,0
0.4,1.9,0,0.299993,-0.000289885,0
0.4,2,0,0.299991,-0.000289443,0
0.4,2.1,0,0.299986,-0.000297387,0
0.4,2.2,0,0.29999,-0.000280437,0
0.4,2.3,0,0.29999,-0.000270861,0
0.4,2.4,0,0.299986,-0.000279531,0
0.4,2.5,0,0.299986,-0.000274218,0
0.4,2.6,0,0.299989,-0.000254695,0
0.4,2.7,0,0.299987,-0.000255843,0
0.4,2.8,0,0.299981,-0.000271312,0
0.4,2.9,0,0.299985,-0.000243743,0
0.4,3,0,0.299986,-0.000229507,0
0.4,3.1,0,0.299982,-0.000245658,0
0.4,3.2,0,0.299981,-0.000239025,0
0.4,3.3,0,0.299985,-0.000209326,0
0.4,3.4,0,0.299983,-0.000213054,0
0.4,3.5,0,0.299978,-0.000238788,0
0.4,3.6,0,0.299981,-0.000199138,0
0.4,3.7,0,0.299982,-0.000179723,0
0.4,3.8,0,0.299979,-0.00020457,0
0.4,3.9,0,0.299979,-0.000197662,0
0.4,4,0,0.299982,-0.000158315,0
0.4,4.1,0,0.29998,-0.000164253,0
0.4,4.2,0,0.299977,-0.000199458,0
0.4,4.3,0,0.29998,-0.000151511,0
0.4,4.4,0,0.299982,-0.000128025,0
0.4,4.5,0,0.29998,-0.00015806,0
0.4,4.6,0,0.29998,-0.000152783,0
0.4,4.7,0,0.299984,-0.000110399,0
0.4,4.8,0,0.299983,-0.00011532,0
0.4,4.9,0,0.29998,-0.000151602,0
0.4,5,0,0.29999,-0.000107961,0
0.4,5.1,0,0.299993,-8.43547e-05,0
0.4,5.2,0,0.299985,-0.000108283,0
0.4,5.3,0,0.299992,-0.000106435,0
0.4,5.4,0,0.300011,-7.51619e-05,0
0.4,5.5,0,0.300003,-7.26422e-05,0
0.4,5.6,0,0.299979,-9.25754e-05,0
0.4,5.7,0,0.300026,-7.20639e-05,0
0.4,5.8,0,0.300041,-5.46777e-05,0
0.4,5.9,0,0.299999,-5.63019e-05,0
0.4,6,0,0.300017,-5.67159e-05,0
0.4,6.1,0,0.300087,-5.07827e-05,0
0.4,6.2,0,0.300054,-3.53197e-05,0
0.4,6.3,0,0.299966,-2.24406e-05,0
0.4,6.4,0,0.300097,-3.4178e-05,0
0.4,6.5,0,0.300139,-2.66114e-05,0
0.4,6.6,0,0.300023,1.10662e-06,0
0.4,6.7,0,0.300044,2.36811e-06,0
0.4,6.8,0,0.300195,-1.83719e-05,0
0.4,6.9,0,0.300128,4.66836e-06,0
0.4,7,0,0.299945,4.5363e-05,0
0.4,7.1,0,0.29994,5.85705e-05,0
0.4,7.2,0,0.299938,6.59122e-05,0
0.4,7.3,0,0.299936,7.31544e-05,0
0.4,7.4,0,0.299935,8.04477e-05,0
0.4,7.5,0,0.299935,8.77529e-05,0
0.4,7.6,0,0.299935,9.50481e-05,0
0.4,7.7,0,0.299936,0.000102322,0
0.4,7.8,0,0.299938,0.000109559,0
0.4,7.9,0,0.29994,0.00011685,0
0.4,8,0,0.299944,0.000127205,0
0.4,8.1,0,0.300202,0.000154811,0
0.4,8.2,0,0.300049,0.000150914,0
0.4,8.3,0,0.300105,0.000164324,0
0.4,8.4,0,0.300122,0.000177177,0
0.4,8.5,0,0.300015,0.000173982,0
0.4,8.6,0,0.300129,0.000193978,0
0.4,8.7,0,0.299978,0.0001892,0
0.4,8.8,0,0.300088,0.000201501,0
0.4,8.9,0,0.300027,0.000209453,0
0.4,9,0,0.300027,0.000210397,0
0.4,9.1,0,0.300042,0.000220355,0
0.4,9.2,0,0.299994,0.000227101,0
0.4,9.3,0,0.300024,0.000222967,0
0.4,9.4,0,0.299991,0.000247284,0
0.4,9.5,0,0.3,0.000225005,0
0.4,9.6,0,0.299995,0.000250097,0
0.4,9.7,0,0.299987,0.000245732,0
0.4,9.8,0,0.299987,0.000243034,0
0.4,9.9,0,0.299987,0.000274706,0
0.4,10,0,0.299977,0.000241014,0
0.4,10.1,0,0.299988,0.000291115,0
0.4,10.2,0,0.299974,0.000248414,0
0.4,10.3,0,0.299981,0.000278943,0
0.4,10.4,0,0.29998,0.000280446,0
0.4,10.5,0,0.299973,0.000261748,0
0.4,10.6,0,0.299987,0.000315877,0
0.4,10.7,0,0.299974,0.000263272,0
0.4,10.8,0,0.299986,0.000321584,0
0.4,10.9,0,0.299978,0.000277827,0
0.4,11,0,0.299981,0.000302295,0
0.4,11.1,0,0.299984,0.00031291,0
0.4,11.2,0,0.299979,0.000281939,0
0.4,11.3,0,0.299989,0.000347364,0
0.4,11.4,0,0.299981,0.000287637,0
0.4,11.5,0,0.299988,0.000341576,0
0.4,11.6,0,0.299985,0.000305568,0
0.4,11.7,0,0.299987,0.000319936,0
0.4,11.8,0,0.29999,0.000337518,0
0.4,11.9,0,0.299988,0.00030182,0
0.4,12,0,0.299994,0.000367534,0
0.4,12.1,0,0.299991,0.000305723,0
0.4,12.2,0,0.299995,0.000351699,0
0.4,12.3,0,0.299994,0.00032368,0
0.4,12.4,0,0.299995,0.000328258,0
0.4,12.5,0,0.299997,0.000350765,0
0.4,12.6,0,0.299996,0.000311165,0
0.4,12.7,0,0.299998,0.000415828,0
0.5,0,0,0.299998,-0.000444489,0
0.5,0.1,0,0.299999,-0.000413345,0
0.5,0.2,0,0.299998,-0.000412872,0
0.5,0.3,0,0.299997,-0.000413256,0
0.5,0.4,0,0.299997,-0.000412561,0
0.5,0.5,0,0.299997,-0.00041045,0
0.5,0.6,0,0.299996,-0.000409047,0
0.5,0.7,0,0.299994,-0.000410636,0
0.5,0.8,0,0.299995,-0.000406102,0
0.5,0.9,0,0.299994,-0.00040379,0
0.5,1,0,0.299993,-0.000403035,0
0.5,1.1,0,0.299992,-0.000400924,0
0.5,1.2,0,0.299992,-0.000396563,0
0.5,1.3,0,0.299991,-0.000393364,0
0.5,1.4,0,0.299988,-0.000395795,0
0.5,1.5,0,0.299991,-0.000387322,0
0.5,1.6,0,0.29999,-0.000383266,0
0.5,1.7,0,0.299988,-0.000382141,0
0.5,1.8,0,0.299987,-0.000378462,0
0.5,1.9,0,0.299988,-0.000371137,0
0.5,2,0,0.299986,-0.000366256,0
0.5,2.1,0,0.299982,-0.000371733,0
0.5,2.2,0,0.299985,-0.000356953,0
0.5,2.3,0,0.299984,-0.00035128,0
0.5,2.4,0,0.299982,-0.000350823,0
0.5,2.5,0,0.299982,-0.00034551,0
0.5,2.6,0,0.299982,-0.000334317,0
0.5,2.7,0,0.299981,-0.000327883,0
0.5,2.8,0,0.299977,-0.00033914,0
0.5,2.9,0,0.29998,-0.000315492,0
0.5,3,0,0.299979,-0.000308315,0
0.5,3.1,0,0.299977,-0.000309621,0
0.5,3.2,0,0.299976,-0.000302988,0
0.5,3.3,0,0.299977,-0.000287147,0
0.5,3.4,0,0.299976,-0.000279224,0
0.5,3.5,0,0.299973,-0.000298486,0
0.5,3.6,0,0.299975,-0.000264787,0
0.5,3.7,0,0.299975,-0.000256084,0
0.5,3.8,0,0.299974,-0.000259581,0
0.5,3.9,0,0.299973,-0.000252673,0
0.5,4,0,0.299974,-0.000232283,0
0.5,4.1,0,0.299974,-0.000222726,0
0.5,4.2,0,0.299972,-0.000249323,0
0.5,4.3,0,0.299974,-0.00020857,0
0.5,4.4,0,0.299975,-0.000198034,0
0.5,4.5,0,0.299974,-0.000202251,0
0.5,4.6,0,0.299975,-0.000196974,0
0.5,4.7,0,0.299977,-0.000174127,0
0.5,4.8,0,0.299977,-0.000162444,0
0.5,4.9,0,0.299974,-0.000189502,0
0.5,5,0,0.299983,-0.000151754,0
0.5,5.1,0,0.299983,-0.000138755,0
0.5,5.2,0,0.29998,-0.000139184,0
0.5,5.3,0,0.299987,-0.000137336,0
0.5,5.4,0,0.299993,-0.000116796,0
0.5,5.5,0,0.299993,-0.00010239,0
0.5,5.6,0,0.299974,-0.000115719,0
0.5,5.7,0,0.300011,-9.61269e-05,0
0.5,5.8,0,0.300009,-8.03953e-05,0
0.5,5.9,0,0.299993,-7.09748e-05,0
0.5,6,0,0.30001,-7.13888e-05,0
0.5,6.1,0,0.300033,-5.85207e-05,0
0.5,6.2,0,0.300029,-4.16898e-05,0
0.5,6.3,0,0.299958,-2.80507e-05,0
0.5,6.4,0,0.300063,-3.41105e-05,0
0.5,6.5,0,0.300057,-1.63241e-05,0
0.5,6.6,0,0.300012,5.07374e-06,0
0.5,6.7,0,0.300033,6.33523e-06,0
0.5,6.8,0,0.300085,7.50768e-06,0
0.5,6.9,0,0.30008,2.12016e-05,0
0.5,7,0,0.299931,5.67038e-05,0
0.5,7.1,0,0.299925,7.32132e-05,0
0.5,7.2,0,0.299922,8.23903e-05,0
0.5,7.3,0,0.29992,9.1443e-05,0
0.5,7.4,0,0.299919,0.00010056,0
0.5,7.5,0,0.299918,0.000109691,0
0.5,7.6,0,0.299919,0.00011881,0
0.5,7.7,0,0.29992,0.000127903,0
0.5,7.8,0,0.299922,0.000136949,0
0.5,7.9,0,0.299925,0.000146063,0
0.5,8,0,0.29993,0.000159007,0
0.5,8.1,0,0.300086,0.000180488,0
0.5,8.2,0,0.300036,0.00018716,0
0.5,8.3,0,0.300068,0.000199007,0
0.5,8.4,0,0.300074,0.000214238,0
0.5,8.5,0,0.300005,0.000215735,0
0.5,8.6,0,0.300055,0.000232776,0
0.5,8.7,0,0.29997,0.000236398,0
0.5,8.8,0,0.300035,0.000249186,0
0.5,8.9,0,0.300021,0.000261951,0
0.5,9,0,0.300016,0.000263673,0
0.5,9.1,0,0.300021,0.000277831,0
0.5,9.2,0,0.29999,0.000284718,0
0.5,9.3,0,0.300005,0.00029033,0
0.5,9.4,0,0.299988,0.000309779,0
0.5,9.5,0,0.299992,0.000301952,0
0.5,9.6,0,0.299993,0.000317167,0
0.5,9.7,0,0.299985,0.000313207,0
0.5,9.8,0,0.299985,0.000324891,0
0.5,9.9,0,0.299985,0.000346,0
0.5,10,0,0.29998,0.00033508,0
0.5,10.1,0,0.299986,0.000366256,0
0.5,10.2,0,0.299978,0.000345377,0
0.5,10.3,0,0.299978,0.000357544,0
0.5,10.4,0,0.299978,0.000359047,0
0.5,10.5,0,0.299977,0.000364323,0
0.5,10.6,0,0.299984,0.000397554,0
0.5,10.7,0,0.299977,0.000373765,0
0.5,10.8,0,0.299983,0.000405965,0
0.5,10.9,0,0.299979,0.000383109,0
0.5,11,0,0.299979,0.000389595,0
0.5,11.1,0,0.299982,0.000399636,0
0.5,11.2,0,0.299981,0.000397686,0
0.5,11.3,0,0.299987,0.000436091,0
0.5,11.4,0,0.299983,0.000405304,0
0.5,11.5,0,0.299986,0.000431973,0
0.5,11.6,0,0.299985,0.000412255,0
0.5,11.7,0,0.299986,0.000415994,0
0.5,11.8,0,0.299988,0.000429267,0
0.5,11.9,0,0.299988,0.000421256,0
0.5,12,0,0.299992,0.000460326,0
0.5,12.1,0,0.299991,0.000425556,0
0.5,12.2,0,0.299994,0.000445233,0
0.5,12.3,0,0.299994,0.000428774,0
0.5,12.4,0,0.299995,0.000429996,0
0.5,12.5,0,0.299997,0.000444741,0
0.5,12.6,0,0.299997,0.000431256,0
0.5,12.7,0,0.299998,0.000494216,0
0.6,0,0,0.299998,-0.000508424,0
0.6,0.1,0,0.299998,-0.000497728,0
0.6,0.2,0,0.299997,-0.000497255,0
0.6,0.3,0,0.299997,-0.000496782,0
0.6,0.4,0,0.299996,-0.000495975,0
0.6,0.5,0,0.299995,-0.000494572,0
0.6,0.6,0,0.299994,-0.000493168,0
0.6,0.7,0,0.299993,-0.000492763,0
0.6,0.8,0,0.299993,-0.00048971,0
0.6,0.9,0,0.299991,-0.000487398,0
0.6,1,0,0.29999,-0.000485085,0
0.6,1.1,0,0.29999,-0.000482677,0
0.6,1.2,0,0.299989,-0.000479477,0
0.6,1.3,0,0.299988,-0.000476277,0
0.6,1.4,0,0.299986,-0.000474954,0
0.6,1.5,0,0.299986,-0.000469426,0
0.6,1.6,0,0.299985,-0.00046537,0
0.6,1.7,0,0.299984,-0.000461314,0
0.6,1.8,0,0.299983,-0.000457271,0
0.6,1.9,0,0.299982,-0.000452389,0
0.6,2,0,0.299981,-0.000447508,0
0.6,2.1,0,0.299979,-0.00044608,0
0.6,2.2,0,0.299979,-0.000437372,0
0.6,2.3,0,0.299978,-0.000431699,0
0.6,2.4,0,0.299977,-0.000426027,0
0.6,2.5,0,0.299976,-0.000420372,0
0.6,2.6,0,0.299975,-0.000413938,0
0.6,2.7,0,0.299974,-0.000407505,0
0.6,2.8,0,0.299972,-0.000406968,0
0.6,2.9,0,0.299973,-0.000394301,0
0.6,3,0,0.299972,-0.000387124,0
0.6,3.1,0,0.299971,-0.000379947,0
0.6,3.2,0,0.29997,-0.00037289,0
0.6,3.3,0,0.29997,-0.000364967,0
0.6,3.4,0,0.299969,-0.000357044,0
0.6,3.5,0,0.299967,-0.000358183,0
0.6,3.6,0,0.299968,-0.000341148,0
0.6,3.7,0,0.299967,-0.000332445,0
0.6,3.8,0,0.299967,-0.000323742,0
0.6,3.9,0,0.299967,-0.000315808,0
0.6,4,0,0.299967,-0.000306251,0
0.6,4.1,0,0.299967,-0.000296694,0
0.6,4.2,0,0.299966,-0.000299188,0
0.6,4.3,0,0.299967,-0.000278579,0
0.6,4.4,0,0.299968,-0.000268043,0
0.6,4.5,0,0.299968,-0.000257507,0
0.6,4.6,0,0.299969,-0.000249538,0
0.6,4.7,0,0.299969,-0.000237855,0
0.6,4.8,0,0.29997,-0.000226172,0
0.6,4.9,0,0.299969,-0.000227403,0
0.6,5,0,0.299972,-0.000206154,0
0.6,5.1,0,0.299973,-0.000193155,0
0.6,5.2,0,0.299973,-0.000180157,0
0.6,5.3,0,0.299976,-0.000172837,0
0.6,5.4,0,0.299976,-0.000158431,0
0.6,5.5,0,0.299975,-0.000144024,0
0.6,5.6,0,0.299969,-0.000138863,0
0.6,5.7,0,0.29998,-0.000121845,0
0.6,5.8,0,0.299978,-0.000106113,0
0.6,5.9,0,0.299976,-9.03812e-05,0
0.6,6,0,0.299984,-8.30896e-05,0
0.6,6.1,0,0.29998,-6.62587e-05,0
0.6,6.2,0,0.299976,-4.94278e-05,0
0.6,6.3,0,0.299949,-3.36609e-05,0
0.6,6.4,0,0.299981,-2.38232e-05,0
0.6,6.5,0,0.299975,-6.03685e-06,0
0.6,6.6,0,0.29997,1.17495e-05,0
0.6,6.7,0,0.299979,1.96934e-05,0
0.6,6.8,0,0.299975,3.33873e-05,0
0.6,6.9,0,0.29997,4.70812e-05,0
0.6,7,0,0.299917,6.80445e-05,0
0.6,7.1,0,0.29991,8.78558e-05,0
0.6,7.2,0,0.299907,9.88683e-05,0
0.6,7.3,0,0.299904,0.000109732,0
0.6,7.4,0,0.299903,0.000120672,0
0.6,7.5,0,0.299902,0.000131629,0
0.6,7.6,0,0.299903,0.000142572,0
0.6,7.7,0,0.299904,0.000153483,0
0.6,7.8,0,0.299906,0.000164338,0
0.6,7.9,0,0.29991,0.000175275,0
0.6,8,0,0.299916,0.000190808,0
0.6,8.1,0,0.299971,0.000206165,0
0.6,8.2,0,0.299976,0.000218459,0
0.6,8.3,0,0.299972,0.000230003,0
0.6,8.4,0,0.299978,0.000245235,0
0.6,8.5,0,0.299974,0.000256514,0
0.6,8.6,0,0.29998,0.000271574,0
0.6,8.7,0,0.299962,0.000283596,0
0.6,8.8,0,0.299981,0.00029687,0
0.6,8.9,0,0.299987,0.00031153,0
0.6,9,0,0.299982,0.000321045,0
0.6,9.1,0,0.299986,0.000335204,0
0.6,9.2,0,0.299983,0.000344201,0
0.6,9.3,0,0.299985,0.000357694,0
0.6,9.4,0,0.299985,0.000372274,0
0.6,9.5,0,0.299984,0.000379054,0
0.6,9.6,0,0.299986,0.000391707,0
0.6,9.7,0,0.299984,0.000399321,0
0.6,9.8,0,0.299984,0.000411005,0
0.6,9.9,0,0.299983,0.000418505,0
0.6,10,0,0.299983,0.000429146,0
0.6,10.1,0,0.299983,0.000441397,0
0.6,10.2,0,0.299982,0.00044616,0
0.6,10.3,0,0.299982,0.00045573,0
0.6,10.4,0,0.299981,0.000462046,0
0.6,10.5,0,0.299981,0.000470555,0
0.6,10.6,0,0.299982,0.000479232,0
0.6,10.7,0,0.299981,0.000484257,0
0.6,10.8,0,0.299981,0.000491735,0
0.6,10.9,0,0.299982,0.000496813,0
0.6,11,0,0.299982,0.000503299,0
0.6,11.1,0,0.299982,0.00050819,0
0.6,11.2,0,0.299983,0.000513724,0
0.6,11.3,0,0.299984,0.000524818,0
0.6,11.4,0,0.299984,0.000522972,0
0.6,11.5,0,0.299985,0.000527592,0
0.6,11.6,0,0.299986,0.000531008,0
0.6,11.7,0,0.299987,0.000534747,0
0.6,11.8,0,0.299988,0.000537804,0
0.6,11.9,0,0.299989,0.000540692,0
0.6,12,0,0.299991,0.000553119,0
0.6,12.1,0,0.299992,0.000545389,0
0.6,12.2,0,0.299993,0.00054744,0
0.6,12.3,0,0.299994,0.000548809,0
0.6,12.4,0,0.299996,0.000550032,0
0.6,12.5,0,0.299997,0.000550941,0
0.6,12.6,0,0.299997,0.000551347,0
0.6,12.7,0,0.299998,0.000572604,0
0.7,0,0,0.299998,-0.00058287,0
0.7,0.1,0,0.299997,-0.000582365,0
0.7,0.2,0,0.299997,-0.000581892,0
0.7,0.3,0,0.299996,-0.00058142,0
0.7,0.4,0,0.299995,-0.000580343,0
0.7,0.5,0,0.299994,-0.00057894,0
0.7,0.6,0,0.299993,-0.000577536,0
0.7,0.7,0,0.299991,-0.000575751,0
0.7,0.8,0,0.29999,-0.000573561,0
0.7,0.9,0,0.299989,-0.000571249,0
0.7,1,0,0.299988,-0.000568937,0
0.7,1.1,0,0.299986,-0.000565825,0
0.7,1.2,0,0.299985,-0.000562625,0
0.7,1.3,0,0.299984,-0.000559425,0
0.7,1.4,0,0.299982,-0.000554854,0
0.7,1.5,0,0.299981,-0.000551756,0
0.7,1.6,0,0.29998,-0.0005477,0
0.7,1.7,0,0.299979,-0.000543644,0
0.7,1.8,0,0.299978,-0.000538741,0
0.7,1.9,0,0.299977,-0.000533859,0
0.7,2,0,0.299975,-0.000528978,0
0.7,2.1,0,0.299973,-0.000520838,0
0.7,2.2,0,0.299973,-0.000517999,0
0.7,2.3,0,0.299972,-0.000512327,0
0.7,2.4,0,0.299971,-0.000506654,0
0.7,2.5,0,0.299969,-0.000500195,0
0.7,2.6,0,0.299968,-0.000493762,0
0.7,2.7,0,0.299967,-0.000487328,0
0.7,2.8,0,0.299964,-0.000474503,0
0.7,2.9,0,0.299965,-0.000473308,0
0.7,3,0,0.299964,-0.000466131,0
0.7,3.1,0,0.299963,-0.000458954,0
0.7,3.2,0,0.299963,-0.000450914,0
0.7,3.3,0,0.299962,-0.000442991,0
0.7,3.4,0,0.299961,-0.000435068,0
0.7,3.5,0,0.299957,-0.000416431,0
0.7,3.6,0,0.29996,-0.000417726,0
0.7,3.7,0,0.29996,-0.000409023,0
0.7,3.8,0,0.29996,-0.00040032,0
0.7,3.9,0,0.29996,-0.000390019,0
0.7,4,0,0.29996,-0.000380462,0
0.7,4.1,0,0.29996,-0.000370905,0
0.7,4.2,0,0.299955,-0.000346208,0
0.7,4.3,0,0.29996,-0.000348872,0
0.7,4.4,0,0.29996,-0.000338336,0
0.7,4.5,0,0.299961,-0.0003278,0
0.7,4.6,0,0.299961,-0.0003136,0
0.7,4.7,0,0.299962,-0.000301917,0
0.7,4.8,0,0.299962,-0.000290234,0
0.7,4.9,0,0.299957,-0.000261571,0
0.7,5,0,0.299962,-0.000260929,0
0.7,5.1,0,0.299962,-0.00024793,0
0.7,5.2,0,0.299963,-0.000234932,0
0.7,5.3,0,0.299959,-0.000214855,0
0.7,5.4,0,0.299959,-0.000200448,0
0.7,5.5,0,0.299958,-0.000186042,0
0.7,5.6,0,0.299957,-0.000159085,0
0.7,5.7,0,0.299949,-0.000147892,0
0.7,5.8,0,0.299947,-0.000132161,0
0.7,5.9,0,0.299944,-0.000116429,0
0.7,6,0,0.299931,-9.10892e-05,0
0.7,6.1,0,0.299927,-7.42583e-05,0
0.7,6.2,0,0.299923,-5.74274e-05,0
0.7,6.3,0,0.299938,-3.92788e-05,0
0.7,6.4,0,0.299899,-1.37889e-05,0
0.7,6.5,0,0.299894,3.99748e-06,0
0.7,6.6,0,0.299889,2.17838e-05,0
0.7,6.7,0,0.299868,4.80296e-05,0
0.7,6.8,0,0.299864,6.17235e-05,0