/*--------------------------------*- C++ -*----------------------------------*\
| =========                 |                                                 |
| \\      /  F ield         | OpenFOAM: The Open Source CFD Toolbox           |
|  \\    /   O peration     | Version:  v1806                                 |
|   \\  /    A nd           | Web:      www.OpenFOAM.com                      |
|    \\/     M anipulation  |                                                 |
\*---------------------------------------------------------------------------*/
FoamFile
{
    version     2.0;
    format      ascii;
    class       volVectorField;
    location    "390";
    object      U;
}
// * * * * * * * * * * * * * * * * * * * * * * * * * * * * * * * * * * * * * //

dimensions      [0 1 -1 0 0 0 0];


internalField   nonuniform List<vector> 
2400
(
(0.299995 -6.72547e-05 0)
(0.300001 -0.000792625 0)
(0.299984 -0.000852952 0)
(0.299977 -0.0017537 0)
(0.299949 -0.00177253 0)
(0.299918 -0.00295222 0)
(0.299877 -0.00297322 0)
(0.299808 -0.00454553 0)
(0.299752 -0.00464185 0)
(0.299625 -0.00672989 0)
(0.299551 -0.00702501 0)
(0.299346 -0.00972815 0)
(0.299255 -0.0104066 0)
(0.29896 -0.0137103 0)
(0.298867 -0.014966 0)
(0.298532 -0.01854 0)
(0.298494 -0.0203328 0)
(0.298309 -0.0232384 0)
(0.298474 -0.0247145 0)
(0.298771 -0.0254215 0)
(0.299993 -6.58332e-05 0)
(0.299999 -0.000791571 0)
(0.29997 -0.000845618 0)
(0.299958 -0.00174947 0)
(0.299909 -0.00175656 0)
(0.29987 -0.00294411 0)
(0.299798 -0.00294352 0)
(0.299716 -0.00453284 0)
(0.299617 -0.00459107 0)
(0.299468 -0.00671257 0)
(0.299342 -0.00694363 0)
(0.299098 -0.00970826 0)
(0.298958 -0.0102873 0)
(0.298608 -0.0136961 0)
(0.298505 -0.0148204 0)
(0.298122 -0.0185536 0)
(0.298192 -0.0202286 0)
(0.298053 -0.023323 0)
(0.298524 -0.0247919 0)
(0.299116 -0.0256238 0)
(0.299989 -6.34121e-05 0)
(0.299998 -0.000788899 0)
(0.299951 -0.000833114 0)
(0.299936 -0.00174164 0)
(0.299856 -0.00173072 0)
(0.299807 -0.00293106 0)
(0.29969 -0.00289711 0)
(0.299588 -0.00451474 0)
(0.29943 -0.00451337 0)
(0.299245 -0.00669135 0)
(0.299046 -0.00682088 0)
(0.298742 -0.00969094 0)
(0.298531 -0.01011 0)
(0.298094 -0.0137025 0)
(0.29797 -0.0146092 0)
(0.297496 -0.0186285 0)
(0.297694 -0.0200915 0)
(0.297573 -0.0235338 0)
(0.298429 -0.0249481 0)
(0.299373 -0.0260051 0)
(0.299985 -6.01257e-05 0)
(0.299999 -0.000784363 0)
(0.299931 -0.000815661 0)
(0.299914 -0.00172986 0)
(0.299799 -0.00169538 0)
(0.29974 -0.00291278 0)
(0.299573 -0.00283464 0)
(0.299449 -0.00449111 0)
(0.299223 -0.00440975 0)
(0.298998 -0.00666654 0)
(0.298715 -0.00665807 0)
(0.298343 -0.0096773 0)
(0.298049 -0.00987556 0)
(0.297508 -0.0137325 0)
(0.297348 -0.0143305 0)
(0.296757 -0.0187715 0)
(0.297079 -0.019914 0)
(0.296936 -0.0238855 0)
(0.298217 -0.0251779 0)
(0.299504 -0.0265665 0)
(0.29998 -5.62429e-05 0)
(0.300001 -0.000777647 0)
(0.299911 -0.000793579 0)
(0.299893 -0.00171333 0)
(0.299741 -0.00165058 0)
(0.299674 -0.00288748 0)
(0.299453 -0.0027557 0)
(0.299309 -0.00445875 0)
(0.29901 -0.00427919 0)
(0.298745 -0.00663288 0)
(0.298373 -0.00645307 0)
(0.29793 -0.00965943 0)
(0.29754 -0.00957947 0)
(0.296891 -0.0137756 0)
(0.296678 -0.0139743 0)
(0.29595 -0.0189745 0)
(0.296386 -0.0196753 0)
(0.29617 -0.0243852 0)
(0.297921 -0.0254597 0)
(0.299512 -0.0273388 0)
(0.299975 -5.21112e-05 0)
(0.300004 -0.000768252 0)
(0.29989 -0.000767556 0)
(0.299874 -0.00169117 0)
(0.299683 -0.0015973 0)
(0.299611 -0.00285352 0)
(0.299334 -0.00266166 0)
(0.299173 -0.00441481 0)
(0.298796 -0.00412353 0)
(0.298495 -0.00658577 0)
(0.298025 -0.00620807 0)
(0.297517 -0.00963044 0)
(0.297019 -0.00922286 0)
(0.29626 -0.0138232 0)
(0.295974 -0.0135361 0)
(0.295093 -0.0192316 0)
(0.295626 -0.0193574 0)
(0.29528 -0.0250449 0)
(0.297555 -0.0257677 0)
(0.299385 -0.0283608 0)
(0.29997 -4.81412e-05 0)
(0.300009 -0.000755572 0)
(0.299869 -0.0007385 0)
(0.299858 -0.00166244 0)
(0.299625 -0.00153702 0)
(0.299552 -0.00280934 0)
(0.299214 -0.00255482 0)
(0.299043 -0.00435671 0)
(0.298582 -0.00394613 0)
(0.298255 -0.00652114 0)
(0.297675 -0.00592727 0)
(0.297111 -0.00958415 0)
(0.296487 -0.00880924 0)
(0.295626 -0.0138669 0)
(0.295239 -0.0130137 0)
(0.294193 -0.0195363 0)
(0.294797 -0.018942 0)
(0.29426 -0.0258779 0)
(0.297114 -0.0260714 0)
(0.299091 -0.0296779 0)
(0.299964 -4.48117e-05 0)
(0.300016 -0.000738912 0)
(0.299847 -0.00070748 0)
(0.299845 -0.00162606 0)
(0.299566 -0.00147151 0)
(0.2995 -0.00275317 0)
(0.299092 -0.00243798 0)
(0.298923 -0.00428165 0)
(0.298365 -0.00375104 0)
(0.298028 -0.00643456 0)
(0.297321 -0.00561581 0)
(0.296721 -0.00951378 0)
(0.295945 -0.00834321 0)
(0.294995 -0.0138969 0)
(0.294471 -0.0124057 0)
(0.293252 -0.0198785 0)
(0.293888 -0.0184109 0)
(0.293097 -0.0268948 0)
(0.296585 -0.0263345 0)
(0.298584 -0.03135 0)
(0.299958 -4.26565e-05 0)
(0.300025 -0.000717493 0)
(0.299824 -0.000675709 0)
(0.299836 -0.00158081 0)
(0.299504 -0.00140283 0)
(0.299456 -0.00268298 0)
(0.298966 -0.00231441 0)
(0.298818 -0.00418631 0)
(0.298142 -0.00354308 0)
(0.297824 -0.00632081 0)
(0.296956 -0.00527992 0)
(0.296357 -0.00941128 0)
(0.295383 -0.00783082 0)
(0.294381 -0.013901 0)
(0.293661 -0.0117128 0)
(0.292279 -0.0202433 0)
(0.292885 -0.0177463 0)
(0.291777 -0.0281018 0)
(0.295946 -0.0265148 0)
(0.297803 -0.0334571 0)
(0.299952 -4.22257e-05 0)
(0.300036 -0.000690495 0)
(0.299801 -0.000644503 0)
(0.299832 -0.00152531 0)
(0.299439 -0.00133327 0)
(0.299422 -0.00259637 0)
(0.298835 -0.00218796 0)
(0.298732 -0.00406669 0)
(0.297908 -0.00332815 0)
(0.29765 -0.00617347 0)
(0.296572 -0.00492758 0)
(0.296034 -0.00926672 0)
(0.294786 -0.00728042 0)
(0.293805 -0.0138643 0)
(0.292788 -0.0109376 0)
(0.291291 -0.020611 0)
(0.291766 -0.016931 0)
(0.290291 -0.0294983 0)
(0.295168 -0.0265637 0)
(0.296675 -0.0361054 0)
(0.299948 -4.40146e-05 0)
(0.300046 -0.000657153 0)
(0.299778 -0.000615164 0)
(0.299829 -0.00145816 0)
(0.299375 -0.00126532 0)
(0.299396 -0.00249069 0)
(0.298699 -0.00206306 0)
(0.298665 -0.00391798 0)
(0.29766 -0.00311353 0)
(0.297513 -0.00598429 0)
(0.296157 -0.00456942 0)
(0.295773 -0.00906691 0)
(0.29413 -0.00670441 0)
(0.293304 -0.0137675 0)
(0.29181 -0.0100876 0)
(0.290336 -0.020957 0)
(0.290481 -0.0159485 0)
(0.288649 -0.0310767 0)
(0.29422 -0.0264231 0)
(0.295107 -0.0394318 0)
(0.299948 -4.83547e-05 0)
(0.300053 -0.000616914 0)
(0.29976 -0.000588797 0)
(0.299825 -0.00137819 0)
(0.299314 -0.00120129 0)
(0.299373 -0.00236338 0)
(0.298564 -0.00194436 0)
(0.298612 -0.00373477 0)
(0.297403 -0.00290795 0)
(0.297414 -0.00574278 0)
(0.295708 -0.00421982 0)
(0.295587 -0.00879351 0)
(0.29339 -0.00612191 0)
(0.292925 -0.0135828 0)
(0.290662 -0.00917844 0)
(0.289504 -0.021249 0)
(0.288926 -0.014785 0)
(0.286918 -0.032825 0)
(0.293042 -0.0260169 0)
(0.292969 -0.0436006 0)
(0.299955 -5.52731e-05 0)
(0.300051 -0.000569641 0)
(0.299752 -0.000566048 0)
(0.29981 -0.00128483 0)
(0.299267 -0.0011429 0)
(0.299341 -0.0022126 0)
(0.298443 -0.00183594 0)
(0.29856 -0.00351208 0)
(0.297154 -0.00272047 0)
(0.297337 -0.00543685 0)
(0.295239 -0.00389719 0)
(0.295473 -0.00842123 0)
(0.292556 -0.00556261 0)
(0.292702 -0.0132666 0)
(0.289265 -0.00824226 0)
(0.28892 -0.0214362 0)
(0.2869 -0.01344 0)
(0.285302 -0.0347348 0)
(0.291459 -0.0252338 0)
(0.290103 -0.0488099 0)
(0.299974 -6.43516e-05 0)
(0.300033 -0.000515839 0)
(0.299761 -0.000546813 0)
(0.299775 -0.00117852 0)
(0.299245 -0.00109068 0)
(0.299285 -0.00203809 0)
(0.298358 -0.00174007 0)
(0.298481 -0.00324718 0)
(0.296946 -0.00255799 0)
(0.297244 -0.00505626 0)
(0.294798 -0.00362027 0)
(0.295383 -0.00792017 0)
(0.291675 -0.0050688 0)
(0.292612 -0.0127514 0)
(0.287591 -0.0073402 0)
(0.288682 -0.0214194 0)
(0.284123 -0.0119515 0)
(0.28418 -0.0367968 0)
(0.288978 -0.0239048 0)
(0.286493 -0.0554016 0)
(0.300007 -7.46412e-05 0)
(0.299993 -0.000456825 0)
(0.299795 -0.000529994 0)
(0.299709 -0.00106108 0)
(0.299263 -0.00104341 0)
(0.299185 -0.00184205 0)
(0.298334 -0.00165603 0)
(0.298341 -0.00294157 0)
(0.296829 -0.0024223 0)
(0.297072 -0.00459776 0)
(0.294473 -0.00340034 0)
(0.295215 -0.00726744 0)
(0.290882 -0.00468371 0)
(0.292518 -0.0119524 0)
(0.285768 -0.00657514 0)
(0.28871 -0.0210051 0)
(0.280393 -0.0104411 0)
(0.28398 -0.0389228 0)
(0.284507 -0.0218336 0)
(0.282799 -0.0640667 0)
(0.300056 -8.4678e-05 0)
(0.299929 -0.000394775 0)
(0.299857 -0.000513425 0)
(0.299605 -0.000935921 0)
(0.299332 -0.000997831 0)
(0.299025 -0.0016297 0)
(0.298398 -0.00157912 0)
(0.298105 -0.0026026 0)
(0.296855 -0.00230756 0)
(0.296751 -0.00406958 0)
(0.294373 -0.00323384 0)
(0.294823 -0.00646249 0)
(0.290404 -0.0044251 0)
(0.292144 -0.0108089 0)
(0.28419 -0.00606746 0)
(0.288579 -0.0198992 0)
(0.275967 -0.00915366 0)
(0.284636 -0.0407107 0)
(0.276427 -0.018986 0)
(0.281109 -0.0759628 0)
(0.30012 -9.26145e-05 0)
(0.299839 -0.000332509 0)
(0.299949 -0.000494135 0)
(0.299462 -0.00080771 0)
(0.299454 -0.000948883 0)
(0.298799 -0.00140898 0)
(0.298558 -0.00150079 0)
(0.297758 -0.00224363 0)
(0.297056 -0.00219947 0)
(0.296231 -0.00349356 0)
(0.29459 -0.0030981 0)
(0.294077 -0.00553698 0)
(0.290487 -0.00426474 0)
(0.291148 -0.00933659 0)
(0.28349 -0.00584759 0)
(0.287493 -0.0178774 0)
(0.272019 -0.0084438 0)
(0.28475 -0.0411149 0)
(0.263846 -0.0158894 0)
(0.284575 -0.0925617 0)
(0.300195 -9.65681e-05 0)
(0.29973 -0.000272712 0)
(0.300062 -0.000469321 0)
(0.299288 -0.000681153 0)
(0.299621 -0.000891402 0)
(0.298519 -0.00118846 0)
(0.298804 -0.00141132 0)
(0.297309 -0.00188062 0)
(0.297423 -0.00207929 0)
(0.295519 -0.00290023 0)
(0.295135 -0.00295627 0)
(0.292943 -0.00455033 0)
(0.291243 -0.00413003 0)
(0.289334 -0.00764309 0)
(0.284208 -0.00579208 0)
(0.28463 -0.0149699 0)
(0.270561 -0.00853502 0)
(0.281325 -0.038536 0)
(0.249599 -0.0144159 0)
(0.293385 -0.115692 0)
(0.300273 -9.55025e-05 0)
(0.299614 -0.000216849 0)
(0.300185 -0.000437657 0)
(0.299101 -0.000559159 0)
(0.29981 -0.000822522 0)
(0.298213 -0.000973957 0)
(0.299099 -0.00130441 0)
(0.296809 -0.00152556 0)
(0.297895 -0.00193306 0)
(0.294691 -0.00231551 0)
(0.295906 -0.00277613 0)
(0.291547 -0.00356283 0)
(0.29252 -0.0039415 0)
(0.286872 -0.00588111 0)
(0.286272 -0.00568741 0)
(0.279899 -0.0115506 0)
(0.272958 -0.00892505 0)
(0.271493 -0.0325121 0)
(0.241992 -0.0164235 0)
(0.297343 -0.144211 0)
(0.300345 -8.87764e-05 0)
(0.299504 -0.000167099 0)
(0.3003 -0.000395754 0)
(0.298926 -0.000446234 0)
(0.299993 -0.00073685 0)
(0.297924 -0.000773611 0)
(0.299391 -0.00117058 0)
(0.296327 -0.00119271 0)
(0.298375 -0.00174407 0)
(0.293882 -0.00176521 0)
(0.296715 -0.00252653 0)
(0.290153 -0.002627 0)
(0.29392 -0.00362954 0)
(0.284339 -0.00419116 0)
(0.288767 -0.00530659 0)
(0.274673 -0.00814976 0)
(0.277486 -0.00855222 0)
(0.256892 -0.0246051 0)
(0.246026 -0.019504 0)
(0.2702 -0.166624 0)
(0.299123 -0.0248786 0)
(0.299209 -0.02472 0)
(0.299292 -0.0245328 0)
(0.299374 -0.0243186 0)
(0.299458 -0.0240781 0)
(0.299545 -0.0238114 0)
(0.299634 -0.0235191 0)
(0.299724 -0.0232021 0)
(0.299814 -0.0228611 0)
(0.299901 -0.0224988 0)
(0.299672 -0.0251451 0)
(0.299804 -0.025003 0)
(0.299936 -0.0248308 0)
(0.300068 -0.0246285 0)
(0.3002 -0.0243971 0)
(0.300333 -0.0241372 0)
(0.300465 -0.0238496 0)
(0.300596 -0.0235353 0)
(0.300725 -0.0231947 0)
(0.300852 -0.0228313 0)
(0.300245 -0.0255539 0)
(0.300453 -0.0254128 0)
(0.300658 -0.0252383 0)
(0.300859 -0.0250321 0)
(0.301059 -0.0247952 0)
(0.301256 -0.0245284 0)
(0.301451 -0.0242325 0)
(0.301641 -0.0239085 0)
(0.301826 -0.0235572 0)
(0.302004 -0.0231821 0)
(0.30075 -0.0261481 0)
(0.301046 -0.02601 0)
(0.301334 -0.0258346 0)
(0.301615 -0.0256245 0)
(0.301891 -0.025381 0)
(0.302164 -0.0251048 0)
(0.302431 -0.0247967 0)
(0.302691 -0.0244581 0)
(0.302942 -0.0240897 0)
(0.303183 -0.0236959 0)
(0.301196 -0.0269622 0)
(0.301596 -0.0268261 0)
(0.30198 -0.0266464 0)
(0.30235 -0.0264274 0)
(0.302713 -0.0261709 0)
(0.303071 -0.0258777 0)
(0.30342 -0.0255489 0)
(0.303758 -0.0251862 0)
(0.304083 -0.0247906 0)
(0.304394 -0.0243675 0)
(0.301606 -0.0280289 0)
(0.30213 -0.0278912 0)
(0.302625 -0.0277015 0)
(0.303098 -0.0274665 0)
(0.303559 -0.0271891 0)
(0.304013 -0.0268701 0)
(0.304453 -0.0265108 0)
(0.304879 -0.0261134 0)
(0.305286 -0.0256794 0)
(0.305674 -0.0252152 0)
(0.301995 -0.0293898 0)
(0.302674 -0.0292452 0)
(0.303301 -0.0290371 0)
(0.30389 -0.0287768 0)
(0.304464 -0.028468 0)
(0.305026 -0.0281116 0)
(0.305572 -0.0277091 0)
(0.306095 -0.0272634 0)
(0.306594 -0.0267765 0)
(0.307066 -0.0262566 0)
(0.30238 -0.0310985 0)
(0.303255 -0.0309386 0)
(0.304039 -0.0307004 0)
(0.304764 -0.0304016 0)
(0.305466 -0.0300472 0)
(0.306154 -0.0296378 0)
(0.306819 -0.0291753 0)
(0.307453 -0.0286636 0)
(0.308055 -0.0281052 0)
(0.308621 -0.027511 0)
(0.302782 -0.0332231 0)
(0.303908 -0.0330348 0)
(0.304882 -0.0327498 0)
(0.305763 -0.0323942 0)
(0.306614 -0.0319745 0)
(0.307446 -0.0314912 0)
(0.308248 -0.0309465 0)
(0.309009 -0.0303456 0)
(0.309726 -0.0296919 0)
(0.310395 -0.0289997 0)
(0.303232 -0.0358482 0)
(0.30468 -0.0356118 0)
(0.305883 -0.0352561 0)
(0.306945 -0.0348184 0)
(0.307966 -0.034307 0)
(0.308967 -0.0337217 0)
(0.309927 -0.0330653 0)
(0.310832 -0.0323449 0)
(0.311678 -0.031565 0)
(0.312461 -0.0307447 0)
(0.303771 -0.0390784 0)
(0.305632 -0.0387647 0)
(0.307109 -0.038305 0)
(0.30838 -0.0377509 0)
(0.309602 -0.037112 0)
(0.310799 -0.0363875 0)
(0.311943 -0.0355811 0)
(0.313014 -0.0347022 0)
(0.314006 -0.0337568 0)
(0.314917 -0.0327706 0)
(0.304457 -0.0430413 0)
(0.306848 -0.0426108 0)
(0.308659 -0.042004 0)
(0.310181 -0.0412891 0)
(0.311643 -0.0404769 0)
(0.31308 -0.0395655 0)
(0.314448 -0.03856 0)
(0.315718 -0.0374735 0)
(0.316886 -0.0363132 0)
(0.317947 -0.0351149 0)
(0.305433 -0.0479105 0)
(0.308517 -0.0473159 0)
(0.310755 -0.0465097 0)
(0.312597 -0.0455791 0)
(0.314374 -0.0445357 0)
(0.316123 -0.0433768 0)
(0.31778 -0.0421098 0)
(0.319304 -0.0407527 0)
(0.320691 -0.0393135 0)
(0.321936 -0.0378442 0)
(0.307146 -0.0539972 0)
(0.311164 -0.0531795 0)
(0.313979 -0.0521055 0)
(0.316265 -0.0508839 0)
(0.318469 -0.0495272 0)
(0.32063 -0.0480327 0)
(0.322655 -0.0464111 0)
(0.324489 -0.0446883 0)
(0.326127 -0.0428725 0)
(0.327566 -0.0410435 0)
(0.310726 -0.0618498 0)
(0.315982 -0.0607033 0)
(0.319547 -0.0592353 0)
(0.322388 -0.057583 0)
(0.325094 -0.0557617 0)
(0.327697 -0.0537692 0)
(0.330068 -0.0516221 0)
(0.332137 -0.0493593 0)
(0.333898 -0.0469904 0)
(0.335368 -0.0446391 0)
(0.317907 -0.0721206 0)
(0.324538 -0.0703847 0)
(0.328785 -0.0682122 0)
(0.33198 -0.0657948 0)
(0.334896 -0.0631632 0)
(0.337565 -0.0603229 0)
(0.339821 -0.0573035 0)
(0.341584 -0.0541636 0)
(0.342859 -0.0509232 0)
(0.343713 -0.0477521 0)
(0.328879 -0.0848478 0)
(0.336265 -0.0819083 0)
(0.340235 -0.0783747 0)
(0.34259 -0.0745067 0)
(0.344392 -0.0703707 0)
(0.345724 -0.0660122 0)
(0.346408 -0.0615023 0)
(0.34638 -0.0569263 0)
(0.345693 -0.0523325 0)
(0.344463 -0.0478819 0)
(0.336252 -0.0970544 0)
(0.341872 -0.0915131 0)
(0.342681 -0.0855711 0)
(0.341216 -0.0793381 0)
(0.338943 -0.07285 0)
(0.336053 -0.0662409 0)
(0.332435 -0.0596657 0)
(0.328106 -0.0532344 0)
(0.323256 -0.0470131 0)
(0.317877 -0.041042 0)
(0.316797 -0.0972324 0)
(0.313506 -0.0861886 0)
(0.304418 -0.0763245 0)
(0.293898 -0.0669607 0)
(0.283419 -0.0578363 0)
(0.272954 -0.0490964 0)
(0.262472 -0.04089 0)
(0.25218 -0.0332576 0)
(0.242353 -0.0261451 0)
(0.232732 -0.0194808 0)
(0.218373 -0.0786649 0)
(0.189644 -0.0601754 0)
(0.160097 -0.0450877 0)
(0.137644 -0.032704 0)
(0.120618 -0.0226599 0)
(0.107007 -0.014782 0)
(0.0961678 -0.00874393 0)
(0.0878541 -0.00410465 0)
(0.0815312 -0.000447323 0)
(0.0767388 0.00243142 0)
(0.300158 -0.0213791 0)
(0.300593 -0.0191086 0)
(0.30099 -0.0165643 0)
(0.301321 -0.0139013 0)
(0.301584 -0.0112565 0)
(0.301779 -0.00872438 0)
(0.301918 -0.00637257 0)
(0.302002 -0.00423516 0)
(0.302052 -0.00233665 0)
(0.302062 -0.000674989 0)
(0.302057 0.000749149 0)
(0.302023 0.00195847 0)
(0.301992 0.00296209 0)
(0.301934 0.00378925 0)
(0.301896 0.00444973 0)
(0.301823 0.00497211 0)
(0.301789 0.00536341 0)
(0.301702 0.00564561 0)
(0.30168 0.0058236 0)
(0.301576 0.00590772 0)
(0.301212 -0.0216873 0)
(0.30171 -0.0193641 0)
(0.302094 -0.0167694 0)
(0.302353 -0.0140586 0)
(0.302502 -0.0113697 0)
(0.30256 -0.00879917 0)
(0.302558 -0.00641558 0)
(0.302503 -0.00425351 0)
(0.302426 -0.00233649 0)
(0.302323 -0.000662256 0)
(0.302224 0.000771276 0)
(0.302109 0.00198608 0)
(0.302017 0.00299294 0)
(0.301907 0.0038212 0)
(0.301834 0.00448237 0)
(0.301728 0.00500428 0)
(0.301679 0.00539579 0)
(0.301569 0.00567746 0)
(0.301544 0.00585658 0)
(0.301417 0.00594054 0)
(0.302502 -0.0220107 0)
(0.303149 -0.0196182 0)
(0.30359 -0.0169428 0)
(0.30382 -0.0141562 0)
(0.303877 -0.0114039 0)
(0.303799 -0.00878459 0)
(0.303638 -0.00636636 0)
(0.303414 -0.00418218 0)
(0.30317 -0.00225324 0)
(0.302908 -0.000574647 0)
(0.302667 0.000857871 0)
(0.302425 0.00206825 0)
(0.302227 0.00306892 0)
(0.302022 0.00389021 0)
(0.301879 0.00454473 0)
(0.301705 0.00506057 0)
(0.301615 0.00544731 0)
(0.301453 0.00572546 0)
(0.301411 0.00590277 0)
(0.301233 0.0059854 0)
(0.303851 -0.0224579 0)
(0.304684 -0.0199313 0)
(0.305213 -0.0171214 0)
(0.30544 -0.0142176 0)
(0.305427 -0.0113731 0)
(0.305231 -0.00868688 0)
(0.304923 -0.00622468 0)
(0.304538 -0.00401588 0)
(0.30413 -0.00207778 0)
(0.303706 -0.00040102 0)
(0.303316 0.00102201 0)
(0.302933 0.0022186 0)
(0.302616 0.00320329 0)
(0.302298 0.00400856 0)
(0.302069 0.0046477 0)
(0.301808 0.00515035 0)
(0.301663 0.00552577 0)
(0.301427 0.00579588 0)
(0.301358 0.00596713 0)
(0.301104 0.00604772 0)
(0.30525 -0.0230324 0)
(0.306285 -0.0203165 0)
(0.306907 -0.0173224 0)
(0.307132 -0.0142621 0)
(0.307049 -0.0112965 0)
(0.306736 -0.00852379 0)
(0.306288 -0.00600601 0)
(0.305745 -0.00376729 0)
(0.305182 -0.00181979 0)
(0.304602 -0.000147231 0)
(0.30407 0.00126087 0)
(0.303551 0.00243704 0)
(0.303119 0.0033985 0)
(0.302688 0.00418058 0)
(0.302374 0.00479737 0)
(0.302019 0.00528055 0)
(0.301818 0.00563916 0)
(0.301498 0.00589668 0)
(0.301401 0.00605874 0)
(0.301057 0.00613519 0)
(0.306735 -0.0237456 0)
(0.307981 -0.0207769 0)
(0.308688 -0.0175441 0)
(0.308896 -0.0142862 0)
(0.308726 -0.0111711 0)
(0.308284 -0.00829362 0)
(0.307686 -0.00571036 0)
(0.306984 -0.00343832 0)
(0.306264 -0.0014822 0)
(0.305531 0.000181968 0)
(0.304864 0.00156995 0)
(0.304214 0.00271962 0)
(0.303675 0.00365138 0)
(0.303138 0.00440389 0)
(0.302745 0.00499241 0)
(0.3023 0.00545078 0)
(0.302047 0.0057881 0)
(0.301643 0.00602923 0)
(0.301521 0.00617978 0)
(0.301086 0.00624998 0)
(0.308353 -0.0246061 0)
(0.309812 -0.0213095 0)
(0.310588 -0.0177775 0)
(0.310751 -0.014279 0)
(0.31047 -0.0109859 0)
(0.309878 -0.00798729 0)
(0.309114 -0.00533118 0)
(0.308239 -0.00302514 0)
(0.307357 -0.00106347 0)
(0.30647 0.000585895 0)
(0.305668 0.00194708 0)
(0.304892 0.00306314 0)
(0.304251 0.00395829 0)
(0.303611 0.00467471 0)
(0.303147 0.00522924 0)
(0.302616 0.00565789 0)
(0.302318 0.00596987 0)
(0.301833 0.00619169 0)
(0.301689 0.00632858 0)
(0.301163 0.00639165 0)
(0.310155 -0.0256212 0)
(0.311824 -0.0219079 0)
(0.312642 -0.0180095 0)
(0.312727 -0.0142258 0)
(0.312303 -0.0107272 0)
(0.311533 -0.00759315 0)
(0.310582 -0.0048597 0)
(0.309519 -0.00252187 0)
(0.308466 -0.000560057 0)
(0.307417 0.00106692 0)
(0.306479 0.00239262 0)
(0.305573 0.00346646 0)
(0.304833 0.00431734 0)
(0.304091 0.00499074 0)
(0.303558 0.00550548 0)
(0.30294 0.00589975 0)
(0.302599 0.00618248 0)
(0.302031 0.00638273 0)
(0.301867 0.00650376 0)
(0.301246 0.00656012 0)
(0.312198 -0.0267965 0)
(0.314069 -0.0225611 0)
(0.314891 -0.0182235 0)
(0.314857 -0.0141091 0)
(0.314254 -0.0103786 0)
(0.313275 -0.00709778 0)
(0.312113 -0.00428567 0)
(0.310844 -0.00192118 0)
(0.309604 3.28438e-05 0)
(0.308382 0.00162773 0)
(0.307298 0.0029085 0)
(0.306256 0.00393075 0)
(0.305409 0.00472958 0)
(0.304557 0.00535272 0)
(0.30395 0.0058222 0)
(0.303235 0.00617741 0)
(0.302846 0.00642736 0)
(0.302181 0.00660412 0)
(0.301994 0.00670721 0)
(0.301262 0.006758 0)
(0.314556 -0.0281339 0)
(0.316611 -0.0232539 0)
(0.317395 -0.0183997 0)
(0.317197 -0.0139089 0)
(0.316373 -0.00992215 0)
(0.315149 -0.0064859 0)
(0.313742 -0.00359677 0)
(0.312236 -0.00121257 0)
(0.310784 0.000723299 0)
(0.309364 0.00227524 0)
(0.308112 0.00350155 0)
(0.306909 0.00446246 0)
(0.305934 0.00520185 0)
(0.304946 0.00576723 0)
(0.304245 0.00618677 0)
(0.303406 0.00649784 0)
(0.302953 0.00671232 0)
(0.302161 0.00686308 0)
(0.30194 0.00694661 0)
(0.301061 0.00699265 0)
(0.317338 -0.0296329 0)
(0.31956 -0.0239688 0)
(0.320258 -0.0185173 0)
(0.31984 -0.0136028 0)
(0.318736 -0.00933527 0)
(0.317206 -0.00573637 0)
(0.315492 -0.00277339 0)
(0.313691 -0.000375902 0)
(0.311967 0.0015308 0)
(0.310293 0.0030278 0)
(0.308819 0.00418986 0)
(0.307403 0.00507902 0)
(0.30625 0.00575198 0)
(0.305078 0.00625113 0)
(0.304239 0.00661684 0)
(0.303229 0.00687705 0)
(0.302677 0.00705446 0)
(0.30171 0.00717433 0)
(0.301434 0.00723757 0)
(0.300353 0.00727714 0)
(0.320753 -0.0312976 0)
(0.32312 -0.02469 0)
(0.323652 -0.0185501 0)
(0.322909 -0.0131559 0)
(0.3214 -0.00857814 0)
(0.319428 -0.00480765 0)
(0.317274 -0.00177153 0)
(0.315048 0.000628205 0)
(0.312931 0.00249521 0)
(0.310891 0.00392462 0)
(0.309093 0.00501134 0)
(0.30737 0.00581612 0)
(0.305955 0.00641441 0)
(0.304522 0.00683595 0)
(0.303476 0.00714337 0)
(0.302232 0.00734196 0)
(0.301528 0.00748108 0)
(0.30033 0.00755977 0)
(0.299969 0.00760297 0)
(0.298632 0.00762822 0)
(0.32521 -0.0331394 0)
(0.327605 -0.0253901 0)
(0.327743 -0.0184385 0)
(0.326394 -0.0124857 0)
(0.324179 -0.00755729 0)
(0.321472 -0.00360303 0)
(0.318606 -0.000494489 0)
(0.315715 0.00188852 0)
(0.312997 0.00369709 0)
(0.310416 0.00503852 0)
(0.30814 0.00603132 0)
(0.305987 0.00673173 0)
(0.3042 0.00724097 0)
(0.302421 0.0075665 0)
(0.301091 0.00780697 0)
(0.299559 0.00792563 0)
(0.29865 0.00802359 0)
(0.297194 0.00804171 0)
(0.296717 0.00806569 0)
(0.295109 0.00805835 0)
(0.331265 -0.035128 0)
(0.333149 -0.0259613 0)
(0.33223 -0.0180085 0)
(0.329608 -0.0113838 0)
(0.326071 -0.00606165 0)
(0.322103 -0.00191871 0)
(0.318095 0.00122497 0)
(0.3142 0.00355165 0)
(0.310622 0.00525946 0)
(0.307307 0.00647082 0)
(0.304408 0.00733197 0)
(0.301728 0.00789212 0)
(0.299497 0.0082841 0)
(0.297342 0.00848316 0)
(0.295699 0.00863872 0)
(0.293896 0.00864871 0)
(0.292776 0.00869808 0)
(0.291116 0.00862503 0)
(0.290523 0.00863051 0)
(0.288737 0.00855947 0)
(0.338839 -0.0369767 0)
(0.338603 -0.0260099 0)
(0.335167 -0.0167956 0)
(0.330054 -0.00940155 0)
(0.324261 -0.0036954 0)
(0.318361 0.000544194 0)
(0.312762 0.00361294 0)
(0.3076 0.00578469 0)
(0.303023 0.00730059 0)
(0.298933 0.0083011 0)
(0.295433 0.00896131 0)
(0.2923 0.00932212 0)
(0.28972 0.00954887 0)
(0.287324 0.00957742 0)
(0.285486 0.00961814 0)
(0.283586 0.00948214 0)
(0.282364 0.00947012 0)
(0.280714 0.00926732 0)
(0.280072 0.00925551 0)
(0.278379 0.00908011 0)
(0.344875 -0.0375777 0)
(0.33924 -0.0244525 0)
(0.331048 -0.0138475 0)
(0.321981 -0.00582011 0)
(0.313117 4.04526e-06 0)
(0.304957 0.00405422 0)
(0.297786 0.0068196 0)
(0.291583 0.00864252 0)
(0.28635 0.00980578 0)
(0.281891 0.0104689 0)
(0.278218 0.0108276 0)
(0.275073 0.0109122 0)
(0.272562 0.0109128 0)
(0.270345 0.0107238 0)
(0.268682 0.0106155 0)
(0.267084 0.0102999 0)
(0.266053 0.0102142 0)
(0.264818 0.0098474 0)
(0.264305 0.00982397 0)
(0.263179 0.00950555 0)
(0.339395 -0.0344608 0)
(0.324005 -0.0194606 0)
(0.309386 -0.0078995 0)
(0.296009 -6.81134e-05 0)
(0.284637 0.00516732 0)
(0.275268 0.00851831 0)
(0.267769 0.0106041 0)
(0.261786 0.011801 0)
(0.257099 0.0124133 0)
(0.253381 0.0126044 0)
(0.250536 0.0125687 0)
(0.248277 0.0123203 0)
(0.246633 0.0120547 0)
(0.245318 0.0116286 0)
(0.244455 0.0113566 0)
(0.243758 0.0108558 0)
(0.243385 0.0106985 0)
(0.243113 0.010158 0)
(0.243008 0.0101406 0)
(0.243061 0.00965922 0)
(0.302604 -0.024684 0)
(0.275907 -0.0100352 0)
(0.257537 0.000980199 0)
(0.243118 0.00708944 0)
(0.232909 0.0108462 0)
(0.225618 0.0128976 0)
(0.220592 0.0139401 0)
(0.21716 0.0143059 0)
(0.214946 0.0142703 0)
(0.213569 0.0139618 0)
(0.212888 0.0135378 0)
(0.212643 0.0129879 0)
(0.212819 0.0124889 0)
(0.213228 0.0118714 0)
(0.213866 0.0114691 0)
(0.2147 0.010827 0)
(0.215495 0.0106308 0)
(0.216718 0.00994657 0)
(0.217328 0.00997376 0)
(0.219133 0.00933889 0)
(0.211801 -0.0044877 0)
(0.184571 0.00353169 0)
(0.174145 0.010433 0)
(0.166256 0.0127592 0)
(0.162983 0.0145115 0)
(0.161656 0.0150637 0)
(0.161926 0.0151433 0)
(0.163117 0.0148346 0)
(0.164959 0.0143379 0)
(0.167162 0.013713 0)
(0.169637 0.0130644 0)
(0.172218 0.0123626 0)
(0.174889 0.0117529 0)
(0.177588 0.0110609 0)
(0.180208 0.0106174 0)
(0.182984 0.00992566 0)
(0.185291 0.00976023 0)
(0.188333 0.00899362 0)
(0.189871 0.00913746 0)
(0.19376 0.00837325 0)
(0.0815801 0.00832724 0)
(0.0767288 0.00642459 0)
(0.0843889 0.0118037 0)
(0.0866292 0.0121989 0)
(0.0923877 0.0134958 0)
(0.0978047 0.013368 0)
(0.10392 0.0131738 0)
(0.110057 0.0126732 0)
(0.116194 0.0121002 0)
(0.122155 0.0114634 0)
(0.12792 0.010836 0)
(0.133431 0.01019 0)
(0.138674 0.00963728 0)
(0.143721 0.00902348 0)
(0.148359 0.00865453 0)
(0.1531 0.00803176 0)
(0.15693 0.0079794 0)
(0.161789 0.00721383 0)
(0.164248 0.00756104 0)
(0.170192 0.00668945 0)
(0.0312961 -0.00203828 0)
(0.026284 0.00279545 0)
(0.0391566 0.00872365 0)
(0.0445409 0.00913016 0)
(0.0544357 0.0103898 0)
(0.063057 0.0102002 0)
(0.0722369 0.0100713 0)
(0.0809975 0.00966452 0)
(0.0894705 0.00922401 0)
(0.0974912 0.00873597 0)
(0.105074 0.0082573 0)
(0.112208 0.0077669 0)
(0.118874 0.00734829 0)
(0.125226 0.00688521 0)
(0.13097 0.00662013 0)
(0.136809 0.00615096 0)
(0.141452 0.00616009 0)
(0.147345 0.00556113 0)
(0.150258 0.00592855 0)
(0.157371 0.00520237 0)
(0.0112613 -0.00639638 0)
(0.00434174 0.00175841 0)
(0.0181912 0.00680791 0)
(0.0248025 0.00720918 0)
(0.0365043 0.00828511 0)
(0.0465767 0.00812199 0)
(0.0571783 0.00802866 0)
(0.0671669 0.00770599 0)
(0.0767411 0.00736352 0)
(0.0857359 0.00698355 0)
(0.0941787 0.00661067 0)
(0.102083 0.00622809 0)
(0.109422 0.00590167 0)
(0.116392 0.00554223 0)
(0.122657 0.00534302 0)
(0.129017 0.00498526 0)
(0.134038 0.00501614 0)
(0.140424 0.00456099 0)
(0.143542 0.00488432 0)
(0.151214 0.00433546 0)
(-0.00178345 -0.00609119 0)
(-0.0113659 0.00106356 0)
(0.00247724 0.00472906 0)
(0.00987737 0.00508071 0)
(0.0228506 0.00589914 0)
(0.0339829 0.00579767 0)
(0.0456431 0.005751 0)
(0.0565547 0.00553898 0)
(0.0669606 0.00531577 0)
(0.0766923 0.00506471 0)
(0.0857863 0.00481589 0)
(0.0942722 0.00455786 0)
(0.10212 0.00433737 0)
(0.109555 0.0040958 0)
(0.116211 0.00397051 0)
(0.122961 0.00373918 0)
(0.128263 0.00379036 0)
(0.135022 0.0035017 0)
(0.13829 0.00376387 0)
(0.146385 0.00342667 0)
(-0.00948334 -0.00329804 0)
(-0.0213187 0.00057877 0)
(-0.00773936 0.0025796 0)
(0.000111684 0.00278247 0)
(0.0138564 0.00330823 0)
(0.0256546 0.00328526 0)
(0.0379927 0.00329877 0)
(0.0494988 0.00321652 0)
(0.0604414 0.00312944 0)
(0.070648 0.00302326 0)
(0.0801606 0.00291239 0)
(0.0890187 0.00279164 0)
(0.0971903 0.00268761 0)
(0.10492 0.00257418 0)
(0.111822 0.00252991 0)
(0.118817 0.00243384 0)
(0.124293 0.0025086 0)
(0.131286 0.00239468 0)
(0.134646 0.00259695 0)
(0.14301 0.00247514 0)
(-0.0129327 0.000740022 0)
(-0.0257935 0.000252819 0)
(-0.0123143 0.000440466 0)
(-0.00429363 0.000390963 0)
(0.00976134 0.000603631 0)
(0.0218351 0.000669064 0)
(0.0344619 0.000749388 0)
(0.0462207 0.000807318 0)
(0.0573898 0.000866067 0)
(0.0677937 0.000914035 0)
(0.0774778 0.000949261 0)
(0.0864849 0.000973211 0)
(0.0947839 0.000991873 0)
(0.102625 0.00101257 0)
(0.109618 0.00105344 0)
(0.116703 0.00109757 0)
(0.12224 0.00119762 0)
(0.12932 0.00126262 0)
(0.132709 0.00140572 0)
(0.141181 0.0014998 0)
(-0.0125932 0.00509616 0)
(-0.024892 -5.28278e-05 0)
(-0.0111954 -0.00169921 0)
(-0.00326274 -0.00201661 0)
(0.0106658 -0.00212182 0)
(0.0226294 -0.00196621 0)
(0.0351536 -0.00181838 0)
(0.0468189 -0.0016178 0)
(0.0578985 -0.00141057 0)
(0.0682164 -0.00120597 0)
(0.0778191 -0.0010224 0)
(0.0867467 -0.000851802 0)
(0.0949719 -0.000708696 0)
(0.102738 -0.000552407 0)
(0.109665 -0.000425385 0)
(0.116679 -0.000240103 0)
(0.122162 -0.000114896 0)
(0.129178 0.000129441 0)
(0.132532 0.000212498 0)
(0.140945 0.000521296 0)
(-0.0082824 0.00887254 0)
(-0.0185359 -0.000544094 0)
(-0.00439902 -0.00388521 0)
(0.00316773 -0.00435557 0)
(0.0165309 -0.00477481 0)
(0.028003 -0.00453812 0)
(0.0400376 -0.00432678 0)
(0.0512669 -0.00398861 0)
(0.0619446 -0.00363709 0)
(0.0718964 -0.00328001 0)
(0.0811682 -0.0029517 0)
(0.089791 -0.00263797 0)
(0.0977442 -0.00237314 0)
(0.105252 -0.00208431 0)
(0.111957 -0.00187315 0)
(0.118744 -0.00154995 0)
(0.124058 -0.00140114 0)
(0.130861 -0.000981501 0)
(0.134119 -0.000959707 0)
(0.142307 -0.000440753 0)
(0.000869048 0.0112057 0)
(-0.00647542 -0.00128689 0)
(0.00798648 -0.00608037 0)
(0.0148495 -0.00654946 0)
(0.0271784 -0.00725986 0)
(0.0377831 -0.00696044 0)
(0.0489518 -0.0066968 0)
(0.0594142 -0.00623458 0)
(0.06939 -0.00575035 0)
(0.0787084 -0.00525192 0)
(0.0874117 -0.00478851 0)
(0.095516 -0.0043407 0)
(0.103009 -0.00396133 0)
(0.110084 -0.00354747 0)
(0.116422 -0.00325729 0)
(0.122832 -0.00280324 0)
(0.127871 -0.0026342 0)
(0.13432 -0.00204675 0)
(0.137422 -0.00208912 0)
(0.145227 -0.00136575 0)
(0.0164762 0.0107203 0)
(0.0116968 -0.00226299 0)
(0.025749 -0.00808488 0)
(0.0314966 -0.00849689 0)
(0.0422949 -0.00948087 0)
(0.051662 -0.00914945 0)
(0.0616059 -0.00885276 0)
(0.070991 -0.00828903 0)
(0.079987 -0.00769096 0)
(0.0884262 -0.00706912 0)
(0.0963443 -0.00648604 0)
(0.103736 -0.00591845 0)
(0.110599 -0.005436 0)
(0.117084 -0.00490877 0)
(0.122921 -0.00454752 0)
(0.128822 -0.0039734 0)
(0.133488 -0.00378879 0)
(0.139454 -0.00304482 0)
(0.142348 -0.0031544 0)
(0.149624 -0.002235 0)
(0.0407977 0.00305145 0)
(0.0365799 -0.00352753 0)
(0.0485604 -0.00980157 0)
(0.0526608 -0.0102047 0)
(0.061424 -0.011404 0)
(0.0692021 -0.0110764 0)
(0.0775893 -0.0107529 0)
(0.0856167 -0.010112 0)
(0.0933867 -0.00942028 0)
(0.100732 -0.00869581 0)
(0.107677 -0.00801155 0)
(0.114188 -0.00734144 0)
(0.120275 -0.00676991 0)
(0.126036 -0.00614442 0)
(0.131257 -0.00572037 0)
(0.136536 -0.0050432 0)
(0.140743 -0.00484182 0)
(0.14612 -0.0039683 0)