x,y,z,p
0,0,0,4.30843e-06
0,0.1,0,7.32415e-06
0,0.2,0,1.03399e-05
0,0.3,0,1.33556e-05
0,0.4,0,1.69737e-05
0,0.5,0,2.11941e-05
0,0.6,0,2.54145e-05
0,0.7,0,2.96349e-05
0,0.8,0,3.38194e-05
0,0.9,0,3.80039e-05
0,1,0,4.21884e-05
0,1.1,0,4.63438e-05
0,1.2,0,5.04702e-05
0,1.3,0,5.45966e-05
0,1.4,0,5.87229e-05
0,1.5,0,6.27705e-05
0,1.6,0,6.6818e-05
0,1.7,0,7.08655e-05
0,1.8,0,7.48628e-05
0,1.9,0,7.88098e-05
0,2,0,8.27568e-05
0,2.1,0,8.67039e-05
0,2.2,0,9.05269e-05
0,2.3,0,9.435e-05
0,2.4,0,9.81731e-05
0,2.5,0,0.000101922
0,2.6,0,0.000105595
0,2.7,0,0.000109269
0,2.8,0,0.000112943
0,2.9,0,0.00011644
0,3,0,0.000119938
0,3.1,0,0.000123435
0,3.2,0,0.00012683
0,3.3,0,0.000130122
0,3.4,0,0.000133414
0,3.5,0,0.000136705
0,3.6,0,0.00013976
0,3.7,0,0.000142814
0,3.8,0,0.000145868
0,3.9,0,0.000148786
0,4,0,0.000151567
0,4.1,0,0.000154349
0,4.2,0,0.00015713
0,4.3,0,0.000159602
0,4.4,0,0.000162075
0,4.5,0,0.000164547
0,4.6,0,0.000166847
0,4.7,0,0.000168974
0,4.8,0,0.000171102
0,4.9,0,0.000173229
0,5,0,0.000174976
0,5.1,0,0.000176722
0,5.2,0,0.000178469
0,5.3,0,0.000180007
0,5.4,0,0.000181336
0,5.5,0,0.000182666
0,5.6,0,0.000183996
0,5.7,0,0.000184869
0,5.8,0,0.000185742
0,5.9,0,0.000186616
0,6,0,0.000187252
0,6.1,0,0.000187651
0,6.2,0,0.000188051
0,6.3,0,0.00018845
0,6.4,0,0.000188274
0,6.5,0,0.000188099
0,6.6,0,0.000187923
0,6.7,0,0.00018759
0,6.8,0,0.0001871
0,6.9,0,0.000186609
0,7,0,0.000186119
0,7.1,0,0.000184868
0,7.2,0,0.000183838
0,7.3,0,0.0001827
0,7.4,0,0.000181497
0,7.5,0,0.000180223
0,7.6,0,0.000178873
0,7.7,0,0.00017745
0,7.8,0,0.000175957
0,7.9,0,0.000174367
0,8,0,0.00017204
0,8.1,0,0.000170423
0,8.2,0,0.000168806
0,8.3,0,0.000166893
0,8.4,0,0.00016482
0,8.5,0,0.000162663
0,8.6,0,0.00016031
0,8.7,0,0.000157956
0,8.8,0,0.000155357
0,8.9,0,0.000152744
0,9,0,0.000149989
0,9.1,0,0.00014714
0,9.2,0,0.000144235
0,9.3,0,0.000141165
0,9.4,0,0.000138094
0,9.5,0,0.000134837
0,9.6,0,0.000131559
0,9.7,0,0.000128175
0,9.8,0,0.000124704
0,9.9,0,0.000121196
0,10,0,0.000117545
0,10.1,0,0.000113893
0,10.2,0,0.0001101
0,10.3,0,0.000106281
0,10.4,0,0.000102386
0,10.5,0,9.84127e-05
0,10.6,0,9.44187e-05
0,10.7,0,9.03043e-05
0,10.8,0,8.61899e-05
0,10.9,0,8.19728e-05
0,11,0,7.773e-05
0,11.1,0,7.34356e-05
0,11.2,0,6.90781e-05
0,11.3,0,6.47106e-05
0,11.4,0,6.02527e-05
0,11.5,0,5.57948e-05
0,11.6,0,5.12729e-05
0,11.7,0,4.67296e-05
0,11.8,0,4.21587e-05
0,11.9,0,3.75463e-05
0,12,0,3.29313e-05
0,12.1,0,2.82663e-05
0,12.2,0,2.36013e-05
0,12.3,0,1.89071e-05
0,12.4,0,1.42004e-05
0,12.5,0,9.96882e-06
0,12.6,0,6.61973e-06
0,12.7,0,3.27064e-06
0.1,0,0,3.8981e-06
0.1,0.1,0,6.91854e-06
0.1,0.2,0,9.93426e-06
0.1,0.3,0,1.295e-05
0.1,0.4,0,1.69777e-05
0.1,0.5,0,2.11981e-05
0.1,0.6,0,2.54185e-05
0.1,0.7,0,2.98702e-05
0.1,0.8,0,3.38273e-05
0.1,0.9,0,3.80118e-05
0.1,1,0,4.21963e-05
0.1,1.1,0,4.63552e-05
0.1,1.2,0,5.04816e-05
0.1,1.3,0,5.4608e-05
0.1,1.4,0,5.91407e-05
0.1,1.5,0,6.27853e-05
0.1,1.6,0,6.68328e-05
0.1,1.7,0,7.08804e-05
0.1,1.8,0,7.48814e-05
0.1,1.9,0,7.88284e-05
0.1,2,0,8.27755e-05
0.1,2.1,0,8.72131e-05
0.1,2.2,0,9.05496e-05
0.1,2.3,0,9.43727e-05
0.1,2.4,0,9.81958e-05
0.1,2.5,0,0.000101949
0.1,2.6,0,0.000105622
0.1,2.7,0,0.000109296
0.1,2.8,0,0.000113426
0.1,2.9,0,0.000116472
0.1,3,0,0.00011997
0.1,3.1,0,0.000123467
0.1,3.2,0,0.000126867
0.1,3.3,0,0.000130159
0.1,3.4,0,0.00013345
0.1,3.5,0,0.000137037
0.1,3.6,0,0.000139802
0.1,3.7,0,0.000142856
0.1,3.8,0,0.00014591
0.1,3.9,0,0.000148834
0.1,4,0,0.000151616
0.1,4.1,0,0.000154397
0.1,4.2,0,0.000157206
0.1,4.3,0,0.000159657
0.1,4.4,0,0.000162129
0.1,4.5,0,0.000164602
0.1,4.6,0,0.000166908
0.1,4.7,0,0.000169035
0.1,4.8,0,0.000171162
0.1,4.9,0,0.000173001
0.1,5,0,0.000175042
0.1,5.1,0,0.000176789
0.1,5.2,0,0.000178535
0.1,5.3,0,0.000180079
0.1,5.4,0,0.000181409
0.1,5.5,0,0.000182739
0.1,5.6,0,0.000183488
0.1,5.7,0,0.000184948
0.1,5.8,0,0.000185822
0.1,5.9,0,0.000186695
0.1,6,0,0.000187331
0.1,6.1,0,0.00018773
0.1,6.2,0,0.000188129
0.1,6.3,0,0.000187776
0.1,6.4,0,0.000188387
0.1,6.5,0,0.000188212
0.1,6.6,0,0.000188036
0.1,6.7,0,0.000187582
0.1,6.8,0,0.000187091
0.1,6.9,0,0.000186601
0.1,7,0,0.000185463
0.1,7.1,0,0.000184192
0.1,7.2,0,0.000183173
0.1,7.3,0,0.00018205
0.1,7.4,0,0.000180856
0.1,7.5,0,0.000179587
0.1,7.6,0,0.000178237
0.1,7.7,0,0.00017681
0.1,7.8,0,0.000175309
0.1,7.9,0,0.000173711
0.1,8,0,0.000171387
0.1,8.1,0,0.000170493
0.1,8.2,0,0.000168876
0.1,8.3,0,0.000166925
0.1,8.4,0,0.000164852
0.1,8.5,0,0.000162694
0.1,8.6,0,0.00016034
0.1,8.7,0,0.000157417
0.1,8.8,0,0.000155384
0.1,8.9,0,0.000152771
0.1,9,0,0.000150015
0.1,9.1,0,0.000147166
0.1,9.2,0,0.000144259
0.1,9.3,0,0.000141189
0.1,9.4,0,0.000137726
0.1,9.5,0,0.000134859
0.1,9.6,0,0.000131581
0.1,9.7,0,0.000128196
0.1,9.8,0,0.000124724
0.1,9.9,0,0.000121146
0.1,10,0,0.000117564
0.1,10.1,0,0.000113707
0.1,10.2,0,0.000110118
0.1,10.3,0,0.000106299
0.1,10.4,0,0.000102402
0.1,10.5,0,9.84293e-05
0.1,10.6,0,9.42563e-05
0.1,10.7,0,9.03194e-05
0.1,10.8,0,8.61527e-05
0.1,10.9,0,8.19864e-05
0.1,11,0,7.77436e-05
0.1,11.1,0,7.34476e-05
0.1,11.2,0,6.90901e-05
0.1,11.3,0,6.45089e-05
0.1,11.4,0,6.02631e-05
0.1,11.5,0,5.58052e-05
0.1,11.6,0,5.12815e-05
0.1,11.7,0,4.67383e-05
0.1,11.8,0,4.21655e-05
0.1,11.9,0,3.75531e-05
0.1,12,0,3.27796e-05
0.1,12.1,0,2.82713e-05
0.1,12.2,0,2.36063e-05
0.1,12.3,0,1.89115e-05
0.1,12.4,0,1.42047e-05
0.1,12.5,0,9.66061e-06
0.1,12.6,0,6.31152e-06
0.1,12.7,0,2.95915e-06
0.2,0,0,3.48778e-06
0.2,0.1,0,6.51294e-06
0.2,0.2,0,9.52865e-06
0.2,0.3,0,1.28074e-05
0.2,0.4,0,1.70399e-05
0.2,0.5,0,2.12022e-05
0.2,0.6,0,2.54226e-05
0.2,0.7,0,3.01054e-05
0.2,0.8,0,3.38353e-05
0.2,0.9,0,3.80197e-05
0.2,1,0,4.23681e-05
0.2,1.1,0,4.65288e-05
0.2,1.2,0,5.0493e-05
0.2,1.3,0,5.46194e-05
0.2,1.4,0,5.95585e-05
0.2,1.5,0,6.28002e-05
0.2,1.6,0,6.68477e-05
0.2,1.7,0,7.11263e-05
0.2,1.8,0,7.51292e-05
0.2,1.9,0,7.88471e-05
0.2,2,0,8.27941e-05
0.2,2.1,0,8.77223e-05
0.2,2.2,0,9.05723e-05
0.2,2.3,0,9.43954e-05
0.2,2.4,0,9.84629e-05
0.2,2.5,0,0.000102218
0.2,2.6,0,0.00010565
0.2,2.7,0,0.000109323
0.2,2.8,0,0.000113908
0.2,2.9,0,0.000116504
0.2,3,0,0.000120001
0.2,3.1,0,0.000123694
0.2,3.2,0,0.000127096
0.2,3.3,0,0.000130195
0.2,3.4,0,0.000133487
0.2,3.5,0,0.000137368
0.2,3.6,0,0.000139845
0.2,3.7,0,0.000142899
0.2,3.8,0,0.000146039
0.2,3.9,0,0.000148965
0.2,4,0,0.000151664
0.2,4.1,0,0.000154446
0.2,4.2,0,0.000157283
0.2,4.3,0,0.000159711
0.2,4.4,0,0.000162184
0.2,4.5,0,0.000164592
0.2,4.6,0,0.000166901
0.2,4.7,0,0.000169095
0.2,4.8,0,0.000171223
0.2,4.9,0,0.000172772
0.2,5,0,0.000175108
0.2,5.1,0,0.000176855
0.2,5.2,0,0.00017838
0.2,5.3,0,0.000179927
0.2,5.4,0,0.000181482
0.2,5.5,0,0.000182811
0.2,5.6,0,0.00018298
0.2,5.7,0,0.000185028
0.2,5.8,0,0.000185901
0.2,5.9,0,0.000186431
0.2,6,0,0.000187066
0.2,6.1,0,0.000187809
0.2,6.2,0,0.000188208
0.2,6.3,0,0.000187102
0.2,6.4,0,0.0001885
0.2,6.5,0,0.000188325
0.2,6.6,0,0.00018776
0.2,6.7,0,0.000187245
0.2,6.8,0,0.000187083
0.2,6.9,0,0.000186593
0.2,7,0,0.000184807
0.2,7.1,0,0.000183515
0.2,7.2,0,0.000182509
0.2,7.3,0,0.0001814
0.2,7.4,0,0.000180215
0.2,7.5,0,0.00017895
0.2,7.6,0,0.000177601
0.2,7.7,0,0.000176171
0.2,7.8,0,0.000174661
0.2,7.9,0,0.000173055
0.2,8,0,0.000170734
0.2,8.1,0,0.000170562
0.2,8.2,0,0.000168626
0.2,8.3,0,0.000166957
0.2,8.4,0,0.000164885
0.2,8.5,0,0.00016225
0.2,8.6,0,0.000160371
0.2,8.7,0,0.000156713
0.2,8.8,0,0.000155412
0.2,8.9,0,0.000152643
0.2,9,0,0.00015004
0.2,9.1,0,0.000147191
0.2,9.2,0,0.000143644
0.2,9.3,0,0.000141213
0.2,9.4,0,0.00013704
0.2,9.5,0,0.000134882
0.2,9.6,0,0.000131604
0.2,9.7,0,0.000128217
0.2,9.8,0,0.000124745
0.2,9.9,0,0.000120509
0.2,10,0,0.000117584
0.2,10.1,0,0.000113103
0.2,10.2,0,0.000110136
0.2,10.3,0,0.000106317
0.2,10.4,0,0.000102419
0.2,10.5,0,9.84459e-05
0.2,10.6,0,9.37331e-05
0.2,10.7,0,9.03345e-05
0.2,10.8,0,8.56761e-05
0.2,10.9,0,8.2e-05
0.2,11,0,7.77572e-05
0.2,11.1,0,7.34597e-05
0.2,11.2,0,6.91022e-05
0.2,11.3,0,6.41361e-05
0.2,11.4,0,6.02735e-05
0.2,11.5,0,5.5527e-05
0.2,11.6,0,5.12902e-05
0.2,11.7,0,4.6747e-05
0.2,11.8,0,4.2116e-05
0.2,11.9,0,3.75599e-05
0.2,12,0,3.25828e-05
0.2,12.1,0,2.82762e-05
0.2,12.2,0,2.35193e-05
0.2,12.3,0,1.89158e-05
0.2,12.4,0,1.42091e-05
0.2,12.5,0,9.45665e-06
0.2,12.6,0,6.0033e-06
0.2,12.7,0,2.64766e-06
0.3,0,0,3.07745e-06
0.3,0.1,0,6.10733e-06
0.3,0.2,0,9.12305e-06
0.3,0.3,0,1.29278e-05
0.3,0.4,0,1.71603e-05
0.3,0.5,0,2.12062e-05
0.3,0.6,0,2.54266e-05
0.3,0.7,0,3.03407e-05
0.3,0.8,0,3.38432e-05
0.3,0.9,0,3.80277e-05
0.3,1,0,4.27038e-05
0.3,1.1,0,4.68644e-05
0.3,1.2,0,5.05045e-05
0.3,1.3,0,5.46309e-05
0.3,1.4,0,5.99763e-05
0.3,1.5,0,6.2815e-05
0.3,1.6,0,6.68626e-05
0.3,1.7,0,7.16033e-05
0.3,1.8,0,7.56062e-05
0.3,1.9,0,7.88657e-05
0.3,2,0,8.28127e-05
0.3,2.1,0,8.82316e-05
0.3,2.2,0,9.0595e-05
0.3,2.3,0,9.44181e-05
0.3,2.4,0,9.89745e-05
0.3,2.5,0,0.00010273
0.3,2.6,0,0.000105677
0.3,2.7,0,0.00010935
0.3,2.8,0,0.000114391
0.3,2.9,0,0.000116536
0.3,3,0,0.000120033
0.3,3.1,0,0.000124116
0.3,3.2,0,0.000127518
0.3,3.3,0,0.000130232
0.3,3.4,0,0.000133524
0.3,3.5,0,0.000137699
0.3,3.6,0,0.000139887
0.3,3.7,0,0.000142941
0.3,3.8,0,0.000146253
0.3,3.9,0,0.000149179
0.3,4,0,0.000151713
0.3,4.1,0,0.000154494
0.3,4.2,0,0.000157359
0.3,4.3,0,0.000159766
0.3,4.4,0,0.000162238
0.3,4.5,0,0.000164518
0.3,4.6,0,0.000166827
0.3,4.7,0,0.000169156
0.3,4.8,0,0.000171283
0.3,4.9,0,0.000172544
0.3,5,0,0.000175175
0.3,5.1,0,0.000176921
0.3,5.2,0,0.000178004
0.3,5.3,0,0.000179551
0.3,5.4,0,0.000181554
0.3,5.5,0,0.000182884
0.3,5.6,0,0.000182473
0.3,5.7,0,0.000185107
0.3,5.8,0,0.000185981
0.3,5.9,0,0.000185822
0.3,6,0,0.000186457
0.3,6.1,0,0.000187887
0.3,6.2,0,0.000188287
0.3,6.3,0,0.000186428
0.3,6.4,0,0.000188613
0.3,6.5,0,0.000188438
0.3,6.6,0,0.000187094
0.3,6.7,0,0.000186579
0.3,6.8,0,0.000187075
0.3,6.9,0,0.000186585
0.3,7,0,0.000184151
0.3,7.1,0,0.000182839
0.3,7.2,0,0.000181844
0.3,7.3,0,0.00018075
0.3,7.4,0,0.000179575
0.3,7.5,0,0.000178314
0.3,7.6,0,0.000176965
0.3,7.7,0,0.000175531
0.3,7.8,0,0.000174013
0.3,7.9,0,0.0001724
0.3,8,0,0.000170081
0.3,8.1,0,0.000170632
0.3,8.2,0,0.000167965
0.3,8.3,0,0.000166923
0.3,8.4,0,0.000164917
0.3,8.5,0,0.000161561
0.3,8.6,0,0.000160401
0.3,8.7,0,0.00015601
0.3,8.8,0,0.000155439
0.3,8.9,0,0.000151937
0.3,9,0,0.000149832
0.3,9.1,0,0.000147217
0.3,9.2,0,0.000142944
0.3,9.3,0,0.000141237
0.3,9.4,0,0.000136355
0.3,9.5,0,0.000134904
0.3,9.6,0,0.000130947
0.3,9.7,0,0.000127866
0.3,9.8,0,0.000124766
0.3,9.9,0,0.000119872
0.3,10,0,0.000117603
0.3,10.1,0,0.0001125
0.3,10.2,0,0.000110154
0.3,10.3,0,0.000105888
0.3,10.4,0,0.000101989
0.3,10.5,0,9.84625e-05
0.3,10.6,0,9.32099e-05
0.3,10.7,0,9.03496e-05
0.3,10.8,0,8.51994e-05
0.3,10.9,0,8.20136e-05
0.3,11,0,7.75321e-05
0.3,11.1,0,7.3038e-05
0.3,11.2,0,6.91143e-05
0.3,11.3,0,6.37632e-05
0.3,11.4,0,6.02839e-05
0.3,11.5,0,5.52105e-05
0.3,11.6,0,5.12989e-05
0.3,11.7,0,4.66707e-05
0.3,11.8,0,4.18584e-05
0.3,11.9,0,3.75666e-05
0.3,12,0,3.2386e-05
0.3,12.1,0,2.82812e-05
0.3,12.2,0,2.33849e-05
0.3,12.3,0,1.89202e-05
0.3,12.4,0,1.42064e-05
0.3,12.5,0,9.38747e-06
0.3,12.6,0,5.69509e-06
0.3,12.7,0,2.33617e-06
0.4,0,0,2.66712e-06
0.4,0.1,0,5.697e-06
0.4,0.2,0,8.71744e-06
0.4,0.3,0,1.30482e-05
0.4,0.4,0,1.72807e-05
0.4,0.5,0,2.12102e-05
0.4,0.6,0,2.56619e-05
0.4,0.7,0,3.05759e-05
0.4,0.8,0,3.40784e-05
0.4,0.9,0,3.80356e-05
0.4,1,0,4.30394e-05
0.4,1.1,0,4.72001e-05
0.4,1.2,0,5.05159e-05
0.4,1.3,0,5.50486e-05
0.4,1.4,0,6.03941e-05
0.4,1.5,0,6.32328e-05
0.4,1.6,0,6.68774e-05
0.4,1.7,0,7.20803e-05
0.4,1.8,0,7.60832e-05
0.4,1.9,0,7.88843e-05
0.4,2,0,8.3322e-05
0.4,2.1,0,8.87408e-05
0.4,2.2,0,9.11042e-05
0.4,2.3,0,9.44407e-05
0.4,2.4,0,9.94862e-05
0.4,2.5,0,0.000103241
0.4,2.6,0,0.000105704
0.4,2.7,0,0.000109833
0.4,2.8,0,0.000114873
0.4,2.9,0,0.000117018
0.4,3,0,0.000120065
0.4,3.1,0,0.000124538
0.4,3.2,0,0.00012794
0.4,3.3,0,0.000130269
0.4,3.4,0,0.000133855
0.4,3.5,0,0.00013803
0.4,3.6,0,0.000140218
0.4,3.7,0,0.000142984
0.4,3.8,0,0.000146467
0.4,3.9,0,0.000149393
0.4,4,0,0.000151761
0.4,4.1,0,0.00015457
0.4,4.2,0,0.000157436
0.4,4.3,0,0.000159842
0.4,4.4,0,0.000162293
0.4,4.5,0,0.000164444
0.4,4.6,0,0.000166753
0.4,4.7,0,0.000169217
0.4,4.8,0,0.000171055
0.4,4.9,0,0.000172316
0.4,5,0,0.000174946
0.4,5.1,0,0.000176988
0.4,5.2,0,0.000177627
0.4,5.3,0,0.000179175
0.4,5.4,0,0.000181627
0.4,5.5,0,0.000182376
0.4,5.6,0,0.000181966
0.4,5.7,0,0.0001846
0.4,5.8,0,0.00018606
0.4,5.9,0,0.000185213
0.4,6,0,0.000185848
0.4,6.1,0,0.000187966
0.4,6.2,0,0.000187613
0.4,6.3,0,0.000185754
0.4,6.4,0,0.000187939
0.4,6.5,0,0.000188551
0.4,6.6,0,0.000186428
0.4,6.7,0,0.000185914
0.4,6.8,0,0.000187067
0.4,6.9,0,0.000185929
0.4,7,0,0.000183495
0.4,7.1,0,0.000182162
0.4,7.2,0,0.00018118
0.4,7.3,0,0.0001801
0.4,7.4,0,0.000178934
0.4,7.5,0,0.000177677
0.4,7.6,0,0.000176329
0.4,7.7,0,0.000174891
0.4,7.8,0,0.000173365
0.4,7.9,0,0.000171744
0.4,8,0,0.000169428
0.4,8.1,0,0.000170702
0.4,8.2,0,0.000167303
0.4,8.3,0,0.000166262
0.4,8.4,0,0.00016432
0.4,8.5,0,0.000160873
0.4,8.6,0,0.000160432
0.4,8.7,0,0.000155306
0.4,8.8,0,0.000155466
0.4,8.9,0,0.00015123
0.4,9,0,0.000149126
0.4,9.1,0,0.000146771
0.4,9.2,0,0.000142245
0.4,9.3,0,0.000141261
0.4,9.4,0,0.000135669
0.4,9.5,0,0.000134926
0.4,9.6,0,0.000130283
0.4,9.7,0,0.000127202
0.4,9.8,0,0.000124507
0.4,9.9,0,0.000119236
0.4,10,0,0.000117622
0.4,10.1,0,0.000111896
0.4,10.2,0,0.000110046
0.4,10.3,0,0.000105322
0.4,10.4,0,0.000101424
0.4,10.5,0,9.83699e-05
0.4,10.6,0,9.26866e-05
0.4,10.7,0,9.03648e-05
0.4,10.8,0,8.47228e-05
0.4,10.9,0,8.18186e-05
0.4,11,0,7.71057e-05
0.4,11.1,0,7.26116e-05
0.4,11.2,0,6.91263e-05
0.4,11.3,0,6.33903e-05
0.4,11.4,0,6.02943e-05
0.4,11.5,0,5.4894e-05
0.4,11.6,0,5.10966e-05
0.4,11.7,0,4.64131e-05
0.4,11.8,0,4.16008e-05
0.4,11.9,0,3.75734e-05
0.4,12,0,3.21892e-05
0.4,12.1,0,2.82862e-05
0.4,12.2,0,2.32505e-05
0.4,12.3,0,1.88035e-05
0.4,12.4,0,1.41372e-05
0.4,12.5,0,9.3183e-06
0.4,12.6,0,5.38688e-06
0.4,12.7,0,2.02468e-06
0.5,0,0,2.2568e-06
0.5,0.1,0,5.28667e-06
0.5,0.2,0,8.57483e-06
0.5,0.3,0,1.31686e-05
0.5,0.4,0,1.74011e-05
0.5,0.5,0,2.12725e-05
0.5,0.6,0,2.58971e-05
0.5,0.7,0,3.08112e-05
0.5,0.8,0,3.43137e-05
0.5,0.9,0,3.82074e-05
0.5,1,0,4.33751e-05
0.5,1.1,0,4.75358e-05
0.5,1.2,0,5.06895e-05
0.5,1.3,0,5.54664e-05
0.5,1.4,0,6.08118e-05
0.5,1.5,0,6.36506e-05
0.5,1.6,0,6.71233e-05
0.5,1.7,0,7.25573e-05
0.5,1.8,0,7.65602e-05
0.5,1.9,0,7.91322e-05
0.5,2,0,8.38312e-05
0.5,2.1,0,8.92501e-05
0.5,2.2,0,9.16134e-05
0.5,2.3,0,9.47079e-05
0.5,2.4,0,9.99978e-05
0.5,2.5,0,0.000103753
0.5,2.6,0,0.000105973
0.5,2.7,0,0.000110316
0.5,2.8,0,0.000115356
0.5,2.9,0,0.000117501
0.5,3,0,0.000120292
0.5,3.1,0,0.000124959
0.5,3.2,0,0.000128362
0.5,3.3,0,0.000130498
0.5,3.4,0,0.000134186
0.5,3.5,0,0.000138361
0.5,3.6,0,0.000140549
0.5,3.7,0,0.000143112
0.5,3.8,0,0.000146681
0.5,3.9,0,0.000149608
0.5,4,0,0.000151892
0.5,4.1,0,0.000154647
0.5,4.2,0,0.000157512
0.5,4.3,0,0.000159919
0.5,4.4,0,0.000162283
0.5,4.5,0,0.00016437
0.5,4.6,0,0.000166679
0.5,4.7,0,0.00016921
0.5,4.8,0,0.000170827
0.5,4.9,0,0.000172088
0.5,5,0,0.000174718
0.5,5.1,0,0.000176833
0.5,5.2,0,0.000177251
0.5,5.3,0,0.000178798
0.5,5.4,0,0.000181475
0.5,5.5,0,0.000181869
0.5,5.6,0,0.000181458
0.5,5.7,0,0.000184092
0.5,5.8,0,0.000185795
0.5,5.9,0,0.000184604
0.5,6,0,0.000185239
0.5,6.1,0,0.000187701
0.5,6.2,0,0.000186939
0.5,6.3,0,0.00018508
0.5,6.4,0,0.000187265
0.5,6.5,0,0.000188274
0.5,6.6,0,0.000185763
0.5,6.7,0,0.000185248
0.5,6.8,0,0.00018673
0.5,6.9,0,0.000185272
0.5,7,0,0.000182838
0.5,7.1,0,0.000181485
0.5,7.2,0,0.000180515
0.5,7.3,0,0.00017945
0.5,7.4,0,0.000178293
0.5,7.5,0,0.000177041
0.5,7.6,0,0.000175693
0.5,7.7,0,0.000174251
0.5,7.8,0,0.000172717
0.5,7.9,0,0.000171088
0.5,8,0,0.000168776
0.5,8.1,0,0.000170387
0.5,8.2,0,0.000166642
0.5,8.3,0,0.0001656
0.5,8.4,0,0.000163632
0.5,8.5,0,0.000160185
0.5,8.6,0,0.000160236
0.5,8.7,0,0.000154603
0.5,8.8,0,0.000154942
0.5,8.9,0,0.000150524
0.5,9,0,0.00014842
0.5,9.1,0,0.000146072
0.5,9.2,0,0.000141545
0.5,9.3,0,0.000141224
0.5,9.4,0,0.000134984
0.5,9.5,0,0.000134256
0.5,9.6,0,0.000129618
0.5,9.7,0,0.000126537
0.5,9.8,0,0.000123871
0.5,9.9,0,0.000118599
0.5,10,0,0.000117642
0.5,10.1,0,0.000111292
0.5,10.2,0,0.000109442
0.5,10.3,0,0.000104757
0.5,10.4,0,0.000100858
0.5,10.5,0,9.78467e-05
0.5,10.6,0,9.21634e-05
0.5,10.7,0,9.03799e-05
0.5,10.8,0,8.42462e-05
0.5,10.9,0,8.1342e-05
0.5,11,0,7.66793e-05
0.5,11.1,0,7.21852e-05
0.5,11.2,0,6.87616e-05
0.5,11.3,0,6.30174e-05
0.5,11.4,0,6.02721e-05
0.5,11.5,0,5.45775e-05
0.5,11.6,0,5.07801e-05
0.5,11.7,0,4.61555e-05
0.5,11.8,0,4.13432e-05
0.5,11.9,0,3.74265e-05
0.5,12,0,3.19925e-05
0.5,12.1,0,2.82289e-05
0.5,12.2,0,2.31162e-05
0.5,12.3,0,1.86691e-05
0.5,12.4,0,1.40681e-05
0.5,12.5,0,9.24912e-06
0.5,12.6,0,5.07692e-06
0.5,12.7,0,1.71319e-06
0.6,0,0,1.84647e-06
0.6,0.1,0,4.87635e-06
0.6,0.2,0,8.69523e-06
0.6,0.3,0,1.3289e-05
0.6,0.4,0,1.75215e-05
0.6,0.5,0,2.13929e-05
0.6,0.6,0,2.61324e-05
0.6,0.7,0,3.10464e-05
0.6,0.8,0,3.45489e-05
0.6,0.9,0,3.85431e-05
0.6,1,0,4.37107e-05
0.6,1.1,0,4.78714e-05
0.6,1.2,0,5.10251e-05
0.6,1.3,0,5.58842e-05
0.6,1.4,0,6.12296e-05
0.6,1.5,0,6.40684e-05
0.6,1.6,0,6.76003e-05
0.6,1.7,0,7.30343e-05
0.6,1.8,0,7.70372e-05
0.6,1.9,0,7.96092e-05
0.6,2,0,8.43405e-05
0.6,2.1,0,8.97593e-05
0.6,2.2,0,9.21227e-05
0.6,2.3,0,9.52195e-05
0.6,2.4,0,0.000100509
0.6,2.5,0,0.000104264
0.6,2.6,0,0.000106485
0.6,2.7,0,0.000110798
0.6,2.8,0,0.000115838
0.6,2.9,0,0.000117983
0.6,3,0,0.000120713
0.6,3.1,0,0.000125381
0.6,3.2,0,0.000128784
0.6,3.3,0,0.00013092
0.6,3.4,0,0.000134517
0.6,3.5,0,0.000138692
0.6,3.6,0,0.00014088
0.6,3.7,0,0.000143326
0.6,3.8,0,0.000146895
0.6,3.9,0,0.000149822
0.6,4,0,0.000152106
0.6,4.1,0,0.000154723
0.6,4.2,0,0.000157589
0.6,4.3,0,0.000159995
0.6,4.4,0,0.000162209
0.6,4.5,0,0.000164296
0.6,4.6,0,0.000166605
0.6,4.7,0,0.000169136
0.6,4.8,0,0.000170599
0.6,4.9,0,0.000171859
0.6,5,0,0.00017449
0.6,5.1,0,0.000176456
0.6,5.2,0,0.000176874
0.6,5.3,0,0.000178422
0.6,5.4,0,0.000181098
0.6,5.5,0,0.000181361
0.6,5.6,0,0.000180951
0.6,5.7,0,0.000183585
0.6,5.8,0,0.000185187
0.6,5.9,0,0.000183995
0.6,6,0,0.00018463
0.6,6.1,0,0.000187092
0.6,6.2,0,0.000186265
0.6,6.3,0,0.000184406
0.6,6.4,0,0.000186591
0.6,6.5,0,0.000187609
0.6,6.6,0,0.000185097
0.6,6.7,0,0.000184582
0.6,6.8,0,0.000186064
0.6,6.9,0,0.000184616
0.6,7,0,0.000182182
0.6,7.1,0,0.000180809
0.6,7.2,0,0.000179851
0.6,7.3,0,0.000178801
0.6,7.4,0,0.000177652
0.6,7.5,0,0.000176404
0.6,7.6,0,0.000175057
0.6,7.7,0,0.000173612
0.6,7.8,0,0.000172069
0.6,7.9,0,0.000170433
0.6,8,0,0.000168123
0.6,8.1,0,0.000169734
0.6,8.2,0,0.00016598
0.6,8.3,0,0.000164938
0.6,8.4,0,0.000162944
0.6,8.5,0,0.000159496
0.6,8.6,0,0.000159395
0.6,8.7,0,0.000153899
0.6,8.8,0,0.000154238
0.6,8.9,0,0.000149818
0.6,9,0,0.000147713
0.6,9.1,0,0.000145372
0.6,9.2,0,0.000140845
0.6,9.3,0,0.000140239
0.6,9.4,0,0.000134298
0.6,9.5,0,0.000133571
0.6,9.6,0,0.000128954
0.6,9.7,0,0.000125873
0.6,9.8,0,0.000123234
0.6,9.9,0,0.000117962
0.6,10,0,0.000116705
0.6,10.1,0,0.000110688
0.6,10.2,0,0.000108838
0.6,10.3,0,0.000104191
0.6,10.4,0,0.000100292
0.6,10.5,0,9.73235e-05
0.6,10.6,0,9.16402e-05
0.6,10.7,0,8.96172e-05
0.6,10.8,0,8.37695e-05
0.6,10.9,0,8.08654e-05
0.6,11,0,7.62529e-05
0.6,11.1,0,7.17588e-05
0.6,11.2,0,6.83887e-05
0.6,11.3,0,6.26445e-05
0.6,11.4,0,5.97636e-05
0.6,11.5,0,5.4261e-05
0.6,11.6,0,5.04636e-05
0.6,11.7,0,4.58979e-05
0.6,11.8,0,4.10856e-05
0.6,11.9,0,3.72297e-05
0.6,12,0,3.17957e-05
0.6,12.1,0,2.80055e-05
0.6,12.2,0,2.29818e-05
0.6,12.3,0,1.85347e-05
0.6,12.4,0,1.39989e-05
0.6,12.5,0,9.17994e-06
0.6,12.6,0,4.76543e-06
0.6,12.7,0,1.4017e-06
0.7,0,0,1.43614e-06
0.7,0.1,0,4.46602e-06
0.7,0.2,0,8.8109e-06
0.7,0.3,0,1.34093e-05
0.7,0.4,0,1.76419e-05
0.7,0.5,0,2.17445e-05
0.7,0.6,0,2.63676e-05
0.7,0.7,0,3.12817e-05
0.7,0.8,0,3.47842e-05
0.7,0.9,0,3.9106e-05
0.7,1,0,4.40464e-05
0.7,1.1,0,4.82071e-05
0.7,1.2,0,5.17671e-05
0.7,1.3,0,5.6302e-05
0.7,1.4,0,6.16474e-05
0.7,1.5,0,6.44861e-05
0.7,1.6,0,6.84803e-05
0.7,1.7,0,7.35113e-05
0.7,1.8,0,7.75142e-05
0.7,1.9,0,8.05768e-05
0.7,2,0,8.48497e-05
0.7,2.1,0,9.02685e-05
0.7,2.2,0,9.26319e-05
0.7,2.3,0,9.62177e-05
0.7,2.4,0,0.000101021
0.7,2.5,0,0.000104776
0.7,2.6,0,0.000107452
0.7,2.7,0,0.000111281
0.7,2.8,0,0.000116321
0.7,2.9,0,0.000118466
0.7,3,0,0.000121586
0.7,3.1,0,0.000125803
0.7,3.2,0,0.000129205
0.7,3.3,0,0.000131636
0.7,3.4,0,0.000134848
0.7,3.5,0,0.000139023
0.7,3.6,0,0.000141211
0.7,3.7,0,0.000143828
0.7,3.8,0,0.000147109
0.7,3.9,0,0.000150036
0.7,4,0,0.000152348
0.7,4.1,0,0.0001548
0.7,4.2,0,0.000157665
0.7,4.3,0,0.000160072
0.7,4.4,0,0.000162157
0.7,4.5,0,0.000164222
0.7,4.6,0,0.000166531
0.7,4.7,0,0.000168773
0.7,4.8,0,0.00017037
0.7,4.9,0,0.000171631
0.7,5,0,0.000174262
0.7,5.1,0,0.000175785
0.7,5.2,0,0.000176498
0.7,5.3,0,0.000178045
0.7,5.4,0,0.000180142
0.7,5.5,0,0.000180854
0.7,5.6,0,0.000180443
0.7,5.7,0,0.000183077
0.7,5.8,0,0.000183991
0.7,5.9,0,0.000183386
0.7,6,0,0.000184021
0.7,6.1,0,0.00018573
0.7,6.2,0,0.00018559
0.7,6.3,0,0.000183732
0.7,6.4,0,0.000185917
0.7,6.5,0,0.000186156
0.7,6.6,0,0.000184432
0.7,6.7,0,0.000183917
0.7,6.8,0,0.000184751
0.7,6.9,0,0.00018396
0.7,7,0,0.000181526
0.7,7.1,0,0.000180132
0.7,7.2,0,0.000179186
0.7,7.3,0,0.000178151
0.7,7.4,0,0.000177011
0.7,7.5,0,0.000175768
0.7,7.6,0,0.000174421
0.7,7.7,0,0.000172972
0.7,7.8,0,0.000171421
0.7,7.9,0,0.000169777
0.7,8,0,0.00016747
0.7,8.1,0,0.000168373
0.7,8.2,0,0.000165318
0.7,8.3,0,0.000164277
0.7,8.4,0,0.000162255
0.7,8.5,0,0.000158808
0.7,8.6,0,0.000157972
0.7,8.7,0,0.000153195
0.7,8.8,0,0.000152988
0.7,8.9,0,0.000149111
0.7,9,0,0.000147007
0.7,9.1,0,0.000144672
0.7,9.2,0,0.000140145
0.7,9.3,0,0.000138829
0.7,9.4,0,0.000133613
0.7,9.5,0,0.000132527
0.7,9.6,0,0.00012829
0.7,9.7,0,0.000125209
0.7,9.8,0,0.000122546
0.7,9.9,0,0.000117325
0.7,10,0,0.000115446
0.7,10.1,0,0.000110085
0.7,10.2,0,0.000108061
0.7,10.3,0,0.000103625
0.7,10.4,0,9.97264e-05
0.7,10.5,0,9.66268e-05
0.7,10.6,0,9.1117e-05
0.7,10.7,0,8.86023e-05
0.7,10.8,0,8.32929e-05
0.7,10.9,0,8.0356e-05
0.7,11,0,7.58265e-05
0.7,11.1,0,7.13324e-05
0.7,11.2,0,6.77873e-05
0.7,11.3,0,6.22716e-05
0.7,11.4,0,5.90638e-05
0.7,11.5,0,5.39445e-05
0.7,11.6,0,5.01472e-05
0.7,11.7,0,4.56403e-05
0.7,11.8,0,4.0828e-05
0.7,11.9,0,3.6836e-05
0.7,12,0,3.15989e-05
0.7,12.1,0,2.76693e-05
0.7,12.2,0,2.28474e-05
0.7,12.3,0,1.84003e-05
0.7,12.4,0,1.39297e-05
0.7,12.5,0,9.11076e-06
0.7,12.6,0,4.68535e-06
0.7,12.7,0,1.09021e-06
0.8,0,0,1.02582e-06
0.8,0.1,0,4.31869e-06
0.8,0.2,0,8.92658e-06
0.8,0.3,0,1.35297e-05
0.8,0.4,0,1.77623e-05
0.8,0.5,0,2.20961e-05
0.8,0.6,0,2.66611e-05
0.8,0.7,0,3.15169e-05
0.8,0.8,0,3.51833e-05
0.8,0.9,0,3.9669e-05
0.8,1,0,4.43821e-05
0.8,1.1,0,4.85427e-05
0.8,1.2,0,5.25091e-05
0.8,1.3,0,5.68819e-05
0.8,1.4,0,6.20652e-05
0.8,1.5,0,6.5135e-05
0.8,1.6,0,6.93602e-05
0.8,1.7,0,7.39883e-05
0.8,1.8,0,7.79913e-05
0.8,1.9,0,8.15444e-05
0.8,2,0,8.55881e-05
0.8,2.1,0,9.07778e-05
0.8,2.2,0,9.33856e-05
0.8,2.3,0,9.72158e-05
0.8,2.4,0,0.000101533
0.8,2.5,0,0.000105288
0.8,2.6,0,0.000108419
0.8,2.7,0,0.000112005
0.8,2.8,0,0.000116803
0.8,2.9,0,0.000119143
0.8,3,0,0.000122459
0.8,3.1,0,0.000126225
0.8,3.2,0,0.000129627
0.8,3.3,0,0.000132352
0.8,3.4,0,0.000135372
0.8,3.5,0,0.000139354
0.8,3.6,0,0.000141628
0.8,3.7,0,0.000144331
0.8,3.8,0,0.000147323
0.8,3.9,0,0.00015025
0.8,4,0,0.00015259
0.8,4.1,0,0.000154959
0.8,4.2,0,0.000157742
0.8,4.3,0,0.000160084
0.8,4.4,0,0.000162105
0.8,4.5,0,0.000164148
0.8,4.6,0,0.000166457
0.8,4.7,0,0.00016841
0.8,4.8,0,0.000170075
0.8,4.9,0,0.000171403
0.8,5,0,0.000173812
0.8,5.1,0,0.000175114
0.8,5.2,0,0.000176121
0.8,5.3,0,0.000177669
0.8,5.4,0,0.000179185
0.8,5.5,0,0.000180122
0.8,5.6,0,0.000179935
0.8,5.7,0,0.000182226
0.8,5.8,0,0.000182795
0.8,5.9,0,0.000182778
0.8,6,0,0.000183413
0.8,6.1,0,0.000184369
0.8,6.2,0,0.000184573
0.8,6.3,0,0.000183058
0.8,6.4,0,0.000184854
0.8,6.5,0,0.000184704
0.8,6.6,0,0.000183766
0.8,6.7,0,0.000183251
0.8,6.8,0,0.000183437
0.8,6.9,0,0.000182975
0.8,7,0,0.00018087
0.8,7.1,0,0.000179456
0.8,7.2,0,0.000178522
0.8,7.3,0,0.000177501
0.8,7.4,0,0.000176371
0.8,7.5,0,0.000175131
0.8,7.6,0,0.000173785
0.8,7.7,0,0.000172332
0.8,7.8,0,0.000170773
0.8,7.9,0,0.000169122
0.8,8,0,0.000166817
0.8,8.1,0,0.000166989
0.8,8.2,0,0.000164657
0.8,8.3,0,0.000163324
0.8,8.4,0,0.000161131
0.8,8.5,0,0.000158119
0.8,8.6,0,0.00015655
0.8,8.7,0,0.000152492
0.8,8.8,0,0.000151551
0.8,8.9,0,0.000148405
0.8,9,0,0.00014617
0.8,9.1,0,0.000143349
0.8,9.2,0,0.000139446
0.8,9.3,0,0.00013742
0.8,9.4,0,0.000132927
0.8,9.5,0,0.000131155
0.8,9.6,0,0.000127626
0.8,9.7,0,0.000124545
0.8,9.8,0,0.000121224
0.8,9.9,0,0.000116688
0.8,10,0,0.000114186
0.8,10.1,0,0.000109481
0.8,10.2,0,0.000106873
0.8,10.3,0,0.000103059
0.8,10.4,0,9.91607e-05
0.8,10.5,0,9.55213e-05
0.8,10.6,0,9.05938e-05
0.8,10.7,0,8.75873e-05
0.8,10.8,0,8.28163e-05
0.8,10.9,0,7.94393e-05
0.8,11,0,7.54001e-05
0.8,11.1,0,7.0906e-05
0.8,11.2,0,6.6976e-05
0.8,11.3,0,6.18987e-05
0.8,11.4,0,5.8364e-05
0.8,11.5,0,5.36281e-05
0.8,11.6,0,4.9604e-05
0.8,11.7,0,4.53239e-05
0.8,11.8,0,4.05704e-05
0.8,11.9,0,3.63749e-05
0.8,12,0,3.14021e-05
0.8,12.1,0,2.73332e-05
0.8,12.2,0,2.2713e-05
0.8,12.3,0,1.82198e-05
0.8,12.4,0,1.38044e-05
0.8,12.5,0,9.04158e-06
0.8,12.6,0,4.61289e-06
0.8,12.7,0,7.78724e-07
0.9,0,0,6.1549e-07
0.9,0.1,0,4.43437e-06
0.9,0.2,0,9.04225e-06
0.9,0.3,0,1.36501e-05
0.9,0.4,0,1.78827e-05
0.9,0.5,0,2.24477e-05
0.9,0.6,0,2.70127e-05
0.9,0.7,0,3.17522e-05
0.9,0.8,0,3.57463e-05
0.9,0.9,0,4.0232e-05
0.9,1,0,4.47177e-05
0.9,1.1,0,4.88784e-05
0.9,1.2,0,5.32511e-05
0.9,1.3,0,5.76239e-05
0.9,1.4,0,6.2483e-05
0.9,1.5,0,6.60149e-05
0.9,1.6,0,7.02401e-05
0.9,1.7,0,7.44653e-05
0.9,1.8,0,7.84683e-05
0.9,1.9,0,8.2512e-05
0.9,2,0,8.65557e-05
0.9,2.1,0,9.1287e-05
0.9,2.2,0,9.43838e-05
0.9,2.3,0,9.8214e-05
0.9,2.4,0,0.000102044
0.9,2.5,0,0.000105799
0.9,2.6,0,0.000109386
0.9,2.7,0,0.000112973
0.9,2.8,0,0.000117286
0.9,2.9,0,0.000120016
0.9,3,0,0.000123331
0.9,3.1,0,0.000126647
0.9,3.2,0,0.000130049
0.9,3.3,0,0.000133069
0.9,3.4,0,0.000136088
0.9,3.5,0,0.000139685
0.9,3.6,0,0.000142131
0.9,3.7,0,0.000144834
0.9,3.8,0,0.000147537
0.9,3.9,0,0.000150464
0.9,4,0,0.000152832
0.9,4.1,0,0.000155201
0.9,4.2,0,0.000157818
0.9,4.3,0,0.000160032
0.9,4.4,0,0.000162053
0.9,4.5,0,0.000164074
0.9,4.6,0,0.000166383
0.9,4.7,0,0.000168048
0.9,4.8,0,0.000169712
0.9,4.9,0,0.000171175
0.9,5,0,0.000173141
0.9,5.1,0,0.000174443
0.9,5.2,0,0.000175745
0.9,5.3,0,0.000177292
0.9,5.4,0,0.000178229
0.9,5.5,0,0.000179165
0.9,5.6,0,0.000179428
0.9,5.7,0,0.00018103
0.9,5.8,0,0.000181599
0.9,5.9,0,0.000182169
0.9,6,0,0.000182804
0.9,6.1,0,0.000183008
0.9,6.2,0,0.000183211
0.9,6.3,0,0.000182384
0.9,6.4,0,0.000183401
0.9,6.5,0,0.000183251
0.9,6.6,0,0.0001831
0.9,6.7,0,0.000182586
0.9,6.8,0,0.000182124
0.9,6.9,0,0.000181662
0.9,7,0,0.000180214
0.9,7.1,0,0.000178779
0.9,7.2,0,0.000177857
0.9,7.3,0,0.000176851
0.9,7.4,0,0.00017573
0.9,7.5,0,0.000174495
0.9,7.6,0,0.000173149
0.9,7.7,0,0.000171692
0.9,7.8,0,0.000170126
0.9,7.9,0,0.000168466
0.9,8,0,0.000166164
0.9,8.1,0,0.000165605
0.9,8.2,0,0.000163949
0.9,8.3,0,0.000161942
0.9,8.4,0,0.000159749
0.9,8.5,0,0.000157431
0.9,8.6,0,0.000155127
0.9,8.7,0,0.000151788
0.9,8.8,0,0.000150114
0.9,8.9,0,0.000147489
0.9,9,0,0.000144738
0.9,9.1,0,0.000141918
0.9,9.2,0,0.000138746
0.9,9.3,0,0.000136011
0.9,9.4,0,0.000132242
0.9,9.5,0,0.000129783
0.9,9.6,0,0.0001266
0.9,9.7,0,0.000123251
0.9,9.8,0,0.000119902
0.9,9.9,0,0.000116052
0.9,10,0,0.000112926
0.9,10.1,0,0.000108877
0.9,10.2,0,0.000105686
0.9,10.3,0,0.000102037
0.9,10.4,0,9.81987e-05
0.9,10.5,0,9.44159e-05
0.9,10.6,0,9.00706e-05
0.9,10.7,0,8.65724e-05
0.9,10.8,0,8.23396e-05
0.9,10.9,0,7.85227e-05
0.9,11,0,7.45044e-05
0.9,11.1,0,7.0283e-05
0.9,11.2,0,6.61646e-05
0.9,11.3,0,6.15259e-05
0.9,11.4,0,5.76643e-05
0.9,11.5,0,5.33116e-05
0.9,11.6,0,4.90213e-05
0.9,11.7,0,4.47411e-05
0.9,11.8,0,4.02544e-05
0.9,11.9,0,3.59137e-05
0.9,12,0,3.12054e-05
0.9,12.1,0,2.6997e-05
0.9,12.2,0,2.25786e-05
0.9,12.3,0,1.80119e-05
0.9,12.4,0,1.35965e-05
0.9,12.5,0,8.97219e-06
0.9,12.6,0,4.54044e-06
0.9,12.7,0,4.67234e-07
1,0,0,2.05163e-07
1,0.1,0,4.55005e-06
1,0.2,0,9.15793e-06
1,0.3,0,1.37658e-05
1,0.4,0,1.82343e-05
1,0.5,0,2.27993e-05
1,0.6,0,2.73643e-05
1,0.7,0,3.19874e-05
1,0.8,0,3.63093e-05
1,0.9,0,4.0795e-05
1,1,0,4.52807e-05
1,1.1,0,4.96204e-05
1,1.2,0,5.39931e-05
1,1.3,0,5.83659e-05
1,1.4,0,6.29007e-05
1,1.5,0,6.68949e-05
1,1.6,0,7.112e-05
1,1.7,0,7.53452e-05
1,1.8,0,7.94359e-05
1,1.9,0,8.34796e-05
1,2,0,8.75233e-05
1,2.1,0,9.17963e-05
1,2.2,0,9.5382e-05
1,2.3,0,9.92122e-05
1,2.4,0,0.000103042
1,2.5,0,0.000106766
1,2.6,0,0.000110353
1,2.7,0,0.00011394
1,2.8,0,0.000117768
1,2.9,0,0.000120889
1,3,0,0.000124204
1,3.1,0,0.000127519
1,3.2,0,0.000130765
1,3.3,0,0.000133785
1,3.4,0,0.000136804
1,3.5,0,0.000140016
1,3.6,0,0.000142634
1,3.7,0,0.000145337
1,3.8,0,0.000148039
1,3.9,0,0.000150706
1,4,0,0.000153074
1,4.1,0,0.000155443
1,4.2,0,0.000157895
1,4.3,0,0.00015998
1,4.4,0,0.000162001
1,4.5,0,0.000164022
1,4.6,0,0.00016602
1,4.7,0,0.000167685
1,4.8,0,0.000169349
1,4.9,0,0.000170946
1,5,0,0.00017247
1,5.1,0,0.000173772
1,5.2,0,0.000175074
1,5.3,0,0.000176336
1,5.4,0,0.000177272
1,5.5,0,0.000178209
1,5.6,0,0.000178921
1,5.7,0,0.000179834
1,5.8,0,0.000180403
1,5.9,0,0.000180973
1,6,0,0.000181442
1,6.1,0,0.000181646
1,6.2,0,0.00018185
1,6.3,0,0.00018171
1,6.4,0,0.000181949
1,6.5,0,0.000181798
1,6.6,0,0.000181648
1,6.7,0,0.000181272
1,6.8,0,0.00018081
1,6.9,0,0.000180348
1,7,0,0.000179558
1,7.1,0,0.000178102
1,7.2,0,0.000177193
1,7.3,0,0.000176201
1,7.4,0,0.000175089
1,7.5,0,0.000173858
1,7.6,0,0.000172513
1,7.7,0,0.000171053
1,7.8,0,0.000169478
1,7.9,0,0.00016781
1,8,0,0.000165511
1,8.1,0,0.000164221
1,8.2,0,0.000162565
1,8.3,0,0.000160559
1,8.4,0,0.000158367
1,8.5,0,0.000156126
1,8.6,0,0.000153705
1,8.7,0,0.000151085
1,8.8,0,0.000148676
1,8.9,0,0.000146051
1,9,0,0.000143306
1,9.1,0,0.000140486
1,9.2,0,0.000137608
1,9.3,0,0.000134602
1,9.4,0,0.000131556
1,9.5,0,0.000128411
1,9.6,0,0.000125228
1,9.7,0,0.000121929
1,9.8,0,0.00011858
1,9.9,0,0.00011517
1,10,0,0.000111666
1,10.1,0,0.000108162
1,10.2,0,0.000104499
1,10.3,0,0.00010085
1,10.4,0,9.70933e-05
1,10.5,0,9.33104e-05
1,10.6,0,8.94637e-05
1,10.7,0,8.55574e-05
1,10.8,0,8.16511e-05
1,10.9,0,7.7606e-05
1,11,0,7.35877e-05