x,y,z,U_0,U_1,U_2
0,0,0,0.3,-0.00058537,0
0,0.1,0,0.3,-0.000351222,0
0,0.2,0,0.3,-0.000117074,0
0,0.3,0,0.3,0,0
0,0.4,0,0.3,0,0
0,0.5,0,0.3,0,0
0,0.6,0,0.3,0,0
0,0.7,0,0.3,0,0
0,0.8,0,0.3,0,0
0,0.9,0,0.3,0,0
0,1,0,0.3,0,0
0,1.1,0,0.3,0,0
0,1.2,0,0.3,0,0
0,1.3,0,0.3,0,0
0,1.4,0,0.3,0,0
0,1.5,0,0.3,0,0
0,1.6,0,0.3,0,0
0,1.7,0,0.3,0,0
0,1.8,0,0.3,0,0
0,1.9,0,0.3,0,0
0,2,0,0.3,0,0
0,2.1,0,0.3,0,0
0,2.2,0,0.3,0,0
0,2.3,0,0.3,0,0
0,2.4,0,0.3,0,0
0,2.5,0,0.3,0,0
0,2.6,0,0.3,0,0
0,2.7,0,0.3,0,0
0,2.8,0,0.3,0,0
0,2.9,0,0.3,0,0
0,3,0,0.3,0,0
0,3.1,0,0.3,0,0
0,3.2,0,0.3,0,0
0,3.3,0,0.3,0,0
0,3.4,0,0.3,0,0
0,3.5,0,0.3,0,0
0,3.6,0,0.3,0,0
0,3.7,0,0.3,0,0
0,3.8,0,0.3,0,0
0,3.9,0,0.3,0,0
0,4,0,0.3,0,0
0,4.1,0,0.3,0,0
0,4.2,0,0.3,0,0
0,4.3,0,0.3,0,0
0,4.4,0,0.3,0,0
0,4.5,0,0.3,0,0
0,4.6,0,0.3,0,0
0,4.7,0,0.3,0,0
0,4.8,0,0.3,0,0
0,4.9,0,0.3,0,0
0,5,0,0.3,0,0
0,5.1,0,0.3,0,0
0,5.2,0,0.3,0,0
0,5.3,0,0.3,0,0
0,5.4,0,0.3,0,0
0,5.5,0,0.3,0,0
0,5.6,0,0.3,0,0
0,5.7,0,0.3,0,0
0,5.8,0,0.3,0,0
0,5.9,0,0.3,0,0
0,6,0,0.3,0,0
0,6.1,0,0.3,0,0
0,6.2,0,0.3,0,0
0,6.3,0,0.3,0,0
0,6.4,0,0.3,0,0
0,6.5,0,0.3,0,0
0,6.6,0,0.3,0,0
0,6.7,0,0.3,0,0
0,6.8,0,0.3,0,0
0,6.9,0,0.3,0,0
0,7,0,0.3,0,0
0,7.1,0,0.3,0,0
0,7.2,0,0.3,0,0
0,7.3,0,0.3,0,0
0,7.4,0,0.3,0,0
0,7.5,0,0.3,0,0
0,7.6,0,0.3,0,0
0,7.7,0,0.3,0,0
0,7.8,0,0.3,0,0
0,7.9,0,0.3,0,0
0,8,0,0.3,0,0
0,8.1,0,0.3,0,0
0,8.2,0,0.3,0,0
0,8.3,0,0.3,0,0
0,8.4,0,0.3,0,0
0,8.5,0,0.3,0,0
0,8.6,0,0.3,0,0
0,8.7,0,0.3,0,0
0,8.8,0,0.3,0,0
0,8.9,0,0.3,0,0
0,9,0,0.3,0,0
0,9.1,0,0.3,0,0
0,9.2,0,0.3,0,0
0,9.3,0,0.3,0,0
0,9.4,0,0.3,0,0
0,9.5,0,0.3,0,0
0,9.6,0,0.3,0,0
0,9.7,0,0.3,0,0
0,9.8,0,0.3,0,0
0,9.9,0,0.3,0,0
0,10,0,0.3,0,0
0,10.1,0,0.3,0,0
0,10.2,0,0.3,0,0
0,10.3,0,0.3,0,0
0,10.4,0,0.3,0,0
0,10.5,0,0.3,0,0
0,10.6,0,0.3,0,0
0,10.7,0,0.3,0,0
0,10.8,0,0.3,0,0
0,10.9,0,0.3,0,0
0,11,0,0.3,0,0
0,11.1,0,0.3,0,0
0,11.2,0,0.3,0,0
0,11.3,0,0.3,0,0
0,11.4,0,0.3,0,0
0,11.5,0,0.3,0,0
0,11.6,0,0.3,0,0
0,11.7,0,0.3,0,0
0,11.8,0,0.3,0,0
0,11.9,0,0.3,0,0
0,12,0,0.3,0,0
0,12.1,0,0.3,0,0
0,12.2,0,0.3,0,0
0,12.3,0,0.3,0,0
0,12.4,0,0.3,0,0
0,12.5,0,0.3,0.000154185,0
0,12.6,0,0.3,0.000335579,0
0,12.7,0,0.3,0.000516973,0
0.1,0,0,0.3,-0.00128776,0
0.1,0.1,0,0.3,-0.00105367,0
0.1,0.2,0,0.3,-0.000936729,0
0.1,0.3,0,0.3,-0.000937045,0
0.1,0.4,0,0.3,-0.000937224,0
0.1,0.5,0,0.300001,-0.000937796,0
0.1,0.6,0,0.3,-0.000938408,0
0.1,0.7,0,0.3,-0.000938812,0
0.1,0.8,0,0.3,-0.000939608,0
0.1,0.9,0,0.3,-0.00094,0
0.1,1,0,0.300001,-0.000940945,0
0.1,1.1,0,0.3,-0.000941776,0
0.1,1.2,0,0.300001,-0.000942257,0
0.1,1.3,0,0.3,-0.000943105,0
0.1,1.4,0,0.3,-0.000943472,0
0.1,1.5,0,0.300001,-0.000944276,0
0.1,1.6,0,0.3,-0.000944712,0
0.1,1.7,0,0.3,-0.000944934,0
0.1,1.8,0,0.3,-0.000945106,0
0.1,1.9,0,0.3,-0.000945056,0
0.1,2,0,0.3,-0.000944886,0
0.1,2.1,0,0.3,-0.00094396,0
0.1,2.2,0,0.299999,-0.000943417,0
0.1,2.3,0,0.299999,-0.000941829,0
0.1,2.4,0,0.299999,-0.000940784,0
0.1,2.5,0,0.299997,-0.000938421,0
0.1,2.6,0,0.299999,-0.000934768,0
0.1,2.7,0,0.299997,-0.000932742,0
0.1,2.8,0,0.299997,-0.000927878,0
0.1,2.9,0,0.299999,-0.00092504,0
0.1,3,0,0.299993,-0.000918835,0
0.1,3.1,0,0.299998,-0.00091064,0
0.1,3.2,0,0.299994,-0.000906201,0
0.1,3.3,0,0.299993,-0.000896129,0
0.1,3.4,0,0.299998,-0.000890496,0
0.1,3.5,0,0.299986,-0.00087839,0
0.1,3.6,0,0.299997,-0.00086348,0
0.1,3.7,0,0.299989,-0.000855525,0
0.1,3.8,0,0.299989,-0.000838017,0
0.1,3.9,0,0.299996,-0.000828464,0
0.1,4,0,0.299976,-0.000808154,0
0.1,4.1,0,0.299995,-0.000784353,0
0.1,4.2,0,0.299983,-0.000771699,0
0.1,4.3,0,0.299982,-0.000744619,0
0.1,4.4,0,0.299994,-0.000730193,0
0.1,4.5,0,0.299965,-0.00069937,0
0.1,4.6,0,0.299993,-0.000665672,0
0.1,4.7,0,0.299976,-0.000647449,0
0.1,4.8,0,0.299975,-0.00061119,0
0.1,4.9,0,0.299992,-0.000593152,0
0.1,5,0,0.299955,-0.000565671,0
0.1,5.1,0,0.299952,-0.000513112,0
0.1,5.2,0,0.29995,-0.000475345,0
0.1,5.3,0,0.299948,-0.000435996,0
0.1,5.4,0,0.299946,-0.000395077,0
0.1,5.5,0,0.299945,-0.000352674,0
0.1,5.6,0,0.299943,-0.000308887,0
0.1,5.7,0,0.299941,-0.000263833,0
0.1,5.8,0,0.29994,-0.00021765,0
0.1,5.9,0,0.299939,-0.000170487,0
0.1,6,0,0.299938,-0.000122509,0
0.1,6.1,0,0.299937,-7.38918e-05,0
0.1,6.2,0,0.299937,-2.48219e-05,0
0.1,6.3,0,0.299936,2.45077e-05,0
0.1,6.4,0,0.299937,7.38993e-05,0
0.1,6.5,0,0.299937,0.000123154,0
0.1,6.6,0,0.299937,0.000172074,0
0.1,6.7,0,0.299938,0.00022047,0
0.1,6.8,0,0.299939,0.000268154,0
0.1,6.9,0,0.29994,0.000315018,0
0.1,7,0,0.299941,0.000385931,0
0.1,7.1,0,0.299984,0.000421314,0
0.1,7.2,0,0.299978,0.000440152,0
0.1,7.3,0,0.299951,0.000488234,0
0.1,7.4,0,0.29999,0.000536979,0
0.1,7.5,0,0.299976,0.000556889,0
0.1,7.6,0,0.299962,0.000601307,0
0.1,7.7,0,0.299992,0.000636992,0
0.1,7.8,0,0.299975,0.000659894,0
0.1,7.9,0,0.299973,0.000696975,0
0.1,8,0,0.299994,0.000721096,0
0.1,8.1,0,0.299977,0.000744484,0
0.1,8.2,0,0.299982,0.000773606,0
0.1,8.3,0,0.299994,0.000788438,0
0.1,8.4,0,0.29998,0.000810178,0
0.1,8.5,0,0.299989,0.000831576,0
0.1,8.6,0,0.299996,0.000840236,0
0.1,8.7,0,0.299984,0.000857937,0
0.1,8.8,0,0.299995,0.000872311,0
0.1,8.9,0,0.299996,0.000877895,0
0.1,9,0,0.29999,0.000889433,0
0.1,9.1,0,0.299998,0.000897916,0
0.1,9.2,0,0.299997,0.000900924,0
0.1,9.3,0,0.299995,0.000906988,0
0.1,9.4,0,0.299999,0.00091068,0
0.1,9.5,0,0.299999,0.000911881,0
0.1,9.6,0,0.299999,0.000913592,0
0.1,9.7,0,0.3,0.000913856,0
0.1,9.8,0,0.300001,0.000913378,0
0.1,9.9,0,0.300001,0.000911831,0
0.1,10,0,0.300001,0.000910328,0
0.1,10.1,0,0.300003,0.000907914,0
0.1,10.2,0,0.300002,0.000904114,0
0.1,10.3,0,0.300001,0.000902056,0
0.1,10.4,0,0.300005,0.000897758,0
0.1,10.5,0,0.300003,0.000892586,0
0.1,10.6,0,0.300002,0.000890289,0
0.1,10.7,0,0.300006,0.000884881,0
0.1,10.8,0,0.300002,0.000879075,0
0.1,10.9,0,0.300003,0.000876607,0
0.1,11,0,0.300006,0.000870921,0
0.1,11.1,0,0.300002,0.000865105,0
0.1,11.2,0,0.300003,0.000862738,0
0.1,11.3,0,0.300005,0.000857284,0
0.1,11.4,0,0.300001,0.00085248,0
0.1,11.5,0,0.300003,0.000849838,0
0.1,11.6,0,0.300004,0.000845044,0
0.1,11.7,0,0.300001,0.000841608,0
0.1,11.8,0,0.300003,0.00083883,0
0.1,11.9,0,0.300003,0.000835014,0
0.1,12,0,0.300001,0.000832864,0
0.1,12.1,0,0.300002,0.000830404,0
0.1,12.2,0,0.300002,0.000827812,0
0.1,12.3,0,0.300001,0.000826736,0
0.1,12.4,0,0.300001,0.000825074,0
0.1,12.5,0,0.3,0.000823881,0
0.1,12.6,0,0.3,0.000952307,0
0.1,12.7,0,0.300001,0.00113339,0
0.2,0,0,0.3,-0.00199015,0
0.2,0.1,0,0.3,-0.00187327,0
0.2,0.2,0,0.300001,-0.00187359,0
0.2,0.3,0,0.300001,-0.00187391,0
0.2,0.4,0,0.300001,-0.00187484,0
0.2,0.5,0,0.300001,-0.00187559,0
0.2,0.6,0,0.300001,-0.00187661,0
0.2,0.7,0,0.300001,-0.00187803,0
0.2,0.8,0,0.300001,-0.00187882,0
0.2,0.9,0,0.300001,-0.00188055,0
0.2,1,0,0.300002,-0.00188189,0
0.2,1.1,0,0.300001,-0.0018832,0
0.2,1.2,0,0.300002,-0.00188499,0
0.2,1.3,0,0.300001,-0.00188584,0
0.2,1.4,0,0.300001,-0.00188738,0
0.2,1.5,0,0.300002,-0.00188855,0
0.2,1.6,0,0.300001,-0.00188921,0
0.2,1.7,0,0.3,-0.00189009,0
0.2,1.8,0,0.3,-0.00189026,0
0.2,1.9,0,0.3,-0.00188999,0
0.2,2,0,0.299999,-0.00188977,0
0.2,2.1,0,0.299999,-0.0018883,0
0.2,2.2,0,0.299998,-0.00188629,0
0.2,2.3,0,0.299997,-0.0018847,0
0.2,2.4,0,0.299996,-0.00188025,0
0.2,2.5,0,0.299994,-0.00187684,0
0.2,2.6,0,0.299994,-0.00187116,0
0.2,2.7,0,0.299992,-0.00186346,0
0.2,2.8,0,0.299992,-0.00185859,0
0.2,2.9,0,0.29999,-0.00184671,0
0.2,3,0,0.299985,-0.00183767,0
0.2,3.1,0,0.299986,-0.00182504,0
0.2,3.2,0,0.299983,-0.00180796,0
0.2,3.3,0,0.299983,-0.00179789,0
0.2,3.4,0,0.299979,-0.00177452,0
0.2,3.5,0,0.299971,-0.00175678,0
0.2,3.6,0,0.299975,-0.00173392,0
0.2,3.7,0,0.29997,-0.0017031,0
0.2,3.8,0,0.29997,-0.00168559,0
0.2,3.9,0,0.299965,-0.00164617,0
0.2,4,0,0.299953,-0.00161631,0
0.2,4.1,0,0.299959,-0.00157985,0
0.2,4.2,0,0.299954,-0.00153074,0
0.2,4.3,0,0.299953,-0.00150366,0
0.2,4.4,0,0.299947,-0.00144399,0
0.2,4.5,0,0.29993,-0.00139874,0
0.2,4.6,0,0.299941,-0.00134682,0
0.2,4.7,0,0.299935,-0.00127668,0
0.2,4.8,0,0.299934,-0.00124042,0
0.2,4.9,0,0.29993,-0.00117686,0
0.2,5,0,0.299909,-0.00113134,0
0.2,5.1,0,0.299904,-0.00102622,0
0.2,5.2,0,0.2999,-0.00095069,0
0.2,5.3,0,0.299897,-0.000871992,0
0.2,5.4,0,0.299893,-0.000790153,0
0.2,5.5,0,0.299889,-0.000705347,0
0.2,5.6,0,0.299886,-0.000617773,0
0.2,5.7,0,0.299883,-0.000527667,0
0.2,5.8,0,0.29988,-0.0004353,0
0.2,5.9,0,0.299878,-0.000340974,0
0.2,6,0,0.299876,-0.000245018,0
0.2,6.1,0,0.299875,-0.000147784,0
0.2,6.2,0,0.299873,-4.96438e-05,0
0.2,6.3,0,0.299873,4.90154e-05,0
0.2,6.4,0,0.299873,0.000147799,0
0.2,6.5,0,0.299874,0.000246308,0
0.2,6.6,0,0.299875,0.000344149,0
0.2,6.7,0,0.299876,0.00044094,0
0.2,6.8,0,0.299877,0.000536309,0
0.2,6.9,0,0.299879,0.000630035,0
0.2,7,0,0.299882,0.000771863,0
0.2,7.1,0,0.299908,0.000827833,0
0.2,7.2,0,0.299911,0.000911093,0
0.2,7.3,0,0.299896,0.000969081,0
0.2,7.4,0,0.299916,0.00104456,0
0.2,7.5,0,0.299922,0.00113905,0
0.2,7.6,0,0.299914,0.00118987,0
0.2,7.7,0,0.299929,0.00126069,0
0.2,7.8,0,0.299935,0.00134114,0
0.2,7.9,0,0.299933,0.00137822,0
0.2,8,0,0.299943,0.00144099,0
0.2,8.1,0,0.299945,0.00150161,0
0.2,8.2,0,0.299949,0.00153146,0
0.2,8.3,0,0.299956,0.00158336,0
0.2,8.4,0,0.299956,0.00162646,0
0.2,8.5,0,0.299963,0.00165105,0
0.2,8.6,0,0.299969,0.00168914,0
0.2,8.7,0,0.299967,0.00171764,0
0.2,8.8,0,0.299975,0.00173588,0
0.2,8.9,0,0.299981,0.00176158,0
0.2,9,0,0.299979,0.00177844,0
0.2,9.1,0,0.299985,0.00179009,0
0.2,9.2,0,0.29999,0.00180518,0
0.2,9.3,0,0.29999,0.00181319,0
0.2,9.4,0,0.299994,0.00181866,0
0.2,9.5,0,0.299998,0.00182504,0
0.2,9.6,0,0.299998,0.00182707,0
0.2,9.7,0,0.3,0.00182682,0
0.2,9.8,0,0.300003,0.00182638,0
0.2,9.9,0,0.300003,0.00182484,0
0.2,10,0,0.300005,0.00181965,0
0.2,10.1,0,0.300008,0.00181476,0
0.2,10.2,0,0.300007,0.00181059,0
0.2,10.3,0,0.300008,0.00180182,0
0.2,10.4,0,0.300011,0.0017946,0
0.2,10.5,0,0.300009,0.00178819,0
0.2,10.6,0,0.30001,0.00177746,0
0.2,10.7,0,0.300013,0.00176949,0
0.2,10.8,0,0.30001,0.00176153,0
0.2,10.9,0,0.300011,0.00175003,0
0.2,11,0,0.300013,0.00174242,0
0.2,11.1,0,0.30001,0.00173371,0
0.2,11.2,0,0.30001,0.00172242,0
0.2,11.3,0,0.300011,0.00171592,0
0.2,11.4,0,0.300009,0.00170719,0
0.2,11.5,0,0.300008,0.0016969,0
0.2,11.6,0,0.300009,0.00169195,0
0.2,11.7,0,0.300007,0.00168396,0
0.2,11.8,0,0.300007,0.00167585,0
0.2,11.9,0,0.300007,0.00167203,0
0.2,12,0,0.300006,0.00166552,0
0.2,12.1,0,0.300005,0.00165993,0
0.2,12.2,0,0.300005,0.00165712,0
0.2,12.3,0,0.300004,0.00165299,0
0.2,12.4,0,0.300003,0.0016499,0
0.2,12.5,0,0.300002,0.00164862,0
0.2,12.6,0,0.300002,0.0016472,0
0.2,12.7,0,0.300002,0.00174981,0
0.3,0,0,0.300001,-0.0028094,0
0.3,0.1,0,0.300001,-0.00280976,0
0.3,0.2,0,0.300001,-0.00281008,0
0.3,0.3,0,0.300002,-0.00281107,0
0.3,0.4,0,0.300002,-0.002812,0
0.3,0.5,0,0.300003,-0.00281325,0
0.3,0.6,0,0.300003,-0.002815,0
0.3,0.7,0,0.300003,-0.00281642,0
0.3,0.8,0,0.300003,-0.00281888,0
0.3,0.9,0,0.300003,-0.00282061,0
0.3,1,0,0.300004,-0.00282287,0
0.3,1.1,0,0.300004,-0.00282515,0
0.3,1.2,0,0.300004,-0.00282694,0
0.3,1.3,0,0.300004,-0.0028296,0
0.3,1.4,0,0.300003,-0.00283114,0
0.3,1.5,0,0.300003,-0.00283316,0
0.3,1.6,0,0.300002,-0.00283437,0
0.3,1.7,0,0.300002,-0.00283525,0
0.3,1.8,0,0.3,-0.00283596,0
0.3,1.9,0,0.3,-0.00283569,0
0.3,2,0,0.299998,-0.00283544,0
0.3,2.1,0,0.299997,-0.00283314,0
0.3,2.2,0,0.299996,-0.00283112,0
0.3,2.3,0,0.299994,-0.00282662,0
0.3,2.4,0,0.299992,-0.00282217,0
0.3,2.5,0,0.299988,-0.00281666,0
0.3,2.6,0,0.299987,-0.00280737,0
0.3,2.7,0,0.299985,-0.00279967,0
0.3,2.8,0,0.299981,-0.00278543,0
0.3,2.9,0,0.299978,-0.00277355,0
0.3,3,0,0.299971,-0.00275869,0
0.3,3.1,0,0.299971,-0.00273786,0
0.3,3.2,0,0.299967,-0.00272078,0
0.3,3.3,0,0.29996,-0.00269098,0
0.3,3.4,0,0.299957,-0.00266761,0
0.3,3.5,0,0.299945,-0.00263825,0
0.3,3.6,0,0.299945,-0.00260041,0
0.3,3.7,0,0.299941,-0.00256959,0
0.3,3.8,0,0.299932,-0.00251743,0
0.3,3.9,0,0.299927,-0.00247802,0
0.3,4,0,0.299909,-0.00242842,0
0.3,4.1,0,0.299912,-0.00236781,0
0.3,4.2,0,0.299906,-0.0023187,0
0.3,4.3,0,0.299895,-0.00223734,0
0.3,4.4,0,0.299889,-0.00217766,0
0.3,4.5,0,0.299864,-0.00210266,0
0.3,4.6,0,0.299872,-0.00201476,0
0.3,4.7,0,0.299866,-0.00194462,0
0.3,4.8,0,0.299855,-0.00183056,0
0.3,4.9,0,0.29985,-0.001767,0
0.3,5,0,0.299824,-0.00170111,0
0.3,5.1,0,0.299812,-0.00154333,0
0.3,5.2,0,0.299804,-0.00143006,0
0.3,5.3,0,0.299796,-0.00131192,0
0.3,5.4,0,0.299789,-0.00118899,0
0.3,5.5,0,0.299782,-0.00106155,0
0.3,5.6,0,0.299775,-0.000929892,0
0.3,5.7,0,0.299769,-0.00079439,0
0.3,5.8,0,0.299764,-0.000655453,0
0.3,5.9,0,0.299759,-0.000513541,0
0.3,6,0,0.299755,-0.000369154,0
0.3,6.1,0,0.299753,-0.000222827,0
0.3,6.2,0,0.299751,-7.51263e-05,0
0.3,6.3,0,0.29975,7.33617e-05,0
0.3,6.4,0,0.29975,0.000222035,0
0.3,6.5,0,0.299751,0.000370284,0
0.3,6.6,0,0.299753,0.000517507,0
0.3,6.7,0,0.299756,0.000663112,0
0.3,6.8,0,0.299759,0.000806521,0
0.3,6.9,0,0.299764,0.000947337,0
0.3,7,0,0.299771,0.0011606,0
0.3,7.1,0,0.299802,0.0012488,0
0.3,7.2,0,0.299805,0.00133206,0
0.3,7.3,0,0.299795,0.0014682,0
0.3,7.4,0,0.299822,0.00158374,0
0.3,7.5,0,0.299828,0.00167823,0
0.3,7.6,0,0.299829,0.00180842,0
0.3,7.7,0,0.299848,0.00190179,0
0.3,7.8,0,0.299855,0.00198383,0
0.3,7.9,0,0.299865,0.00209574,0
0.3,8,0,0.299877,0.00216678,0
0.3,8.1,0,0.299881,0.00223831,0
0.3,8.2,0,0.299899,0.00232465,0
0.3,8.3,0,0.299906,0.00237654,0
0.3,8.4,0,0.299908,0.00243541,0
0.3,8.5,0,0.299926,0.00249504,0
0.3,8.6,0,0.299932,0.00253313,0
0.3,8.7,0,0.299935,0.0025783,0
0.3,8.8,0,0.299951,0.00261551,0
0.3,8.9,0,0.299956,0.00264122,0
0.3,9,0,0.29996,0.00267215,0
0.3,9.1,0,0.299971,0.00269214,0
0.3,9.2,0,0.299976,0.00270722,0
0.3,9.3,0,0.299982,0.00272402,0
0.3,9.4,0,0.299989,0.00273207,0
0.3,9.5,0,0.299992,0.00273845,0
0.3,9.6,0,0.299998,0.00274306,0
0.3,9.7,0,0.300002,0.00274278,0
0.3,9.8,0,0.300005,0.00274222,0
0.3,9.9,0,0.300009,0.00273709,0
0.3,10,0,0.300011,0.00273152,0
0.3,10.1,0,0.300014,0.00272521,0
0.3,10.2,0,0.300017,0.00271371,0
0.3,10.3,0,0.300018,0.00270494,0
0.3,10.4,0,0.300021,0.00269419,0
0.3,10.5,0,0.30002,0.00267961,0
0.3,10.6,0,0.300021,0.00266888,0
0.3,10.7,0,0.300024,0.00265507,0
0.3,10.8,0,0.300022,0.00263981,0
0.3,10.9,0,0.300022,0.00262831,0
0.3,11,0,0.300024,0.0026128,0
0.3,11.1,0,0.300022,0.0025986,0
0.3,11.2,0,0.300021,0.00258731,0
0.3,11.3,0,0.300022,0.00257162,0
0.3,11.4,0,0.300019,0.00255948,0
0.3,11.5,0,0.300019,0.00254919,0
0.3,11.6,0,0.300018,0.00253473,0
0.3,11.7,0,0.300016,0.0025252,0
0.3,11.8,0,0.300016,0.00251606,0
0.3,11.9,0,0.300013,0.00250454,0
0.3,12,0,0.300012,0.00249788,0
0.3,12.1,0,0.300011,0.00249058,0
0.3,12.2,0,0.300009,0.00248326,0
0.3,12.3,0,0.300008,0.00247913,0
0.3,12.4,0,0.300006,0.0024744,0
0.3,12.5,0,0.300004,0.00247147,0
0.3,12.6,0,0.300003,0.00247006,0
0.3,12.7,0,0.300003,0.00246867,0
0.4,0,0,0.300001,-0.00374551,0
0.4,0.1,0,0.300001,-0.00374589,0
0.4,0.2,0,0.300002,-0.00374656,0
0.4,0.3,0,0.300003,-0.00374754,0
0.4,0.4,0,0.300004,-0.00374919,0
0.4,0.5,0,0.300005,-0.00375076,0
0.4,0.6,0,0.300005,-0.00375286,0
0.4,0.7,0,0.300006,-0.00375551,0
0.4,0.8,0,0.300006,-0.00375797,0
0.4,0.9,0,0.300006,-0.0037611,0
0.4,1,0,0.300007,-0.00376389,0
0.4,1.1,0,0.300006,-0.00376665,0
0.4,1.2,0,0.300006,-0.00377002,0
0.4,1.3,0,0.300006,-0.00377268,0
0.4,1.4,0,0.300006,-0.0037756,0
0.4,1.5,0,0.300005,-0.00377811,0
0.4,1.6,0,0.300004,-0.00377964,0
0.4,1.7,0,0.300003,-0.00378148,0
0.4,1.8,0,0.300001,-0.00378219,0
0.4,1.9,0,0.299999,-0.00378212,0
0.4,2,0,0.299997,-0.00378189,0
0.4,2.1,0,0.299996,-0.00377929,0
0.4,2.2,0,0.299992,-0.00377613,0
0.4,2.3,0,0.29999,-0.00377163,0
0.4,2.4,0,0.299986,-0.00376444,0
0.4,2.5,0,0.29998,-0.00375787,0
0.4,2.6,0,0.299979,-0.00374701,0
0.4,2.7,0,0.299971,-0.00373392,0
0.4,2.8,0,0.299967,-0.00371968,0
0.4,2.9,0,0.299963,-0.00369974,0
0.4,3,0,0.299951,-0.00368188,0
0.4,3.1,0,0.299953,-0.0036573,0
0.4,3.2,0,0.299938,-0.00362779,0
0.4,3.3,0,0.299932,-0.00359799,0
0.4,3.4,0,0.299926,-0.00355815,0
0.4,3.5,0,0.299906,-0.00352281,0
0.4,3.6,0,0.299911,-0.00347795,0
0.4,3.7,0,0.29989,-0.00342424,0
0.4,3.8,0,0.299881,-0.00337208,0
0.4,3.9,0,0.299876,-0.00330426,0
0.4,4,0,0.299845,-0.00324449,0
0.4,4.1,0,0.299856,-0.00317238,0
0.4,4.2,0,0.299827,-0.00308637,0
0.4,4.3,0,0.299816,-0.00300501,0
0.4,4.4,0,0.299812,-0.00290147,0
0.4,4.5,0,0.299769,-0.00281114,0
0.4,4.6,0,0.29979,-0.00270548,0
0.4,4.7,0,0.299754,-0.00258278,0
0.4,4.8,0,0.299742,-0.00246873,0
0.4,4.9,0,0.299746,-0.0023432,0
0.4,5,0,0.299697,-0.00227496,0
0.4,5.1,0,0.299676,-0.00206443,0
0.4,5.2,0,0.299662,-0.00191345,0
0.4,5.3,0,0.299648,-0.00175578,0
0.4,5.4,0,0.299634,-0.0015916,0
0.4,5.5,0,0.299622,-0.00142127,0
0.4,5.6,0,0.299611,-0.00124524,0
0.4,5.7,0,0.2996,-0.001064,0
0.4,5.8,0,0.299591,-0.000878109,0
0.4,5.9,0,0.299583,-0.000688188,0
0.4,6,0,0.299576,-0.000494919,0
0.4,6.1,0,0.299572,-0.000299024,0
0.4,6.2,0,0.299568,-0.00010127,0
0.4,6.3,0,0.299567,9.75466e-05,0
0.4,6.4,0,0.299567,0.000296607,0
0.4,6.5,0,0.299569,0.000495083,0
0.4,6.6,0,0.299573,0.000692149,0
0.4,6.7,0,0.299578,0.000886988,0
0.4,6.8,0,0.299585,0.00107879,0
0.4,6.9,0,0.299593,0.00126692,0
0.4,7,0,0.299607,0.00155216,0
0.4,7.1,0,0.299659,0.00164407,0
0.4,7.2,0,0.299665,0.00179939,0
0.4,7.3,0,0.299645,0.00195699,0
0.4,7.4,0,0.299699,0.00210206,0
0.4,7.5,0,0.299701,0.00227065,0
0.4,7.6,0,0.299699,0.00240683,0
0.4,7.7,0,0.299745,0.00253879,0
0.4,7.8,0,0.299746,0.00267562,0
0.4,7.9,0,0.299756,0.00278753,0
0.4,8,0,0.299796,0.00290045,0
0.4,8.1,0,0.299795,0.00300597,0
0.4,8.2,0,0.299813,0.00309319,0
0.4,8.3,0,0.299846,0.00318471,0
0.4,8.4,0,0.299843,0.00326166,0
0.4,8.5,0,0.299865,0.00332528,0
0.4,8.6,0,0.299891,0.00339385,0
0.4,8.7,0,0.29989,0.00344701,0
0.4,8.8,0,0.299912,0.00348929,0
0.4,8.9,0,0.29993,0.00353449,0
0.4,9,0,0.299932,0.00356894,0
0.4,9.1,0,0.299949,0.00359347,0
0.4,9.2,0,0.299962,0.00361886,0
0.4,9.3,0,0.299968,0.00363668,0
0.4,9.4,0,0.29998,0.00364761,0
0.4,9.5,0,0.299989,0.00365698,0
0.4,9.6,0,0.299995,0.00366165,0
0.4,9.7,0,0.300003,0.0036614,0
0.4,9.8,0,0.30001,0.00365906,0
0.4,9.9,0,0.300015,0.00365393,0
0.4,10,0,0.300019,0.00364475,0
0.4,10.1,0,0.300026,0.00363474,0
0.4,10.2,0,0.300028,0.0036229,0
0.4,10.3,0,0.30003,0.00360708,0
0.4,10.4,0,0.300036,0.0035927,0
0.4,10.5,0,0.300035,0.00357684,0
0.4,10.6,0,0.300036,0.00355714,0
0.4,10.7,0,0.300042,0.00354048,0
0.4,10.8,0,0.300038,0.00352288,0
0.4,10.9,0,0.300038,0.00350187,0
0.4,11,0,0.300042,0.00348438,0
0.4,11.1,0,0.300036,0.00346691,0
0.4,11.2,0,0.300037,0.00344645,0
0.4,11.3,0,0.300038,0.00342975,0
0.4,11.4,0,0.300033,0.00341312,0
0.4,11.5,0,0.300033,0.00339527,0
0.4,11.6,0,0.300032,0.00338067,0
0.4,11.7,0,0.300027,0.00336591,0
0.4,11.8,0,0.300027,0.00335177,0
0.4,11.9,0,0.300025,0.00334025,0
0.4,12,0,0.30002,0.00332847,0
0.4,12.1,0,0.30002,0.00331853,0
0.4,12.2,0,0.300016,0.00331083,0
0.4,12.3,0,0.300012,0.00330301,0
0.4,12.4,0,0.300011,0.00329742,0
0.4,12.5,0,0.300007,0.00329406,0
0.4,12.6,0,0.300005,0.00329133,0
0.4,12.7,0,0.300006,0.00328997,0
0.5,0,0,0.300002,-0.00468161,0
0.5,0.1,0,0.300003,-0.0046823,0
0.5,0.2,0,0.300003,-0.004683,0
0.5,0.3,0,0.300004,-0.00468433,0
0.5,0.4,0,0.300006,-0.0046863,0
0.5,0.5,0,0.300007,-0.00468828,0
0.5,0.6,0,0.300008,-0.00469127,0
0.5,0.7,0,0.300008,-0.00469426,0
0.5,0.8,0,0.300009,-0.00469759,0
0.5,0.9,0,0.300009,-0.00470125,0
0.5,1,0,0.30001,-0.00470492,0
0.5,1.1,0,0.30001,-0.00470877,0
0.5,1.2,0,0.30001,-0.00471262,0
0.5,1.3,0,0.300009,-0.00471625,0
0.5,1.4,0,0.300009,-0.00471965,0
0.5,1.5,0,0.300008,-0.00472306,0
0.5,1.6,0,0.300006,-0.00472522,0
0.5,1.7,0,0.300004,-0.00472739,0
0.5,1.8,0,0.300002,-0.00472845,0
0.5,1.9,0,0.299999,-0.00472839,0
0.5,2,0,0.299996,-0.00472834,0
0.5,2.1,0,0.299992,-0.00472489,0
0.5,2.2,0,0.299988,-0.00472143,0
0.5,2.3,0,0.299983,-0.00471558,0
0.5,2.4,0,0.299978,-0.00470733,0
0.5,2.5,0,0.299972,-0.00469908,0
0.5,2.6,0,0.299965,-0.00468442,0
0.5,2.7,0,0.299957,-0.00466975,0
0.5,2.8,0,0.299949,-0.00465095,0
0.5,2.9,0,0.29994,-0.00462802,0
0.5,3,0,0.29993,-0.00460508,0
0.5,3.1,0,0.299919,-0.00457182,0
0.5,3.2,0,0.299907,-0.00453856,0
0.5,3.3,0,0.299895,-0.00449902,0
0.5,3.4,0,0.299881,-0.00445319,0
0.5,3.5,0,0.299867,-0.00440736,0
0.5,3.6,0,0.299851,-0.00434663,0
0.5,3.7,0,0.299835,-0.0042859,0
0.5,3.8,0,0.299817,-0.00421654,0
0.5,3.9,0,0.299799,-0.00413855,0
0.5,4,0,0.29978,-0.00406056,0
0.5,4.1,0,0.29976,-0.00396305,0
0.5,4.2,0,0.299739,-0.00386554,0
0.5,4.3,0,0.299717,-0.00375735,0
0.5,4.4,0,0.299695,-0.00363849,0
0.5,4.5,0,0.299673,-0.00351962,0
0.5,4.6,0,0.29965,-0.00337917,0
0.5,4.7,0,0.299628,-0.00323871,0
0.5,4.8,0,0.299607,-0.00310455,0
0.5,4.9,0,0.299589,-0.00297669,0
0.5,5,0,0.299571,-0.00284882,0
0.5,5.1,0,0.29954,-0.00258552,0
0.5,5.2,0,0.299519,-0.00239685,0
0.5,5.3,0,0.299499,-0.00219964,0
0.5,5.4,0,0.29948,-0.0019942,0
0.5,5.5,0,0.299463,-0.001781,0
0.5,5.6,0,0.299446,-0.00156059,0
0.5,5.7,0,0.299431,-0.00133361,0
0.5,5.8,0,0.299418,-0.00110077,0
0.5,5.9,0,0.299407,-0.000862836,0
0.5,6,0,0.299397,-0.000620684,0
0.5,6.1,0,0.299391,-0.00037522,0
0.5,6.2,0,0.299386,-0.000127413,0
0.5,6.3,0,0.299384,0.000121732,0
0.5,6.4,0,0.299385,0.00037118,0
0.5,6.5,0,0.299388,0.000619883,0
0.5,6.6,0,0.299393,0.000866791,0
0.5,6.7,0,0.2994,0.00111086,0
0.5,6.8,0,0.29941,0.00135106,0
0.5,6.9,0,0.299422,0.00158651,0
0.5,7,0,0.299444,0.00194371,0
0.5,7.1,0,0.299459,0.00211226,0
0.5,7.2,0,0.299474,0.00228082,0
0.5,7.3,0,0.29949,0.00245268,0
0.5,7.4,0,0.299513,0.00264333,0
0.5,7.5,0,0.299536,0.00283398,0
0.5,7.6,0,0.299561,0.00301639,0
0.5,7.7,0,0.299587,0.0031796,0
0.5,7.8,0,0.299613,0.00334281,0
0.5,7.9,0,0.299639,0.00349248,0
0.5,8,0,0.299666,0.0036256,0
0.5,8.1,0,0.299693,0.00375872,0
0.5,8.2,0,0.299719,0.00387394,0
0.5,8.3,0,0.299744,0.00397723,0
0.5,8.4,0,0.29977,0.00408052,0
0.5,8.5,0,0.299794,0.00416284,0
0.5,8.6,0,0.299818,0.00423817,0
0.5,8.7,0,0.299841,0.0043135,0
0.5,8.8,0,0.299862,0.00436634,0
0.5,8.9,0,0.299883,0.00441669,0
0.5,9,0,0.299903,0.00446596,0
0.5,9.1,0,0.29992,0.00449496,0
0.5,9.2,0,0.299937,0.00452396,0
0.5,9.3,0,0.299954,0.00454947,0
0.5,9.4,0,0.299968,0.00456106,0
0.5,9.5,0,0.299981,0.00457264,0
0.5,9.6,0,0.299994,0.00457948,0
0.5,9.7,0,0.300004,0.00457754,0
0.5,9.8,0,0.300014,0.0045756,0
0.5,9.9,0,0.300023,0.00456872,0
0.5,10,0,0.300031,0.00455689,0
0.5,10.1,0,0.300038,0.00454507,0
0.5,10.2,0,0.300043,0.00452895,0
0.5,10.3,0,0.300048,0.00451051,0
0.5,10.4,0,0.300052,0.00449207,0
0.5,10.5,0,0.300055,0.00447061,0
0.5,10.6,0,0.300057,0.00444839,0
0.5,10.7,0,0.300059,0.00442617,0
0.5,10.8,0,0.30006,0.00440261,0
0.5,10.9,0,0.30006,0.00437898,0
0.5,11,0,0.30006,0.0043554,0
0.5,11.1,0,0.300059,0.00433231,0
0.5,11.2,0,0.300057,0.00430922,0
0.5,11.3,0,0.300056,0.00428666,0
0.5,11.4,0,0.300053,0.00426568,0
0.5,11.5,0,0.300051,0.00424469,0
0.5,11.6,0,0.300048,0.00422505,0
0.5,11.7,0,0.300044,0.0042074,0
0.5,11.8,0,0.300041,0.00418976,0
0.5,11.9,0,0.300037,0.00417446,0
0.5,12,0,0.300033,0.00416108,0
0.5,12.1,0,0.300029,0.00414771,0
0.5,12.2,0,0.300025,0.00413778,0
0.5,12.3,0,0.30002,0.00412933,0
0.5,12.4,0,0.300016,0.00412088,0
0.5,12.5,0,0.300013,0.00411712,0
0.5,12.6,0,0.300011,0.0041142,0
0.5,12.7,0,0.300009,0.00411127,0
0.6,0,0,0.300003,-0.00561659,0
0.6,0.1,0,0.300003,-0.00561733,0
0.6,0.2,0,0.300004,-0.00561824,0
0.6,0.3,0,0.300006,-0.00562003,0
0.6,0.4,0,0.300008,-0.00562225,0
0.6,0.5,0,0.30001,-0.00562499,0
0.6,0.6,0,0.300011,-0.0056288,0
0.6,0.7,0,0.300012,-0.00563233,0
0.6,0.8,0,0.300013,-0.00563674,0
0.6,0.9,0,0.300013,-0.00564094,0
0.6,1,0,0.300015,-0.00564591,0
0.6,1.1,0,0.300014,-0.00565098,0
0.6,1.2,0,0.300014,-0.00565553,0
0.6,1.3,0,0.300014,-0.00566048,0
0.6,1.4,0,0.300013,-0.0056645,0
0.6,1.5,0,0.300012,-0.00566927,0
0.6,1.6,0,0.300009,-0.00567248,0
0.6,1.7,0,0.300007,-0.00567521,0
0.6,1.8,0,0.300003,-0.00567715,0
0.6,1.9,0,0.3,-0.00567743,0
0.6,2,0,0.299995,-0.00567799,0
0.6,2.1,0,0.29999,-0.00567452,0
0.6,2.2,0,0.299984,-0.00567098,0
0.6,2.3,0,0.299977,-0.00566453,0
0.6,2.4,0,0.299971,-0.00565577,0
0.6,2.5,0,0.299959,-0.00564619,0
0.6,2.6,0,0.299952,-0.00562911,0
0.6,2.7,0,0.29994,-0.00561299,0
0.6,2.8,0,0.299928,-0.00559061,0
0.6,2.9,0,0.299919,-0.00556554,0
0.6,3,0,0.299897,-0.00553764,0
0.6,3.1,0,0.299888,-0.00549775,0
0.6,3.2,0,0.299868,-0.0054607,0
0.6,3.3,0,0.299849,-0.00541257,0
0.6,3.4,0,0.299837,-0.00536195,0
0.6,3.5,0,0.299803,-0.00530535,0
0.6,3.6,0,0.299793,-0.00523142,0
0.6,3.7,0,0.299764,-0.00516337,0
0.6,3.8,0,0.299738,-0.00507798,0
0.6,3.9,0,0.299724,-0.00499126,0
0.6,4,0,0.299673,-0.00489411,0
0.6,4.1,0,0.299665,-0.00477434,0
0.6,4.2,0,0.299625,-0.0046646,0
0.6,4.3,0,0.299593,-0.00453034,0
0.6,4.4,0,0.299579,-0.00439761,0
0.6,4.5,0,0.299513,-0.00424852,0
0.6,4.6,0,0.299511,-0.00407392,0
0.6,4.7,0,0.299463,-0.00391577,0
0.6,4.8,0,0.299429,-0.00372785,0
0.6,4.9,0,0.299422,-0.00356392,0
0.6,5,0,0.299358,-0.00344372,0
0.6,5.1,0,0.299308,-0.00312666,0
0.6,5.2,0,0.299276,-0.00289935,0
0.6,5.3,0,0.299246,-0.00266162,0
0.6,5.4,0,0.299216,-0.0024138,0
0.6,5.5,0,0.299189,-0.00215647,0
0.6,5.6,0,0.299164,-0.0018903,0
0.6,5.7,0,0.299141,-0.00161603,0
0.6,5.8,0,0.299121,-0.00133453,0
0.6,5.9,0,0.299103,-0.00104677,0
0.6,6,0,0.299089,-0.000753773,0
0.6,6.1,0,0.299079,-0.000456669,0
0.6,6.2,0,0.299072,-0.000156644,0
0.6,6.3,0,0.299069,0.000145066,0
0.6,6.4,0,0.29907,0.000447189,0
0.6,6.5,0,0.299074,0.000748432,0
0.6,6.6,0,0.299082,0.0010475,0
0.6,6.7,0,0.299094,0.00134312,0
0.6,6.8,0,0.29911,0.00163399,0
0.6,6.9,0,0.299128,0.00191905,0
0.6,7,0,0.299164,0.00235141,0
0.6,7.1,0,0.299231,0.00251312,0
0.6,7.2,0,0.299244,0.00270826,0
0.6,7.3,0,0.299242,0.00296899,0
0.6,7.4,0,0.299323,0.00321324,0
0.6,7.5,0,0.299334,0.00342345,0
0.6,7.6,0,0.299355,0.00365124,0
0.6,7.7,0,0.299426,0.00385433,0
0.6,7.8,0,0.29944,0.00403859,0
0.6,7.9,0,0.299476,0.00422542,0
0.6,8,0,0.299536,0.00438543,0
0.6,8.1,0,0.299552,0.00453893,0
0.6,8.2,0,0.299597,0.00468338,0
0.6,8.3,0,0.299644,0.00480307,0
0.6,8.4,0,0.299663,0.00492404,0
0.6,8.5,0,0.29971,0.00502803,0
0.6,8.6,0,0.299746,0.00511256,0
0.6,8.7,0,0.299766,0.00520087,0
0.6,8.8,0,0.29981,0.00526855,0
0.6,8.9,0,0.299836,0.00532385,0
0.6,9,0,0.299858,0.00538032,0
0.6,9.1,0,0.299893,0.00541818,0
0.6,9.2,0,0.299913,0.00544878,0
0.6,9.3,0,0.299934,0.00547695,0
0.6,9.4,0,0.29996,0.00549209,0
0.6,9.5,0,0.299976,0.00550305,0
0.6,9.6,0,0.299993,0.00550902,0
0.6,9.7,0,0.300009,0.00550693,0
0.6,9.8,0,0.300023,0.00550252,0
0.6,9.9,0,0.300036,0.00549214,0
0.6,10,0,0.300045,0.00547832,0
0.6,10.1,0,0.300057,0.00546211,0
0.6,10.2,0,0.300064,0.0054407,0
0.6,10.3,0,0.300069,0.00541974,0
0.6,10.4,0,0.300078,0.00539521,0
0.6,10.5,0,0.30008,0.00536736,0
0.6,10.6,0,0.300081,0.00534236,0
0.6,10.7,0,0.300089,0.00531336,0
0.6,10.8,0,0.300085,0.00528289,0
0.6,10.9,0,0.300086,0.00525636,0
0.6,11,0,0.30009,0.00522616,0
0.6,11.1,0,0.300084,0.00519616,0
0.6,11.2,0,0.300083,0.00517045,0
0.6,11.3,0,0.300083,0.00514177,0
0.6,11.4,0,0.300075,0.00511503,0
0.6,11.5,0,0.300074,0.0050913,0
0.6,11.6,0,0.30007,0.00506633,0
0.6,11.7,0,0.300063,0.00504448,0
0.6,11.8,0,0.30006,0.00502411,0
0.6,11.9,0,0.300054,0.00500449,0
0.6,12,0,0.300047,0.00498837,0
0.6,12.1,0,0.300043,0.00497275,0
0.6,12.2,0,0.300035,0.00495966,0
0.6,12.3,0,0.300029,0.00494973,0
0.6,12.4,0,0.300024,0.00493994,0
0.6,12.5,0,0.300016,0.00493415,0
0.6,12.6,0,0.300012,0.00493067,0
0.6,12.7,0,0.300013,0.00492819,0
0.7,0,0,0.300004,-0.00655157,0
0.7,0.1,0,0.300005,-0.00655252,0
0.7,0.2,0,0.300006,-0.00655368,0
0.7,0.3,0,0.300008,-0.00655548,0
0.7,0.4,0,0.300011,-0.00655872,0
0.7,0.5,0,0.300013,-0.0065617,0
0.7,0.6,0,0.300015,-0.00656605,0
0.7,0.7,0,0.300017,-0.00657095,0
0.7,0.8,0,0.300017,-0.00657535,0
0.7,0.9,0,0.300018,-0.00658139,0
0.7,1,0,0.30002,-0.0065869,0
0.7,1.1,0,0.300019,-0.00659267,0
0.7,1.2,0,0.300019,-0.00659916,0
0.7,1.3,0,0.300019,-0.00660411,0
0.7,1.4,0,0.300017,-0.0066101,0
0.7,1.5,0,0.300016,-0.00661549,0
0.7,1.6,0,0.300013,-0.00661926,0
0.7,1.7,0,0.300009,-0.00662359,0
0.7,1.8,0,0.300006,-0.00662553,0
0.7,1.9,0,0.3,-0.00662675,0
0.7,2,0,0.299994,-0.00662765,0
0.7,2.1,0,0.299987,-0.00662409,0
0.7,2.2,0,0.299978,-0.00662044,0
0.7,2.3,0,0.299971,-0.00661398,0
0.7,2.4,0,0.299959,-0.00660338,0
0.7,2.5,0,0.299947,-0.00659329,0
0.7,2.6,0,0.299935,-0.00657476,0
0.7,2.7,0,0.299919,-0.00655477,0
0.7,2.8,0,0.299906,-0.00653239,0
0.7,2.9,0,0.299885,-0.00650023,0
0.7,3,0,0.299864,-0.0064702,0
0.7,3.1,0,0.299847,-0.00642652,0
0.7,3.2,0,0.299821,-0.00637906,0
0.7,3.3,0,0.299802,-0.00633093,0
0.7,3.4,0,0.299772,-0.00626473,0
0.7,3.5,0,0.299739,-0.00620333,0
0.7,3.6,0,0.299716,-0.00612209,0
0.7,3.7,0,0.29968,-0.00603354,0
0.7,3.8,0,0.299654,-0.00594814,0
0.7,3.9,0,0.299612,-0.00583354,0
0.7,4,0,0.299566,-0.00572767,0
0.7,4.1,0,0.299539,-0.00559567,0
0.7,4.2,0,0.299493,-0.00545144,0
0.7,4.3,0,0.299461,-0.00531718,0
0.7,4.4,0,0.299411,-0.00514037,0
0.7,4.5,0,0.299352,-0.00497743,0
0.7,4.6,0,0.299326,-0.00478512,0
0.7,4.7,0,0.299274,-0.00457512,0
0.7,4.8,0,0.299239,-0.0043872,0
0.7,4.9,0,0.299197,-0.00419488,0
0.7,5,0,0.299144,-0.00403863,0
0.7,5.1,0,0.299077,-0.00366779,0
0.7,5.2,0,0.299034,-0.00340185,0
0.7,5.3,0,0.298992,-0.0031236,0
0.7,5.4,0,0.298953,-0.00283341,0
0.7,5.5,0,0.298916,-0.00253195,0
0.7,5.6,0,0.298881,-0.00222,0
0.7,5.7,0,0.29885,-0.00189844,0
0.7,5.8,0,0.298823,-0.0015683,0
0.7,5.9,0,0.2988,-0.0012307,0
0.7,6,0,0.298781,-0.000886862,0
0.7,6.1,0,0.298767,-0.000538118,0
0.7,6.2,0,0.298758,-0.000185876,0
0.7,6.3,0,0.298754,0.0001684,0
0.7,6.4,0,0.298755,0.000523197,0
0.7,6.5,0,0.298761,0.000876981,0
0.7,6.6,0,0.298772,0.00122821,0
0.7,6.7,0,0.298788,0.00157537,0
0.7,6.8,0,0.298809,0.00191692,0
0.7,6.9,0,0.298835,0.00225159,0
0.7,7,0,0.298884,0.00275911,0
0.7,7.1,0,0.298938,0.00296166,0
0.7,7.2,0,0.298974,0.00321836,0
0.7,7.3,0,0.298986,0.00347717,0
0.7,7.4,0,0.299051,0.00374776,0
0.7,7.5,0,0.299105,0.00403702,0
0.7,7.6,0,0.299133,0.00427184,0
0.7,7.7,0,0.299198,0.00450858,0
0.7,7.8,0,0.299256,0.004754,0
0.7,7.9,0,0.299292,0.00494083,0
0.7,8,0,0.299354,0.00513715,0
0.7,8.1,0,0.299407,0.00533015,0
0.7,8.2,0,0.299451,0.0054752,0
0.7,8.3,0,0.299509,0.00562872,0
0.7,8.4,0,0.299554,0.00577252,0
0.7,8.5,0,0.2996,0.00587884,0
0.7,8.6,0,0.299653,0.00598943,0
0.7,8.7,0,0.299691,0.00608954,0
0.7,8.8,0,0.299734,0.00615956,0
0.7,8.9,0,0.29978,0.00623206,0
0.7,9,0,0.299811,0.00629425,0
0.7,9.1,0,0.299848,0.00633324,0
0.7,9.2,0,0.299887,0.00637346,0