/*--------------------------------*- C++ -*----------------------------------*\
| =========                 |                                                 |
| \\      /  F ield         | OpenFOAM: The Open Source CFD Toolbox           |
|  \\    /   O peration     | Version:  v1806                                 |
|   \\  /    A nd           | Web:      www.OpenFOAM.com                      |
|    \\/     M anipulation  |                                                 |
\*---------------------------------------------------------------------------*/
FoamFile
{
    version     2.0;
    format      ascii;
    class       surfaceScalarField;
    location    "3";
    object      phi;
}
// * * * * * * * * * * * * * * * * * * * * * * * * * * * * * * * * * * * * * //

dimensions      [0 3 -1 0 0 0 0];
oriented        oriented;


internalField   nonuniform List<scalar> 
4680
(
0.749974
-0.00539392
0.749984
-0.015717
0.749891
-0.0308051
0.749845
-0.0456093
0.750272
-0.0485195
0.750783
-0.0580697
0.750121
-0.0769757
0.749556
-0.0981033
0.750588
-0.102273
0.752152
-0.0961299
0.751923
-0.114539
0.751332
-0.135584
0.750664
-0.166476
0.751818
-0.158671
0.754392
-0.139724
0.755869
-0.168597
0.756421
-0.175272
0.753755
-0.222449
0.753829
-0.238809
-0.190061
0.757352
0.749855
-0.00524907
0.750193
-0.0160547
0.750012
-0.0306241
0.749788
-0.0453853
0.750405
-0.0491365
0.751311
-0.0589761
0.750663
-0.0763276
0.750435
-0.097875
0.751535
-0.103372
0.753281
-0.0978767
0.75378
-0.115037
0.754414
-0.136217
0.753611
-0.165674
0.755077
-0.160137
0.7587
-0.143347
0.760846
-0.170743
0.762258
-0.176684
0.760331
-0.220522
0.761516
-0.239995
-0.194208
0.765663
0.7499
-0.00514868
0.750401
-0.0165561
0.749668
-0.0298915
0.749825
-0.0455417
0.750558
-0.0498696
0.751331
-0.0597488
0.751334
-0.0763307
0.751511
-0.0980526
0.751936
-0.103797
0.753851
-0.0997914
0.755643
-0.11683
0.756491
-0.137065
0.755348
-0.164531
0.758417
-0.163206
0.761741
-0.14667
0.76329
-0.172292
0.765993
-0.179388
0.765131
-0.21966
0.766496
-0.241359
-0.198508
0.770796
0.749881
-0.00502935
0.750126
-0.0168014
0.74932
-0.0290852
0.75025
-0.0464721
0.75018
-0.0497994
0.751447
-0.0610159
0.752077
-0.0769603
0.751819
-0.0977945
0.752116
-0.104095
0.755323
-0.102998
0.757241
-0.118748
0.757264
-0.137088
0.757592
-0.164859
0.761377
-0.166991
0.764016
-0.14931
0.76718
-0.175456
0.77125
-0.183458
0.770731
-0.219141
0.771504
-0.242132
-0.203293
0.776288
0.749484
-0.00451346
0.749812
-0.0171294
0.749195
-0.0284681
0.750528
-0.0478051
0.749762
-0.0490335
0.751856
-0.0631095
0.751892
-0.076997
0.752003
-0.0979054
0.752806
-0.104898
0.756388
-0.10658
0.757233
-0.119593
0.758582
-0.138437
0.760635
-0.166912
0.763113
-0.169468
0.766359
-0.152556
0.771353
-0.180449
0.775569
-0.187674
0.775839
-0.219411
0.777435
-0.243728
-0.20874
0.782882
0.748885
-0.00339838
0.749924
-0.018168
0.748927
-0.0274713
0.75064
-0.0495186
0.749105
-0.0474979
0.751628
-0.0656324
0.751046
-0.076415
0.752902
-0.0997618
0.753009
-0.105004
0.756306
-0.109877
0.757329
-0.120616
0.760681
-0.141789
0.76223
-0.168462
0.76432
-0.171558
0.769329
-0.157566
0.774259
-0.185379
0.778411
-0.191826
0.781355
-0.222355
0.783994
-0.246367
-0.214367
0.789621
0.748367
-0.00176514
0.750334
-0.0201357
0.747924
-0.0250614
0.750291
-0.0518851
0.74805
-0.045257
0.751766
-0.0693479
0.750413
-0.0750625
0.753181
-0.10253
0.75186
-0.103683
0.756491
-0.114509
0.757597
-0.121721
0.761623
-0.145815
0.76185
-0.168689
0.766194
-0.175902
0.771837
-0.163208
0.775821
-0.189363
0.78204
-0.198045
0.787396
-0.227711
0.789735
-0.248707
-0.220867
0.796236
0.747807
0.000428205
0.750075
-0.0224041
0.746345
-0.0213313
0.750526
-0.0560657
0.747101
-0.0418323
0.751689
-0.0739359
0.748824
-0.0721978
0.753044
-0.10675
0.750573
-0.101212
0.756686
-0.120621
0.756512
-0.121547
0.761622
-0.150926
0.761716
-0.168782
0.767556
-0.181743
0.772215
-0.167867
0.778184
-0.195332
0.786007
-0.205868
0.792483
-0.234187
0.7957
-0.251924
-0.22831
0.803144
0.746591
0.00383698
0.749945
-0.0257581
0.74582
-0.0172066
0.750515
-0.06076
0.745185
-0.0365025
0.751195
-0.079946
0.74708
-0.068083
0.753014
-0.112684
0.748357
-0.0965551
0.755969
-0.128233
0.754167
-0.119745
0.761615
-0.158374
0.760339
-0.167506
0.766804
-0.188207
0.771911
-0.172974
0.780445
-0.203866
0.787253
-0.212677
0.795356
-0.24229
0.800735
-0.257303
-0.237804
0.810228
0.745474
0.00836299
0.750603
-0.0308872
0.744813
-0.0114169
0.749566
-0.0655125
0.744215
-0.0311516
0.750968
-0.0866993
0.74459
-0.0617042
0.752208
-0.120303
0.745906
-0.0902529
0.75441
-0.136737
0.750584
-0.115919
0.760624
-0.168414
0.756517
-0.163399
0.76501
-0.1967
0.769694
-0.177658
0.780302
-0.214474
0.787118
-0.219492
0.797692
-0.252864
0.804398
-0.264009
-0.249256
0.81585
0.744646
0.0137166
0.751056
-0.0372972
0.743876
-0.00423633
0.749697
-0.0713338
0.743535
-0.0249898
0.749577
-0.092741
0.742481
-0.0546083
0.750877
-0.128698
0.742532
-0.0819078
0.751217
-0.145423
0.745907
-0.110608
0.757611
-0.180119
0.750695
-0.156482
0.761472
-0.207477
0.763931
-0.180117
0.777667
-0.22821
0.785041
-0.226867
0.797746
-0.265568
0.805917
-0.272181
-0.264487
0.821148
0.744544
0.0191727
0.752075
-0.044828
0.744499
0.00333906
0.749997
-0.0768318
0.742719
-0.0177114
0.749269
-0.0992915
0.740533
-0.0458718
0.747985
-0.136151
0.738682
-0.0726043
0.747525
-0.154266
0.739776
-0.102859
0.751103
-0.191446
0.743854
-0.149234
0.75527
-0.218893
0.754584
-0.179431
0.772886
-0.246512
0.780051
-0.234032
0.796291
-0.281808
0.80579
-0.28168
-0.283779
0.825082
0.746576
0.0225968
0.752251
-0.0505035
0.745862
0.00972891
0.75016
-0.0811303
0.743231
-0.0107827
0.748858
-0.104918
0.7384
-0.0354138
0.745476
-0.143227
0.734697
-0.0618252
0.742953
-0.162522
0.732691
-0.0925968
0.744373
-0.203129
0.735475
-0.140336
0.747009
-0.230427
0.744751
-0.177174
0.765515
-0.267275
0.772375
-0.240892
0.793665
-0.303097
0.806295
-0.294311
-0.309859
0.832375
0.750203
0.0223942
0.75062
-0.0509209
0.749666
0.0106826
0.748986
-0.08045
0.745523
-0.00731937
0.746303
-0.105698
0.738834
-0.0279453
0.742015
-0.146408
0.731305
-0.0511159
0.739479
-0.170695
0.727571
-0.080689
0.739041
-0.214599
0.726929
-0.128223
0.741823
-0.245322
0.736041
-0.171391
0.75895
-0.290184
0.763878
-0.24582
0.792364
-0.331584
0.81021
-0.312157
-0.344036
0.844387
0.753482
0.0189121
0.748597
-0.0460357
0.753117
0.00616204
0.746148
-0.0734804
0.74801
-0.00918166
0.742351
-0.100039
0.741659
-0.0272535
0.736119
-0.140868
0.733411
-0.0484079
0.733548
-0.170832
0.726145
-0.0732861
0.735311
-0.223765
0.722456
-0.115368
0.740145
-0.263011
0.728328
-0.159574
0.758881
-0.320738
0.754661
-0.2416
0.792856
-0.369779
0.810728
-0.330029
-0.392481
0.859172
0.754803
0.014109
0.746582
-0.0378141
0.753962
-0.00121844
0.743248
-0.0627667
0.749501
-0.0154348
0.737455
-0.0879917
0.743852
-0.0336507
0.729304
-0.12632
0.735481
-0.0545849
0.72367
-0.159021
0.729822
-0.0794376
0.722318
-0.216261
0.721593
-0.114643
0.731666
-0.273083
0.72273
-0.150638
0.756785
-0.354793
0.738805
-0.22362
0.794384
-0.425358
0.796171
-0.331815
-0.465966
0.869656
0.754068
0.0100408
0.746051
-0.0297965
0.752368
-0.00753585
0.741798
-0.0521966
0.748413
-0.0220496
0.734304
-0.0738833
0.743101
-0.0424478
0.723334
-0.106553
0.734216
-0.0654669
0.711894
-0.136699
0.726861
-0.0944042
0.701955
-0.191356
0.717253
-0.129941
0.697998
-0.253828
0.715522
-0.168161
0.721299
-0.36057
0.716385
-0.218706
0.777571
-0.486544
0.757505
-0.311749
-0.579957
0.871496
0.75291
0.00713074
0.746976
-0.0238622
0.749672
-0.010232
0.741629
-0.0441541
0.744669
-0.0250892
0.732822
-0.0620361
0.736951
-0.0465771
0.71962
-0.0892223
0.72452
-0.0703671
0.702752
-0.114931
0.711656
-0.103308
0.681893
-0.161592
0.695886
-0.143934
0.658816
-0.216759
0.688302
-0.197647
0.646424
-0.318693
0.688832
-0.261113
0.691385
-0.489098
0.705702
-0.326066
-0.727282
0.853028
0.753278
0.0038532
0.747554
-0.018139
0.748473
-0.0111509
0.740804
-0.0364849
0.740662
-0.0249473
0.730463
-0.0518374
0.728469
-0.0445821
0.714942
-0.0756952
0.710155
-0.0655801
0.693926
-0.0987026
0.687951
-0.0973333
0.66554
-0.139181
0.659466
-0.137859
0.630264
-0.187557
0.635014
-0.202397
0.587824
-0.271503
0.622322
-0.295611
0.558946
-0.425722
0.659205
-0.426324
-0.796604
0.728527
0.753453
0.000399776
0.747035
-0.0117203
0.74816
-0.0122766
0.738478
-0.0268026
0.737941
-0.0244106
0.725684
-0.0395803
0.722164
-0.0410624
0.706684
-0.060215
0.699336
-0.0582315
0.681237
-0.0806038
0.669221
-0.0853175
0.646519
-0.116479
0.627565
-0.118906
0.602322
-0.162314
0.575205
-0.175279
0.543604
-0.239902
0.514328
-0.266335
0.461642
-0.373037
0.497741
-0.462423
0.369123
-0.667986
0.757485
-0.447209
0.757533
-0.52961
0.758439
-0.513038
0.746184
-0.540582
0.712559
-0.668236
0.660996
-0.836636
0.596725
-0.96391
0.522447
-1.01745
0.441335
-1.01103
-0.970533
0.359407
0.76571
-0.447257
0.765686
-0.529586
0.764623
-0.511975
0.748597
-0.524555
0.713147
-0.632786
0.663666
-0.787155
0.604843
-0.905086
0.538643
-0.951252
0.467172
-0.939555
-0.897495
0.394133
0.771646
-0.448106
0.771231
-0.52917
0.768046
-0.50879
0.752123
-0.508633
0.719053
-0.599716
0.670357
-0.738459
0.609234
-0.843963
0.539
-0.881018
0.462898
-0.863454
-0.821295
0.386699
0.778909
-0.450728
0.776771
-0.527031
0.773443
-0.505463
0.759823
-0.495012
0.727203
-0.567096
0.678848
-0.690104
0.621919
-0.787034
0.55982
-0.818919
0.493558
-0.797192
-0.752377
0.424639
0.785464
-0.45331
0.784924
-0.526492
0.784705
-0.505244
0.770917
-0.481224
0.733715
-0.529894
0.680692
-0.637081
0.620251
-0.726593
0.553356
-0.752024
0.480787
-0.724623
-0.679974
0.408385
0.793882
-0.457571
0.795407
-0.528016
0.793421
-0.503258
0.775976
-0.463779
0.738252
-0.49217
0.689474
-0.588303
0.637093
-0.674212
0.580823
-0.695755
0.518105
-0.661905
-0.611917
0.450048
0.802986
-0.464321
0.80794
-0.53297
0.806304
-0.501622
0.788116
-0.445591
0.750776
-0.45483
0.700924
-0.53845
0.641147
-0.614434
0.572655
-0.627263
0.498413
-0.587664
-0.540055
0.426551
0.813142
-0.474319
0.820857
-0.540685
0.815858
-0.496623
0.796374
-0.426107
0.763011
-0.421468
0.721231
-0.49667
0.671388
-0.564592
0.612673
-0.568547
0.544819
-0.51981
-0.465539
0.470304
0.823891
-0.487981
0.833735
-0.550529
0.827258
-0.490146
0.811317
-0.410167
0.782292
-0.392442
0.737767
-0.452145
0.674621
-0.501446
0.59695
-0.490876
0.5153
-0.438161
-0.392384
0.442145
0.834873
-0.507004
0.850076
-0.565733
0.841059
-0.481129
0.82281
-0.391917
0.79329
-0.362922
0.75435
-0.413205
0.703496
-0.450592
0.640318
-0.427698
0.562404
-0.360247
-0.308275
0.478295
0.846284
-0.53214
0.867446
-0.586895
0.858866
-0.472549
0.845593
-0.378645
0.818364
-0.335694
0.770349
-0.36519
0.694296
-0.374539
0.605094
-0.338497
0.520513
-0.275665
-0.235342
0.447579
0.863256
-0.570314
0.892606
-0.616245
0.881218
-0.461161
0.867772
-0.365199
0.840859
-0.308781
0.802474
-0.326804
0.73754
-0.309605
0.654134
-0.255091
0.558132
-0.179663
-0.14576
0.468551
0.887619
-0.625557
0.923945
-0.652571
0.917956
-0.455171
0.916012
-0.363255
0.887384
-0.280152
0.830333
-0.269753
0.726133
-0.205406
0.611597
-0.140554
0.512759
-0.0808255
-0.0693103
0.436309
0.926312
-0.707483
0.972954
-0.699212
0.973156
-0.455373
0.965904
-0.356003
0.90773
-0.221979
0.843608
-0.205631
0.747267
-0.109064
0.643559
-0.0368464
0.531513
0.0312199
0.020496
0.441707
0.973404
-0.821714
1.02081
-0.746623
1.01553
-0.450094
0.994471
-0.334939
0.907931
-0.135439
0.786047
-0.0837464
0.627905
0.0490771
0.526265
0.0647938
0.448525
0.10896
0.0754025
0.393619
1.0027
-0.954762
1.02047
-0.764389
0.998165
-0.427788
0.918309
-0.255083
0.818549
-0.0356789
0.730211
0.00459204
0.584738
0.19455
0.484139
0.165392
0.409534
0.183565
0.117592
0.367344
0.968425
-1.05169
0.903742
-0.699706
0.842634
-0.36668
0.699786
-0.112235
0.558842
0.105264
0.476081
0.0873537
0.394986
0.275644
0.35882
0.201559
0.335782
0.206603
0.124531
0.328843
0.789525
-0.988189
0.591541
-0.501721
0.361798
-0.136937
0.247686
0.00187753
0.166342
0.186608
0.142826
0.11087
0.173899
0.244571
0.216034
0.159424
0.263103
0.159534
0.0956928
0.291941
0.394594
-0.654256
-0.141151
0.0340234
-0.372313
0.0942254
-0.203698
-0.166738
-0.130246
0.113155
-0.0715862
0.0522105
0.0548409
0.118144
0.132692
0.0815729
0.215225
0.0770016
0.0491807
0.261737
-0.285133
-0.25111
-0.156884
-0.323622
-0.210467
-0.158256
-0.0401124
0.0414605
0.118462
0.167643
0.24596
-1.38148
0.159298
-1.19807
0.100202
-1.00468
0.0625593
-0.825621
0.0394788
-0.672394
0.0254991
-0.546612
0.0169649
-0.44503
0.0116448
-0.363224
0.00823696
-0.297061
0.00598953
-0.24316
0.00446544
-0.198896
0.00340583
-0.162252
0.00265379
-0.131666
0.00211183
-0.105908
0.00171789
-0.0839862
0.0014317
-0.0650782
0.00122685
-0.0484865
0.00108674
-0.0335946
0.00100198
-0.0198523
-0.00688298
0.288079
-1.27542
0.201543
-1.11153
0.137233
-0.940366
0.0924614
-0.780849
0.0624628
-0.642396
0.0427596
-0.526908
0.0298642
-0.432135
0.0213409
-0.354701
0.015606
-0.291326
0.0116641
-0.239219
0.00889604
-0.196128
0.00691416
-0.16027
0.00547263
-0.130225
0.00441261
-0.104848
0.00362963
-0.0832032
0.00305403
-0.0645026
0.00263917
-0.0480717
0.0023556
-0.0333111
0.00218719
-0.0196839
-0.00682505
0.280513
-1.16924
0.197567
-1.02859
0.137786
-0.880585
0.0966648
-0.739729
0.0687017
-0.614433
0.0495908
-0.507797
0.0364186
-0.418962
0.02723
-0.345513
0.0207216
-0.284817
0.0160324
-0.234529
0.0125974
-0.192693
0.0100447
-0.157717
0.00812706
-0.128307
0.00667805
-0.103399
0.00558395
-0.0821091
0.00476646
-0.0636851
0.00417194
-0.0474771
0.0037662
-0.0329053
0.00353087
-0.0194486
-0.0067463
0.32095
-1.06555
0.233008
-0.940643
0.164904
-0.812481
0.116093
-0.690917
0.0826872
-0.581027
0.0600572
-0.485167
0.0445672
-0.403472
0.0337583
-0.334704
0.0260502
-0.277109
0.0204354
-0.228914
0.0162678
-0.188526
0.0131277
-0.154577
0.0107371
-0.125916
0.00890873
-0.101571
0.00751409
-0.0807144
0.00646418
-0.0626352
0.00569776
-0.0467107
0.0051756
-0.0323832
0.0048764
-0.0191494
-0.00664739
0.307773
-0.964936
0.228638
-0.861508
0.168618
-0.752461
0.123971
-0.64627
0.0914735
-0.54853
0.0682185
-0.461912
0.0516536
-0.386907
0.0397593
-0.322809
0.0310908
-0.268441
0.0246646
-0.222488
0.0198238
-0.183685
0.01613
-0.150883
0.0132874
-0.123074
0.0110936
-0.0993773
0.00940813
-0.079029
0.00813262
-0.0613597
0.00719891
-0.045777
0.00656276
-0.031747
0.00619952
-0.0187861
-0.00652752
0.344234
-0.859123
0.254153
-0.771428
0.185286
-0.683594
0.135852
-0.596836
0.100936
-0.513614
0.0761478
-0.437124
0.0583731
-0.369133
0.0454495
-0.309886
0.0358999
-0.258891
0.0287263
-0.215315
0.023258
-0.178217
0.0190419
-0.146667
0.0157689
-0.119801
0.0132248
-0.0968331
0.0112589
-0.0770631
0.00976508
-0.0598659
0.00866878
-0.0446807
0.00792105
-0.0309993
0.00749369
-0.0183588
-0.00638604
0.329845
-0.762416
0.252499
-0.694082
0.190902
-0.621997
0.143679
-0.549613
0.108718
-0.478653
0.0831961
-0.411603
0.0645465
-0.350483
0.0507736
-0.296113
0.0404542
-0.248571
0.0326061
-0.207467
0.026559
-0.172169
0.0218539
-0.141962
0.0181734
-0.11612
0.0152949
-0.0939546
0.01306
-0.0748282
0.0113557
-0.0581615
0.010102
-0.043427
0.00924546
-0.0301428
0.00875447
-0.0178678
-0.00622262
0.357666
-0.649779
0.267563
-0.603979
0.200343
-0.554777
0.1514
-0.500669
0.115723
-0.442976
0.0895533
-0.385433
0.0702067
-0.331137
0.0557304
-0.281637
0.0447453
-0.237586
0.0362944
-0.199016
0.0297176
-0.165593
0.0245574
-0.136802
0.0204932
-0.112056
0.0172972
-0.0907586
0.0148052
-0.0723363
0.0128989
-0.0562551
0.0114934
-0.0420215
0.0105314
-0.0291808
0.0099777
-0.0173141
-0.00603723
0.345367
-0.553001
0.267278
-0.525889
0.204823
-0.492322
0.157184
-0.45303
0.12164
-0.407432
0.095175
-0.358968
0.0753471
-0.311309
0.0603153
-0.266605
0.0487668
-0.226038
0.0397837
-0.190033
0.0327261
-0.158535
0.027145
-0.131221
0.0227215
-0.107633
0.0192253
-0.0872624
0.0164889
-0.0695998
0.0143894
-0.0541556
0.0128382
-0.0404704
0.0117743
-0.0281168
0.0111594
-0.0166992
-0.00583007
0.361263
-0.435969
0.274086
-0.438712
0.209521
-0.427757
0.161976
-0.405486
0.126632
-0.372088
0.100097
-0.332433
0.0799782
-0.29119
0.0645298
-0.251157
0.0525158
-0.214024
0.0430688
-0.180586
0.0355784
-0.151045
0.0296105
-0.125253
0.024852
-0.102874
0.0210735
-0.083484
0.0181055
-0.0666318
0.0158223
-0.0518724
0.0141319
-0.03878
0.01297
-0.026955
0.0122957
-0.0160249
-0.00560153
0.34951
-0.337899
0.272292
-0.361494
0.211352
-0.366817
0.165342
-0.359476
0.130672
-0.337418
0.104336
-0.306097
0.0841128
-0.270967
0.0683796
-0.235423
0.0559926
-0.201637
0.0461469
-0.17074
0.0382699
-0.143168
0.0319485
-0.118932
0.0268793
-0.0978049
0.0228365
-0.0794412
0.0196503
-0.0634456
0.017193
-0.0494151
0.0153701
-0.0369572
0.0141147
-0.0256995
0.0133829
-0.0152931
-0.00535219
0.353523
-0.222871
0.272733
-0.280705
0.212255
-0.306339
0.167602
-0.314823
0.133835
-0.303651
0.107926
-0.280188
0.0877705
-0.250811
0.0718744
-0.219527
0.0592005
-0.188963
0.049017
-0.160556
0.0407974
-0.134948
0.0341546
-0.112289
0.0287987
-0.092449
0.0245095
-0.075152
0.0211185
-0.0600546
0.0184971
-0.0467937
0.0165488
-0.0350089
0.0152043
-0.024355
0.0144176
-0.0145064
-0.00508274
0.339063
-0.125625
0.267652
-0.209294
0.211016
-0.249703
0.168655
-0.272461
0.136153
-0.271149
0.110904
-0.254939
0.0909756
-0.230883
0.0750279
-0.20358
0.0621451
-0.17608
0.0516801
-0.150091
0.043159
-0.126427
0.0362255
-0.105356
0.0306062
-0.0868297
0.0260883
-0.0706341
0.022506
-0.0564723
0.0197306
-0.0440183
0.0176643
-0.0329425
0.0162356
-0.0229263
0.0153965
-0.0136674
-0.004794
0.334028
-0.0179459
0.263007
-0.138273
0.208605
-0.195301
0.168677
-0.232533
0.137698
-0.240171
0.113315
-0.230555
0.0937579
-0.211326
0.0778572
-0.187679
0.0648349
-0.163058
0.0541386
-0.139395
0.0453537
-0.117642
0.0381584
-0.0981603
0.032298
-0.0809693
0.027569
-0.0659051
0.023809
-0.0527123
0.0208899
-0.0410992
0.0187129
-0.0307655
0.017205
-0.0214184
0.0163164
-0.0127788
-0.00448693
0.313121
0.0625515
0.253908
-0.0790606
0.204445
-0.145837
0.16765
-0.195738
0.138527
-0.211048
0.11521
-0.207238
0.0961518
-0.192268
0.0803825
-0.17191
0.0672801
-0.149955
0.0563965
-0.128511
0.0473817
-0.108627
0.0399515
-0.09073
0.0338714
-0.0748892
0.0289481
-0.0609818
0.0250238
-0.048788
0.0219713
-0.0380467
0.0196914
-0.0284856
0.0181096
-0.0198366
0.0171745
-0.0118437
-0.00416253
0.296886
0.13301
0.244382
-0.0265568
0.199187
-0.100642
0.165712
-0.162264
0.138717
-0.184053
0.116648
-0.185169
0.0981964
-0.173817
0.082627
-0.15634
0.0694926
-0.136821
0.0584588
-0.117478
0.0492439
-0.0994123
0.0416032
-0.0830892
0.0353236
-0.0686096
0.0302227
-0.0558809
0.0261474
-0.0447126
0.0229719
-0.0348712
0.0205968
-0.0261105
0.0189465
-0.0181863
0.0179681
-0.0108654
-0.00382194
0.277804
0.184049
0.233146
0.0181007
0.192743
-0.0602389
0.162925
-0.132446
0.138351
-0.159479
0.117695
-0.164512
0.0999354
-0.156057
0.084616
-0.141021
0.0714857
-0.123691
0.0603311
-0.106323
0.0509417
-0.090023
0.0431126
-0.0752601
0.0366526
-0.0621496
0.03139
-0.0506184
0.0271767
-0.0404993
0.0238887
-0.0315832
0.0214263
-0.023648
0.019713
-0.016473
0.0186948
-0.00984717
-0.00346634
0.256915
0.219075
0.219573
0.0554426
0.185006
-0.0256723
0.159355
-0.106794
0.137523
-0.137647
0.118427
-0.145416
0.101416
-0.139047
0.0863767
-0.125981
0.0732733
-0.110587
0.0620197
-0.0950693
0.0524769
-0.0804802
0.0444792
-0.0672625
0.0378565
-0.0555268
0.0324477
-0.0452095
0.0281093
-0.036161
0.0247191
-0.0281931
0.0221774
-0.0211062
0.0204068
-0.0147025
0.0193521
-0.0087925
-0.00309701
0.239356
0.241456
0.204338
0.0904607
0.175321
0.00334456
0.154746
-0.0862196
0.136269
-0.11917
0.118915
-0.128063
0.10269
-0.122822
0.0879372
-0.111228
0.0748695
-0.0975197
0.0635307
-0.0837305
0.0538513
-0.0708007
0.0457025
-0.0591138
0.0389337
-0.048758
0.0333934
-0.0396693
0.0289428
-0.0317103
0.0254608
-0.0247111
0.0228478
-0.0184932
0.0210256
-0.0128803
0.0199381
-0.007705
-0.00271526
0.194438
0.214662
0.175619
0.109279
0.161813
0.0171505
0.149235
-0.0736413
0.134827
-0.104761
0.119285
-0.112521
0.103817
-0.107354
0.0893279
-0.0967388
0.0762896
-0.0844813
0.0648714
-0.0723123
0.0550677
-0.0609971
0.046783
-0.0508291
0.0398834
-0.0418584
0.034226
-0.0340119
0.0296755
-0.0271597
0.026112
-0.0211476
0.0234357
-0.0158169
0.0215679
-0.0110125
0.0204513
-0.00658837
-0.00232247
0.0941593
0.120502
0.10127
0.102168
0.114672
0.00374862
0.114236
-0.0732052
0.106662
-0.0971872
0.0956581
-0.101517
0.0837948
-0.0954909
0.0723609
-0.0853048
0.0619375
-0.0740579
0.052745
-0.0631198
0.044819
-0.0530711
0.0381028
-0.0441129
0.0324993
-0.0362548
0.0278989
-0.0294115
0.0241953
-0.0234561
0.0212932
-0.0182455
0.0191125
-0.0136362
0.0175896
-0.00948964
0.0166779
-0.00567673
-0.00200139
0.0433269
0.0771754
0.0813562
0.064139
0.107526
-0.0224213
0.111782
-0.0774613
0.106175
-0.09158
0.0959884
-0.0913309
0.0844395
-0.083942
0.0730953
-0.0739606
0.0626604
-0.063623
0.0534129
-0.0538723
0.0454164
-0.0450745
0.038628
-0.0373245
0.0329573
-0.0305842
0.0282979
-0.0247521
0.0245447
-0.0197029
0.0216024
-0.0153033
0.0193907
-0.0114245
0.0178455
-0.00794445
0.0169197
-0.00475089
-0.00167495
0.0167152
0.0604601
0.0712223
0.00963193
0.10333
-0.0545287
0.110277
-0.0844083
0.106029
-0.0873319
0.0964224
-0.0817247
0.0850795
-0.072599
0.0737742
-0.0626553
0.0633066
-0.0531554
0.0539986
-0.0445643
0.0459336
-0.0370096
0.0390786
-0.0304695
0.0333476
-0.0248531
0.0286361
-0.0200406
0.0248395
-0.0159062
0.0218624
-0.0123262
0.019624
-0.0091861
0.0180597
-0.00638011
0.0171217
-0.00381288
-0.0013439
0.00855381
0.0519063
0.067068
-0.0488823
0.101315
-0.0887754
0.109793
-0.0928866
0.106313
-0.083852
0.0969999
-0.0724115
0.0857293
-0.0613285
0.0744032
-0.0513292
0.0638785
-0.0426308
0.0545028
-0.0351886
0.0463709
-0.0288777
0.0394545
-0.0235532
0.03367
-0.0190686
0.0289132
-0.0152839
0.0250795
-0.0120725
0.022073
-0.00931975
0.0198122
-0.00692531
0.0182319
-0.00479979
0.0172838
-0.00286478
-0.00100904
0.00461885
0.0472875
0.0639724
-0.108236
0.100543
-0.125346
0.110141
-0.102485
0.10701
-0.0807204
0.0977291
-0.0631307
0.0863951
-0.0499945
0.0749847
-0.0399188
0.0643768
-0.0320228
0.0549257
-0.0257375
0.0467278
-0.0206798
0.0397553
-0.0165807
0.0339238
-0.0132371
0.0291287
-0.0104888
0.0252642
-0.008208
0.0222337
-0.00628924
0.0199548
-0.00464646
0.0183618
-0.00320671
0.0174056
-0.00190867
-0.000671178
0.00237483
0.0449127
0.0629052
-0.168766
0.101448
-0.163889
0.111484
-0.112521
0.108166
-0.0774026
0.0986228
-0.0535872
0.0870796
-0.0384513
0.0755191
-0.0283582
0.064801
-0.0213048
0.0552665
-0.0162029
0.0470038
-0.0124171
0.0399803
-0.0095572
0.0341087
-0.00736547
0.0292821
-0.00566216
0.0253932
-0.00431909
0.0223441
-0.00324016
0.0200516
-0.00235392
0.018449
-0.00160411
0.017487
-0.000946662
-0.000331139
0.00911622
0.0357964
0.068768
-0.228418
0.104964
-0.200085
0.114009
-0.121566
0.10981
-0.0732036
0.0996806
-0.0434577
0.0877795
-0.0265502
0.0760035
-0.0165822
0.0651494
-0.0104507
0.055524
-0.0065775
0.0471978
-0.00409096
0.0401288
-0.00248816
0.0342239
-0.00146061
0.0293729
-0.000811131
0.025466
-0.000412245
0.0224039
-0.000178043
0.0201021
-5.21234e-05
0.0184933
4.72769e-06
0.0175275
1.9091e-05
1.02503e-05
0.0335802
0.00221628
0.086405
-0.281243
0.113211
-0.226891
0.118175
-0.12653
0.112001
-0.0670302
0.100897
-0.0323531
0.088486
-0.0141395
0.0764326
-0.00452872
0.0654187
0.000563199
0.0556963
0.00314497
0.0473087
0.00429661
0.0401999
0.00462067
0.0342689
0.00447039
0.0294006
0.00405715
0.0254824
0.00350598
0.0224128
0.00289152
0.0201063
0.00225444
0.0184945
0.00161647
0.0175272
0.000986438
0.000352152
0.105314
-0.103098
0.125423
-0.301352
0.129299
-0.230767
0.124704
-0.121935
0.114825
-0.0571503
0.102257
-0.0197854
0.089184
-0.00106664
0.0767986
0.00785664
0.0656056
0.0117562
0.0557811
0.0129695
0.047335
0.0127427
0.0401927
0.011763
0.034243
0.0104201
0.0293649
0.00893528
0.025442
0.00742888
0.0223707
0.00596283
0.0200639
0.00456124
0.0184526
0.00322779
0.0174858
0.00195318
0.000693715
0.181687
-0.284786
0.167244
-0.286908
0.149707
-0.21323
0.133192
-0.10542
0.118186
-0.0421444
0.103708
-0.00530723
0.0898529
0.0127883
0.0770893
0.0206202
0.0657019
0.0231436
0.0557742
0.0228972
0.0472741
0.0212429
0.0401054
0.0189317
0.034145
0.0163805
0.0292647
0.0138155
0.025344
0.0113496
0.0222768
0.00903007
0.0199744
0.00686364
0.0183669
0.00483526
0.017403
0.00291709
0.00103411
0.316191
-0.330601
-0.270376
0.289066
-0.259782
0.243039
-0.167204
0.204532
-0.0669122
0.174695
-0.0123074
0.150406
0.0189822
0.129109
0.0340851
0.110205
0.0395235
0.0936237
0.0397253
0.0792995
0.0372214
0.0671035
0.0334388
0.0568565
0.0291788
0.0483591
0.0248778
0.041415
0.0207596
0.0358443
0.0169202
0.031491
0.0133834
0.0282259
0.0101287
0.0259479
0.00711325
0.0245833
0.00428177
0.00151577
0.359581
-0.295277
-0.394905
0.292838
-0.19304
0.242785
-0.117151
0.207498
-0.0316251
0.177856
0.0173346
0.152343
0.0444947
0.129913
0.0565154
0.110296
0.0591409
0.0933224
0.0566986
0.0788082
0.0517356
0.0665378
0.0457091
0.0562797
0.0394369
0.0478038
0.0333537
0.0408957
0.0276677
0.0353648
0.0224511
0.0310491
0.0176991
0.0278161
0.0133617
0.0255629
0.00936651
0.0242149
0.00562978
0.00199082
0.375491
-0.241838
-0.42893
0.314182
-0.131731
0.25842
-0.061389
0.216661
0.0101347
0.182561
0.0514344
0.154307
0.072749
0.130418
0.0804044
0.110041
0.0795179
0.0926911
0.0740481
0.0780147
0.066412
0.0657008
0.0580231
0.0554623
0.0496754
0.0470366
0.0417795
0.0401899
0.0345144
0.0347208
0.0279203
0.0304606
0.0219593
0.0272735
0.0165488
0.025055
0.011585
0.0237301
0.00695468
0.00245684
0.403315
-0.158819
-0.486333
0.331781
-0.0601968
0.269529
0.000862252
0.222695
0.0569688
0.185612
0.0885176
0.155447
0.102914
0.130395
0.105456
0.109365
0.100547
0.0916957
0.0917176
0.0769006
0.0812071
0.0645822
0.0703415
0.0543988
0.0598588
0.0460549
0.0501234
0.039297
0.0412722
0.0339123
0.033305
0.029726
0.0261456
0.0265991
0.0196757
0.0244256
0.0137584
0.0231303
0.00825002
0.00291138
0.417977
-0.0609479
-0.515848
0.341063
0.0167168
0.276845
0.0650809
0.227356
0.106457
0.187833
0.12804
0.155934
0.134814
0.129826
0.131564
0.108231
0.122143
0.0903087
0.10964
0.0754499
0.096066
0.0631735
0.0826178
0.0530854
0.0699468
0.0448575
0.0583513
0.0382173
0.0479125
0.0329407
0.0385816
0.0288472
0.0302391
0.0257949
0.0227281
0.0236767
0.0158766
0.0224173
0.00950937
0.00335208
0.432511
0.0433301
-0.536789
0.350752
0.0984763
0.28307
0.132763
0.230535
0.158991
0.188913
0.169662
0.155597
0.16813
0.12863
0.158531
0.106592
0.144181
0.0885034
0.127728
0.0736473
0.110922
0.061467
0.0947981
0.0515189
0.0798949
0.0434441
0.0664261
0.0369519
0.0544047
0.0318081
0.0437254
0.0278267
0.0342205
0.0248635
0.0256913
0.0228108
0.0179293
0.0215937
0.0107264
0.00377661
0.447457
0.166472
-0.570599
0.35774
0.188193
0.286947
0.203556
0.232076
0.213862
0.188813
0.212926
0.154381
0.202562
0.126754
0.186159
0.10441
0.166525
0.0862562
0.145881
0.0714797
0.125699
0.0594563
0.106822
0.0496971
0.0896541
0.0418151
0.0743081
0.0355029
0.0607169
0.0305172
0.0487111
0.0266675
0.0380702
0.023808
0.0285508
0.0218311
0.0199063
0.0206626
0.0118949
0.00418273
0.443707
0.267382
-0.544617
0.358956
0.272944
0.28818
0.274332
0.231944
0.270098
0.18748
0.25739
0.152228
0.237814
0.124151
0.214236
0.101653
0.189022
0.0835468
0.163988
0.068936
0.140309
0.0571366
0.118621
0.0476193
0.0991714
0.039972
0.0819553
0.033873
0.0668159
0.0290713
0.0535128
0.0253733
0.0417682
0.0226323
0.0312919
0.0207412
0.0217973
0.0196274
0.0130087
0.00456828
0.456383
0.391204
-0.580204
0.361981
0.367346
0.288039
0.348274
0.230277
0.327861
0.184885
0.302781
0.14909
0.273609
0.120781
0.242544
0.0982946
0.211509
0.0803588
0.181924
0.0660079
0.15466
0.054505
0.130124
0.045286
0.10839
0.0379176
0.0893237
0.0320661
0.0726674
0.027475
0.0581039
0.0239487
0.0452945
0.0213407
0.0338998
0.0195455
0.0235925
0.0184921
0.0140621
0.00493124
0.442735
0.491181
-0.542712
0.356809
0.453271
0.284764
0.420319
0.226788
0.385837
0.180957
0.348612
0.144924
0.309643
0.116613
0.270855
0.0943118
0.23381
0.0766797
0.199556
0.0626898
0.16865
0.0515609
0.141253
0.0426998
0.117252
0.035656
0.0963675
0.0300871
0.0782362
0.0257333
0.0624577
0.0223987
0.0486291
0.0199383
0.0363603
0.0182486
0.0252822
0.0172612
0.0150495
0.00526974
0.45166
0.609398
-0.569877
0.35604
0.548891
0.280787
0.495573
0.221839
0.444785
0.175717
0.394734
0.139705
0.345655
0.111622
0.298937
0.0896889
0.255744
0.0725012
0.216744
0.0589797
0.182172
0.0483062
0.151926
0.0398648
0.125693
0.0331926
0.10304
0.027942
0.0834868
0.0238524
0.0665474
0.0207294
0.0517521
0.0184307
0.038659
0.0168559
0.0268569
0.0159398
0.0159656
0.00558206
0.425016
0.700919
-0.516537
0.343264
0.630643
0.272685
0.566151
0.214842
0.502627
0.169058
0.440519
0.133398
0.381315
0.105789
0.326546
0.0844154
0.277117
0.0678198
0.233339
0.0548789
0.195113
0.0447455
0.16206
0.0367874
0.133651
0.0305346
0.109293
0.0256381
0.0883832
0.0218393
0.0703462
0.0189475
0.0546439
0.0168242
0.0407822
0.0153734
0.0283078
0.0145333
0.0168057
0.00586673
0.438946
0.812817
-0.550844
0.342544
0.727045
0.266047
0.642648
0.206794
0.56188
0.16111
0.486203
0.126005
0.41642
0.0991036
0.353448
0.0784867
0.297734
0.0626366
0.249189
0.0503926
0.207357
0.0408863
0.171566
0.0334762
0.141061
0.0276908
0.115078
0.023184
0.09289
0.0197022
0.073828
0.0170605
0.0572857
0.0151259
0.0427168
0.0138074
0.0296263
0.0130476
0.0175655
0.00612251
0.398732
0.906559
-0.492473
0.319397
0.80638
0.251728
0.710316
0.195809
0.617799
0.151541
0.530471
0.117464
0.450497
0.0915542
0.379358
0.0719034
0.317385
0.0569578
0.264135
0.0455299
0.218785
0.036739
0.180357
0.0299418
0.147858
0.0246715
0.120348
0.0205894
0.0969721
0.0174501
0.0769672
0.0150767
0.0596591
0.0133434
0.0444501
0.012165
0.0308046
0.0114893
0.0182413
0.00634846
0.417555
1.01097
-0.521969
0.322626
0.901309
0.244984
0.787958
0.185535
0.677249
0.141057
0.574949
0.107897
0.483658
0.0831627
0.404092
0.0646762
0.335871
0.0507955
0.278016
0.0403043
0.229276
0.0323173
0.188344
0.0261976
0.153978
0.0214891
0.125057
0.0178654
0.100596
0.0150931
0.0797396
0.0130053
0.0617469
0.0114849
0.0459705
0.0104538
0.0318358
0.00986505
0.01883
0.00654401
0.36749
1.10981
-0.466327
0.286061
0.982737
0.220696
0.853323
0.168552
0.729393
0.127828
0.615673
0.0968987
0.514587
0.0738539
0.427136
0.0568031
0.352922