/*--------------------------------*- C++ -*----------------------------------*\
| =========                 |                                                 |
| \\      /  F ield         | OpenFOAM: The Open Source CFD Toolbox           |
|  \\    /   O peration     | Version:  v1806                                 |
|   \\  /    A nd           | Web:      www.OpenFOAM.com                      |
|    \\/     M anipulation  |                                                 |
\*---------------------------------------------------------------------------*/
FoamFile
{
    version     2.0;
    format      ascii;
    class       volScalarField;
    location    "11";
    object      p;
}
// * * * * * * * * * * * * * * * * * * * * * * * * * * * * * * * * * * * * * //

dimensions      [0 2 -2 0 0 0 0];


internalField   nonuniform List<scalar> 
4400
(
-0.747844
0.843165
0.943433
0.898155
0.871999
0.751271
0.632741
0.52577
0.429911
0.345867
0.275991
0.220292
0.176679
0.141822
0.113873
0.0908126
0.070693
0.0510382
0.0310644
0.0105341
1.64373
0.958704
0.822684
0.606829
0.505851
0.426338
0.368246
0.322413
0.28864
0.262625
0.239579
0.217329
0.19499
0.172375
0.148688
0.123499
0.0966633
0.0692964
0.0413482
0.0139752
0.84751
0.838579
0.761901
0.736762
0.716321
0.678519
0.627652
0.570588
0.511504
0.451624
0.393152
0.337705
0.285702
0.23731
0.192552
0.151578
0.113942
0.0795356
0.0468983
0.0157356
1.03333
0.904315
0.793327
0.664456
0.587286
0.517931
0.464619
0.41549
0.372062
0.333279
0.297944
0.264823
0.233539
0.203227
0.173437
0.143682
0.113637
0.082566
0.0506411
0.0170398
0.634887
0.618824
0.582294
0.564839
0.541799
0.517647
0.491479
0.462598
0.430065
0.394504
0.357067
0.318395
0.279102
0.239671
0.20067
0.16226
0.124933
0.0882523
0.0528693
0.0172922
0.664841
0.625841
0.579952
0.5187
0.470302
0.427843
0.391577
0.356943
0.326102
0.295563
0.266191
0.237796
0.209941
0.182493
0.155168
0.127853
0.100371
0.0724456
0.0439211
0.0146305
0.441255
0.432741
0.41716
0.406031
0.393361
0.379253
0.363414
0.34556
0.325335
0.302761
0.278007
0.251527
0.223721
0.194884
0.165202
0.135136
0.10473
0.0746938
0.0443676
0.0150423
0.448037
0.430364
0.407402
0.378387
0.351319
0.322331
0.29974
0.2764
0.254164
0.232329
0.210595
0.18897
0.167427
0.145879
0.124209
0.102281
0.0800281
0.0575936
0.0346039
0.0118928
0.309841
0.304472
0.296639
0.289762
0.282019
0.274073
0.26367
0.251926
0.238709
0.223877
0.207483
0.189625
0.170535
0.1503
0.129092
0.106956
0.0842509
0.0607738
0.0371368
0.0123839
0.30992
0.30096
0.288038
0.271301
0.254614
0.235601
0.218521
0.202622
0.187449
0.172171
0.156843
0.141255
0.125487
0.109467
0.0932886
0.0767969
0.0602048
0.0431727
0.0262423
0.00844182
0.217511
0.214476
0.210133
0.205246
0.199315
0.193717
0.187003
0.178988
0.170013
0.160088
0.148986
0.136737
0.123327
0.108962
0.0937469
0.0778513
0.0612578
0.0442153
0.0266775
0.00885738
0.21932
0.213938
0.205717
0.194902
0.183669
0.171237
0.158912
0.147308
0.136292
0.125393
0.114338
0.103129
0.0916229
0.0798657
0.0678656
0.0557348
0.0433765
0.031058
0.0184482
0.00636689
0.156375
0.154102
0.151115
0.147446
0.143061
0.138828
0.134381
0.129136
0.1228
0.115689
0.107902
0.099327
0.0899704
0.0798369
0.0690411
0.0576334
0.0456992
0.0332429
0.0203372
0.00695147
0.158048
0.154872
0.149482
0.142443
0.134675
0.126142
0.117429
0.108631
0.100337
0.0922433
0.0842115
0.0760506
0.0677228
0.0591539
0.0503934
0.0414223
0.0323938
0.0231281
0.0139828
0.00452376
0.114195
0.112492
0.110514
0.108077
0.105151
0.102148
0.0989094
0.0954774
0.0912854
0.086238
0.0804284
0.0740119
0.0670046
0.0594298
0.0512951
0.0426862
0.0336886
0.0243046
0.014836
0.0047193
0.119381
0.117211
0.113418
0.108794
0.103566
0.0975694
0.0913174
0.0847462
0.0781886
0.0717438
0.0652174
0.0585666
0.0517905
0.044984
0.0380929
0.0311669
0.024142
0.0172341
0.0101862
0.00348616
0.0897247
0.088365
0.0868027
0.0847629
0.082266
0.0795078
0.0764465
0.0732264
0.0697527
0.0658012
0.0613561
0.0563974
0.0510248
0.0452811
0.0391679
0.0326903
0.0258733
0.018783
0.0114169
0.00392808
0.0929146
0.0909154
0.0877629
0.08401
0.0798315
0.0751472
0.0702377
0.0652506
0.0603714
0.0556776
0.051151
0.046659
0.0420257
0.0371614
0.0320683
0.0266904
0.0210751
0.0152113
0.00923052
0.00302757
0.0693409
0.0669939
0.0656376
0.0642335
0.0627799
0.0614204
0.0600184
0.058561
0.0569954
0.0551827
0.0527968
0.0496947
0.0458577
0.0413431
0.0362278
0.030559
0.0244038
0.0178072
0.0108492
0.00364891
0.0939183
0.0940039
0.0925604
0.0902457
0.0868041
0.0824182
0.0773776
0.0716884
0.0655582
0.0591486
0.0526723
0.0463052
0.0401245
0.0341605
0.0284133
0.0228838
0.0175444
0.0123702
0.00734627
0.00245494
1.41588
1.64496
1.84067
2.0037
2.13382
2.23349
2.30422
2.34734
2.36364
2.35341
2.31649
2.25221
2.15936
2.03625
1.88027
1.6889
1.45751
1.18405
0.863693
0.50356
2.27094
2.34
2.40054
2.45063
2.49189
2.52476
2.54986
2.56759
2.57821
2.58184
2.57844
2.56784
2.54975
2.52365
2.48887
2.44453
2.38945
2.32181
2.23984
2.15565
1.07802
1.08343
1.08807
1.09164
1.09373
1.09407
1.09242
1.08863
1.08263
1.07434
1.06378
1.05101
1.03613
1.01933
1.00086
0.981048
0.960308
0.939205
0.918515
0.897798
1.18124
1.18911
1.19594
1.20164
1.20611
1.20926
1.21103
1.21135
1.21018
1.20749
1.20325
1.19746
1.19012
1.18126
1.17091
1.15913
1.14603
1.13173
1.11652
1.10095
0.68131
0.680848
0.680179
0.679292
0.678172
0.67681
0.675203
0.673351
0.67126
0.668943
0.666416
0.663705
0.660838
0.657854
0.654795
0.651711
0.648657
0.64568
0.642796
0.640158
0.720034
0.721646
0.722902
0.723789
0.724293
0.724404
0.724112
0.723411
0.722296
0.720766
0.718825
0.716476
0.713729
0.710596
0.707095
0.703246
0.699077
0.69464
0.689978
0.684892
0.457265
0.456943
0.456556
0.4561
0.455576
0.454982
0.454321
0.453595
0.452808
0.451966
0.451075
0.450143
0.449178
0.44819
0.447192
0.446197
0.445215
0.444246
0.443295
0.442517
0.474722
0.475298
0.475711
0.475956
0.476029
0.475928
0.475652
0.475199
0.474572
0.47377
0.472797
0.471655
0.470351
0.468888
0.467274
0.465516
0.463625
0.461625
0.459525
0.457182
0.31705
0.316956
0.316828
0.316664
0.316464
0.316228
0.315959
0.315657
0.315324
0.314965
0.314581
0.314175
0.313752
0.313315
0.312866
0.312411
0.31195
0.311481
0.311011
0.310635
0.324314
0.324604
0.324806
0.32492
0.324942
0.324873
0.324711
0.324456
0.324108
0.323669
0.32314
0.322523
0.321822
0.32104
0.320181
0.319248
0.31825
0.317203
0.316103
0.314839
0.221362
0.221329
0.221276
0.221201
0.221105
0.220986
0.220845
0.220682
0.2205
0.220298
0.220078
0.219844
0.219596
0.219337
0.219069
0.218798
0.218522
0.21824
0.217964
0.217777
0.22739
0.227622
0.227799
0.227919
0.227983
0.22799
0.227939
0.227831
0.227667
0.227448
0.227174
0.226848
0.22647
0.226042
0.225566
0.225044
0.22448
0.223884
0.223254
0.222491
0.158427
0.158447
0.158451
0.158439
0.15841
0.158365
0.158303
0.158226
0.158133
0.158027
0.157908
0.157777
0.157635
0.157484
0.157325
0.157159
0.156987
0.156806
0.156622
0.156504
0.163001
0.163153
0.163271
0.163354
0.163401
0.163412
0.163387
0.163326
0.163228
0.163095
0.162927
0.162725
0.162489
0.162223
0.161927
0.161604
0.161257
0.160895
0.160515
0.160042
0.115836
0.115848
0.115848
0.115836
0.115812
0.115776
0.115727
0.115667
0.115594
0.115509
0.115414
0.115308
0.115193
0.115069
0.114938
0.114801
0.114659
0.114507
0.114354
0.114259
0.122174
0.122316
0.122434
0.122527
0.122595
0.122638
0.122656
0.12265
0.122619
0.122563
0.122485
0.122383
0.122259
0.122114
0.121948
0.121762
0.121558
0.121342
0.121111
0.120802
0.090477
0.0905054
0.0905248
0.0905352
0.0905364
0.0905284
0.0905115
0.0904856
0.0904513
0.0904088
0.0903587
0.0903015
0.0902379
0.0901686
0.0900944
0.0900164
0.089934
0.0898449
0.0897556
0.0897104
0.0965113
0.0966011
0.0966691
0.0967149
0.0967384
0.0967392
0.0967174
0.0966727
0.0966054
0.0965154
0.0964032
0.096269
0.0961134
0.0959371
0.0957404
0.095524
0.0952898
0.0950439
0.0947843
0.094449
0.0743367
0.0743248
0.074294
0.0742438
0.0741739
0.074084
0.0739736
0.0738425
0.0736903
0.0735166
0.073321
0.0731032
0.0728626
0.0725987
0.0723112
0.0719998
0.0716631
0.0712962
0.0708988
0.0705113
0.0905321
0.090688
0.0908405
0.0909897
0.0911356
0.0912786
0.0914191
0.0915577
0.0916948
0.0918313
0.0919679
0.0921055
0.0922451
0.0923876
0.092534
0.0926853
0.0928425
0.0930078
0.0931829
0.0933576
1.18206
1.20613
1.22916
1.25068
1.27013
1.28688
1.30014
1.30898
1.31227
1.30864
1.29668
1.27523
1.24393
1.20365
1.15673
1.10718
1.0619
1.03559
1.06081
1.18456
1.08093
1.11229
1.14536
1.18019
1.21694
1.25579
1.29696
1.34069
1.3873
1.43718
1.49079
1.54869
1.61144
1.67959
1.75353
1.83338
1.9189
2.00922
2.10209
2.19176
0.936622
0.944337
0.95177
0.958923
0.965801
0.972441
0.978911
0.985305
0.99175
0.998385
1.00535
1.01272
1.02053
1.02866
1.0369
1.04495
1.05257
1.05962
1.06613
1.07223
0.888886
0.904648
0.920403
0.93629
0.952317
0.968472
0.984748
1.00113
1.01758
1.03405
1.05047
1.0667
1.08262
1.09804
1.11278
1.1267
1.13967
1.15161
1.1625
1.17237
0.655269
0.657611
0.659881
0.662053
0.664136
0.666142
0.668078
0.66995
0.671756
0.673484
0.675115
0.676618
0.677962
0.679115
0.680054
0.680771
0.681269
0.681561
0.681662
0.681579
0.624102
0.630801
0.637318
0.643739
0.650065
0.656279
0.662361
0.668294
0.674051
0.679602
0.684915
0.689954
0.694687
0.699089
0.703139
0.706831
0.710164
0.713144
0.71578
0.718077
0.449156
0.450146
0.451129
0.45206
0.45293
0.453745
0.454503
0.455201
0.455833
0.456393
0.456874
0.457268
0.457573
0.457789
0.457919
0.45797
0.45795
0.457867
0.457725
0.457524
0.431846
0.435224
0.438438
0.441559
0.444591
0.447524
0.450347
0.453053
0.455632
0.458075
0.460373
0.462518
0.464505
0.46633
0.467995
0.469501
0.470852
0.472049
0.473094
0.473986
0.312377
0.312904
0.313447
0.313955
0.31442
0.314847
0.315237
0.31559
0.315904
0.31618
0.316417
0.316617
0.31678
0.316909
0.317008
0.31708
0.317126
0.317147
0.317143
0.317111
0.300423
0.30241
0.304271
0.306071
0.307814
0.309491
0.311095
0.312622
0.314065
0.315421
0.316685
0.317855
0.318931
0.319912
0.3208
0.321599
0.32231
0.322937
0.323479
0.323938
0.217421
0.217818
0.218248
0.218655
0.21903
0.219376
0.219694
0.219982
0.220239
0.220465
0.220662
0.220829
0.22097
0.221085
0.221179
0.221253
0.221309
0.221348
0.22137
0.221375
0.212121
0.213397
0.21457
0.215698
0.216785
0.217827
0.218819
0.219761
0.220652
0.221491
0.222278
0.223014
0.223698
0.224332
0.224916
0.225452
0.225939
0.226377
0.226766
0.227104
0.155192
0.155456
0.155753
0.156036
0.156298
0.156543
0.15677
0.156981
0.157175
0.157353
0.157515
0.157662
0.157796
0.157916
0.158025
0.158122
0.158208
0.158282
0.158344
0.158393
0.152421
0.15334
0.15417
0.154974
0.15575
0.156491
0.157194
0.157858
0.158482
0.159065
0.159608
0.160111
0.160574
0.161
0.161388
0.161741
0.16206
0.162345
0.162597
0.162816
0.113176
0.113404
0.113666
0.113911
0.114135
0.114343
0.114535
0.114712
0.114873
0.115019
0.11515
0.115268
0.115372
0.115466
0.115548
0.115621
0.115683
0.115737
0.11578
0.115813
0.114672
0.115287
0.115836
0.116369
0.116885
0.11738
0.117852
0.118302
0.11873
0.119136
0.119519
0.119881
0.120222
0.120541
0.120839
0.121116
0.121372
0.121606
0.121818
0.122008
0.0882091
0.0883729
0.08857
0.0887567
0.08893
0.0890928
0.0892458
0.0893887
0.0895219
0.0896455
0.08976
0.089866
0.0899638
0.090054
0.0901368
0.0902123
0.0902806
0.0903415
0.0903948
0.0904401
0.0901702
0.0906212
0.0911347
0.0916342
0.09211
0.0925609
0.0929864
0.093387
0.0937629
0.0941145
0.0944423
0.0947467
0.0950284
0.0952881
0.0955261
0.0957428
0.0959385
0.0961133
0.0962671
0.0963998
0.0705962
0.0709712
0.071348
0.071696
0.0720163
0.0723126
0.0725859
0.0728367
0.0730656
0.0732737
0.0734617
0.0736303
0.0737802
0.0739119
0.0740257
0.0741219
0.0742006
0.0742616
0.0743047
0.0743299
0.0871978
0.0873647
0.0875252
0.0876892
0.0878547
0.0880206
0.0881867
0.0883535
0.0885209
0.0886891
0.0888581
0.0890279
0.0891983
0.0893689
0.0895395
0.0897096
0.0898784
0.0900456
0.0902106
0.0903729
0.0084572
0.133383
0.217818
0.265448
0.292822
0.30746
0.314784
0.318134
0.31939
0.320025
0.320465
0.321009
0.321748
0.322661
0.323682
0.324718
0.325695
0.326579
0.32741
0.328482
0.246266
0.274354
0.293526
0.304229
0.309544
0.312008
0.31309
0.313662
0.31425
0.315114
0.316325
0.31785
0.319601
0.321387
0.3231
0.324614
0.325835
0.326726
0.327294
0.327611
0.215128
0.246128
0.268941
0.286032
0.298338
0.306995
0.313039
0.3173
0.320398
0.322766
0.324679
0.326291
0.327671
0.328879
0.329877
0.330645
0.331142
0.331367
0.331305
0.330798
0.31565
0.328773
0.339104
0.346392
0.351254
0.354245
0.355863
0.356529
0.356579
0.356262
0.355751
0.355163
0.354573
0.354016
0.35349
0.352978
0.352477
0.352019
0.351596
0.351112
0.303081
0.319872
0.333754
0.344673
0.352846
0.358626
0.362427
0.364663
0.365713
0.365901
0.365493
0.364698
0.363677
0.362551
0.361415
0.360352
0.359443
0.358703
0.358133
0.357692
0.348258
0.358739
0.367561
0.374158
0.378784
0.381696
0.38319
0.383567
0.383103
0.382041
0.380583
0.378897
0.377123
0.375378
0.373761
0.372353
0.371218
0.370397
0.369922
0.369821
0.325865
0.337651
0.347946
0.356347
0.362799
0.367386
0.370318
0.371878
0.372367
0.372072
0.371241
0.37008
0.368757
0.367405
0.366132
0.365023
0.364138
0.363515
0.363179
0.36324
0.338216
0.346431
0.353612
0.359295
0.363478
0.3662
0.367611
0.36794
0.367458
0.366434
0.365105
0.363659
0.362229
0.360912
0.35977
0.358845
0.358163
0.357729
0.357533
0.357655
0.311724
0.319573
0.326841
0.333174
0.33832
0.342141
0.344628
0.3459
0.346173
0.345716
0.3448
0.343661
0.342476
0.341368
0.340409
0.339637
0.339059
0.338667
0.338515
0.338642
0.308085
0.313747
0.318934
0.323407
0.32703
0.329668
0.331262
0.331844
0.331545
0.330571
0.329168
0.327574
0.325987
0.324545
0.323326
0.322362
0.321653
0.321189
0.320918
0.320901
0.281133
0.285479
0.289782
0.293872
0.297533
0.300553
0.302761
0.30406
0.304454
0.304046
0.303022
0.301608
0.300028
0.29847
0.297062
0.29588
0.29495
0.29427
0.293845
0.293732
0.2686
0.271008
0.27328
0.275355
0.277155
0.278562
0.279458
0.279743
0.279368
0.278357
0.276812
0.274898
0.272813
0.270747
0.268855
0.267237
0.265944
0.264992
0.264379
0.264064
0.242065
0.242409
0.242793
0.24319
0.243532
0.243727
0.243667
0.243248
0.242387
0.241051
0.239267
0.23713
0.234782
0.232389
0.230113
0.228087
0.2264
0.225093
0.224178
0.223671
0.225947
0.223758
0.221402
0.218895
0.216261
0.213503
0.21062
0.207606
0.204457
0.201174
0.197783
0.194332
0.190899
0.18758
0.18448
0.181706
0.179355
0.177503
0.176174
0.175302
0.203767
0.197748
0.191673
0.18552
0.179324
0.173112
0.166919
0.160792
0.15479
0.148979
0.143429
0.138203
0.13335
0.128892
0.124836
0.12119
0.118004
0.115378
0.113379
0.111915
0.195567
0.185834
0.175787
0.165348
0.154535
0.143372
0.131914
0.120264
0.108578
0.0970745
0.0860284
0.0757381
0.0664738
0.0584108
0.0515757
0.0458455
0.0410354
0.0370538
0.0339077
0.0314733
0.189936
0.17817
0.165557
0.151982
0.13738
0.121703
0.104922
0.0870605
0.0682311
0.0486807
0.028836
0.00931977
-0.00909215
-0.0255974
-0.0395675
-0.0507525
-0.0593498
-0.0658916
-0.0709822
-0.0753323
0.17927
0.165076
0.149335
0.13203
0.113077
0.0924068
0.069938
0.0456098
0.0194223
-0.00849608
-0.0378025
-0.0678599
-0.0977161
-0.126195
-0.152116
-0.174588
-0.193127
-0.207632
-0.218791
-0.229601
0.147108
0.123535
0.0979957
0.0706169
0.0413768
0.0102888
-0.0226387
-0.0573689
-0.0938052
-0.131733
-0.170731
-0.210073
-0.248675
-0.28516
-0.318017
-0.345777
-0.367363
-0.38286
-0.395097
-0.414372
0.273242
0.240268
0.204689
0.166307
0.124814
0.0799106
0.0312738
-0.0214393
-0.0785927
-0.140559
-0.207676
-0.280142
-0.357878
-0.440338
-0.526285
-0.61359
-0.699435
-0.781937
-0.863232
-0.958391
0.017011
0.0512739
0.0848324
0.119417
0.153871
0.190148
0.227616
0.267996
0.310368
0.355019
0.40124
0.448286
0.496676
0.547816
0.605335
0.67482
0.761321
0.865919
0.985848
1.10857
0.0189514
0.0561393
0.0933062
0.130216
0.167351
0.204536
0.241967
0.279756
0.318177
0.357896
0.399878
0.444367
0.492072
0.54356
0.599155
0.658994
0.723254
0.794549
0.879513
0.991992
0.0196943
0.0582788
0.0969501
0.135593
0.174935
0.214954
0.256009
0.298123
0.341529
0.386092
0.431975
0.479619
0.529254
0.58118
0.635476
0.691733
0.748865
0.805399
0.860438
0.912317
0.018813
0.0563313
0.0930831
0.129876
0.166352
0.202961
0.239629
0.276673
0.314272
0.352778
0.392345
0.433187
0.475309
0.518667
0.563179
0.608831
0.656642
0.708974
0.770682
0.841136
0.0179357
0.0541848
0.0893712
0.124724
0.1598
0.195026
0.230276
0.265732
0.301287
0.336972
0.372761
0.408591
0.444345
0.479659
0.514
0.546719
0.577472
0.605751
0.629368
0.647975
0.0156051
0.0470086
0.0781534
0.108962
0.139612
0.170017
0.200298
0.230462
0.260615
0.290741
0.320861
0.350839
0.380602
0.41005
0.439094
0.468417
0.499229
0.53286
0.568392
0.603362
0.0139387
0.0410465
0.0689559
0.0965408
0.124323
0.151864
0.179313
0.206462
0.23327
0.259584
0.285274
0.310187
0.334008
0.356497
0.377431
0.396493
0.412675
0.4259
0.436991
0.446049
0.0125316
0.0367014
0.0609224
0.0846661
0.108095
0.131203
0.153975
0.176427
0.19851
0.220215
0.241506
0.262341
0.282668
0.302446
0.321948
0.341359
0.361865
0.382795
0.402983
0.421197
0.0108558
0.0327784
0.0539395
0.0751123
0.0957711
0.116203
0.136194
0.155756
0.174731
0.193048
0.210594
0.227222
0.242797
0.257231
0.2703
0.281635
0.290979
0.298799
0.30528
0.310778
0.00876885
0.0272268
0.0448078
0.0623454
0.0794228
0.0962276
0.11268
0.128788
0.144503
0.159802
0.174652
0.189043
0.202967
0.216542
0.229627
0.243264
0.25751
0.27087
0.283488
0.29402
0.00752829
0.0227912
0.0380549
0.0530906
0.0680718
0.082743
0.0971456
0.11111
0.1246
0.137494
0.149715
0.161177
0.171817
0.181512
0.190158
0.197382
0.203448
0.208519
0.212625
0.216314
0.00648181
0.0187295
0.0313977
0.0437409
0.0560474
0.0680898
0.0799112
0.0914562
0.102718
0.113675
0.124311
0.134613
0.144633
0.154417
0.16411
0.174001
0.183616
0.192608
0.200909
0.207954
0.00591865
0.0172791
0.028499
0.039589
0.050404
0.0609979
0.0712588
0.0811795
0.0906864
0.099743
0.108296
0.116304
0.123705
0.130444
0.136276
0.141175
0.145386
0.148936
0.151829
0.154485
0.00448165
0.0138334
0.0227823
0.0318757
0.0406781
0.0493932
0.0578794
0.0661841
0.0742729
0.0821633
0.0898145
0.0972587
0.104509
0.111628
0.11884
0.125952
0.132781
0.139101
0.145211
0.149117
0.00398962
0.012591
0.020706
0.0289167
0.0369262
0.0447594
0.0523868
0.0597553
0.0668305
0.0735612
0.0799071
0.0858037
0.0911742
0.0958676
0.0998626
0.103261
0.106187
0.108684
0.110648
0.112716
0.00339546
0.00995318
0.0167166
0.0233101
0.0299427
0.0364478
0.0428861
0.0492072
0.0554223
0.0615145
0.0674924
0.073342
0.0790512
0.0846885
0.0902305
0.0955338
0.100499
0.105016
0.109168
0.112475
0.00336445
0.00979732
0.0162108
0.022483
0.0286203
0.0345894
0.0403582
0.0459078
0.0512113
0.0562642
0.0610318
0.0654851
0.0695795
0.0732964
0.0766233
0.0795873
0.082165
0.0843545
0.0861553
0.0878689
0.00291143
0.00847038
0.0140486
0.0195697
0.0249314
0.0301658
0.0352017
0.0400476
0.044675
0.0490888
0.0533004
0.057356
0.0613791
0.065436
0.0695247
0.0735775
0.0775358
0.0813339
0.0851448
0.0878951
0.00289816
0.00882845
0.0145939
0.0202621
0.025745
0.0310222
0.0360407
0.04076
0.0451355
0.0491006
0.0526032
0.055599
0.0580837
0.0601162
0.0618119
0.0632865
0.0646576
0.0660799
0.0674585
0.0696073
0.00237166
0.0070671
0.0118244
0.016594
0.0214159
0.0262646
0.0311638
0.0361101
0.04111
0.0461636
0.0512624
0.0563899
0.0614731
0.0663975
0.0710469
0.0753206
0.0791557
0.0823275
0.085087
0.0866183
0.00328384
0.0080653
0.0103369
0.0107403
0.00820506
0.00345797
-0.00417369
-0.0142159
-0.0273638
-0.042987
-0.0610066
-0.0810343
-0.10314
-0.12874
-0.158032
-0.193576
-0.235125
-0.228469
-0.172069
-0.596707
0.00336753
0.00811072
0.0110559
0.0122017
0.0111864
0.00817339
0.00281465
-0.00456916
-0.0143981
-0.0259709
-0.0390604
-0.0530745
-0.0678801
-0.0840599
-0.100998
-0.118287
-0.128564
-0.121742
-0.0971913
0.023546
0.00349991
0.00861401
0.0124676
0.0145876
0.0151528
0.0139343
0.0108598
0.00620325
-0.000184558
-0.00775554
-0.0159844
-0.0245328
-0.032885
-0.0407543
-0.0461367
-0.0445592
-0.0265099
0.00988392
0.0624361
0.129876
0.00377995
0.00966294
0.0145879
0.0179393
0.0200609
0.0206852
0.0198172
0.0177976
0.0146501
0.0108197
0.00701753
0.00332919
0.0006361
-0.000263135
0.00301939
0.0131552
0.0339282
0.0725888
0.144544
0.258896
0.00427599
0.0112907
0.0174919
0.0222224
0.0258898
0.0283287
0.0295649
0.0299842
0.0297867
0.0292833
0.0291471
0.0294977
0.0316225
0.0365839
0.0471067
0.0665457
0.0974043
0.141006
0.196925
0.25051
0.00492371
0.013285
0.0209085
0.0271538
0.0324252
0.0366877
0.039954
0.0426205
0.0450473
0.0473927
0.0502841
0.0539385
0.0597204
0.0687197
0.0825616
0.102498
0.131234
0.17305
0.229849
0.302409
0.00556109
0.0152511
0.024344
0.0322181
0.0392178
0.0454032
0.0507509
0.0555933
0.0603041
0.0649563
0.0702637
0.0766177
0.0852565
0.0972002
0.114178
0.137301
0.166608
0.201589
0.241825
0.284888
0.00612934
0.0170419
0.0275481
0.0370633
0.0458244
0.0539859
0.0614773
0.0685081
0.0753604
0.0820328
0.0892102
0.0973772
0.107697
0.120873
0.137301
0.157571
0.183095
0.215474
0.255075
0.30445
0.00669602
0.0188511
0.0306946
0.0417674
0.0521702
0.0621973
0.0717226
0.0808115
0.0896811
0.0983362
0.107325
0.116962
0.128218
0.141939
0.158676
0.178597
0.200872
0.225275
0.2524
0.284693
0.00742137
0.0210827
0.034342
0.0468979
0.0587499
0.0703616
0.0815918
0.0924395
0.10306
0.113512
0.124138
0.135086
0.146868
0.159783
0.173898
0.18993
0.20871
0.230729
0.25683
0.287113
0.00833545
0.0238004
0.0386923
0.0528438
0.0661217
0.079089
0.0916359
0.103857
0.115921
0.127959
0.14007
0.152123
0.164326
0.177121
0.190512
0.204474
0.218757
0.233443
0.248399
0.267122
0.00923611
0.0265172
0.0431417
0.0591162
0.0740736
0.0885534
0.102399
0.115785
0.128916
0.142073
0.155361
0.168505
0.181078
0.192957
0.204014
0.214766
0.22564
0.236407
0.248033
0.26014
0.00998569
0.0288177
0.0470347
0.064863
0.081721
0.0980516
0.113584
0.128419
0.142649
0.156596
0.170414
0.184015
0.19716
0.209759
0.220956
0.229877
0.23597
0.238704
0.239272
0.240862
0.0106093
0.0307651
0.0503626
0.0698309
0.0885286
0.106785
0.124226
0.140806
0.156452
0.171456
0.185914
0.199728
0.21253
0.224246
0.234293
0.241952
0.246286
0.24625
0.241301
0.231974
0.0113628
0.0330444
0.0540246
0.074939
0.0952183
0.115112
0.134234
0.15248
0.169662
0.185954
0.201353
0.215734
0.228694
0.240186
0.249553
0.255829
0.257994
0.253664
0.241499
0.22152
0.0124734
0.0362938
0.0590964
0.0816486
0.103477
0.124724
0.145066
0.164558
0.18315
0.201013
0.217925
0.233272
0.245988
0.255819
0.262825
0.267404
0.268869
0.264543
0.250407
0.223042
0.0138025
0.0402797
0.0655701
0.0903939
0.114266
0.137224
0.158919
0.179566
0.199276
0.218488
0.23726
0.255145
0.27057
0.282346
0.289108
0.289432
0.282994
0.270368
0.251382
0.221486
0.0149211
0.0439489
0.0722347
0.0998525
0.126467
0.151981
0.176112
0.199007
0.220801
0.24195
0.262742
0.283353
0.302582
0.318728
0.329016
0.330017
0.319848
0.298398
0.264171
0.216324
0.0155237
0.046102
0.0776011
0.107497
0.137473
0.165949
0.194077
0.220682
0.246664
0.271825
0.296291
0.32116
0.346842
0.371725
0.391536
0.40063
0.393611
0.362441
0.302438
0.212649
0.016203
0.0474228
0.0809366
0.111421
0.144756
0.174893
0.208086
0.238904
0.271286
0.303213
0.332968
0.362808
0.394781
0.42899
0.46388
0.49538
0.514809
0.506924
0.459539
0.366903
0.0240418
0.0581943
0.0836491
0.0963983
0.101809
0.096767
0.0853141
0.0648134
0.0382245
0.00272193
-0.0388484
-0.0898777
-0.149357
-0.218265
-0.299232
-0.391231
-0.478334
-0.549828
-0.568391
-0.550888
0.0223324
0.0538817
0.077403
0.0890334
0.0934465
0.088011
0.07577
0.0550889
0.0274913
-0.00823957
-0.0509323
-0.102358
-0.162294
-0.230764
-0.310807
-0.400853
-0.486396
-0.557954
-0.581025
-0.574801
0.0206408
0.0495273
0.0710566
0.0814084
0.0847888
0.0788254
0.0659305
0.0450314
0.0167317
-0.0190927
-0.0626442
-0.114309
-0.174517
-0.242229
-0.321372
-0.410099
-0.49406
-0.567523
-0.596062
-0.598821
0.0189603
0.0452473
0.0647321
0.0737513
0.0760368
0.0694697
0.0560042
0.0348727
0.00614843
-0.0296568
-0.073838
-0.125667
-0.185967
-0.253138
-0.332185
-0.419968
-0.502231
-0.578259
-0.615072
-0.624965
0.0173138
0.0410944
0.058537
0.0662142
0.0673862
0.0601617
0.0462059
0.0248141
-0.00405456
-0.0397906
-0.0843302
-0.13613
-0.196225
-0.263439
-0.343264
-0.430737
-0.511931
-0.59065
-0.638022
-0.653877
0.0157184
0.0371009
0.0525582
0.0589257
0.0590125
0.0511235
0.036744
0.0151057
-0.0136665
-0.0493371
-0.0939085
-0.145273
-0.204767
-0.2724
-0.353227
-0.441158
-0.523104
-0.606389
-0.666354
-0.684001
0.0141956
0.0333204
0.0468867
0.0520063
0.0510597
0.0425426
0.0277836
0.00599091
-0.0225433
-0.0581773
-0.102409
-0.152871
-0.211474
-0.279387
-0.360574
-0.448953
-0.53338
-0.626167
-0.699275
-0.713333
0.0127839
0.0298168
0.0416083
0.0455592
0.0436521
0.0345765
0.019487
-0.0023144
-0.0305975
-0.0661636
-0.10965
-0.158949
-0.216689
-0.284519
-0.364952
-0.452518
-0.539339
-0.645611
-0.729997
-0.737135
0.0114746
0.0265536
0.0367019
0.0395755
0.0368088
0.0272752
0.0119366
-0.00973751
-0.0378403
-0.0731414
-0.115501
-0.163675
-0.220771
-0.288183
-0.367034
-0.452535
-0.539885
-0.657114
-0.743942
-0.7503
0.0102378
0.0234668
0.0321223
0.0340247
0.0305257
0.0206626
0.00519401
-0.0162697
-0.04422
-0.0788878
-0.119907
-0.167154
-0.223718
-0.290344
-0.367253
-0.450354
-0.536866
-0.657442
-0.733476
-0.750834
0.00908044
0.0205927
0.0279197
0.0289687
0.0248744
0.0148125
-0.000667127
-0.0218901
-0.0495769
-0.083222
-0.122938
-0.169406
-0.225282
-0.29066
-0.365418
-0.446067
-0.53107
-0.651762
-0.712567
-0.740818
0.00805067
0.018049
0.0242142
0.0245305
0.019979
0.00983058
-0.00557272
-0.0265266
-0.0537076
-0.0861054
-0.124726
-0.170401
-0.225241
-0.288933
-0.361369
-0.439263
-0.521746
-0.645412
-0.699596
-0.726254
0.00716968
0.015878
0.0210389
0.0207432
0.0158778
0.00575312
-0.0094859
-0.0300619
-0.0564266
-0.0875465
-0.125228
-0.169959
-0.223437
-0.2852
-0.355255
-0.430321
-0.509665
-0.636442
-0.689676
-0.714106
0.0064078
0.0140001
0.0182941
0.0175118
0.0124788
0.00250287
-0.012427
-0.032397
-0.0576437
-0.0875111
-0.124155
-0.167653
-0.219484
-0.279184
-0.346863
-0.419664
-0.497495
-0.626048
-0.670161
-0.706873
0.00572531
0.0123214
0.0158766
0.0147454
0.0096867
-6.52364e-06
-0.0144143
-0.0334793
-0.0573773
-0.0859297
-0.121189
-0.163004
-0.212712
-0.269961
-0.335188
-0.406788
-0.486874
-0.619777
-0.645424
-0.707056
0.00511755
0.0108463
0.0138095
0.0124832
0.00752984
-0.00175419
-0.01541
-0.0332967
-0.0556962
-0.0827547
-0.116193
-0.155783
-0.202598
-0.256615
-0.318977
-0.390146
-0.477096
-0.619888
-0.625052
-0.719889
0.00461658
0.00967737
0.0122244
0.0108785
0.00614736
-0.00260322
-0.0153215
-0.0318451
-0.0526444
-0.0779396
-0.109118
-0.145908
-0.189032
-0.238881
-0.297357
-0.367383
-0.465071
-0.624732
-0.610947
-0.745582
0.00422299
0.00889426
0.0111987
0.0100423
0.00563381
-0.00242682
-0.0140907
-0.0291465
-0.0482739
-0.0715007
-0.0999626
-0.133335
-0.172086
-0.216965
-0.270131
-0.33655
-0.442087
-0.621753
-0.60717
-0.78587
0.00385231
0.00845488
0.0106456
0.00989653
0.00589963
-0.00127112
-0.0118153
-0.0253421
-0.0427603
-0.063708
-0.08905
-0.118439
-0.152219
-0.191549
-0.238303
-0.297609
-0.398489
-0.572903
-0.605466
-1.01416
0.00346458
0.00820564
0.0104273
0.0101262
0.0067176
0.000525571
-0.00877908
-0.0208396
-0.0364502
-0.0551752
-0.0772234
-0.10251
-0.131072
-0.164636
-0.204285
-0.253951
-0.333776
-0.452072
-0.499411
-1.50104
0.00831744
0.00768221
0.0133261
0.0106155
0.0131542
0.0113899
0.0117979
0.0111388
0.0102639
0.0101139
0.00834263
0.00783418
0.00545552
0.00366161
0.00023874
-0.00262037
-0.00670146
-0.00927609
-0.0114906
-0.0118098
0.0215074
0.0235111
0.0376259
0.0328421
0.0388111
0.0344613
0.0361542
0.0333774
0.0322516
0.0304587
0.026733
0.0241155
0.0177894
0.0115546
0.00171312
-0.00821377
-0.0200709
-0.0296099
-0.0370919
-0.0393014
0.0283512
0.0364904
0.056833
0.052313
0.06066
0.054594
0.0574166
0.0523274
0.0514529
0.0471443
0.0422406
0.0365361
0.0268228
0.0153338
-0.000632709
-0.0182617
-0.0378151
-0.0549681
-0.0674945
-0.0708468
0.0329895
0.0475268
0.0728551
0.069514
0.0797804
0.0726544
0.0763394
0.0690923
0.0685203
0.06139
0.0557562
0.0463925
0.0337477
0.0163991
-0.00557131
-0.0315186
-0.0591222
-0.0844964
-0.102701
-0.107711
0.0347912
0.0559734
0.0851164
0.0836512
0.0954716
0.0877431
0.0920096
0.082775
0.0823481
0.0722938
0.0660605
0.0526138
0.0373615
0.0137325
-0.0141089
-0.0488971
-0.0849375
-0.118975
-0.143062
-0.149929
0.0359615
0.0629555
0.0947718
0.0955413
0.108468
0.100592
0.105003
0.0941654
0.0935114
0.0806676
0.0737255
0.0560613
0.0384402
0.00830322
-0.0252954
-0.0693984
-0.114287
-0.157522
-0.187902
-0.197205
0.0359565
0.0680396
0.101673
0.104799
0.118464
0.110684
0.114908
0.102723
0.101429
0.0859443
0.0780608
0.0560929
0.0363961
-0.000431297
-0.0396757
-0.0933687
-0.147271
-0.200103
-0.236839
-0.248988
0.0359082
0.0720033
0.106615
0.112171
0.126088
0.118661
0.122299
0.10905
0.106618
0.0887957
0.079518
0.0534116
0.0317103
-0.0118945
-0.0563611
-0.119863
-0.182729
-0.245336
-0.288287
-0.303618
0.0353926
0.0746166
0.109705
0.117466
0.131347
0.124325
0.127107
0.112901
0.108931
0.0889822
0.0777816
0.0478831
0.0238843
-0.026321
-0.0752916
-0.148622
-0.220152
-0.292385
-0.341054
-0.359527
0.034999
0.0763756
0.111529
0.121289
0.134801
0.128249
0.129908
0.11484
0.108978
0.0870934
0.0734309
0.040215
0.0133962
-0.0425477
-0.0961258
-0.178401
-0.258059
-0.339259
-0.392712
-0.413817
0.0344399
0.0772075
0.112218
0.123581
0.136601
0.130421
0.130835
0.114891
0.106925
0.0831882
0.0666371
0.0305538
0.000382137
-0.0606323
-0.118244
-0.208574
-0.295409
-0.384472
-0.441318
-0.463871
0.0339881
0.0774172
0.112148
0.124764
0.13717
0.131303
0.130382
0.113584
0.103383
0.0778753
0.0581327
0.0196241
-0.0143409
-0.0792355
-0.140537
-0.23831
-0.330622
-0.425817
-0.48414
-0.506247
0.0334397
0.0769863
0.111364
0.12483
0.136624
0.130942
0.128697
0.11105
0.0985948
0.0713675
0.0483209
0.00773338
-0.0303567
-0.0979377
-0.161891
-0.266863
-0.362651
-0.461693
-0.519106
-0.538192
0.0328818
0.0760862
0.110035
0.124027
0.135198
0.129648
0.126104
0.107682
0.0930218
0.0641641
0.0378814
-0.00454129
-0.0468709
-0.116116
-0.18372
-0.291191
-0.390162
-0.490417
-0.544331
-0.557586
0.032167
0.0746934
0.108099
0.122331
0.132897
0.127419
0.122653
0.103527
0.0867912
0.0563956
0.0270978
-0.0170089
-0.0633854
-0.133538
-0.204669
-0.312514
-0.41282
-0.511406
-0.559424
-0.564533
0.0313166