x,y,z,U_0,U_1,U_2
0,0,0,0.300019,-0.0012766,-9.94231e-14
0,0.1,0,0.300015,-0.00101525,-7.90688e-14
0,0.2,0,0.300011,-0.000753896,-5.87145e-14
0,0.3,0,0.300007,-0.000492546,-3.83601e-14
0,0.4,0,0.300003,-0.000231195,-1.80058e-14
0,0.5,0,0.3,-1.28397e-19,-1.59004e-29
0,0.6,0,0.3,-1.54077e-19,-1.90805e-29
0,0.7,0,0.3,-1.79756e-19,-2.22606e-29
0,0.8,0,0.3,-2.05435e-19,-2.54406e-29
0,0.9,0,0.3,-2.31115e-19,-2.86207e-29
0,1,0,0.3,-2.46184e-19,-4.15612e-29
0,1.1,0,0.3,-2.70802e-19,-4.57174e-29
0,1.2,0,0.3,-2.95421e-19,-4.98735e-29
0,1.3,0,0.3,-3.20039e-19,-5.40296e-29
0,1.4,0,0.3,-3.44657e-19,-5.81857e-29
0,1.5,0,0.3,-3.49231e-19,-6.4451e-29
0,1.6,0,0.3,-3.72513e-19,-6.87477e-29
0,1.7,0,0.3,-3.95795e-19,-7.30444e-29
0,1.8,0,0.3,-4.19077e-19,-7.73412e-29
0,1.9,0,0.3,-4.42359e-19,-8.16379e-29
0,2,0,0.3,-4.33034e-19,-8.72266e-29
0,2.1,0,0.3,-4.54686e-19,-9.15879e-29
0,2.2,0,0.3,-4.76338e-19,-9.59492e-29
0,2.3,0,0.3,-4.9799e-19,-1.00311e-28
0,2.4,0,0.3,-5.19641e-19,-1.04672e-28
0,2.5,0,0.3,-4.92614e-19,-1.15534e-28
0,2.6,0,0.3,-5.12318e-19,-1.20155e-28
0,2.7,0,0.3,-5.32023e-19,-1.24777e-28
0,2.8,0,0.3,-5.51727e-19,-1.29398e-28
0,2.9,0,0.3,-5.71432e-19,-1.34019e-28
0,3,0,0.3,-5.23381e-19,-1.44499e-28
0,3.1,0,0.3,-5.40827e-19,-1.49315e-28
0,3.2,0,0.3,-5.58273e-19,-1.54132e-28
0,3.3,0,0.3,-5.75719e-19,-1.58949e-28
0,3.4,0,0.3,-5.93165e-19,-1.63765e-28
0,3.5,0,0.3,-5.22454e-19,-1.61747e-28
0,3.6,0,0.3,-5.37381e-19,-1.66369e-28
0,3.7,0,0.3,-5.52308e-19,-1.7099e-28
0,3.8,0,0.3,-5.67235e-19,-1.75611e-28
0,3.9,0,0.3,-5.82163e-19,-1.80233e-28
0,4,0,0.3,-4.87644e-19,-1.66629e-28
0,4.1,0,0.3,-4.99835e-19,-1.70795e-28
0,4.2,0,0.3,-5.12026e-19,-1.74961e-28
0,4.3,0,0.3,-5.24217e-19,-1.79126e-28
0,4.4,0,0.3,-4.08885e-19,-1.66108e-28
0,4.5,0,0.3,-4.18177e-19,-1.69884e-28
0,4.6,0,0.3,-4.2747e-19,-1.73659e-28
0,4.7,0,0.3,-4.36763e-19,-1.77434e-28
0,4.8,0,0.3,-4.46056e-19,-1.81209e-28
0,4.9,0,0.3,-3.06873e-19,-1.69037e-28
0,5,0,0.3,-3.13136e-19,-1.72487e-28
0,5.1,0,0.3,-3.19399e-19,-1.75937e-28
0,5.2,0,0.3,-3.25661e-19,-1.79387e-28
0,5.3,0,0.3,-3.31924e-19,-1.82836e-28
0,5.4,0,0.3,-1.697e-19,-1.61682e-28
0,5.5,0,0.3,-1.72843e-19,-1.64676e-28
0,5.6,0,0.3,-1.75985e-19,-1.67671e-28
0,5.7,0,0.3,-1.79128e-19,-1.70665e-28
0,5.8,0,0.3,-1.82271e-19,-1.73659e-28
0,5.9,0,0.3,9.20592e-22,-1.61292e-28
0,6,0,0.3,9.36195e-22,-1.64026e-28
0,6.1,0,0.3,9.51798e-22,-1.66759e-28
0,6.2,0,0.3,9.67402e-22,-1.69493e-28
0,6.3,0,0.3,9.83005e-22,-1.72227e-28
0,6.4,0,0.3,2.02957e-19,-1.74961e-28
0,6.5,0,0.3,2.06128e-19,-1.77694e-28
0,6.6,0,0.3,2.09299e-19,-1.80428e-28
0,6.7,0,0.3,2.12471e-19,-1.83162e-28
0,6.8,0,0.3,2.15642e-19,-1.85896e-28
0,6.9,0,0.3,4.33775e-19,-1.79647e-28
0,7,0,0.3,4.40061e-19,-1.82251e-28
0,7.1,0,0.3,4.46348e-19,-1.84854e-28
0,7.2,0,0.3,4.52634e-19,-1.87458e-28
0,7.3,0,0.3,4.58921e-19,-1.90061e-28
0,7.4,0,0.3,6.89108e-19,-1.73398e-28
0,7.5,0,0.3,6.9842e-19,-1.75742e-28
0,7.6,0,0.3,7.07732e-19,-1.78085e-28
0,7.7,0,0.3,7.17045e-19,-1.80428e-28
0,7.8,0,0.3,7.26357e-19,-1.82771e-28
0,7.9,0,0.3,9.63925e-19,-1.54262e-28
0,8,0,0.3,9.76127e-19,-1.56215e-28
0,8.1,0,0.3,9.88328e-19,-1.58167e-28
0,8.2,0,0.3,1.00053e-18,-1.6012e-28
0,8.3,0,0.3,1.01273e-18,-1.62073e-28
0,8.4,0,0.3,1.25262e-18,-1.36688e-28
0,8.5,0,0.3,1.26753e-18,-1.38315e-28
0,8.6,0,0.3,1.28245e-18,-1.39942e-28
0,8.7,0,0.3,1.29736e-18,-1.4157e-28
0,8.8,0,0.3,1.53204e-18,-1.20285e-28
0,8.9,0,0.3,1.54945e-18,-1.21652e-28
0,9,0,0.3,1.56686e-18,-1.23019e-28
0,9.1,0,0.3,1.58427e-18,-1.24386e-28
0,9.2,0,0.3,1.60168e-18,-1.25753e-28
0,9.3,0,0.3,1.82826e-18,-1.0896e-28
0,9.4,0,0.3,1.84792e-18,-1.10131e-28
0,9.5,0,0.3,1.86758e-18,-1.11303e-28
0,9.6,0,0.3,1.88724e-18,-1.12475e-28
0,9.7,0,0.3,1.9069e-18,-1.13646e-28
0,9.8,0,0.3,2.11918e-18,-1.14818e-28
0,9.9,0,0.3,2.1408e-18,-1.15989e-28
0,10,0,0.3,2.16243e-18,-1.17161e-28
0,10.1,0,0.3,2.18405e-18,-1.18333e-28
0,10.2,0,0.3,2.20568e-18,-1.19504e-28
0,10.3,0,0.3,2.39663e-18,-1.00556e-28
0,10.4,0,0.3,2.41989e-18,-1.01532e-28
0,10.5,0,0.3,2.44316e-18,-1.02509e-28
0,10.6,0,0.3,2.46643e-18,-1.03485e-28
0,10.7,0,0.3,2.4897e-18,-1.04461e-28
0,10.8,0,0.3,2.65702e-18,-5.62382e-29
0,10.9,0,0.3,2.68162e-18,-5.67589e-29
0,11,0,0.3,2.70622e-18,-5.72796e-29
0,11.1,0,0.3,2.73082e-18,-5.78003e-29
0,11.2,0,0.3,2.75542e-18,-5.83211e-29
0,11.3,0,0.3,2.90342e-18,-2.20541e-29
0,11.4,0,0.3,2.92911e-18,-2.22493e-29
0,11.5,0,0.3,2.95481e-18,-2.24445e-29
0,11.6,0,0.3,2.9805e-18,-2.26396e-29
0,11.7,0,0.3,3.00619e-18,-2.28348e-29
0,11.8,0,0.3,3.03189e-18,-2.303e-29
0,11.9,0,0.3,3.05758e-18,-2.32251e-29
0,12,0,0.3,3.08328e-18,-2.34203e-29
0,12.1,0,0.3,3.10897e-18,-2.36155e-29
0,12.2,0,0.3,3.13466e-18,-2.38107e-29
0,12.3,0,0.299997,0.000228907,-4.50144e-15
0,12.4,0,0.299993,0.000487672,-9.59003e-15
0,12.5,0,0.299989,0.000746437,-1.46786e-14
0,12.6,0,0.299985,0.0010052,-1.97672e-14
0,12.7,0,0.299981,0.00126397,-2.48558e-14
0.1,0,0,0.300016,-0.00204658,-1.19539e-13
0.1,0.1,0,0.300016,-0.00203618,-1.44666e-13
0.1,0.2,0,0.300012,-0.00177483,-1.24311e-13
0.1,0.3,0,0.300008,-0.00151348,-1.03957e-13
0.1,0.4,0,0.300004,-0.00125213,-8.36028e-14
0.1,0.5,0,0.3,-0.0010144,-7.13612e-14
0.1,0.6,0,0.299995,-0.000986312,-1.22143e-13
0.1,0.7,0,0.299995,-0.000986312,-1.22143e-13
0.1,0.8,0,0.299995,-0.000986312,-1.22143e-13
0.1,0.9,0,0.299995,-0.000986312,-1.22143e-13
0.1,1,0,0.299992,-0.000977134,-1.30586e-13
0.1,1.1,0,0.299983,-0.000945559,-1.59631e-13
0.1,1.2,0,0.299983,-0.000945559,-1.59631e-13
0.1,1.3,0,0.299983,-0.000945559,-1.59631e-13
0.1,1.4,0,0.299983,-0.000945559,-1.59631e-13
0.1,1.5,0,0.299979,-0.000927595,-1.61521e-13
0.1,1.6,0,0.299972,-0.000894232,-1.65032e-13
0.1,1.7,0,0.299972,-0.000894232,-1.65032e-13
0.1,1.8,0,0.299972,-0.000894232,-1.65032e-13
0.1,1.9,0,0.299972,-0.000894232,-1.65032e-13
0.1,2,0,0.299968,-0.000864648,-1.66204e-13
0.1,2.1,0,0.299964,-0.000831613,-1.67513e-13
0.1,2.2,0,0.299964,-0.000831613,-1.67513e-13
0.1,2.3,0,0.299964,-0.000831613,-1.67513e-13
0.1,2.4,0,0.299964,-0.000831613,-1.67513e-13
0.1,2.5,0,0.29996,-0.000787447,-1.73411e-13
0.1,2.6,0,0.299957,-0.000756825,-1.775e-13
0.1,2.7,0,0.299957,-0.000756825,-1.775e-13
0.1,2.8,0,0.299957,-0.000756825,-1.775e-13
0.1,2.9,0,0.299957,-0.000756825,-1.775e-13
0.1,3,0,0.299952,-0.000695351,-1.82815e-13
0.1,3.1,0,0.299951,-0.000670079,-1.85e-13
0.1,3.2,0,0.299951,-0.000670079,-1.85e-13
0.1,3.3,0,0.299951,-0.000670079,-1.85e-13
0.1,3.4,0,0.299951,-0.000670079,-1.85e-13
0.1,3.5,0,0.299946,-0.000590094,-1.78799e-13
0.1,3.6,0,0.299946,-0.000573335,-1.775e-13
0.1,3.7,0,0.299946,-0.000573335,-1.775e-13
0.1,3.8,0,0.299946,-0.000573335,-1.775e-13
0.1,3.9,0,0.299946,-0.000573335,-1.775e-13
0.1,4,0,0.299942,-0.000474036,-1.60965e-13
0.1,4.1,0,0.299942,-0.000468244,-1.6e-13
0.1,4.2,0,0.299942,-0.000468244,-1.6e-13
0.1,4.3,0,0.299942,-0.000468244,-1.6e-13
0.1,4.4,0,0.299942,-0.000463861,-1.59409e-13
0.1,4.5,0,0.299939,-0.000356925,-1.45e-13
0.1,4.6,0,0.299939,-0.000356925,-1.45e-13
0.1,4.7,0,0.299939,-0.000356925,-1.45e-13
0.1,4.8,0,0.299939,-0.000356925,-1.45e-13
0.1,4.9,0,0.299938,-0.000338597,-1.43031e-13
0.1,5,0,0.299936,-0.000240543,-1.325e-13
0.1,5.1,0,0.299936,-0.000240543,-1.325e-13
0.1,5.2,0,0.299936,-0.000240543,-1.325e-13
0.1,5.3,0,0.299936,-0.000240543,-1.325e-13
0.1,5.4,0,0.299936,-0.000207516,-1.27677e-13
0.1,5.5,0,0.299935,-0.000120703,-1.15e-13
0.1,5.6,0,0.299935,-0.000120703,-1.15e-13
0.1,5.7,0,0.299935,-0.000120703,-1.15e-13
0.1,5.8,0,0.299935,-0.000120703,-1.15e-13
0.1,5.9,0,0.299935,-7.29461e-05,-1.11063e-13
0.1,6,0,0.299934,5.993e-07,-1.05e-13
0.1,6.1,0,0.299934,5.993e-07,-1.05e-13
0.1,6.2,0,0.299934,5.993e-07,-1.05e-13
0.1,6.3,0,0.299934,5.993e-07,-1.05e-13
0.1,6.4,0,0.299934,6.2632e-05,-1.05e-13
0.1,6.5,0,0.299935,0.000121802,-1.05e-13
0.1,6.6,0,0.299935,0.000121802,-1.05e-13
0.1,6.7,0,0.299935,0.000121802,-1.05e-13
0.1,6.8,0,0.299935,0.000121802,-1.05e-13
0.1,6.9,0,0.299936,0.000197177,-1.0185e-13
0.1,7,0,0.299936,0.000241459,-1e-13
0.1,7.1,0,0.299936,0.000241459,-1e-13
0.1,7.2,0,0.299936,0.000241459,-1e-13
0.1,7.3,0,0.299936,0.000241459,-1e-13
0.1,7.4,0,0.299938,0.00032839,-9.25197e-14
0.1,7.5,0,0.299938,0.000357672,-9e-14
0.1,7.6,0,0.299938,0.000357672,-9e-14
0.1,7.7,0,0.299938,0.000357672,-9e-14
0.1,7.8,0,0.299938,0.000357672,-9e-14
0.1,7.9,0,0.299942,0.000453792,-7.70079e-14
0.1,8,0,0.299942,0.000468647,-7.5e-14
0.1,8.1,0,0.299942,0.000468647,-7.5e-14
0.1,8.2,0,0.299942,0.000468647,-7.5e-14
0.1,8.3,0,0.299942,0.000468647,-7.5e-14
0.1,8.4,0,0.299946,0.000571116,-6.26969e-14
0.1,8.5,0,0.299946,0.000572756,-6.25e-14
0.1,8.6,0,0.299946,0.000572756,-6.25e-14
0.1,8.7,0,0.299946,0.000572756,-6.25e-14
0.1,8.8,0,0.299947,0.000580309,-6.17126e-14
0.1,8.9,0,0.299951,0.000668679,-5.25e-14
0.1,9,0,0.299951,0.000668679,-5.25e-14
0.1,9.1,0,0.299951,0.000668679,-5.25e-14
0.1,9.2,0,0.299951,0.000668679,-5.25e-14
0.1,9.3,0,0.299952,0.000685684,-5.10236e-14
0.1,9.4,0,0.299957,0.000755066,-4.5e-14
0.1,9.5,0,0.299957,0.000755066,-4.5e-14
0.1,9.6,0,0.299957,0.000755066,-4.5e-14
0.1,9.7,0,0.299957,0.000755066,-4.5e-14
0.1,9.8,0,0.299959,0.000778843,-4.5e-14
0.1,9.9,0,0.299963,0.00083056,-4.5e-14
0.1,10,0,0.299963,0.00083056,-4.5e-14
0.1,10.1,0,0.299963,0.00083056,-4.5e-14
0.1,10.2,0,0.299963,0.00083056,-4.5e-14
0.1,10.3,0,0.299966,0.000857904,-4.17508e-14
0.1,10.4,0,0.29997,0.000893701,-3.74973e-14
0.1,10.5,0,0.29997,0.000893701,-3.74973e-14
0.1,10.6,0,0.29997,0.000893701,-3.74973e-14
0.1,10.7,0,0.29997,0.000893701,-3.74973e-14
0.1,10.8,0,0.299974,0.000921937,-2.78533e-14
0.1,10.9,0,0.299977,0.000944929,-2.00003e-14
0.1,11,0,0.299977,0.000944929,-2.00003e-14
0.1,11.1,0,0.299977,0.000944929,-2.00003e-14
0.1,11.2,0,0.299977,0.000944929,-2.00003e-14
0.1,11.3,0,0.299982,0.000973,-1.16314e-14
0.1,11.4,0,0.299984,0.000986871,-7.49619e-15
0.1,11.5,0,0.299984,0.000986871,-7.49619e-15
0.1,11.6,0,0.299984,0.000986871,-7.49619e-15
0.1,11.7,0,0.299984,0.000986871,-7.49619e-15
0.1,11.8,0,0.299984,0.000986871,-7.49619e-15
0.1,11.9,0,0.299984,0.000986871,-7.49619e-15
0.1,12,0,0.299984,0.000986871,-7.49619e-15
0.1,12.1,0,0.299984,0.000986871,-7.49619e-15
0.1,12.2,0,0.299991,0.00101549,-7.53852e-15
0.1,12.3,0,0.299989,0.0012469,-1.20159e-14
0.1,12.4,0,0.299985,0.00150566,-1.71045e-14
0.1,12.5,0,0.299981,0.00176443,-2.21931e-14
0.1,12.6,0,0.299977,0.00202319,-2.72817e-14
0.1,12.7,0,0.299981,0.002041,-2.98846e-14
0.2,0,0,0.300012,-0.00281656,-1.39654e-13
0.2,0.1,0,0.300012,-0.00280801,-1.65116e-13
0.2,0.2,0,0.300012,-0.00279576,-1.89909e-13
0.2,0.3,0,0.300008,-0.00253441,-1.69554e-13
0.2,0.4,0,0.300004,-0.00227306,-1.492e-13
0.2,0.5,0,0.3,-0.00203253,-1.35994e-13
0.2,0.6,0,0.299995,-0.00200027,-1.94306e-13
0.2,0.7,0,0.29999,-0.00197262,-2.44285e-13
0.2,0.8,0,0.29999,-0.00197262,-2.44285e-13
0.2,0.9,0,0.29999,-0.00197262,-2.44285e-13
0.2,1,0,0.299987,-0.00196397,-2.52242e-13
0.2,1.1,0,0.299975,-0.00192191,-2.90939e-13
0.2,1.2,0,0.299965,-0.00189112,-3.19262e-13
0.2,1.3,0,0.299965,-0.00189112,-3.19262e-13
0.2,1.4,0,0.299965,-0.00189112,-3.19262e-13
0.2,1.5,0,0.299962,-0.0018735,-3.21116e-13
0.2,1.6,0,0.299951,-0.00182061,-3.26681e-13
0.2,1.7,0,0.299944,-0.00178846,-3.30063e-13
0.2,1.8,0,0.299944,-0.00178846,-3.30063e-13
0.2,1.9,0,0.299944,-0.00178846,-3.30063e-13
0.2,2,0,0.29994,-0.00175888,-3.31236e-13
0.2,2.1,0,0.299932,-0.00169478,-3.33775e-13
0.2,2.2,0,0.299928,-0.00166323,-3.35026e-13
0.2,2.3,0,0.299928,-0.00166323,-3.35026e-13
0.2,2.4,0,0.299928,-0.00166323,-3.35026e-13
0.2,2.5,0,0.299924,-0.00161906,-3.40924e-13
0.2,2.6,0,0.299917,-0.00154251,-3.51147e-13
0.2,2.7,0,0.299914,-0.00151365,-3.55e-13
0.2,2.8,0,0.299914,-0.00151365,-3.55e-13
0.2,2.9,0,0.299914,-0.00151365,-3.55e-13
0.2,3,0,0.299909,-0.00145218,-3.60315e-13
0.2,3.1,0,0.299903,-0.00136338,-3.67992e-13
0.2,3.2,0,0.299901,-0.00134016,-3.7e-13
0.2,3.3,0,0.299901,-0.00134016,-3.7e-13
0.2,3.4,0,0.299901,-0.00134016,-3.7e-13
0.2,3.5,0,0.299897,-0.00126017,-3.63799e-13
0.2,3.6,0,0.299892,-0.00116114,-3.56122e-13
0.2,3.7,0,0.299891,-0.00114667,-3.55e-13
0.2,3.8,0,0.299891,-0.00114667,-3.55e-13
0.2,3.9,0,0.299891,-0.00114667,-3.55e-13
0.2,4,0,0.299888,-0.00104737,-3.38465e-13
0.2,4.1,0,0.299884,-0.000939797,-3.20551e-13
0.2,4.2,0,0.299884,-0.000936487,-3.2e-13
0.2,4.3,0,0.299884,-0.000936487,-3.2e-13
0.2,4.4,0,0.299884,-0.000932104,-3.19409e-13
0.2,4.5,0,0.299881,-0.000818157,-3.04055e-13
0.2,4.6,0,0.299878,-0.00071385,-2.9e-13
0.2,4.7,0,0.299878,-0.00071385,-2.9e-13
0.2,4.8,0,0.299878,-0.00071385,-2.9e-13
0.2,4.9,0,0.299877,-0.000695522,-2.88031e-13
0.2,5,0,0.299875,-0.000576391,-2.75236e-13
0.2,5.1,0,0.299873,-0.000481085,-2.65e-13
0.2,5.2,0,0.299873,-0.000481085,-2.65e-13
0.2,5.3,0,0.299873,-0.000481085,-2.65e-13
0.2,5.4,0,0.299872,-0.000448058,-2.60177e-13
0.2,5.5,0,0.299871,-0.000325388,-2.42264e-13
0.2,5.6,0,0.299869,-0.000241406,-2.3e-13
0.2,5.7,0,0.299869,-0.000241406,-2.3e-13
0.2,5.8,0,0.299869,-0.000241406,-2.3e-13
0.2,5.9,0,0.299869,-0.000193649,-2.26063e-13
0.2,6,0,0.299869,-6.94814e-05,-2.15827e-13
0.2,6.1,0,0.299868,1.1986e-06,-2.1e-13
0.2,6.2,0,0.299868,1.1986e-06,-2.1e-13
0.2,6.3,0,0.299868,1.1986e-06,-2.1e-13
0.2,6.4,0,0.299869,6.32313e-05,-2.1e-13
0.2,6.5,0,0.299869,0.000187297,-2.1e-13
0.2,6.6,0,0.299869,0.000243603,-2.1e-13
0.2,6.7,0,0.299869,0.000243603,-2.1e-13
0.2,6.8,0,0.299869,0.000243603,-2.1e-13
0.2,6.9,0,0.29987,0.000318978,-2.0685e-13
0.2,7,0,0.299872,0.000441463,-2.01732e-13
0.2,7.1,0,0.299872,0.000482919,-2e-13
0.2,7.2,0,0.299872,0.000482919,-2e-13
0.2,7.3,0,0.299872,0.000482919,-2e-13
0.2,7.4,0,0.299874,0.000569849,-1.9252e-13
0.2,7.5,0,0.299876,0.000688807,-1.82283e-13
0.2,7.6,0,0.299877,0.000715343,-1.8e-13
0.2,7.7,0,0.299877,0.000715343,-1.8e-13
0.2,7.8,0,0.299877,0.000715343,-1.8e-13
0.2,7.9,0,0.29988,0.000811463,-1.67008e-13
0.2,8,0,0.299884,0.00092506,-1.51654e-13
0.2,8.1,0,0.299884,0.000937293,-1.5e-13
0.2,8.2,0,0.299884,0.000937293,-1.5e-13
0.2,8.3,0,0.299884,0.000937293,-1.5e-13
0.2,8.4,0,0.299888,0.00103976,-1.37697e-13
0.2,8.5,0,0.299893,0.00114551,-1.25e-13
0.2,8.6,0,0.299893,0.00114551,-1.25e-13
0.2,8.7,0,0.299893,0.00114551,-1.25e-13
0.2,8.8,0,0.299893,0.00115306,-1.24213e-13
0.2,8.9,0,0.299898,0.00125125,-1.13976e-13
0.2,9,0,0.299902,0.00133736,-1.05e-13
0.2,9.1,0,0.299902,0.00133736,-1.05e-13
0.2,9.2,0,0.299902,0.00133736,-1.05e-13
0.2,9.3,0,0.299904,0.00135436,-1.03524e-13
0.2,9.4,0,0.299909,0.00144279,-9.58465e-14
0.2,9.5,0,0.299914,0.00151013,-9e-14
0.2,9.6,0,0.299914,0.00151013,-9e-14
0.2,9.7,0,0.299914,0.00151013,-9e-14
0.2,9.8,0,0.299916,0.00153391,-9e-14
0.2,9.9,0,0.299922,0.00161119,-9e-14
0.2,10,0,0.299926,0.00166112,-9e-14
0.2,10.1,0,0.299926,0.00166112,-9e-14
0.2,10.2,0,0.299926,0.00166112,-9e-14
0.2,10.3,0,0.299929,0.00168846,-8.67508e-14
0.2,10.4,0,0.299936,0.0017531,-7.90709e-14
0.2,10.5,0,0.29994,0.0017874,-7.49947e-14
0.2,10.6,0,0.29994,0.0017874,-7.49947e-14
0.2,10.7,0,0.29994,0.0017874,-7.49947e-14
0.2,10.8,0,0.299944,0.00181564,-6.53506e-14
0.2,10.9,0,0.299952,0.00186808,-4.74403e-14
0.2,11,0,0.299955,0.00188986,-4.00006e-14
0.2,11.1,0,0.299955,0.00188986,-4.00006e-14
0.2,11.2,0,0.299955,0.00188986,-4.00006e-14
0.2,11.3,0,0.29996,0.00191793,-3.16317e-14
0.2,11.4,0,0.299967,0.00196086,-1.88322e-14
0.2,11.5,0,0.299969,0.00197374,-1.49924e-14
0.2,11.6,0,0.299969,0.00197374,-1.49924e-14
0.2,11.7,0,0.299969,0.00197374,-1.49924e-14
0.2,11.8,0,0.299969,0.00197374,-1.49924e-14
0.2,11.9,0,0.299969,0.00197374,-1.49924e-14
0.2,12,0,0.299969,0.00197374,-1.49924e-14
0.2,12.1,0,0.299975,0.00200159,-1.50336e-14
0.2,12.2,0,0.299983,0.00203481,-1.50827e-14
0.2,12.3,0,0.29998,0.00226489,-1.95304e-14
0.2,12.4,0,0.299977,0.00252366,-2.4619e-14
0.2,12.5,0,0.299973,0.00278242,-2.97075e-14
0.2,12.6,0,0.299976,0.0028067,-3.23772e-14
0.2,12.7,0,0.29998,0.00281803,-3.49135e-14
0.3,0,0,0.300009,-0.00358654,-1.59769e-13
0.3,0.1,0,0.300009,-0.00357799,-1.85232e-13
0.3,0.2,0,0.300009,-0.00356944,-2.10694e-13
0.3,0.3,0,0.300009,-0.00355535,-2.35151e-13
0.3,0.4,0,0.300005,-0.003294,-2.14797e-13
0.3,0.5,0,0.300001,-0.00305066,-2.00627e-13
0.3,0.6,0,0.299995,-0.0030184,-2.58939e-13
0.3,0.7,0,0.299989,-0.00298614,-3.17251e-13
0.3,0.8,0,0.299984,-0.00295894,-3.66428e-13
0.3,0.9,0,0.299984,-0.00295894,-3.66428e-13
0.3,1,0,0.299982,-0.00295082,-3.73898e-13
0.3,1.1,0,0.299969,-0.00290875,-4.12595e-13
0.3,1.2,0,0.299957,-0.00286668,-4.51293e-13
0.3,1.3,0,0.299948,-0.00283668,-4.78893e-13
0.3,1.4,0,0.299948,-0.00283668,-4.78893e-13
0.3,1.5,0,0.299945,-0.0028194,-4.80711e-13
0.3,1.6,0,0.299934,-0.00276651,-4.86276e-13
0.3,1.7,0,0.299923,-0.00271362,-4.91842e-13
0.3,1.8,0,0.299916,-0.0026827,-4.95095e-13
0.3,1.9,0,0.299916,-0.0026827,-4.95095e-13
0.3,2,0,0.299913,-0.00265311,-4.96267e-13
0.3,2.1,0,0.299904,-0.00258901,-4.98807e-13
0.3,2.2,0,0.299896,-0.00252492,-5.01347e-13
0.3,2.3,0,0.299892,-0.00249484,-5.02538e-13
0.3,2.4,0,0.299892,-0.00249484,-5.02538e-13
0.3,2.5,0,0.299888,-0.00245067,-5.08436e-13
0.3,2.6,0,0.299881,-0.00237412,-5.18659e-13
0.3,2.7,0,0.299873,-0.00229756,-5.28883e-13
0.3,2.8,0,0.299871,-0.00227047,-5.325e-13
0.3,2.9,0,0.299871,-0.00227047,-5.325e-13
0.3,3,0,0.299866,-0.002209,-5.37815e-13
0.3,3.1,0,0.29986,-0.00212021,-5.45492e-13
0.3,3.2,0,0.299853,-0.00203141,-5.53169e-13
0.3,3.3,0,0.299852,-0.00201024,-5.55e-13
0.3,3.4,0,0.299852,-0.00201024,-5.55e-13
0.3,3.5,0,0.299847,-0.00193025,-5.48799e-13
0.3,3.6,0,0.299842,-0.00183122,-5.41122e-13
0.3,3.7,0,0.299837,-0.00173219,-5.33445e-13
0.3,3.8,0,0.299837,-0.00172001,-5.325e-13
0.3,3.9,0,0.299837,-0.00172001,-5.325e-13
0.3,4,0,0.299833,-0.00162071,-5.15965e-13
0.3,4.1,0,0.29983,-0.00151313,-4.98051e-13
0.3,4.2,0,0.299826,-0.00140556,-4.80138e-13
0.3,4.3,0,0.299826,-0.00140473,-4.8e-13
0.3,4.4,0,0.299826,-0.00140035,-4.79409e-13
0.3,4.5,0,0.299823,-0.0012864,-4.64055e-13
0.3,4.6,0,0.299819,-0.00117245,-4.48701e-13
0.3,4.7,0,0.299816,-0.00107078,-4.35e-13
0.3,4.8,0,0.299816,-0.00107078,-4.35e-13
0.3,4.9,0,0.299816,-0.00105245,-4.33031e-13
0.3,5,0,0.299813,-0.000933316,-4.20236e-13
0.3,5.1,0,0.299811,-0.000814184,-4.07441e-13
0.3,5.2,0,0.299809,-0.000721628,-3.975e-13
0.3,5.3,0,0.299809,-0.000721628,-3.975e-13
0.3,5.4,0,0.299808,-0.000688601,-3.92677e-13
0.3,5.5,0,0.299807,-0.00056593,-3.74764e-13
0.3,5.6,0,0.299805,-0.00044326,-3.5685e-13
0.3,5.7,0,0.299804,-0.000362109,-3.45e-13
0.3,5.8,0,0.299804,-0.000362109,-3.45e-13
0.3,5.9,0,0.299804,-0.000314352,-3.41063e-13
0.3,6,0,0.299804,-0.000190184,-3.30827e-13
0.3,6.1,0,0.299803,-6.60167e-05,-3.20591e-13
0.3,6.2,0,0.299803,1.7979e-06,-3.15e-13
0.3,6.3,0,0.299803,1.7979e-06,-3.15e-13
0.3,6.4,0,0.299803,6.38306e-05,-3.15e-13
0.3,6.5,0,0.299803,0.000187896,-3.15e-13
0.3,6.6,0,0.299804,0.000311961,-3.15e-13
0.3,6.7,0,0.299804,0.000365405,-3.15e-13
0.3,6.8,0,0.299804,0.000365405,-3.15e-13
0.3,6.9,0,0.299805,0.00044078,-3.1185e-13
0.3,7,0,0.299806,0.000563264,-3.06732e-13
0.3,7.1,0,0.299808,0.000685749,-3.01614e-13
0.3,7.2,0,0.299808,0.000724378,-3e-13
0.3,7.3,0,0.299808,0.000724378,-3e-13
0.3,7.4,0,0.29981,0.000811309,-2.9252e-13
0.3,7.5,0,0.299812,0.000930266,-2.82283e-13
0.3,7.6,0,0.299815,0.00104922,-2.72047e-13
0.3,7.7,0,0.299815,0.00107302,-2.7e-13
0.3,7.8,0,0.299815,0.00107302,-2.7e-13
0.3,7.9,0,0.299819,0.00116914,-2.57008e-13
0.3,8,0,0.299822,0.00128273,-2.41654e-13
0.3,8.1,0,0.299826,0.00139633,-2.26299e-13
0.3,8.2,0,0.299826,0.00140594,-2.25e-13
0.3,8.3,0,0.299826,0.00140594,-2.25e-13
0.3,8.4,0,0.29983,0.00150841,-2.12697e-13
0.3,8.5,0,0.299835,0.00161498,-1.99902e-13
0.3,8.6,0,0.299839,0.00171827,-1.875e-13
0.3,8.7,0,0.299839,0.00171827,-1.875e-13
0.3,8.8,0,0.299839,0.00172582,-1.86713e-13
0.3,8.9,0,0.299844,0.00182401,-1.76476e-13
0.3,9,0,0.299849,0.0019222,-1.6624e-13
0.3,9.1,0,0.299854,0.00200604,-1.575e-13
0.3,9.2,0,0.299854,0.00200604,-1.575e-13
0.3,9.3,0,0.299855,0.00202304,-1.56024e-13
0.3,9.4,0,0.299861,0.00211147,-1.48346e-13
0.3,9.5,0,0.299866,0.0021999,-1.40669e-13
0.3,9.6,0,0.299871,0.0022652,-1.35e-13
0.3,9.7,0,0.299871,0.0022652,-1.35e-13
0.3,9.8,0,0.299873,0.00228898,-1.35e-13
0.3,9.9,0,0.299879,0.00236625,-1.35e-13
0.3,10,0,0.299885,0.00244353,-1.35e-13
0.3,10.1,0,0.299889,0.00249168,-1.35e-13
0.3,10.2,0,0.299889,0.00249168,-1.35e-13
0.3,10.3,0,0.299892,0.00251902,-1.31751e-13
0.3,10.4,0,0.299899,0.00258366,-1.24071e-13
0.3,10.5,0,0.299906,0.00264829,-1.16391e-13
0.3,10.6,0,0.29991,0.0026811,-1.12492e-13
0.3,10.7,0,0.29991,0.0026811,-1.12492e-13
0.3,10.8,0,0.299914,0.00270934,-1.02848e-13
0.3,10.9,0,0.299922,0.00276178,-8.49376e-14
0.3,11,0,0.299929,0.00281422,-6.70273e-14
0.3,11.1,0,0.299932,0.00283479,-6.00009e-14
0.3,11.2,0,0.299932,0.00283479,-6.00009e-14
0.3,11.3,0,0.299937,0.00286286,-5.1632e-14
0.3,11.4,0,0.299944,0.00290579,-3.88325e-14
0.3,11.5,0,0.299951,0.00294872,-2.6033e-14
0.3,11.6,0,0.299953,0.00296061,-2.24886e-14
0.3,11.7,0,0.299953,0.00296061,-2.24886e-14
0.3,11.8,0,0.299953,0.00296061,-2.24886e-14
0.3,11.9,0,0.299953,0.00296061,-2.24886e-14
0.3,12,0,0.29996,0.0029877,-2.25286e-14
0.3,12.1,0,0.299967,0.00302092,-2.25778e-14
0.3,12.2,0,0.299975,0.00305413,-2.26269e-14
0.3,12.3,0,0.299972,0.00328288,-2.70448e-14
0.3,12.4,0,0.299969,0.00354165,-3.21334e-14
0.3,12.5,0,0.299972,0.00357239,-3.48699e-14
0.3,12.6,0,0.299976,0.00358373,-3.74061e-14
0.3,12.7,0,0.29998,0.00359506,-3.99423e-14
0.4,0,0,0.300005,-0.00435652,-1.79885e-13
0.4,0.1,0,0.300005,-0.00434797,-2.05347e-13
0.4,0.2,0,0.300006,-0.00433942,-2.3081e-13
0.4,0.3,0,0.300006,-0.00433088,-2.56272e-13
0.4,0.4,0,0.300006,-0.00431493,-2.80394e-13
0.4,0.5,0,0.300002,-0.00406878,-2.6526e-13
0.4,0.6,0,0.299996,-0.00403653,-3.23572e-13
0.4,0.7,0,0.29999,-0.00400427,-3.81884e-13
0.4,0.8,0,0.299984,-0.00397201,-4.40195e-13
0.4,0.9,0,0.299979,-0.00394525,-4.8857e-13
0.4,1,0,0.299977,-0.00393766,-4.95554e-13
0.4,1.1,0,0.299964,-0.00389559,-5.34251e-13
0.4,1.2,0,0.299952,-0.00385352,-5.72949e-13
0.4,1.3,0,0.299939,-0.00381145,-6.11646e-13
0.4,1.4,0,0.299931,-0.00378224,-6.38525e-13
0.4,1.5,0,0.299927,-0.00376531,-6.40306e-13
0.4,1.6,0,0.299916,-0.00371241,-6.45871e-13
0.4,1.7,0,0.299906,-0.00365952,-6.51436e-13
0.4,1.8,0,0.299895,-0.00360663,-6.57002e-13
0.4,1.9,0,0.299889,-0.00357693,-6.60127e-13
0.4,2,0,0.299885,-0.00354734,-6.61299e-13
0.4,2.1,0,0.299877,-0.00348325,-6.63839e-13
0.4,2.2,0,0.299868,-0.00341915,-6.66378e-13
0.4,2.3,0,0.29986,-0.00335505,-6.68918e-13
0.4,2.4,0,0.299856,-0.00332645,-6.70051e-13
0.4,2.5,0,0.299852,-0.00328229,-6.75949e-13
0.4,2.6,0,0.299845,-0.00320573,-6.86172e-13
0.4,2.7,0,0.299837,-0.00312918,-6.96395e-13
0.4,2.8,0,0.29983,-0.00305262,-7.06619e-13
0.4,2.9,0,0.299828,-0.0030273,-7.1e-13
0.4,3,0,0.299823,-0.00296583,-7.15315e-13
0.4,3.1,0,0.299817,-0.00287703,-7.22992e-13
0.4,3.2,0,0.29981,-0.00278823,-7.30669e-13
0.4,3.3,0,0.299803,-0.00269944,-7.38346e-13
0.4,3.4,0,0.299802,-0.00268031,-7.4e-13
0.4,3.5,0,0.299798,-0.00260033,-7.33799e-13
0.4,3.6,0,0.299793,-0.0025013,-7.26122e-13
0.4,3.7,0,0.299788,-0.00240227,-7.18445e-13
0.4,3.8,0,0.299783,-0.00230324,-7.10768e-13
0.4,3.9,0,0.299782,-0.00229334,-7.1e-13
0.4,4,0,0.299779,-0.00219404,-6.93465e-13
0.4,4.1,0,0.299775,-0.00208647,-6.75551e-13
0.4,4.2,0,0.299772,-0.00197889,-6.57638e-13
0.4,4.3,0,0.299768,-0.00187297,-6.4e-13
0.4,4.4,0,0.299768,-0.00186859,-6.39409e-13
0.4,4.5,0,0.299765,-0.00175464,-6.24055e-13
0.4,4.6,0,0.299761,-0.0016407,-6.08701e-13
0.4,4.7,0,0.299758,-0.00152675,-5.93346e-13
0.4,4.8,0,0.299755,-0.0014277,-5.8e-13
0.4,4.9,0,0.299755,-0.00140937,-5.78031e-13
0.4,5,0,0.299752,-0.00129024,-5.65236e-13
0.4,5.1,0,0.29975,-0.00117111,-5.52441e-13
0.4,5.2,0,0.299747,-0.00105198,-5.39646e-13
0.4,5.3,0,0.299745,-0.00096217,-5.3e-13
0.4,5.4,0,0.299745,-0.000929143,-5.25177e-13
0.4,5.5,0,0.299743,-0.000806473,-5.07264e-13
0.4,5.6,0,0.299742,-0.000683802,-4.8935e-13
0.4,5.7,0,0.29974,-0.000561132,-4.71437e-13
0.4,5.8,0,0.299739,-0.000482811,-4.6e-13
0.4,5.9,0,0.299739,-0.000435055,-4.56063e-13
0.4,6,0,0.299738,-0.000310887,-4.45827e-13
0.4,6.1,0,0.299738,-0.00018672,-4.35591e-13
0.4,6.2,0,0.299737,-6.2552e-05,-4.25354e-13
0.4,6.3,0,0.299737,2.3972e-06,-4.2e-13
0.4,6.4,0,0.299737,6.44299e-05,-4.2e-13
0.4,6.5,0,0.299738,0.000188495,-4.2e-13
0.4,6.6,0,0.299738,0.000312561,-4.2e-13
0.4,6.7,0,0.299738,0.000436626,-4.2e-13
0.4,6.8,0,0.299739,0.000487206,-4.2e-13
0.4,6.9,0,0.299739,0.000562581,-4.1685e-13
0.4,7,0,0.299741,0.000685066,-4.11732e-13
0.4,7.1,0,0.299742,0.00080755,-4.06614e-13
0.4,7.2,0,0.299744,0.000930035,-4.01496e-13
0.4,7.3,0,0.299744,0.000965838,-4e-13
0.4,7.4,0,0.299746,0.00105277,-3.9252e-13
0.4,7.5,0,0.299749,0.00117173,-3.82283e-13
0.4,7.6,0,0.299751,0.00129068,-3.72047e-13
0.4,7.7,0,0.299754,0.00140964,-3.61811e-13
0.4,7.8,0,0.299754,0.00143069,-3.6e-13
0.4,7.9,0,0.299757,0.00152681,-3.47008e-13
0.4,8,0,0.299761,0.0016404,-3.31654e-13
0.4,8.1,0,0.299764,0.001754,-3.16299e-13
0.4,8.2,0,0.299768,0.0018676,-3.00945e-13
0.4,8.3,0,0.299768,0.00187459,-3e-13
0.4,8.4,0,0.299772,0.00197706,-2.87697e-13
0.4,8.5,0,0.299777,0.00208362,-2.74902e-13
0.4,8.6,0,0.299781,0.00219019,-2.62106e-13
0.4,8.7,0,0.299785,0.00229102,-2.5e-13
0.4,8.8,0,0.299786,0.00229858,-2.49213e-13
0.4,8.9,0,0.299791,0.00239677,-2.38976e-13
0.4,9,0,0.299796,0.00249495,-2.2874e-13
0.4,9.1,0,0.299801,0.00259314,-2.18504e-13
0.4,9.2,0,0.299805,0.00267471,-2.1e-13
0.4,9.3,0,0.299806,0.00269172,-2.08524e-13
0.4,9.4,0,0.299812,0.00278015,-2.00846e-13
0.4,9.5,0,0.299818,0.00286858,-1.93169e-13
0.4,9.6,0,0.299823,0.002957,-1.85492e-13
0.4,9.7,0,0.299828,0.00302026,-1.8e-13
0.4,9.8,0,0.29983,0.00304404,-1.8e-13
0.4,9.9,0,0.299836,0.00312132,-1.8e-13
0.4,10,0,0.299842,0.0031986,-1.8e-13
0.4,10.1,0,0.299848,0.00327587,-1.8e-13
0.4,10.2,0,0.299852,0.00332224,-1.8e-13
0.4,10.3,0,0.299855,0.00334958,-1.76751e-13
0.4,10.4,0,0.299862,0.00341422,-1.69071e-13
0.4,10.5,0,0.299869,0.00347885,-1.61391e-13
0.4,10.6,0,0.299877,0.00354348,-1.53711e-13
0.4,10.7,0,0.29988,0.0035748,-1.49989e-13
0.4,10.8,0,0.299884,0.00360304,-1.40345e-13
0.4,10.9,0,0.299892,0.00365548,-1.22435e-13
0.4,11,0,0.299899,0.00370792,-1.04525e-13
0.4,11.1,0,0.299907,0.00376036,-8.66143e-14
0.4,11.2,0,0.29991,0.00377972,-8.00012e-14
0.4,11.3,0,0.299914,0.00380779,-7.16323e-14
0.4,11.4,0,0.299922,0.00385072,-5.88328e-14
0.4,11.5,0,0.299929,0.00389365,-4.60333e-14
0.4,11.6,0,0.299936,0.00393658,-3.32339e-14
0.4,11.7,0,0.299938,0.00394748,-2.99848e-14
0.4,11.8,0,0.299938,0.00394748,-2.99848e-14
0.4,11.9,0,0.299944,0.0039738,-3.00237e-14
0.4,12,0,0.299951,0.00400702,-3.00728e-14
0.4,12.1,0,0.299959,0.00404024,-3.0122e-14
0.4,12.2,0,0.299967,0.00407346,-3.01711e-14
0.4,12.3,0,0.299964,0.00430088,-3.45593e-14
0.4,12.4,0,0.299968,0.00433809,-3.73625e-14
0.4,12.5,0,0.299971,0.00434943,-3.98987e-14
0.4,12.6,0,0.299975,0.00436076,-4.24349e-14
0.4,12.7,0,0.299979,0.0043721,-4.49712e-14
0.5,0,0,0.300002,-0.0051265,-2e-13
0.5,0.1,0,0.300002,-0.00511885,-2.25338e-13
0.5,0.2,0,0.300002,-0.00511121,-2.50676e-13
0.5,0.3,0,0.300002,-0.00510356,-2.76014e-13
0.5,0.4,0,0.300002,-0.00509592,-3.01351e-13
0.5,0.5,0,0.300002,-0.00508658,-3.27975e-13
0.5,0.6,0,0.299996,-0.00505446,-3.87063e-13
0.5,0.7,0,0.29999,-0.00502233,-4.46152e-13
0.5,0.8,0,0.299985,-0.00499014,-5.04828e-13
0.5,0.9,0,0.299979,-0.00495788,-5.6314e-13
0.5,1,0,0.299972,-0.0049245,-6.1721e-13
0.5,1.1,0,0.299959,-0.00488243,-6.55907e-13
0.5,1.2,0,0.299947,-0.00484036,-6.94604e-13
0.5,1.3,0,0.299934,-0.0047983,-7.33302e-13
0.5,1.4,0,0.299922,-0.00475623,-7.71999e-13
0.5,1.5,0,0.29991,-0.00471121,-7.99901e-13
0.5,1.6,0,0.299899,-0.00465832,-8.05466e-13
0.5,1.7,0,0.299888,-0.00460542,-8.11031e-13
0.5,1.8,0,0.299877,-0.00455253,-8.16596e-13
0.5,1.9,0,0.299867,-0.00449964,-8.22162e-13
0.5,2,0,0.299857,-0.00444158,-8.26331e-13
0.5,2.1,0,0.299849,-0.00437748,-8.2887e-13
0.5,2.2,0,0.29984,-0.00431338,-8.3141e-13
0.5,2.3,0,0.299832,-0.00424928,-8.3395e-13
0.5,2.4,0,0.299824,-0.00418519,-8.36489e-13
0.5,2.5,0,0.299816,-0.0041139,-8.43462e-13
0.5,2.6,0,0.299809,-0.00403735,-8.53685e-13
0.5,2.7,0,0.299802,-0.00396079,-8.63908e-13
0.5,2.8,0,0.299794,-0.00388424,-8.74131e-13
0.5,2.9,0,0.299787,-0.00380768,-8.84354e-13
0.5,3,0,0.29978,-0.00372265,-8.92815e-13
0.5,3.1,0,0.299773,-0.00363386,-9.00492e-13
0.5,3.2,0,0.299767,-0.00354506,-9.08169e-13
0.5,3.3,0,0.29976,-0.00345626,-9.15846e-13
0.5,3.4,0,0.299754,-0.00336747,-9.23524e-13
0.5,3.5,0,0.299748,-0.00327041,-9.18799e-13
0.5,3.6,0,0.299743,-0.00317138,-9.11122e-13
0.5,3.7,0,0.299738,-0.00307235,-9.03445e-13
0.5,3.8,0,0.299733,-0.00297332,-8.95768e-13
0.5,3.9,0,0.299728,-0.0028743,-8.88091e-13
0.5,4,0,0.299725,-0.00276738,-8.70965e-13
0.5,4.1,0,0.299721,-0.0026598,-8.53051e-13
0.5,4.2,0,0.299717,-0.00255223,-8.35138e-13
0.5,4.3,0,0.299714,-0.00244465,-8.17224e-13
0.5,4.4,0,0.29971,-0.00233683,-7.99409e-13
0.5,4.5,0,0.299707,-0.00222289,-7.84055e-13
0.5,4.6,0,0.299703,-0.00210894,-7.68701e-13
0.5,4.7,0,0.2997,-0.00199499,-7.53346e-13
0.5,4.8,0,0.299697,-0.00188104,-7.37992e-13
0.5,4.9,0,0.299694,-0.0017663,-7.23031e-13
0.5,5,0,0.299691,-0.00164717,-7.10236e-13
0.5,5.1,0,0.299688,-0.00152803,-6.97441e-13
0.5,5.2,0,0.299686,-0.0014089,-6.84646e-13
0.5,5.3,0,0.299683,-0.00128977,-6.7185e-13
0.5,5.4,0,0.299681,-0.00116969,-6.57677e-13
0.5,5.5,0,0.299679,-0.00104702,-6.39764e-13
0.5,5.6,0,0.299678,-0.000924345,-6.2185e-13
0.5,5.7,0,0.299676,-0.000801674,-6.03937e-13
0.5,5.8,0,0.299675,-0.000679004,-5.86024e-13
0.5,5.9,0,0.299674,-0.000555757,-5.71063e-13
0.5,6,0,0.299673,-0.00043159,-5.60827e-13
0.5,6.1,0,0.299673,-0.000307422,-5.50591e-13
0.5,6.2,0,0.299672,-0.000183255,-5.40354e-13
0.5,6.3,0,0.299672,-5.90873e-05,-5.30118e-13
0.5,6.4,0,0.299671,6.50292e-05,-5.25e-13
0.5,6.5,0,0.299672,0.000189095,-5.25e-13
0.5,6.6,0,0.299672,0.00031316,-5.25e-13
0.5,6.7,0,0.299673,0.000437225,-5.25e-13
0.5,6.8,0,0.299673,0.000561291,-5.25e-13
0.5,6.9,0,0.299674,0.000684383,-5.2185e-13
0.5,7,0,0.299676,0.000806867,-5.16732e-13
0.5,7.1,0,0.299677,0.000929352,-5.11614e-13
0.5,7.2,0,0.299678,0.00105184,-5.06496e-13
0.5,7.3,0,0.29968,0.00117432,-5.01378e-13
0.5,7.4,0,0.299682,0.00129423,-4.9252e-13
0.5,7.5,0,0.299685,0.00141319,-4.82283e-13
0.5,7.6,0,0.299687,0.00153214,-4.72047e-13
0.5,7.7,0,0.29969,0.0016511,-4.61811e-13
0.5,7.8,0,0.299692,0.00177006,-4.51575e-13
0.5,7.9,0,0.299696,0.00188448,-4.37008e-13