/*--------------------------------*- C++ -*----------------------------------*\
| =========                 |                                                 |
| \\      /  F ield         | OpenFOAM: The Open Source CFD Toolbox           |
|  \\    /   O peration     | Version:  v1806                                 |
|   \\  /    A nd           | Web:      www.OpenFOAM.com                      |
|    \\/     M anipulation  |                                                 |
\*---------------------------------------------------------------------------*/
FoamFile
{
    version     2.0;
    format      ascii;
    class       volVectorField;
    location    "320";
    object      U;
}
// * * * * * * * * * * * * * * * * * * * * * * * * * * * * * * * * * * * * * //

dimensions      [0 1 -1 0 0 0 0];


internalField   nonuniform List<vector> 
2400
(
(0.3 -0.00037045 0)
(0.299997 -0.00111703 0)
(0.299989 -0.00187572 0)
(0.299977 -0.00265805 0)
(0.299959 -0.00346964 0)
(0.299937 -0.00432095 0)
(0.299909 -0.00521483 0)
(0.299876 -0.00615855 0)
(0.29984 -0.00714993 0)
(0.299803 -0.00819027 0)
(0.299765 -0.00926868 0)
(0.299732 -0.0103766 0)
(0.299706 -0.0114897 0)
(0.299694 -0.0125856 0)
(0.299701 -0.0136226 0)
(0.299734 -0.0145648 0)
(0.299799 -0.0153548 0)
(0.2999 -0.0159521 0)
(0.300039 -0.0162956 0)
(0.300221 -0.0163616 0)
(0.3 -0.000368421 0)
(0.299991 -0.00111141 0)
(0.299973 -0.00186578 0)
(0.299946 -0.0026443 0)
(0.299911 -0.00345142 0)
(0.299869 -0.00429919 0)
(0.299819 -0.0051893 0)
(0.299765 -0.00613091 0)
(0.299709 -0.00712072 0)
(0.299654 -0.00816216 0)
(0.299605 -0.0092435 0)
(0.29957 -0.0103584 0)
(0.299555 -0.0114817 0)
(0.29957 -0.0125933 0)
(0.299623 -0.0136506 0)
(0.299726 -0.0146188 0)
(0.299885 -0.0154386 0)
(0.300104 -0.0160671 0)
(0.300382 -0.0164409 0)
(0.300713 -0.0165253 0)
(0.299999 -0.000364313 0)
(0.299984 -0.0011003 0)
(0.299955 -0.00184661 0)
(0.299912 -0.00261863 0)
(0.299855 -0.00341824 0)
(0.299786 -0.00426096 0)
(0.299708 -0.0051456 0)
(0.299624 -0.00608551 0)
(0.299537 -0.00707454 0)
(0.299455 -0.00812077 0)
(0.299386 -0.00920992 0)
(0.299338 -0.0103403 0)
(0.299326 -0.0114846 0)
(0.299363 -0.0126266 0)
(0.299462 -0.0137207 0)
(0.29964 -0.0147342 0)
(0.299906 -0.015601 0)
(0.300265 -0.0162804 0)
(0.300713 -0.0166942 0)
(0.301233 -0.0168188 0)
(0.299999 -0.000358038 0)
(0.299978 -0.00108367 0)
(0.299937 -0.00181774 0)
(0.299876 -0.00258055 0)
(0.299796 -0.00336901 0)
(0.299699 -0.00420515 0)
(0.299589 -0.00508187 0)
(0.29947 -0.00602053 0)
(0.299349 -0.00700861 0)
(0.299234 -0.00806331 0)
(0.299136 -0.0091642 0)
(0.299069 -0.0103188 0)
(0.299051 -0.0114942 0)
(0.299101 -0.0126816 0)
(0.299239 -0.0138296 0)
(0.299488 -0.014909 0)
(0.299859 -0.015845 0)
(0.300363 -0.0165954 0)
(0.30099 -0.0170681 0)
(0.301722 -0.017235 0)
(0.299999 -0.000349479 0)
(0.299971 -0.00106158 0)
(0.299918 -0.00177874 0)
(0.299839 -0.00252973 0)
(0.299735 -0.00330246 0)
(0.299609 -0.00413047 0)
(0.299465 -0.0049954 0)
(0.299308 -0.00593317 0)
(0.299148 -0.00691823 0)
(0.298994 -0.00798506 0)
(0.298861 -0.00909951 0)
(0.298766 -0.0102872 0)
(0.298733 -0.0115023 0)
(0.298786 -0.0127513 0)
(0.298955 -0.0139709 0)
(0.299267 -0.0151399 0)
(0.299742 -0.0161702 0)
(0.300394 -0.0170179 0)
(0.301212 -0.017571 0)
(0.302174 -0.0177938 0)
(0.299999 -0.000338455 0)
(0.299965 -0.00103408 0)
(0.299898 -0.00172902 0)
(0.2998 -0.00246589 0)
(0.299671 -0.00321727 0)
(0.299514 -0.00403607 0)
(0.299333 -0.00488363 0)
(0.299136 -0.00582152 0)
(0.298932 -0.00679903 0)
(0.298732 -0.00788256 0)
(0.298557 -0.0090093 0)
(0.298424 -0.0102404 0)
(0.298366 -0.0115008 0)
(0.29841 -0.01283 0)
(0.298599 -0.014138 0)
(0.298965 -0.0154246 0)
(0.29954 -0.0165773 0)
(0.300344 -0.0175544 0)
(0.301367 -0.0182153 0)
(0.302585 -0.0185159 0)
(0.299998 -0.000324758 0)
(0.299958 -0.00100123 0)
(0.299877 -0.00166788 0)
(0.29976 -0.00238886 0)
(0.299604 -0.00311194 0)
(0.299414 -0.00392134 0)
(0.299195 -0.00474366 0)
(0.298953 -0.00568402 0)
(0.2987 -0.00664584 0)
(0.298447 -0.00775261 0)
(0.29822 -0.00888533 0)
(0.298036 -0.0101733 0)
(0.29794 -0.0114791 0)
(0.29796 -0.0129116 0)
(0.298155 -0.0143213 0)
(0.298561 -0.01576 0)
(0.299231 -0.0170656 0)
(0.300191 -0.0182131 0)
(0.301438 -0.0190173 0)
(0.302945 -0.0194242 0)
(0.299997 -0.000308183 0)
(0.29995 -0.000963167 0)
(0.299856 -0.00159453 0)
(0.299719 -0.00229855 0)
(0.299534 -0.00298473 0)
(0.29931 -0.00378576 0)
(0.299048 -0.004572 0)
(0.298757 -0.00551925 0)
(0.298449 -0.00645214 0)
(0.298135 -0.00759225 0)
(0.297846 -0.00871671 0)
(0.297596 -0.0100806 0)
(0.297447 -0.0114217 0)
(0.297419 -0.01299 0)
(0.297604 -0.0145053 0)
(0.29803 -0.0161435 0)
(0.29879 -0.0176313 0)
(0.299906 -0.0190042 0)
(0.3014 -0.0199971 0)
(0.30324 -0.0205488 0)
(0.299996 -0.000288582 0)
(0.299943 -0.000919966 0)
(0.299834 -0.00150821 0)
(0.299677 -0.00219486 0)
(0.299462 -0.00283383 0)
(0.299202 -0.00362892 0)
(0.298893 -0.00436471 0)
(0.29855 -0.00532604 0)
(0.298179 -0.00621013 0)
(0.297794 -0.00739889 0)
(0.297431 -0.00848948 0)
(0.297098 -0.00995801 0)
(0.296879 -0.0113069 0)
(0.296775 -0.0130597 0)
(0.29693 -0.0146648 0)
(0.297343 -0.0165741 0)
(0.298184 -0.0182622 0)
(0.299448 -0.019943 0)
(0.301219 -0.0211795 0)
(0.303449 -0.0219303 0)
(0.299995 -0.000265945 0)
(0.299936 -0.000871602 0)
(0.299811 -0.00140835 0)
(0.299634 -0.0020776 0)
(0.299386 -0.00265762 0)
(0.29909 -0.00345035 0)
(0.298731 -0.00411785 0)
(0.298331 -0.00510323 0)
(0.297891 -0.00591122 0)
(0.297426 -0.00717034 0)
(0.296976 -0.00818684 0)
(0.296539 -0.00980215 0)
(0.296227 -0.0111058 0)
(0.296012 -0.0131182 0)
(0.296112 -0.0147599 0)
(0.296464 -0.017057 0)
(0.297378 -0.0189287 0)
(0.298764 -0.0210549 0)
(0.300855 -0.0225906 0)
(0.303542 -0.0236249 0)
(0.299994 -0.0002405 0)
(0.29993 -0.000817777 0)
(0.299787 -0.00129481 0)
(0.299591 -0.00194624 0)
(0.299309 -0.00245514 0)
(0.298976 -0.00324913 0)
(0.298562 -0.0038282 0)
(0.298104 -0.00484915 0)
(0.297585 -0.00554713 0)
(0.297033 -0.00690385 0)
(0.296478 -0.00779045 0)
(0.295917 -0.00960985 0)
(0.295487 -0.0107826 0)
(0.295117 -0.0131652 0)
(0.295133 -0.0147323 0)
(0.295353 -0.0176065 0)
(0.296332 -0.0195689 0)
(0.297777 -0.022386 0)
(0.300259 -0.0242432 0)
(0.303469 -0.0257146 0)
(0.299993 -0.000212822 0)
(0.299924 -0.000757741 0)
(0.299765 -0.00116822 0)
(0.299549 -0.00179965 0)
(0.299231 -0.00222667 0)
(0.298862 -0.00302336 0)
(0.298389 -0.00349435 0)
(0.297872 -0.00456053 0)
(0.297264 -0.00511183 0)
(0.296619 -0.00659427 0)
(0.295939 -0.00728355 0)
(0.295237 -0.00937477 0)
(0.294654 -0.0102988 0)
(0.294085 -0.0131989 0)
(0.293972 -0.0145067 0)
(0.293968 -0.0182445 0)
(0.294999 -0.0200748 0)
(0.296378 -0.0240184 0)
(0.299369 -0.0260972 0)
(0.303144 -0.028335 0)
(0.299993 -0.000183916 0)
(0.299919 -0.000690116 0)
(0.299743 -0.00103024 0)
(0.299508 -0.00163576 0)
(0.299153 -0.00197437 0)
(0.298749 -0.00276946 0)
(0.298213 -0.00311804 0)
(0.297638 -0.00423114 0)
(0.29693 -0.0046041 0)
(0.296192 -0.0062313 0)
(0.295363 -0.00665562 0)
(0.29451 -0.00908192 0)
(0.293726 -0.00962077 0)
(0.292921 -0.0132057 0)
(0.292605 -0.0140016 0)
(0.292278 -0.0189855 0)
(0.293317 -0.0202929 0)
(0.294434 -0.0260691 0)
(0.298113 -0.0280199 0)
(0.30239 -0.0317227 0)
(0.299995 -0.000155202 0)
(0.299914 -0.000612838 0)
(0.299725 -0.000883805 0)
(0.299466 -0.00145131 0)
(0.299078 -0.0017029 0)
(0.298637 -0.00248152 0)
(0.298039 -0.00270548 0)
(0.297407 -0.00385035 0)
(0.29659 -0.0040304 0)
(0.295762 -0.00579625 0)
(0.294752 -0.00590821 0)
(0.293755 -0.00870072 0)
(0.292696 -0.00873092 0)
(0.291651 -0.013145 0)
(0.290999 -0.0131478 0)
(0.290284 -0.0198114 0)
(0.291193 -0.0200489 0)
(0.291816 -0.0286597 0)
(0.296381 -0.0297693 0)
(0.300881 -0.0362471 0)
(0.300001 -0.000128301 0)
(0.299905 -0.000523349 0)
(0.299715 -0.00073298 0)
(0.29942 -0.00124209 0)
(0.299015 -0.00141946 0)
(0.298522 -0.00215121 0)
(0.297879 -0.00226835 0)
(0.297176 -0.00340214 0)
(0.296258 -0.00340781 0)
(0.295334 -0.00525893 0)
(0.294123 -0.00506131 0)
(0.292991 -0.00817696 0)
(0.291565 -0.00764035 0)
(0.290317 -0.0129317 0)
(0.289099 -0.0119124 0)
(0.288049 -0.0206365 0)
(0.288452 -0.0191876 0)
(0.288479 -0.031872 0)
(0.293956 -0.0310411 0)
(0.29807 -0.0423349 0)
(0.300015 -0.000104517 0)
(0.299887 -0.000419337 0)
(0.299718 -0.000582121 0)
(0.299362 -0.0010039 0)
(0.298975 -0.0011328 0)
(0.298394 -0.00176882 0)
(0.297754 -0.00182316 0)
(0.296929 -0.00286546 0)
(0.29597 -0.0027658 0)
(0.294888 -0.00457565 0)
(0.293525 -0.0041608 0)
(0.292207 -0.00742354 0)
(0.290382 -0.0064048 0)
(0.288942 -0.0124084 0)
(0.286876 -0.010328 0)
(0.285677 -0.021256 0)
(0.284799 -0.0176046 0)
(0.284599 -0.0357487 0)
(0.290329 -0.0314322 0)
(0.293395 -0.0510675 0)
(0.30004 -8.4109e-05 0)
(0.299853 -0.00030013 0)
(0.299744 -0.000434198 0)
(0.299281 -0.000735087 0)
(0.298976 -0.000849741 0)
(0.298231 -0.00132791 0)
(0.2977 -0.00138547 0)
(0.29663 -0.00222138 0)
(0.295794 -0.0021394 0)
(0.294366 -0.00369608 0)
(0.29308 -0.00328153 0)
(0.291309 -0.00631611 0)
(0.289332 -0.00515467 0)
(0.2874 -0.0112972 0)
(0.28451 -0.00854635 0)
(0.283088 -0.0212102 0)
(0.279968 -0.0153229 0)
(0.280508 -0.0400838 0)
(0.283912 -0.0301011 0)
(0.287192 -0.0653551 0)
(0.300077 -6.56636e-05 0)
(0.2998 -0.000168291 0)
(0.299796 -0.000289088 0)
(0.299169 -0.00044002 0)
(0.299031 -0.000570808 0)
(0.298018 -0.000833712 0)
(0.29775 -0.000958869 0)
(0.296241 -0.00147204 0)
(0.295809 -0.00154305 0)
(0.293678 -0.00260361 0)
(0.292971 -0.00247616 0)
(0.290108 -0.0047656 0)
(0.288814 -0.00405639 0)
(0.285307 -0.00925312 0)
(0.282711 -0.00697225 0)
(0.279525 -0.0194605 0)
(0.274651 -0.0129318 0)
(0.275621 -0.0432719 0)
(0.271696 -0.0265062 0)
(0.281711 -0.0859256 0)
(0.300123 -4.54683e-05 0)
(0.29973 -2.84094e-05 0)
(0.299867 -0.000143764 0)
(0.299034 -0.000128586 0)
(0.299134 -0.000290015 0)
(0.297764 -0.000304943 0)
(0.297901 -0.000532053 0)
(0.295771 -0.000650114 0)
(0.296035 -0.000951961 0)
(0.292809 -0.00135205 0)
(0.293301 -0.00170157 0)
(0.288484 -0.00284218 0)
(0.289217 -0.00309229 0)
(0.282193 -0.00623103 0)
(0.282729 -0.00584292 0)
(0.273447 -0.0149968 0)
(0.271955 -0.011892 0)
(0.265482 -0.0414507 0)
(0.256763 -0.0249604 0)
(0.277536 -0.113096 0)
(0.300167 -2.48545e-05 0)
(0.299656 0.000120268 0)
(0.29994 1.49995e-07 0)
(0.298901 0.000199858 0)
(0.299253 -1.01797e-05 0)
(0.297519 0.000260036 0)
(0.298094 -0.00010779 0)
(0.295316 0.000240627 0)
(0.296356 -0.000369979 0)
(0.291947 2.85877e-05 0)
(0.293852 -0.000921514 0)
(0.286784 -0.000658022 0)
(0.290207 -0.00201545 0)
(0.278588 -0.00268317 0)
(0.284532 -0.00428581 0)
(0.264714 -0.0090671 0)
(0.27469 -0.00975303 0)
(0.241811 -0.035064 0)
(0.261352 -0.0255868 0)
(0.268711 -0.187847 0)
(0.300366 -0.0162026 0)
(0.300409 -0.0161424 0)
(0.300449 -0.0160721 0)
(0.300487 -0.0159924 0)
(0.300526 -0.0159032 0)
(0.300566 -0.0158047 0)
(0.300606 -0.0156967 0)
(0.300647 -0.0155796 0)
(0.300687 -0.0154533 0)
(0.300726 -0.0153189 0)
(0.300929 -0.0163897 0)
(0.300994 -0.0163379 0)
(0.301059 -0.0162755 0)
(0.301124 -0.0162022 0)
(0.30119 -0.0161182 0)
(0.301256 -0.0160237 0)
(0.301321 -0.0159188 0)
(0.301386 -0.0158038 0)
(0.301451 -0.0156787 0)
(0.301516 -0.0155449 0)
(0.301573 -0.0166813 0)
(0.301677 -0.0166268 0)
(0.301779 -0.0165608 0)
(0.30188 -0.0164837 0)
(0.301981 -0.0163957 0)
(0.302081 -0.016297 0)
(0.302179 -0.0161875 0)
(0.302277 -0.0160677 0)
(0.302373 -0.0159375 0)
(0.302467 -0.0157981 0)
(0.302202 -0.0171007 0)
(0.302348 -0.0170464 0)
(0.30249 -0.0169796 0)
(0.302629 -0.016901 0)
(0.302768 -0.0168107 0)
(0.302906 -0.0167086 0)
(0.303042 -0.0165948 0)
(0.303177 -0.0164696 0)
(0.303309 -0.016333 0)
(0.303438 -0.0161865 0)
(0.302808 -0.0176655 0)
(0.303001 -0.0176114 0)
(0.303187 -0.0175433 0)
(0.30337 -0.0174617 0)
(0.303552 -0.0173668 0)
(0.303733 -0.0172586 0)
(0.303912 -0.0171372 0)
(0.304088 -0.017003 0)
(0.304261 -0.016856 0)
(0.304429 -0.016698 0)
(0.303394 -0.0183949 0)
(0.303639 -0.0183407 0)
(0.303877 -0.0182705 0)
(0.30411 -0.0181846 0)
(0.304341 -0.0180833 0)
(0.304571 -0.0179667 0)
(0.304797 -0.0178349 0)
(0.305021 -0.0176884 0)
(0.305239 -0.0175271 0)
(0.305452 -0.0173535 0)
(0.303957 -0.0193131 0)
(0.304265 -0.019259 0)
(0.304562 -0.0191857 0)
(0.304853 -0.0190941 0)
(0.305141 -0.0189842 0)
(0.305428 -0.0188563 0)
(0.305711 -0.0187104 0)
(0.305989 -0.0185473 0)
(0.306261 -0.0183666 0)
(0.306524 -0.0181718 0)
(0.304494 -0.0204528 0)
(0.304875 -0.0203993 0)
(0.305243 -0.0203226 0)
(0.305604 -0.0202236 0)
(0.305961 -0.0201025 0)
(0.306316 -0.0199594 0)
(0.306666 -0.0197948 0)
(0.307008 -0.0196092 0)
(0.307343 -0.0194027 0)
(0.307667 -0.0191796 0)
(0.304997 -0.0218589 0)
(0.305468 -0.0218075 0)
(0.305923 -0.0217272 0)
(0.306369 -0.021619 0)
(0.30681 -0.0214831 0)
(0.307248 -0.0213199 0)
(0.307679 -0.02113 0)
(0.308101 -0.0209144 0)
(0.308512 -0.0206729 0)
(0.308908 -0.020412 0)
(0.305451 -0.0235947 0)
(0.306035 -0.0235482 0)
(0.306601 -0.0234645 0)
(0.307155 -0.0233444 0)
(0.307703 -0.0231886 0)
(0.308246 -0.022998 0)
(0.308778 -0.0227735 0)
(0.309298 -0.0225167 0)
(0.309802 -0.0222273 0)
(0.310287 -0.0219152 0)
(0.305838 -0.0257534 0)
(0.306568 -0.0257161 0)
(0.30728 -0.0256282 0)
(0.307976 -0.0254913 0)
(0.308663 -0.0253072 0)
(0.30934 -0.0250775 0)
(0.310002 -0.0248039 0)
(0.310645 -0.0244892 0)
(0.311267 -0.0241327 0)
(0.311861 -0.0237501 0)
(0.306127 -0.0284828 0)
(0.307058 -0.0284568 0)
(0.307971 -0.0283591 0)
(0.30886 -0.0281939 0)
(0.309732 -0.0279652 0)
(0.310585 -0.0276761 0)
(0.311415 -0.0273295 0)
(0.312217 -0.0269298 0)
(0.312987 -0.0264761 0)
(0.313717 -0.0259939 0)
(0.306292 -0.0320214 0)
(0.307521 -0.0319974 0)
(0.308718 -0.0318675 0)
(0.309871 -0.0316461 0)
(0.31099 -0.0313414 0)
(0.312077 -0.0309576 0)
(0.313128 -0.0304983 0)
(0.314134 -0.029971 0)
(0.315091 -0.0293734 0)
(0.315989 -0.0287482 0)
(0.306338 -0.036728 0)
(0.308044 -0.0366733 0)
(0.309647 -0.0364568 0)
(0.311148 -0.0361183 0)
(0.312589 -0.0356739 0)
(0.313983 -0.0351289 0)
(0.315322 -0.0344883 0)
(0.316592 -0.0337637 0)
(0.317787 -0.0329501 0)
(0.318891 -0.0321189 0)
(0.306346 -0.0430314 0)
(0.308858 -0.0429028 0)
(0.311062 -0.0425301 0)
(0.313027 -0.0419901 0)
(0.314885 -0.0413086 0)
(0.316673 -0.0404925 0)
(0.318376 -0.0395505 0)
(0.31997 -0.0385038 0)
(0.321449 -0.0373458 0)
(0.322799 -0.0361931 0)
(0.306575 -0.0516136 0)
(0.310388 -0.0512504 0)
(0.313489 -0.0505888 0)
(0.316125 -0.0497488 0)
(0.318578 -0.0487453 0)
(0.320914 -0.0475712 0)
(0.323088 -0.0462314 0)
(0.325059 -0.0447579 0)
(0.326822 -0.0431327 0)
(0.328348 -0.0415535 0)
(0.308727 -0.0641454 0)
(0.314229 -0.06283 0)
(0.318147 -0.0611022 0)
(0.321279 -0.0592203 0)
(0.324188 -0.057208 0)
(0.326938 -0.055044 0)
(0.329411 -0.0527316 0)
(0.331531 -0.050314 0)
(0.333287 -0.0477713 0)
(0.334709 -0.0453474 0)
(0.316803 -0.0838881 0)
(0.324453 -0.0819546 0)
(0.328359 -0.0793936 0)
(0.330516 -0.0764042 0)
(0.332191 -0.0730021 0)
(0.333555 -0.069236 0)
(0.334441 -0.0651982 0)
(0.334747 -0.0609991 0)
(0.334549 -0.0566652 0)
(0.333778 -0.0524933 0)
(0.314797 -0.0880264 0)
(0.320065 -0.080108 0)
(0.320058 -0.0737535 0)
(0.31819 -0.0682234 0)
(0.315796 -0.0628863 0)
(0.312816 -0.0575901 0)
(0.309079 -0.0523488 0)
(0.304624 -0.0471633 0)
(0.299746 -0.0420107 0)
(0.294129 -0.03683 0)
(0.276259 -0.126547 0)
(0.253548 -0.107976 0)
(0.224183 -0.0917544 0)
(0.2008 -0.0773477 0)
(0.182562 -0.0642613 0)
(0.166924 -0.052437 0)
(0.153098 -0.0419048 0)
(0.141164 -0.0326084 0)
(0.130908 -0.0244166 0)
(0.121736 -0.0172065 0)
(0.300884 -0.0147538 0)
(0.30117 -0.0134195 0)
(0.301442 -0.0118273 0)
(0.301668 -0.0101012 0)
(0.30185 -0.00836646 0)
(0.301986 -0.00670675 0)
(0.30208 -0.00519662 0)
(0.302149 -0.00385181 0)
(0.302185 -0.00269094 0)
(0.30221 -0.00171795 0)
(0.302212 -0.000902776 0)
(0.302205 -0.000283008 0)
(0.302194 0.000230428 0)
(0.302167 0.000556676 0)
(0.302165 0.000833805 0)
(0.302137 0.000973295 0)
(0.302155 0.00109774 0)
(0.302145 0.0011864 0)
(0.302171 0.00123289 0)
(0.302181 0.00135393 0)
(0.301765 -0.0149676 0)
(0.302129 -0.0135985 0)
(0.30242 -0.0119703 0)
(0.302608 -0.0102086 0)
(0.302708 -0.00844334 0)
(0.302735 -0.00675697 0)
(0.302712 -0.00522764 0)
(0.302666 -0.00386723 0)
(0.302596 -0.0026953 0)
(0.302528 -0.00171502 0)
(0.30245 -0.000892608 0)
(0.302375 -0.000271092 0)
(0.302312 0.000246135 0)
(0.302241 0.000569496 0)
(0.302215 0.000843414 0)
(0.302165 0.000977812 0)
(0.302185 0.00109368 0)
(0.30217 0.00118106 0)
(0.302208 0.00121996 0)
(0.30222 0.00134927 0)
(0.302826 -0.0152056 0)
(0.303333 -0.013788 0)
(0.303701 -0.0120968 0)
(0.303892 -0.0102724 0)
(0.303936 -0.00845742 0)
(0.303864 -0.00673367 0)
(0.303719 -0.00518263 0)
(0.303546 -0.00380868 0)
(0.303348 -0.00263141 0)
(0.303161 -0.00165087 0)
(0.302972 -0.000828449 0)
(0.302796 -0.000213682 0)
(0.30265 0.000298882 0)
(0.302501 0.000609396 0)
(0.302429 0.000871584 0)
(0.30233 0.00099259 0)
(0.302342 0.00109302 0)
(0.302304 0.00117637 0)
(0.302355 0.0012049 0)
(0.302357 0.00134735 0)
(0.303931 -0.015557 0)
(0.304608 -0.0140444 0)
(0.305074 -0.012246 0)
(0.305285 -0.0103222 0)
(0.305287 -0.0084315 0)
(0.305127 -0.0066537 0)
(0.304871 -0.00507311 0)
(0.304581 -0.00368267 0)
(0.304261 -0.00250141 0)
(0.303961 -0.00152414 0)
(0.303661 -0.000705824 0)
(0.303382 -0.000104706 0)
(0.303147 0.000397378 0)
(0.302909 0.000685659 0)
(0.302785 0.000927646 0)
(0.302624 0.00102612 0)
(0.302627 0.00110214 0)
(0.302556 0.00117759 0)
(0.302624 0.00119073 0)
(0.302608 0.00135036 0)
(0.30507 -0.0160155 0)
(0.305932 -0.0143687 0)
(0.306504 -0.0124218 0)
(0.30673 -0.010364 0)
(0.306683 -0.00837347 0)
(0.306433 -0.0065259 0)
(0.306065 -0.00490856 0)
(0.30566 -0.00349843 0)
(0.305224 -0.00231393 0)
(0.304817 -0.00134213 0)
(0.304413 -0.000529715 0)
(0.304035 5.21917e-05 0)
(0.303716 0.000541043 0)
(0.303389 0.000798517 0)
(0.303217 0.00101292 0)
(0.302991 0.00107932 0)
(0.302991 0.00112076 0)
(0.302889 0.00118433 0)
(0.302979 0.00117546 0)
(0.302951 0.00135831 0)
(0.30626 -0.0165971 0)
(0.307325 -0.0147672 0)
(0.308001 -0.0126228 0)
(0.308229 -0.0103931 0)
(0.308115 -0.00827791 0)
(0.307757 -0.00634576 0)
(0.307266 -0.00468652 0)
(0.306743 -0.00325544 0)
(0.306187 -0.00207041 0)
(0.305678 -0.00110706 0)
(0.30517 -0.000302069 0)
(0.304696 0.000254967 0)
(0.304296 0.000728613 0)
(0.303879 0.000946128 0)
(0.303664 0.00112569 0)
(0.303373 0.00114965 0)
(0.303381 0.00114491 0)
(0.303254 0.0011929 0)
(0.303377 0.00115436 0)
(0.303349 0.00136876 0)
(0.307525 -0.017315 0)
(0.30881 -0.0152413 0)
(0.309586 -0.0128423 0)
(0.309793 -0.0103995 0)
(0.309587 -0.00813445 0)
(0.309098 -0.00610423 0)
(0.308466 -0.00440064 0)
(0.307814 -0.00294975 0)
(0.307131 -0.00176961 0)
(0.30652 -0.000818377 0)
(0.305908 -2.33959e-05 0)
(0.305338 0.000503803 0)
(0.304855 0.000960736 0)
(0.304344 0.0011278 0)
(0.30409 0.00126485 0)
(0.303734 0.00123441 0)
(0.303758 0.00116954 0)
(0.303615 0.00119843 0)
(0.303783 0.0011207 0)
(0.303773 0.00137756 0)
(0.308894 -0.0181868 0)
(0.310421 -0.0157918 0)
(0.311284 -0.0130707 0)
(0.311438 -0.0103705 0)
(0.311106 -0.00792968 0)
(0.310456 -0.00578985 0)
(0.30966 -0.00404272 0)
(0.308865 -0.00257614 0)
(0.308049 -0.00140956 0)
(0.307333 -0.000474549 0)
(0.306614 0.000306786 0)
(0.305947 0.000799478 0)
(0.305378 0.00123947 0)
(0.304765 0.0013443 0)
(0.304472 0.00143088 0)
(0.304044 0.00133146 0)
(0.304097 0.00118952 0)
(0.303947 0.00119559 0)
(0.304173 0.0010665 0)
(0.304197 0.00138025 0)
(0.310405 -0.0192336 0)
(0.312196 -0.0164165 0)
(0.313123 -0.0132946 0)
(0.31318 -0.0102891 0)
(0.312679 -0.0076461 0)
(0.31183 -0.00538843 0)
(0.310844 -0.00360263 0)
(0.30989 -0.00212888 0)
(0.308932 -0.000987858 0)
(0.308113 -7.40616e-05 0)
(0.307283 0.00068967 0)
(0.306514 0.00114452 0)
(0.305854 0.00156865 0)
(0.305125 0.00159795 0)
(0.304793 0.00162622 0)
(0.304281 0.00143931 0)
(0.304375 0.0012001 0)
(0.30422 0.00117899 0)
(0.304524 0.000983184 0)
(0.304594 0.00137308 0)
(0.312111 -0.0204799 0)
(0.314183 -0.0171094 0)
(0.315136 -0.0134961 0)
(0.315037 -0.0101333 0)
(0.314311 -0.00726135 0)
(0.313217 -0.00488233 0)
(0.312009 -0.0030683 0)
(0.310878 -0.0016021 0)
(0.309773 -0.000501935 0)
(0.308848 0.000384114 0)
(0.307906 0.00112681 0)
(0.307028 0.00154334 0)
(0.306267 0.0019543 0)
(0.3054 0.00189346 0)
(0.305024 0.00185629 0)
(0.304405 0.00155761 0)
(0.304554 0.00119795 0)
(0.304387 0.00114395 0)
(0.304789 0.000862544 0)
(0.304908 0.00135449 0)
(0.314087 -0.0219503 0)
(0.316444 -0.0178582 0)
(0.317358 -0.0136509 0)
(0.317028 -0.0098742 0)
(0.316008 -0.00674781 0)
(0.314612 -0.00424993 0)
(0.313144 -0.00242566 0)
(0.311813 -0.000989026 0)
(0.310554 4.91203e-05 0)
(0.309516 0.000901217 0)
(0.30846 0.00162046 0)
(0.307456 0.0020031 0)
(0.306577 0.00240578 0)
(0.305534 0.00223987 0)
(0.305099 0.00213168 0)
(0.30433 0.00168908 0)
(0.304542 0.00118412 0)
(0.304339 0.0010886 0)
(0.304855 0.000699696 0)
(0.305003 0.0013279 0)
(0.316438 -0.023665 0)
(0.319054 -0.0186434 0)
(0.319835 -0.0137262 0)
(0.319175 -0.00947349 0)
(0.31777 -0.00607125 0)
(0.315996 -0.00346508 0)
(0.314214 -0.0016569 0)
(0.312647 -0.000279815 0)
(0.311217 0.000669459 0)
(0.31005 0.00148242 0)
(0.308863 0.00217779 0)
(0.307694 0.00253812 0)
(0.306662 0.00293997 0)
(0.305378 0.00265557 0)
(0.304848 0.00247277 0)
(0.30386 0.00184412 0)
(0.304119 0.0011702 0)
(0.303824 0.00101838 0)
(0.304453 0.000498942 0)
(0.304577 0.00130568 0)
(0.319316 -0.0256365 0)
(0.322111 -0.0194384 0)
(0.322618 -0.0136735 0)
(0.321489 -0.00887488 0)
(0.319564 -0.00518125 0)
(0.317296 -0.00249189 0)
(0.315102 -0.000729547 0)
(0.313228 0.0005402 0)
(0.311574 0.00137475 0)
(0.310223 0.00214374 0)
(0.308858 0.00281919 0)
(0.307446 0.00317803 0)
(0.306192 0.00358911 0)
(0.304563 0.00317733 0)
(0.303862 0.00291748 0)
(0.302547 0.00204963 0)
(0.30279 0.0011883 0)
(0.302308 0.000953393 0)
(0.303007 0.000282153 0)
(0.303023 0.00131199 0)
(0.322954 -0.0278423 0)
(0.325741 -0.0201943 0)
(0.325734 -0.0134067 0)
(0.323881 -0.00797844 0)
(0.321184 -0.00398078 0)
(0.318205 -0.00125335 0)
(0.315402 0.0004028 0)
(0.313062 0.00150706 0)
(0.311049 0.00220446 0)
(0.309393 0.00292323 0)
(0.307739 0.0035886 0)
(0.305958 0.00397568 0)
(0.304374 0.00440747 0)
(0.302259 0.00386804 0)
(0.301269 0.00352876 0)
(0.299482 0.00236088 0)
(0.299576 0.0013018 0)
(0.298789 0.000936081 0)
(0.299444 9.43146e-05 0)
(0.299285 0.00137838 0)
(0.327708 -0.0302127 0)
(0.329967 -0.0208459 0)
(0.3289 -0.0128065 0)
(0.325759 -0.00664015 0)
(0.321775 -0.00230324 0)
(0.317639 0.000415154 0)
(0.31386 0.00188384 0)
(0.310762 0.00274551 0)
(0.308135 0.0032644 0)
(0.30598 0.00390648 0)
(0.303876 0.0045653 0)
(0.301601 0.00500671 0)
(0.299584 0.00546501 0)
(0.296863 0.00480742 0)
(0.295465 0.00438389 0)
(0.293071 0.00285792 0)
(0.292828 0.00160036 0)
(0.29166 0.00102617 0)
(0.2921 -8.00946e-06 0)
(0.291838 0.00152297 0)
(0.333711 -0.0329369 0)
(0.333831 -0.0212651 0)
(0.330388 -0.0115474 0)
(0.324794 -0.00459955 0)
(0.318612 2.61887e-05 0)
(0.312605 0.00266563 0)
(0.307321 0.00387818 0)
(0.303084 0.00440643 0)
(0.299568 0.00467796 0)
(0.296791 0.00518239 0)
(0.29418 0.00581402 0)
(0.291482 0.00631442 0)
(0.289089 0.00679605 0)
(0.285843 0.00604292 0)
(0.284045 0.00553225 0)
(0.28104 0.00361207 0)
(0.280349 0.00215646 0)
(0.278895 0.00126212 0)
(0.278993 -9.82012e-06 0)
(0.27902 0.00170216 0)
(0.338971 -0.0332402 0)
(0.332583 -0.0193697 0)
(0.324106 -0.00783438 0)
(0.314225 -0.000516971 0)
(0.304919 0.00393406 0)
(0.296548 0.00610018 0)
(0.28957 0.00677656 0)
(0.284176 0.00674004 0)
(0.279955 0.00656886 0)
(0.276937 0.0067686 0)
(0.274288 0.00727159 0)
(0.271792 0.00778472 0)
(0.269526 0.00828364 0)
(0.266294 0.00748353 0)
(0.264432 0.00690892 0)
(0.261156 0.00459959 0)
(0.260209 0.00292818 0)
(0.258904 0.00157754 0)
(0.258784 -2.54954e-05 0)
(0.259891 0.001753 0)
(0.33007 -0.0332652 0)
(0.309889 -0.0161083 0)
(0.294684 -0.00239738 0)
(0.279931 0.00476121 0)
(0.268478 0.0089225 0)
(0.259133 0.0103776 0)
(0.252053 0.0102664 0)
(0.247046 0.00940411 0)
(0.243724 0.0085353 0)
(0.242025 0.00821706 0)
(0.240813 0.00844757 0)
(0.239955 0.00892753 0)
(0.23892 0.0094865 0)
(0.236825 0.00875376 0)
(0.235654 0.00821029 0)
(0.232971 0.00556826 0)
(0.232432 0.00364239 0)
(0.232103 0.00170313 0)
(0.23226 -0.000371195 0)
(0.235386 0.00138896 0)
(0.276659 -0.0182523 0)
(0.237658 -0.00243909 0)
(0.221652 0.0095694 0)
(0.207474 0.0127899 0)
(0.20029 0.014984 0)
(0.194974 0.0145783 0)
(0.192152 0.0131432 0)
(0.191143 0.0111036 0)
(0.191781 0.00930998 0)
(0.193811 0.00838303 0)
(0.196021 0.0083442 0)
(0.198406 0.00891365 0)
(0.199847 0.0097049 0)
(0.200187 0.00923762 0)
(0.200658 0.0088698 0)
(0.199836 0.00596986 0)
(0.200606 0.00377093 0)
(0.202212 0.00122142 0)
(0.203255 -0.0014304 0)
(0.208889 0.000335658 0)
(0.114741 0.00809443 0)
(0.098721 0.00714016 0)
(0.107307 0.0146815 0)
(0.107419 0.0139232 0)
(0.114358 0.0155816 0)
(0.118746 0.0140129 0)
(0.12431 0.0121015 0)
(0.130083 0.00940656 0)
(0.136572 0.00713651 0)
(0.143478 0.00601834 0)
(0.149906 0.00606414 0)
(0.156015 0.00708953 0)
(0.160499 0.00838149 0)
(0.164023 0.00838442 0)
(0.166832 0.00831857 0)
(0.168979 0.00521587 0)
(0.171588 0.0028124 0)
(0.175685 -0.000288791 0)
(0.177757 -0.00340026 0)
(0.185509 -0.00156236 0)
(0.0468246 -0.000955267 0)
(0.0344771 0.00314779 0)
(0.0538253 0.0104342 0)
(0.0589243 0.0102841 0)
(0.0722119 0.012209 0)
(0.0812635 0.0108654 0)
(0.0913151 0.00908409 0)
(0.100659 0.0063977 0)
(0.110115 0.00413556 0)
(0.119369 0.00315563 0)
(0.127829 0.00341664 0)
(0.135731 0.00484334 0)
(0.141924 0.00654157 0)
(0.147365 0.00688083 0)
(0.151682 0.00704569 0)
(0.155888 0.00398503 0)
(0.159492 0.00143504 0)
(0.165057 -0.00166792 0)
(0.16748 -0.00510533 0)
(0.175876 -0.00306174 0)
(0.0239253 -0.00655581 0)
(0.0117117 0.00237484 0)
(0.0337667 0.00855837 0)
(0.0406549 0.00863588 0)
(0.0562766 0.0104264 0)
(0.0671476 0.00927047 0)
(0.078951 0.00752598 0)
(0.0896941 0.00489445 0)
(0.100277 0.00266681 0)
(0.110389 0.00177555 0)
(0.119587 0.00214532 0)
(0.128135 0.0037475 0)
(0.134993 0.00562175 0)
(0.14121 0.00610322 0)
(0.146156 0.00636102 0)
(0.151248 0.00334839 0)
(0.155256 0.000728708 0)
(0.161417 -0.00230506 0)
(0.163957 -0.00589997 0)
(0.172508 -0.00371635 0)
(0.00777689 -0.00755199 0)
(-0.00550843 0.00156936 0)
(0.0179307 0.00644274 0)
(0.0261705 0.00678289 0)
(0.0436184 0.00837556 0)
(0.0560062 0.00745443 0)
(0.0692656 0.00576053 0)
(0.0811685 0.0032291 0)
(0.0926438 0.0010722 0)
(0.1034 0.000296102 0)
(0.113142 0.000788228 0)
(0.122166 0.00256549 0)
(0.129572 0.00460483 0)
(0.136467 0.00522584 0)
(0.141982 0.00556618 0)
(0.147903 0.00262235 0)
(0.152263 -5.16741e-05 0)
(0.158939 -0.00298348 0)
(0.161554 -0.00671137 0)
(0.170124 -0.00437312 0)
(-0.00253791 -0.00650751 0)
(-0.0173162 0.000739504 0)
(0.00669145 0.0041147 0)
(0.0158644 0.00471274 0)
(0.0346226 0.00610323 0)
(0.0481789 0.00543633 0)
(0.0625571 0.00382073 0)
(0.0753387 0.00142847 0)
(0.0874419 -0.000620376 0)
(0.0986011 -0.00125733 0)
(0.108678 -0.000631543 0)
(0.11799 0.00131746 0)
(0.125811 0.00350543 0)
(0.133266 0.00426219 0)
(0.139269 0.0046731 0)
(0.145934 0.00181399 0)
(0.150583 -0.000890933 0)
(0.157676 -0.00370209 0)
(0.160325 -0.00752208 0)
(0.168774 -0.00503082 0)
(-0.00787903 -0.00431913 0)
(-0.0238081 -5.8622e-05 0)
(0.000311157 0.00169591 0)
(0.010011 0.00250966 0)
(0.0295617 0.00367679 0)
(0.0439033 0.00327202 0)
(0.0590315 0.00175634 0)
(0.0723798 -0.00046355 0)
(0.0848263 -0.00237078 0)
(0.0961344 -0.00284914 0)
(0.106326 -0.00208279 0)
(0.115731 2.86411e-05 0)
(0.123817 0.00234412 0)
(0.131695 0.00322851 0)
(0.13809 0.00369572 0)
(0.14539 0.000935953 0)
(0.150257 -0.00177661 0)
(0.157651 -0.00444843 0)
(0.160294 -0.00831893 0)
(0.168488 -0.00567818 0)
(-0.00881701 -0.00163314 0)
(-0.0250467 -0.000810955 0)
(-0.001055 -0.000738988 0)
(0.00876772 0.000249896 0)
(0.0285902 0.00116647 0)
(0.0433092 0.00102282 0)
(0.0587963 -0.000379138 0)
(0.0723801 -0.00239987 0)
(0.0848763 -0.0041372 0)
(0.0960747 -0.00444281 0)
(0.10616 -0.00353365 0)
(0.115458 -0.00127433 0)
(0.123651 0.00114338 0)
(0.131803 0.00214326 0)
(0.138477 0.00265067 0)
(0.146281 2.99328e-06 0)
(0.151287 -0.00269473 0)
(0.158859 -0.00520948 0)
(0.161459 -0.0090899 0)
(0.169272 -0.00630417 0)
(-0.00554979 0.000874775 0)
(-0.021054 -0.00155284 0)
(0.0026433 -0.00315403 0)
(0.0121797 -0.00200643 0)
(0.0317444 -0.0013569 0)
(0.0464165 -0.00125003 0)
(0.0618582 -0.00253103 0)
(0.0753383 -0.0043332 0)
(0.0875916 -0.00587857 0)
(0.098427 -0.00600278 0)
(0.10819 -0.00495307 0)
(0.117188 -0.00256475 0)
(0.125325 -7.32848e-05 0)
(0.133593 0.00102678 0)
(0.140421 0.00155702 0)
(0.148586 -0.000968487 0)
(0.153647 -0.0036298 0)
(0.161267 -0.0059729 0)
(0.163789 -0.00982372 0)
(0.171108 -0.00689919 0)
(0.0020903 0.00252315 0)
(-0.011808 -0.00229537 0)
(0.0113502 -0.0055167 0)
(0.02018 -0.00419303 0)
(0.0389421 -0.00382058 0)
(0.0531352 -0.00348262 0)
(0.0681238 -0.00464345 0)
(0.0811635 -0.00621637 0)
(0.092892 -0.00755482 0)
(0.103125 -0.00749488 0)
(0.112364 -0.00631128 0)
(0.12088 -0.00381618 0)
(0.128798 -0.00128179 0)
(0.137024 -9.89634e-05 0)
(0.143874 0.000435666 0)
(0.152245 -0.00196056 0)
(0.157275 -0.00456556 0)
(0.164814 -0.00672652 0)
(0.167226 -0.0105108 0)
(0.173954 -0.00745391 0)
(0.0145674 0.00253882 0)
(0.00275351 -0.00307996 0)
(0.0248953 -0.00774009 0)
(0.0325881 -0.00623321 0)
(0.0499842 -0.00615065 0)
(0.063269 -0.00561118 0)
(0.0774031 -0.00666115 0)
(0.0896786 -0.0080041 0)
(0.10062 -0.00912828 0)
(0.110034 -0.00888748 0)
(0.118568 -0.00758083 0)
(0.126439 -0.00500336 0)
(0.133984 -0.00245838 0)
(0.142012 -0.00121167 0)
(0.14875 -0.000691548 0)
(0.15717 -0.00295492 0)
(0.162081 -0.0054858 0)
(0.169415 -0.00745862 0)
(0.17169 -0.0111427 0)
(0.177748 -0.00796083 0)
(0.0324802 -0.000281532 0)
(0.0227537 -0.0040559 0)
(0.0430139 -0.00973906 0)
(0.0490998 -0.00808381 0)
(0.0645575 -0.00827763 0)
(0.0765213 -0.00759091 0)
(0.0894163 -0.00853571 0)
(0.100627 -0.00965938 0)
(0.110545 -0.0105682 0)
(0.118954 -0.0101548 0)
(0.126627 -0.00873911 0)
(0.133716 -0.00610662 0)
(0.140747 -0.00358145 0)
(0.148433 -0.00229412 0)
(0.154929 -0.00180418 0)
(0.163241 -0.00393605 0)
(0.167951 -0.00637657 0)