x,y,z,p
0,0,0,14.1443
0,0.1,0,14.1052
0,0.2,0,14.0661
0,0.3,0,14.0227
0,0.4,0,13.975
0,0.5,0,13.9272
0,0.6,0,13.9082
0,0.7,0,13.8891
0,0.8,0,13.872
0,0.9,0,13.8567
0,1,0,13.8414
0,1.1,0,13.8336
0,1.2,0,13.8257
0,1.3,0,13.8196
0,1.4,0,13.8154
0,1.5,0,13.8112
0,1.6,0,13.8099
0,1.7,0,13.8087
0,1.8,0,13.8086
0,1.9,0,13.8096
0,2,0,13.8106
0,2.1,0,13.8132
0,2.2,0,13.8158
0,2.3,0,13.819
0,2.4,0,13.8228
0,2.5,0,13.8266
0,2.6,0,13.8311
0,2.7,0,13.8356
0,2.8,0,13.8405
0,2.9,0,13.8455
0,3,0,13.8506
0,3.1,0,13.8561
0,3.2,0,13.8616
0,3.3,0,13.8672
0,3.4,0,13.873
0,3.5,0,13.8788
0,3.6,0,13.8846
0,3.7,0,13.8903
0,3.8,0,13.8962
0,3.9,0,13.9023
0,4,0,13.9083
0,4.1,0,13.9164
0,4.2,0,13.9244
0,4.3,0,13.9336
0,4.4,0,13.9439
0,4.5,0,13.9542
0,4.6,0,13.9638
0,4.7,0,13.9734
0,4.8,0,13.9807
0,4.9,0,13.9856
0,5,0,13.9904
0,5.1,0,13.9923
0,5.2,0,13.9945
0,5.3,0,13.9968
0,5.4,0,13.998
0,5.5,0,13.997
0,5.6,0,13.993
0,5.7,0,13.986
0,5.8,0,13.9764
0,5.9,0,13.9657
0,6,0,13.9534
0,6.1,0,13.9391
0,6.2,0,13.9248
0,6.3,0,13.9105
0,6.4,0,13.894
0,6.5,0,13.8763
0,6.6,0,13.8586
0,6.7,0,13.8412
0,6.8,0,13.8245
0,6.9,0,13.8079
0,7,0,13.7912
0,7.1,0,13.7758
0,7.2,0,13.7604
0,7.3,0,13.745
0,7.4,0,13.7302
0,7.5,0,13.7158
0,7.6,0,13.7013
0,7.7,0,13.6869
0,7.8,0,13.6725
0,7.9,0,13.6582
0,8,0,13.6439
0,8.1,0,13.6297
0,8.2,0,13.6155
0,8.3,0,13.6013
0,8.4,0,13.5873
0,8.5,0,13.5735
0,8.6,0,13.5598
0,8.7,0,13.5461
0,8.8,0,13.533
0,8.9,0,13.5198
0,9,0,13.5066
0,9.1,0,13.4943
0,9.2,0,13.4822
0,9.3,0,13.47
0,9.4,0,13.4586
0,9.5,0,13.4478
0,9.6,0,13.437
0,9.7,0,13.4265
0,9.8,0,13.4174
0,9.9,0,13.4083
0,10,0,13.3993
0,10.1,0,13.3918
0,10.2,0,13.3847
0,10.3,0,13.3776
0,10.4,0,13.3714
0,10.5,0,13.3665
0,10.6,0,13.3616
0,10.7,0,13.3569
0,10.8,0,13.3548
0,10.9,0,13.3526
0,11,0,13.3505
0,11.1,0,13.3502
0,11.2,0,13.3506
0,11.3,0,13.3509
0,11.4,0,13.3534
0,11.5,0,13.359
0,11.6,0,13.3647
0,11.7,0,13.3704
0,11.8,0,13.3788
0,11.9,0,13.3873
0,12,0,13.3957
0,12.1,0,13.4175
0,12.2,0,13.4451
0,12.3,0,13.4727
0,12.4,0,13.4991
0,12.5,0,13.5232
0,12.6,0,13.5474
0,12.7,0,13.5716
0.1,0,0,14.0564
0.1,0.1,0,14.03
0.1,0.2,0,13.9909
0.1,0.3,0,13.9551
0.1,0.4,0,13.9149
0.1,0.5,0,13.8671
0.1,0.6,0,13.852
0.1,0.7,0,13.833
0.1,0.8,0,13.8169
0.1,0.9,0,13.8028
0.1,1,0,13.7875
0.1,1.1,0,13.7808
0.1,1.2,0,13.7729
0.1,1.3,0,13.7672
0.1,1.4,0,13.7632
0.1,1.5,0,13.759
0.1,1.6,0,13.7583
0.1,1.7,0,13.7571
0.1,1.8,0,13.7572
0.1,1.9,0,13.7585
0.1,2,0,13.7595
0.1,2.1,0,13.7629
0.1,2.2,0,13.7655
0.1,2.3,0,13.7693
0.1,2.4,0,13.7737
0.1,2.5,0,13.7774
0.1,2.6,0,13.7836
0.1,2.7,0,13.7881
0.1,2.8,0,13.7939
0.1,2.9,0,13.7999
0.1,3,0,13.805
0.1,3.1,0,13.8122
0.1,3.2,0,13.8177
0.1,3.3,0,13.8238
0.1,3.4,0,13.8301
0.1,3.5,0,13.8359
0.1,3.6,0,13.8419
0.1,3.7,0,13.8476
0.1,3.8,0,13.8528
0.1,3.9,0,13.8581
0.1,4,0,13.8641
0.1,4.1,0,13.8674
0.1,4.2,0,13.8755
0.1,4.3,0,13.881
0.1,4.4,0,13.8877
0.1,4.5,0,13.898
0.1,4.6,0,13.8998
0.1,4.7,0,13.9094
0.1,4.8,0,13.9137
0.1,4.9,0,13.9156
0.1,5,0,13.9205
0.1,5.1,0,13.92
0.1,5.2,0,13.9205
0.1,5.3,0,13.9214
0.1,5.4,0,13.9214
0.1,5.5,0,13.9197
0.1,5.6,0,13.9155
0.1,5.7,0,13.9088
0.1,5.8,0,13.8999
0.1,5.9,0,13.8902
0.1,6,0,13.879
0.1,6.1,0,13.8728
0.1,6.2,0,13.8613
0.1,6.3,0,13.847
0.1,6.4,0,13.8358
0.1,6.5,0,13.8237
0.1,6.6,0,13.806
0.1,6.7,0,13.7901
0.1,6.8,0,13.7782
0.1,6.9,0,13.7617
0.1,7,0,13.745
0.1,7.1,0,13.7318
0.1,7.2,0,13.7173
0.1,7.3,0,13.7019
0.1,7.4,0,13.687
0.1,7.5,0,13.6725
0.1,7.6,0,13.658
0.1,7.7,0,13.6432
0.1,7.8,0,13.6276
0.1,7.9,0,13.6131
0.1,8,0,13.5988
0.1,8.1,0,13.5831
0.1,8.2,0,13.5682
0.1,8.3,0,13.554
0.1,8.4,0,13.5393
0.1,8.5,0,13.5245
0.1,8.6,0,13.5107
0.1,8.7,0,13.4969
0.1,8.8,0,13.4828
0.1,8.9,0,13.4696
0.1,9,0,13.4564
0.1,9.1,0,13.4437
0.1,9.2,0,13.4313
0.1,9.3,0,13.4192
0.1,9.4,0,13.4076
0.1,9.5,0,13.3966
0.1,9.6,0,13.3859
0.1,9.7,0,13.3753
0.1,9.8,0,13.3661
0.1,9.9,0,13.357
0.1,10,0,13.348
0.1,10.1,0,13.3404
0.1,10.2,0,13.3332
0.1,10.3,0,13.3261
0.1,10.4,0,13.32
0.1,10.5,0,13.3149
0.1,10.6,0,13.31
0.1,10.7,0,13.3054
0.1,10.8,0,13.3031
0.1,10.9,0,13.3009
0.1,11,0,13.2987
0.1,11.1,0,13.2982
0.1,11.2,0,13.2984
0.1,11.3,0,13.2987
0.1,11.4,0,13.3009
0.1,11.5,0,13.3058
0.1,11.6,0,13.3114
0.1,11.7,0,13.3171
0.1,11.8,0,13.3241
0.1,11.9,0,13.3321
0.1,12,0,13.3405
0.1,12.1,0,13.357
0.1,12.2,0,13.3796
0.1,12.3,0,13.4072
0.1,12.4,0,13.4313
0.1,12.5,0,13.4488
0.1,12.6,0,13.473
0.1,12.7,0,13.4971
0.2,0,0,13.9686
0.2,0.1,0,13.9422
0.2,0.2,0,13.9157
0.2,0.3,0,13.8799
0.2,0.4,0,13.8472
0.2,0.5,0,13.807
0.2,0.6,0,13.7919
0.2,0.7,0,13.7768
0.2,0.8,0,13.7608
0.2,0.9,0,13.7478
0.2,1,0,13.7337
0.2,1.1,0,13.7269
0.2,1.2,0,13.7202
0.2,1.3,0,13.7144
0.2,1.4,0,13.7108
0.2,1.5,0,13.7068
0.2,1.6,0,13.7061
0.2,1.7,0,13.7054
0.2,1.8,0,13.7056
0.2,1.9,0,13.7071
0.2,2,0,13.7084
0.2,2.1,0,13.7118
0.2,2.2,0,13.7152
0.2,2.3,0,13.719
0.2,2.4,0,13.7239
0.2,2.5,0,13.7283
0.2,2.6,0,13.7344
0.2,2.7,0,13.7406
0.2,2.8,0,13.7464
0.2,2.9,0,13.7533
0.2,3,0,13.7594
0.2,3.1,0,13.7665
0.2,3.2,0,13.7737
0.2,3.3,0,13.7799
0.2,3.4,0,13.7867
0.2,3.5,0,13.793
0.2,3.6,0,13.799
0.2,3.7,0,13.8049
0.2,3.8,0,13.8101
0.2,3.9,0,13.8146
0.2,4,0,13.8199
0.2,4.1,0,13.8232
0.2,4.2,0,13.8265
0.2,4.3,0,13.832
0.2,4.4,0,13.835
0.2,4.5,0,13.8417
0.2,4.6,0,13.8436
0.2,4.7,0,13.8454
0.2,4.8,0,13.8497
0.2,4.9,0,13.8486
0.2,5,0,13.8505
0.2,5.1,0,13.8477
0.2,5.2,0,13.8465
0.2,5.3,0,13.8459
0.2,5.4,0,13.8448
0.2,5.5,0,13.8424
0.2,5.6,0,13.838
0.2,5.7,0,13.8316
0.2,5.8,0,13.8235
0.2,5.9,0,13.8147
0.2,6,0,13.8047
0.2,6.1,0,13.7985
0.2,6.2,0,13.7923
0.2,6.3,0,13.7835
0.2,6.4,0,13.7723
0.2,6.5,0,13.7627
0.2,6.6,0,13.7532
0.2,6.7,0,13.7375
0.2,6.8,0,13.7256
0.2,6.9,0,13.7137
0.2,7,0,13.6989
0.2,7.1,0,13.6856
0.2,7.2,0,13.6725
0.2,7.3,0,13.6588
0.2,7.4,0,13.6439
0.2,7.5,0,13.6293
0.2,7.6,0,13.6147
0.2,7.7,0,13.6
0.2,7.8,0,13.5843
0.2,7.9,0,13.5686
0.2,8,0,13.5537
0.2,8.1,0,13.538
0.2,8.2,0,13.5222
0.2,8.3,0,13.5068
0.2,8.4,0,13.4921
0.2,8.5,0,13.4769
0.2,8.6,0,13.4618
0.2,8.7,0,13.4478
0.2,8.8,0,13.4338
0.2,8.9,0,13.4197
0.2,9,0,13.4062
0.2,9.1,0,13.3935
0.2,9.2,0,13.3809
0.2,9.3,0,13.3683
0.2,9.4,0,13.3567
0.2,9.5,0,13.3457
0.2,9.6,0,13.3347
0.2,9.7,0,13.3242
0.2,9.8,0,13.315
0.2,9.9,0,13.3058
0.2,10,0,13.2967
0.2,10.1,0,13.2891
0.2,10.2,0,13.2819
0.2,10.3,0,13.2747
0.2,10.4,0,13.2685
0.2,10.5,0,13.2635
0.2,10.6,0,13.2585
0.2,10.7,0,13.2538
0.2,10.8,0,13.2515
0.2,10.9,0,13.2492
0.2,11,0,13.247
0.2,11.1,0,13.2465
0.2,11.2,0,13.2465
0.2,11.3,0,13.2465
0.2,11.4,0,13.2487
0.2,11.5,0,13.2535
0.2,11.6,0,13.2584
0.2,11.7,0,13.2639
0.2,11.8,0,13.2708
0.2,11.9,0,13.2778
0.2,12,0,13.2853
0.2,12.1,0,13.3018
0.2,12.2,0,13.3217
0.2,12.3,0,13.3418
0.2,12.4,0,13.3658
0.2,12.5,0,13.3833
0.2,12.6,0,13.4007
0.2,12.7,0,13.4227
0.3,0,0,13.8345
0.3,0.1,0,13.817
0.3,0.2,0,13.7905
0.3,0.3,0,13.7718
0.3,0.4,0,13.7392
0.3,0.5,0,13.7065
0.3,0.6,0,13.6948
0.3,0.7,0,13.6797
0.3,0.8,0,13.6679
0.3,0.9,0,13.6549
0.3,1,0,13.6419
0.3,1.1,0,13.6364
0.3,1.2,0,13.6297
0.3,1.3,0,13.6252
0.3,1.4,0,13.6216
0.3,1.5,0,13.6179
0.3,1.6,0,13.6177
0.3,1.7,0,13.617
0.3,1.8,0,13.6179
0.3,1.9,0,13.6194
0.3,2,0,13.621
0.3,2.1,0,13.6248
0.3,2.2,0,13.6282
0.3,2.3,0,13.6328
0.3,2.4,0,13.6377
0.3,2.5,0,13.6427
0.3,2.6,0,13.6492
0.3,2.7,0,13.6554
0.3,2.8,0,13.6624
0.3,2.9,0,13.6693
0.3,3,0,13.6763
0.3,3.1,0,13.6838
0.3,3.2,0,13.691
0.3,3.3,0,13.6982
0.3,3.4,0,13.7051
0.3,3.5,0,13.7119
0.3,3.6,0,13.7179
0.3,3.7,0,13.7239
0.3,3.8,0,13.729
0.3,3.9,0,13.7336
0.3,4,0,13.7381
0.3,4.1,0,13.7408
0.3,4.2,0,13.7441
0.3,4.3,0,13.7457
0.3,4.4,0,13.7487
0.3,4.5,0,13.7517
0.3,4.6,0,13.7515
0.3,4.7,0,13.7533
0.3,4.8,0,13.7527
0.3,4.9,0,13.7516
0.3,5,0,13.7505
0.3,5.1,0,13.7467
0.3,5.2,0,13.7448
0.3,5.3,0,13.7435
0.3,5.4,0,13.7418
0.3,5.5,0,13.7389
0.3,5.6,0,13.7344
0.3,5.7,0,13.7282
0.3,5.8,0,13.7206
0.3,5.9,0,13.7122
0.3,6,0,13.7024
0.3,6.1,0,13.6976
0.3,6.2,0,13.6914
0.3,6.3,0,13.6852
0.3,6.4,0,13.6793
0.3,6.5,0,13.6699
0.3,6.6,0,13.6604
0.3,6.7,0,13.6507
0.3,6.8,0,13.6395
0.3,6.9,0,13.6276
0.3,7,0,13.6157
0.3,7.1,0,13.603
0.3,7.2,0,13.5899
0.3,7.3,0,13.5768
0.3,7.4,0,13.5627
0.3,7.5,0,13.5481
0.3,7.6,0,13.5335
0.3,7.7,0,13.5185
0.3,7.8,0,13.5027
0.3,7.9,0,13.487
0.3,8,0,13.4713
0.3,8.1,0,13.4551
0.3,8.2,0,13.4393
0.3,8.3,0,13.4235
0.3,8.4,0,13.4077
0.3,8.5,0,13.3925
0.3,8.6,0,13.3773
0.3,8.7,0,13.3623
0.3,8.8,0,13.3481
0.3,8.9,0,13.3341
0.3,9,0,13.32
0.3,9.1,0,13.307
0.3,9.2,0,13.2943
0.3,9.3,0,13.2817
0.3,9.4,0,13.2698
0.3,9.5,0,13.2587
0.3,9.6,0,13.2477
0.3,9.7,0,13.237
0.3,9.8,0,13.2277
0.3,9.9,0,13.2185
0.3,10,0,13.2093
0.3,10.1,0,13.2016
0.3,10.2,0,13.1944
0.3,10.3,0,13.1872
0.3,10.4,0,13.1808
0.3,10.5,0,13.1758
0.3,10.6,0,13.1707
0.3,10.7,0,13.1659
0.3,10.8,0,13.1634
0.3,10.9,0,13.1611
0.3,11,0,13.1588
0.3,11.1,0,13.1578
0.3,11.2,0,13.1578
0.3,11.3,0,13.1578
0.3,11.4,0,13.1591
0.3,11.5,0,13.1635
0.3,11.6,0,13.1683
0.3,11.7,0,13.1731
0.3,11.8,0,13.1784
0.3,11.9,0,13.1854
0.3,12,0,13.1923
0.3,12.1,0,13.2006
0.3,12.2,0,13.2205
0.3,12.3,0,13.2404
0.3,12.4,0,13.256
0.3,12.5,0,13.2702
0.3,12.6,0,13.2877
0.3,12.7,0,13.3051
0.4,0,0,13.6543
0.4,0.1,0,13.6456
0.4,0.2,0,13.628
0.4,0.3,0,13.6093
0.4,0.4,0,13.5982
0.4,0.5,0,13.5656
0.4,0.6,0,13.5573
0.4,0.7,0,13.5456
0.4,0.8,0,13.5338
0.4,0.9,0,13.5254
0.4,1,0,13.5124
0.4,1.1,0,13.5081
0.4,1.2,0,13.5026
0.4,1.3,0,13.4981
0.4,1.4,0,13.4959
0.4,1.5,0,13.4923
0.4,1.6,0,13.4926
0.4,1.7,0,13.4924
0.4,1.8,0,13.4932
0.4,1.9,0,13.4956
0.4,2,0,13.4972
0.4,2.1,0,13.5014
0.4,2.2,0,13.5052
0.4,2.3,0,13.5098
0.4,2.4,0,13.5156
0.4,2.5,0,13.5205
0.4,2.6,0,13.5275
0.4,2.7,0,13.5341
0.4,2.8,0,13.5411
0.4,2.9,0,13.5488
0.4,3,0,13.5558
0.4,3.1,0,13.5636
0.4,3.2,0,13.5712
0.4,3.3,0,13.5784
0.4,3.4,0,13.5857
0.4,3.5,0,13.5925
0.4,3.6,0,13.5986
0.4,3.7,0,13.6047
0.4,3.8,0,13.6098
0.4,3.9,0,13.6142
0.4,4,0,13.6187
0.4,4.1,0,13.6208
0.4,4.2,0,13.6235
0.4,4.3,0,13.6251
0.4,4.4,0,13.6251
0.4,4.5,0,13.6281
0.4,4.6,0,13.6257
0.4,4.7,0,13.6254
0.4,4.8,0,13.6247
0.4,4.9,0,13.6216
0.4,5,0,13.6205
0.4,5.1,0,13.6171
0.4,5.2,0,13.6155
0.4,5.3,0,13.6142
0.4,5.4,0,13.6123
0.4,5.5,0,13.6092
0.4,5.6,0,13.6047
0.4,5.7,0,13.5987
0.4,5.8,0,13.5912
0.4,5.9,0,13.5827
0.4,6,0,13.5722
0.4,6.1,0,13.5681
0.4,6.2,0,13.5639
0.4,6.3,0,13.5578
0.4,6.4,0,13.5519
0.4,6.5,0,13.5463
0.4,6.6,0,13.5382
0.4,6.7,0,13.5285
0.4,6.8,0,13.5184
0.4,6.9,0,13.5078
0.4,7,0,13.4959
0.4,7.1,0,13.4834
0.4,7.2,0,13.4708
0.4,7.3,0,13.4577
0.4,7.4,0,13.4436
0.4,7.5,0,13.4288
0.4,7.6,0,13.4142
0.4,7.7,0,13.3992
0.4,7.8,0,13.3831
0.4,7.9,0,13.367
0.4,8,0,13.3514
0.4,8.1,0,13.335
0.4,8.2,0,13.3186
0.4,8.3,0,13.3027
0.4,8.4,0,13.2869
0.4,8.5,0,13.2712
0.4,8.6,0,13.2558
0.4,8.7,0,13.2407
0.4,8.8,0,13.2262
0.4,8.9,0,13.2118
0.4,9,0,13.1978
0.4,9.1,0,13.1846
0.4,9.2,0,13.1716
0.4,9.3,0,13.1589
0.4,9.4,0,13.147
0.4,9.5,0,13.1357
0.4,9.6,0,13.1246
0.4,9.7,0,13.1138
0.4,9.8,0,13.1044
0.4,9.9,0,13.095
0.4,10,0,13.0859
0.4,10.1,0,13.0781
0.4,10.2,0,13.0707
0.4,10.3,0,13.0635
0.4,10.4,0,13.0571
0.4,10.5,0,13.0518
0.4,10.6,0,13.0466
0.4,10.7,0,13.0418
0.4,10.8,0,13.0392
0.4,10.9,0,13.0365
0.4,11,0,13.0342
0.4,11.1,0,13.0331
0.4,11.2,0,13.0324
0.4,11.3,0,13.0322
0.4,11.4,0,13.0334
0.4,11.5,0,13.0366
0.4,11.6,0,13.0404
0.4,11.7,0,13.0452
0.4,11.8,0,13.0494
0.4,11.9,0,13.0537
0.4,12,0,13.0607
0.4,12.1,0,13.0686
0.4,12.2,0,13.0769
0.4,12.3,0,13.0932
0.4,12.4,0,13.1088
0.4,12.5,0,13.1162
0.4,12.6,0,13.127
0.4,12.7,0,13.1444
0.5,0,0,13.4741
0.5,0.1,0,13.4653
0.5,0.2,0,13.4566
0.5,0.3,0,13.4467
0.5,0.4,0,13.4357
0.5,0.5,0,13.4247
0.5,0.6,0,13.4163
0.5,0.7,0,13.408
0.5,0.8,0,13.3997
0.5,0.9,0,13.3913
0.5,1,0,13.3829
0.5,1.1,0,13.3786
0.5,1.2,0,13.3743
0.5,1.3,0,13.371
0.5,1.4,0,13.3688
0.5,1.5,0,13.3666
0.5,1.6,0,13.3669
0.5,1.7,0,13.3673
0.5,1.8,0,13.3686
0.5,1.9,0,13.371
0.5,2,0,13.3734
0.5,2.1,0,13.3777
0.5,2.2,0,13.3819
0.5,2.3,0,13.3869
0.5,2.4,0,13.3927
0.5,2.5,0,13.3984
0.5,2.6,0,13.4054
0.5,2.7,0,13.4124
0.5,2.8,0,13.4198
0.5,2.9,0,13.4275
0.5,3,0,13.4353
0.5,3.1,0,13.4432
0.5,3.2,0,13.451
0.5,3.3,0,13.4586
0.5,3.4,0,13.4659
0.5,3.5,0,13.4731
0.5,3.6,0,13.4793
0.5,3.7,0,13.4854
0.5,3.8,0,13.4906
0.5,3.9,0,13.495
0.5,4,0,13.4993
0.5,4.1,0,13.5014
0.5,4.2,0,13.5035
0.5,4.3,0,13.5045
0.5,4.4,0,13.5045
0.5,4.5,0,13.5044
0.5,4.6,0,13.502
0.5,4.7,0,13.4996
0.5,4.8,0,13.4968
0.5,4.9,0,13.4936
0.5,5,0,13.4905
0.5,5.1,0,13.4875
0.5,5.2,0,13.4863
0.5,5.3,0,13.4849
0.5,5.4,0,13.4828
0.5,5.5,0,13.4796
0.5,5.6,0,13.475
0.5,5.7,0,13.4691
0.5,5.8,0,13.4618
0.5,5.9,0,13.4532
0.5,6,0,13.442
0.5,6.1,0,13.4379
0.5,6.2,0,13.4338
0.5,6.3,0,13.4296
0.5,6.4,0,13.4245
0.5,6.5,0,13.4189
0.5,6.6,0,13.4133
0.5,6.7,0,13.4063
0.5,6.8,0,13.3962
0.5,6.9,0,13.3861
0.5,7,0,13.376
0.5,7.1,0,13.3636
0.5,7.2,0,13.351
0.5,7.3,0,13.3384
0.5,7.4,0,13.3245
0.5,7.5,0,13.3097
0.5,7.6,0,13.295
0.5,7.7,0,13.2799
0.5,7.8,0,13.2637
0.5,7.9,0,13.2476
0.5,8,0,13.2314
0.5,8.1,0,13.215
0.5,8.2,0,13.1986
0.5,8.3,0,13.1822
0.5,8.4,0,13.1662
0.5,8.5,0,13.1504
0.5,8.6,0,13.1347
0.5,8.7,0,13.1191
0.5,8.8,0,13.1046
0.5,8.9,0,13.0901
0.5,9,0,13.0756
0.5,9.1,0,13.0623
0.5,9.2,0,13.0493
0.5,9.3,0,13.0363
0.5,9.4,0,13.0242
0.5,9.5,0,13.0129
0.5,9.6,0,13.0016
0.5,9.7,0,12.9906
0.5,9.8,0,12.9812
0.5,9.9,0,12.9718
0.5,10,0,12.9625
0.5,10.1,0,12.9547
0.5,10.2,0,12.9472
0.5,10.3,0,12.9398
0.5,10.4,0,12.9334
0.5,10.5,0,12.9281
0.5,10.6,0,12.9228
0.5,10.7,0,12.9177
0.5,10.8,0,12.9151
0.5,10.9,0,12.9124
0.5,11,0,12.9097
0.5,11.1,0,12.9085
0.5,11.2,0,12.9077
0.5,11.3,0,12.907
0.5,11.4,0,12.9078
0.5,11.5,0,12.9109
0.5,11.6,0,12.9141
0.5,11.7,0,12.9172
0.5,11.8,0,12.9215
0.5,11.9,0,12.9257
0.5,12,0,12.9299
0.5,12.1,0,12.937
0.5,12.2,0,12.9453
0.5,12.3,0,12.9536
0.5,12.4,0,12.9616
0.5,12.5,0,12.969
0.5,12.6,0,12.9764
0.5,12.7,0,12.9838
0.6,0,0,13.3013
0.6,0.1,0,13.2988
0.6,0.2,0,13.2901
0.6,0.3,0,13.2842
0.6,0.4,0,13.2771
0.6,0.5,0,13.2661
0.6,0.6,0,13.2621
0.6,0.7,0,13.2538
0.6,0.8,0,13.2474
0.6,0.9,0,13.2409
0.6,1,0,13.2325
0.6,1.1,0,13.2306
0.6,1.2,0,13.2263
0.6,1.3,0,13.2238
0.6,1.4,0,13.2224
0.6,1.5,0,13.2202
0.6,1.6,0,13.2217
0.6,1.7,0,13.2221
0.6,1.8,0,13.2239
0.6,1.9,0,13.2267
0.6,2,0,13.2291
0.6,2.1,0,13.2339
0.6,2.2,0,13.2381
0.6,2.3,0,13.2432
0.6,2.4,0,13.2491
0.6,2.5,0,13.2549
0.6,2.6,0,13.2619
0.6,2.7,0,13.2689
0.6,2.8,0,13.2761
0.6,2.9,0,13.2838
0.6,3,0,13.2916
0.6,3.1,0,13.2994
0.6,3.2,0,13.3072
0.6,3.3,0,13.315
0.6,3.4,0,13.3224
0.6,3.5,0,13.3297
0.6,3.6,0,13.3365
0.6,3.7,0,13.3426
0.6,3.8,0,13.3485
0.6,3.9,0,13.3536
0.6,4,0,13.3579
0.6,4.1,0,13.3627
0.6,4.2,0,13.3647
0.6,4.3,0,13.3677
0.6,4.4,0,13.3695
0.6,4.5,0,13.3695
0.6,4.6,0,13.3715
0.6,4.7,0,13.3691
0.6,4.8,0,13.3684
0.6,4.9,0,13.3674
0.6,5,0,13.3643
0.6,5.1,0,13.3636
0.6,5.2,0,13.3637
0.6,5.3,0,13.3633
0.6,5.4,0,13.3618
0.6,5.5,0,13.3589
0.6,5.6,0,13.3544
0.6,5.7,0,13.3482
0.6,5.8,0,13.3404
0.6,5.9,0,13.3309
0.6,6,0,13.3176
0.6,6.1,0,13.309
0.6,6.2,0,13.3033
0.6,6.3,0,13.2992
0.6,6.4,0,13.291
0.6,6.5,0,13.2822
0.6,6.6,0,13.2766
0.6,6.7,0,13.2688
0.6,6.8,0,13.2558
0.6,6.9,0,13.2456
0.6,7,0,13.2355
0.6,7.1,0,13.2215
0.6,7.2,0,13.2083
0.6,7.3,0,13.1957
0.6,7.4,0,13.1814
0.6,7.5,0,13.1662
0.6,7.6,0,13.1515
0.6,7.7,0,13.1364
0.6,7.8,0,13.1203
0.6,7.9,0,13.1041
0.6,8,0,13.088
0.6,8.1,0,13.0719
0.6,8.2,0,13.0556
0.6,8.3,0,13.0392
0.6,8.4,0,13.0233
0.6,8.5,0,13.0077
0.6,8.6,0,12.992
0.6,8.7,0,12.9764
0.6,8.8,0,12.9619
0.6,8.9,0,12.9474
0.6,9,0,12.9329
0.6,9.1,0,12.9195
0.6,9.2,0,12.9064
0.6,9.3,0,12.8934
0.6,9.4,0,12.8812
0.6,9.5,0,12.8697
0.6,9.6,0,12.8584
0.6,9.7,0,12.8474
0.6,9.8,0,12.8378
0.6,9.9,0,12.8283
0.6,10,0,12.8189
0.6,10.1,0,12.8109
0.6,10.2,0,12.8034
0.6,10.3,0,12.796
0.6,10.4,0,12.7894
0.6,10.5,0,12.7837
0.6,10.6,0,12.7784
0.6,10.7,0,12.7733
0.6,10.8,0,12.7701
0.6,10.9,0,12.7673
0.6,11,0,12.7647
0.6,11.1,0,12.7628
0.6,11.2,0,12.7616
0.6,11.3,0,12.7608
0.6,11.4,0,12.7609
0.6,11.5,0,12.7624
0.6,11.6,0,12.7656
0.6,11.7,0,12.7687
0.6,11.8,0,12.7708
0.6,11.9,0,12.7744
0.6,12,0,12.7786
0.6,12.1,0,12.782
0.6,12.2,0,12.7869
0.6,12.3,0,12.7952
0.6,12.4,0,12.8017
0.6,12.5,0,12.8048
0.6,12.6,0,12.8122
0.6,12.7,0,12.8195
0.7,0,0,13.1286
0.7,0.1,0,13.126
0.7,0.2,0,13.1235
0.7,0.3,0,13.1176
0.7,0.4,0,13.1145
0.7,0.5,0,13.1075
0.7,0.6,0,13.1035
0.7,0.7,0,13.0995
0.7,0.8,0,13.0931
0.7,0.9,0,13.0886
0.7,1,0,13.0821
0.7,1.1,0,13.0802
0.7,1.2,0,13.0783
0.7,1.3,0,13.0758
0.7,1.4,0,13.0752
0.7,1.5,0,13.0738
0.7,1.6,0,13.0753
0.7,1.7,0,13.0769
0.7,1.8,0,13.0787
0.7,1.9,0,13.0819
0.7,2,0,13.0847
0.7,2.1,0,13.0895
0.7,2.2,0,13.0943
0.7,2.3,0,13.0995
0.7,2.4,0,13.1055
0.7,2.5,0,13.1114
0.7,2.6,0,13.1184
0.7,2.7,0,13.1253
0.7,2.8,0,13.1326
0.7,2.9,0,13.1402
0.7,3,0,13.1478
0.7,3.1,0,13.1556
0.7,3.2,0,13.1635
0.7,3.3,0,13.1712
0.7,3.4,0,13.1788
0.7,3.5,0,13.1863
0.7,3.6,0,13.1931
0.7,3.7,0,13.1999
0.7,3.8,0,13.2058
0.7,3.9,0,13.2115
0.7,4,0,13.2165
0.7,4.1,0,13.2212
0.7,4.2,0,13.226
0.7,4.3,0,13.2289
0.7,4.4,0,13.2327
0.7,4.5,0,13.2346
0.7,4.6,0,13.2366
0.7,4.7,0,13.2386
0.7,4.8,0,13.2379
0.7,4.9,0,13.239
0.7,5,0,13.238
0.7,5.1,0,13.2396
0.7,5.2,0,13.2411
0.7,5.3,0,13.2416
0.7,5.4,0,13.2408
0.7,5.5,0,13.2382
0.7,5.6,0,13.2337
0.7,5.7,0,13.2273
0.7,5.8,0,13.2191
0.7,5.9,0,13.2087
0.7,6,0,13.1933
0.7,6.1,0,13.1846
0.7,6.2,0,13.1759
0.7,6.3,0,13.1687
0.7,6.4,0,13.1606
0.7,6.5,0,13.1503
0.7,6.6,0,13.1401
0.7,6.7,0,13.1321
0.7,6.8,0,13.1191
0.7,6.9,0,13.1061
0.7,7,0,13.0949
0.7,7.1,0,13.0809
0.7,7.2,0,13.0667
0.7,7.3,0,13.053
0.7,7.4,0,13.0387
0.7,7.5,0,13.0234
0.7,7.6,0,13.008
0.7,7.7,0,12.9929
0.7,7.8,0,12.9768
0.7,7.9,0,12.9607
0.7,8,0,12.9445
0.7,8.1,0,12.9284
0.7,8.2,0,12.9123
0.7,8.3,0,12.8962
0.7,8.4,0,12.8803
0.7,8.5,0,12.8647
0.7,8.6,0,12.8492
0.7,8.7,0,12.8337
0.7,8.8,0,12.8192
0.7,8.9,0,12.8047
0.7,9,0,12.7902
0.7,9.1,0,12.7768
0.7,9.2,0,12.7636
0.7,9.3,0,12.7505
0.7,9.4,0,12.7383
0.7,9.5,0,12.7268
0.7,9.6,0,12.7153
0.7,9.7,0,12.7042
0.7,9.8,0,12.6946
0.7,9.9,0,12.685
0.7,10,0,12.6754
0.7,10.1,0,12.6674
0.7,10.2,0,12.6597
0.7,10.3,0,12.6521
0.7,10.4,0,12.6455
0.7,10.5,0,12.6398
0.7,10.6,0,12.6341
0.7,10.7,0,12.629
0.7,10.8,0,12.6258
0.7,10.9,0,12.6226
0.7,11,0,12.6196
0.7,11.1,0,12.6177
0.7,11.2,0,12.6161
0.7,11.3,0,12.6146
0.7,11.4,0,12.6147
0.7,11.5,0,12.6162
0.7,11.6,0,12.6176
0.7,11.7,0,12.6202
0.7,11.8,0,12.6223
0.7,11.9,0,12.6244
0.7,12,0,12.6273
0.7,12.1,0,12.6307
0.7,12.2,0,12.6337
0.7,12.3,0,12.6369
0.7,12.4,0,12.6433
0.7,12.5,0,12.6464
0.7,12.6,0,12.6494
0.7,12.7,0,12.6554
0.8,0,0,12.9668
0.8,0.1,0,12.9648
0.8,0.2,0,12.9623
0.8,0.3,0,12.9603
0.8,0.4,0,12.9572
0.8,0.5,0,12.9542
0.8,0.6,0,12.9512
0.8,0.7,0,12.9472
0.8,0.8,0,12.9442
0.8,0.9,0,12.9397
0.8,1,0,12.9353
0.8,1.1,0,12.9343
0.8,1.2,0,12.9323
0.8,1.3,0,12.9319
0.8,1.4,0,12.9312
0.8,1.5,0,12.9306
0.8,1.6,0,12.9328
0.8,1.7,0,12.9344
0.8,1.8,0,12.9373
0.8,1.9,0,12.9405
0.8,2,0,12.9438
0.8,2.1,0,12.9491
0.8,2.2,0,12.9539
0.8,2.3,0,12.9598
0.8,2.4,0,12.9659
0.8,2.5,0,12.9719
0.8,2.6,0,12.9794
0.8,2.7,0,12.9864
0.8,2.8,0,12.9943
0.8,2.9,0,13.0018
0.8,3,0,13.0094
0.8,3.1,0,13.0179
0.8,3.2,0,13.0258
0.8,3.3,0,13.0342
0.8,3.4,0,13.0418
0.8,3.5,0,13.0494
0.8,3.6,0,13.0569
0.8,3.7,0,13.0637
0.8,3.8,0,13.0705
0.8,3.9,0,13.0762
0.8,4,0,13.0819
0.8,4.1,0,13.0872
0.8,4.2,0,13.0919
0.8,4.3,0,13.0973
0.8,4.4,0,13.1011
0.8,4.5,0,13.1049
0.8,4.6,0,13.1089
0.8,4.7,0,13.1109
0.8,4.8,0,13.1143
0.8,4.9,0,13.1154
0.8,5,0,13.1165
0.8,5.1,0,13.1199
0.8,5.2,0,13.1225
0.8,5.3,0,13.1239
0.8,5.4,0,13.1236
0.8,5.5,0,13.1212
0.8,5.6,0,13.1168
0.8,5.7,0,13.1102
0.8,5.8,0,13.1015
0.8,5.9,0,13.0904
0.8,6,0,13.0732
0.8,6.1,0,13.0619
0.8,6.2,0,13.0532
0.8,6.3,0,13.0445
0.8,6.4,0,13.0324
0.8,6.5,0,13.0221
0.8,6.6,0,13.0118
0.8,6.7,0,13.0003
0.8,6.8,0,12.9868
0.8,6.9,0,12.9738
0.8,7,0,12.9608
0.8,7.1,0,12.946
0.8,7.2,0,12.9318
0.8,7.3,0,12.9176
0.8,7.4,0,12.902
0.8,7.5,0,12.8866
0.8,7.6,0,12.8712
0.8,7.7,0,12.8554
0.8,7.8,0,12.8388
0.8,7.9,0,12.8227
0.8,8,0,12.8066
0.8,8.1,0,12.7899
0.8,8.2,0,12.7738
0.8,8.3,0,12.7577
0.8,8.4,0,12.7415
0.8,8.5,0,12.7259
0.8,8.6,0,12.7104
0.8,8.7,0,12.6949
0.8,8.8,0,12.6801
0.8,8.9,0,12.6656
0.8,9,0,12.6511
0.8,9.1,0,12.6375
0.8,9.2,0,12.6243
0.8,9.3,0,12.6111
0.8,9.4,0,12.5987
0.8,9.5,0,12.5871
0.8,9.6,0,12.5756
0.8,9.7,0,12.5644
0.8,9.8,0,12.5546
0.8,9.9,0,12.545
0.8,10,0,12.5353
0.8,10.1,0,12.5271
0.8,10.2,0,12.5194
0.8,10.3,0,12.5117
0.8,10.4,0,12.5048
0.8,10.5,0,12.499
0.8,10.6,0,12.4933
0.8,10.7,0,12.4878
0.8,10.8,0,12.4843
0.8,10.9,0,12.4811
0.8,11,0,12.4779
0.8,11.1,0,12.4754
0.8,11.2,0,12.4739
0.8,11.3,0,12.4723
0.8,11.4,0,12.4714
0.8,11.5,0,12.4724
0.8,11.6,0,12.4738
0.8,11.7,0,12.4752
0.8,11.8,0,12.4766
0.8,11.9,0,12.4787
0.8,12,0,12.4809
0.8,12.1,0,12.4825
0.8,12.2,0,12.4855
0.8,12.3,0,12.4885
0.8,12.4,0,12.4911
0.8,12.5,0,12.4937
0.8,12.6,0,12.4967
0.8,12.7,0,12.4998
0.9,0,0,12.8159
0.9,0.1,0,12.8145
0.9,0.2,0,12.8125
0.9,0.3,0,12.8106
0.9,0.4,0,12.8092
0.9,0.5,0,12.8062
0.9,0.6,0,12.8042
0.9,0.7,0,12.8013
0.9,0.8,0,12.7983
0.9,0.9,0,12.7964
0.9,1,0,12.7919
0.9,1.1,0,12.7918
0.9,1.2,0,12.7908
0.9,1.3,0,12.7904
0.9,1.4,0,12.7913
0.9,1.5,0,12.7907
0.9,1.6,0,12.7935
0.9,1.7,0,12.7957
0.9,1.8,0,12.7987
0.9,1.9,0,12.803
0.9,2,0,12.8062
0.9,2.1,0,12.812
0.9,2.2,0,12.8173
0.9,2.3,0,12.8233
0.9,2.4,0,12.8304
0.9,2.5,0,12.8364
0.9,2.6,0,12.8445
0.9,2.7,0,12.8521
0.9,2.8,0,12.8599
0.9,2.9,0,12.8688
0.9,3,0,12.8763
0.9,3.1,0,12.8855
0.9,3.2,0,12.894
0.9,3.3,0,12.9025
0.9,3.4,0,12.9115
0.9,3.5,0,12.9191
0.9,3.6,0,12.9272
0.9,3.7,0,12.9347
0.9,3.8,0,12.9415
0.9,3.9,0,12.9483
0.9,4,0,12.954
0.9,4.1,0,12.9599
0.9,4.2,0,12.9652
0.9,4.3,0,12.9706
0.9,4.4,0,12.9766
0.9,4.5,0,12.9804
0.9,4.6,0,12.9864
0.9,4.7,0,12.9903
0.9,4.8,0,12.9937
0.9,4.9,0,12.9985
0.9,5,0,12.9996
0.9,5.1,0,13.0046
0.9,5.2,0,13.008
0.9,5.3,0,13.01
0.9,5.4,0,13.0101
0.9,5.5,0,13.008
0.9,5.6,0,13.0036
0.9,5.7,0,12.9968
0.9,5.8,0,12.9878
0.9,5.9,0,12.9761
0.9,6,0,12.9576
0.9,6.1,0,12.9449
0.9,6.2,0,12.9322
0.9,6.3,0,12.9235
0.9,6.4,0,12.9114
0.9,6.5,0,12.8974
0.9,6.6,0,12.8858
0.9,6.7,0,12.8743
0.9,6.8,0,12.8598
0.9,6.9,0,12.8457
0.9,7,0,12.8327
0.9,7.1,0,12.8176
0.9,7.2,0,12.8024
0.9,7.3,0,12.7882
0.9,7.4,0,12.7726
0.9,7.5,0,12.7561
0.9,7.6,0,12.7403
0.9,7.7,0,12.7245
0.9,7.8,0,12.7073
0.9,7.9,0,12.6903
0.9,8,0,12.6742
0.9,8.1,0,12.6572
0.9,8.2,0,12.6402
0.9,8.3,0,12.624
0.9,8.4,0,12.6078
0.9,8.5,0,12.5915
0.9,8.6,0,12.5756
0.9,8.7,0,12.5602
0.9,8.8,0,12.5451
0.9,8.9,0,12.5302
0.9,9,0,12.5156
0.9,9.1,0,12.5019
0.9,9.2,0,12.4884
0.9,9.3,0,12.4752
0.9,9.4,0,12.4627
0.9,9.5,0,12.4509
0.9,9.6,0,12.4392
0.9,9.7,0,12.428
0.9,9.8,0,12.4181
0.9,9.9,0,12.4082
0.9,10,0,12.3985
0.9,10.1,0,12.3902
0.9,10.2,0,12.3822
0.9,10.3,0,12.3745
0.9,10.4,0,12.3675
0.9,10.5,0,12.3615
0.9,10.6,0,12.3556
0.9,10.7,0,12.3501
0.9,10.8,0,12.3463
0.9,10.9,0,12.3426
0.9,11,0,12.3394
0.9,11.1,0,12.3369
0.9,11.2,0,12.3345
0.9,11.3,0,12.3327
0.9,11.4,0,12.3318
0.9,11.5,0,12.332
0.9,11.6,0,12.3326
0.9,11.7,0,12.334
0.9,11.8,0,12.3348
0.9,11.9,0,12.3358
0.9,12,0,12.3379
0.9,12.1,0,12.3395
0.9,12.2,0,12.3408
0.9,12.3,0,12.3433
0.9,12.4,0,12.3459
0.9,12.5,0,12.3476
0.9,12.6,0,12.3498
0.9,12.7,0,12.3528
1,0,0,12.6651
1,0.1,0,12.6637
1,0.2,0,12.6623
1,0.3,0,12.6609
1,0.4,0,12.6595
1,0.5,0,12.6582
1,0.6,0,12.6562
1,0.7,0,12.6543
1,0.8,0,12.6524
1,0.9,0,12.6505
1,1,0,12.6486
1,1.1,0,12.6485
1,1.2,0,12.6484
1,1.3,0,12.6489
1,1.4,0,12.6498
1,1.5,0,12.6508
1,1.6,0,12.6536
1,1.7,0,12.6565
1,1.8,0,12.66
1,1.9,0,12.6644
1,2,0,12.6687
1,2.1,0,12.6745
1,2.2,0,12.6803
1,2.3,0,12.6867
1,2.4,0,12.6938
1,2.5,0,12.7009
1,2.6,0,12.709
1,2.7,0,12.7171
1,2.8,0,12.7256
1,2.9,0,12.7344
1,3,0,12.7433
1,3.1,0,12.7525
1,3.2,0,12.7617
1,3.3,0,12.7708
1,3.4,0,12.7798
1,3.5,0,12.7888
1,3.6,0,12.7969
1,3.7,0,12.805
1,3.8,0,12.8125
1,3.9,0,12.8193
1,4,0,12.8261
1,4.1,0,12.832
1,4.2,0,12.8379
1,4.3,0,12.8438
1,4.4,0,12.8499
1,4.5,0,12.8559
1,4.6,0,12.8619
1,4.7,0,12.8678
1,4.8,0,12.8732
1,4.9,0,12.878
1,5,0,12.8828
1,5.1,0,12.8892
1,5.2,0,12.8935
1,5.3,0,12.8962
1,5.4,0,12.8967
1,5.5,0,12.8948
1,5.6,0,12.8904
1,5.7,0,12.8834
1,5.8,0,12.8741
1,5.9,0,12.8618
1,6,0,12.8419
1,6.1,0,12.8292
1,6.2,0,12.8165
1,6.3,0,12.8039
1,6.4,0,12.7903
1,6.5,0,12.7763
1,6.6,0,12.7623
1,6.7,0,12.7482
1,6.8,0,12.7337
1,6.9,0,12.7193
1,7,0,12.7048
1,7.1,0,12.6896
1,7.2,0,12.6744
1,7.3,0,12.6592
1,7.4,0,12.6432
1,7.5,0,12.6268
1,7.6,0,12.6103
1,7.7,0,12.5936
1,7.8,0,12.5764
1,7.9,0,12.5591
1,8,0,12.5419
1,8.1,0,12.5248
1,8.2,0,12.5078
1,8.3,0,12.4907
1,8.4,0,12.4741
1,8.5,0,12.4578
1,8.6,0,12.4415
1,8.7,0,12.4255
1,8.8,0,12.4104
1,8.9,0,12.3953
1,9,0,12.3803
1,9.1,0,12.3665
1,9.2,0,12.3529
1,9.3,0,12.3394
1,9.4,0,12.3267
1,9.5,0,12.3149
1,9.6,0,12.3031
1,9.7,0,12.2916
1,9.8,0,12.2817
1,9.9,0,12.2717
1,10,0,12.2618
1,10.1,0,12.2534
1,10.2,0,12.2454
1,10.3,0,12.2374
1,10.4,0,12.2303
1,10.5,0,12.2243
1,10.6,0,12.2182
1,10.7,0,12.2123
1,10.8,0,12.2086
1,10.9,0,12.2048
1,11,0,12.2011
1,11.1,0,12.1984
1,11.2,0,12.196
1,11.3,0,12.1937
1,11.4,0,12.1923
1,11.5,0,12.1924
1,11.6,0,12.1926
1,11.7,0,12.1927
1,11.8,0,12.1936
1,11.9,0,12.1944
1,12,0,12.1953
1,12.1,0,12.1965
1,12.2,0,12.1978
1,12.3,0,12.1992
1,12.4,0,12.2007
1,12.5,0,12.2024
1,12.6,0,12.2042
1,12.7,0,12.2059
1.1,0,0,12.5286
1.1,0.1,0,12.5277
1.1,0.2,0,12.5263
1.1,0.3,0,12.5253
1.1,0.4,0,12.5244
1.1,0.5,0,12.523
1.1,0.6,0,12.5224
1.1,0.7,0,12.5204
1.1,0.8,0,12.5194
1.1,0.9,0,12.5183
1.1,1,0,12.5164
1.1,1.1,0,12.5178
1.1,1.2,0,12.5177
1.1,1.3,0,12.5188
1.1,1.4,0,12.5205
1.1,1.5,0,12.5214
1.1,1.6,0,12.5256
1.1,1.7,0,12.5284
1.1,1.8,0,12.5326
1.1,1.9,0,12.5375
1.1,2,0,12.5419
1.1,2.1,0,12.5489
1.1,2.2,0,12.5547
1.1,2.3,0,12.5619
1.1,2.4,0,12.5696
1.1,2.5,0,12.5767
1.1,2.6,0,12.5865
1.1,2.7,0,12.5946
1.1,2.8,0,12.604
1.1,2.9,0,12.6138
1.1,3,0,12.6226
1.1,3.1,0,12.6337
1.1,3.2,0,12.6429
1.1,3.3,0,12.653
1.1,3.4,0,12.6629
1.1,3.5,0,12.6719
1.1,3.6,0,12.6818
1.1,3.7,0,12.6899
1.1,3.8,0,12.6981
1.1,3.9,0,12.7056
1.1,4,0,12.7124
1.1,4.1,0,12.7192
1.1,4.2,0,12.7251
1.1,4.3,0,12.7315
1.1,4.4,0,12.738
1.1,4.5,0,12.7441
1.1,4.6,0,12.7507
1.1,4.7,0,12.7566
1.1,4.8,0,12.7619
1.1,4.9,0,12.7665
1.1,5,0,12.7713
1.1,5.1,0,12.7774
1.1,5.2,0,12.7816
1.1,5.3,0,12.7843
1.1,5.4,0,12.7848
1.1,5.5,0,12.7829
1.1,5.6,0,12.7784
1.1,5.7,0,12.7713
1.1,5.8,0,12.7617
1.1,5.9,0,12.7493
1.1,6,0,12.7295
1.1,6.1,0,12.717
1.1,6.2,0,12.7044
1.1,6.3,0,12.6917
1.1,6.4,0,12.6779
1.1,6.5,0,12.6636
1.1,6.6,0,12.6496
1.1,6.7,0,12.6352
1.1,6.8,0,12.6199
1.1,6.9,0,12.6053
1.1,7,0,12.5909
1.1,7.1,0,12.5746
1.1,7.2,0,12.559
1.1,7.3,0,12.5438
1.1,7.4,0,12.5269
1.1,7.5,0,12.5093
1.1,7.6,0,12.4928
1.1,7.7,0,12.4757
1.1,7.8,0,12.4568
1.1,7.9,0,12.4394
1.1,8,0,12.4222
1.1,8.1,0,12.4038
1.1,8.2,0,12.386
1.1,8.3,0,12.369
1.1,8.4,0,12.3517
1.1,8.5,0,12.3345
1.1,8.6,0,12.3183
1.1,8.7,0,12.3021
1.1,8.8,0,12.2862
1.1,8.9,0,12.2711
1.1,9,0,12.256
1.1,9.1,0,12.2418
1.1,9.2,0,12.228
1.1,9.3,0,12.2144
1.1,9.4,0,12.2015
1.1,9.5,0,12.1894
1.1,9.6,0,12.1776
1.1,9.7,0,12.166
1.1,9.8,0,12.1557
1.1,9.9,0,12.1457
1.1,10,0,12.1358
1.1,10.1,0,12.1271
1.1,10.2,0,12.119
1.1,10.3,0,12.111
1.1,10.4,0,12.1037
1.1,10.5,0,12.0973
1.1,10.6,0,12.0912
1.1,10.7,0,12.0853
1.1,10.8,0,12.081
1.1,10.9,0,12.0771
1.1,11,0,12.0734
1.1,11.1,0,12.0702
1.1,11.2,0,12.0675
1.1,11.3,0,12.0652
1.1,11.4,0,12.0634
1.1,11.5,0,12.0627
1.1,11.6,0,12.0628
1.1,11.7,0,12.0629
1.1,11.8,0,12.063
1.1,11.9,0,12.0636
1.1,12,0,12.0645
1.1,12.1,0,12.0651
1.1,12.2,0,12.066
1.1,12.3,0,12.0673
1.1,12.4,0,12.0686
1.1,12.5,0,12.0698
1.1,12.6,0,12.0716
1.1,12.7,0,12.0733
1.2,0,0,12.3921
1.2,0.1,0,12.3912
1.2,0.2,0,12.3904
1.2,0.3,0,12.3894
1.2,0.4,0,12.3888
1.2,0.5,0,12.3879
1.2,0.6,0,12.3872
1.2,0.7,0,12.3866
1.2,0.8,0,12.3855
1.2,0.9,0,12.3853
1.2,1,0,12.3842
1.2,1.1,0,12.3856
1.2,1.2,0,12.3869
1.2,1.3,0,12.3881
1.2,1.4,0,12.3904
1.2,1.5,0,12.3921
1.2,1.6,0,12.3962
1.2,1.7,0,12.4004
1.2,1.8,0,12.4046
1.2,1.9,0,12.4101
1.2,2,0,12.415
1.2,2.1,0,12.4221
1.2,2.2,0,12.4291
1.2,2.3,0,12.4363
1.2,2.4,0,12.4448
1.2,2.5,0,12.4525
1.2,2.6,0,12.4623
1.2,2.7,0,12.472
1.2,2.8,0,12.4815
1.2,2.9,0,12.4922
1.2,3,0,12.5019
1.2,3.1,0,12.5131
1.2,3.2,0,12.5242
1.2,3.3,0,12.5343
1.2,3.4,0,12.5451
1.2,3.5,0,12.5551
1.2,3.6,0,12.5649
1.2,3.7,0,12.5748
1.2,3.8,0,12.583
1.2,3.9,0,12.5911
1.2,4,0,12.5986
1.2,4.1,0,12.6055
1.2,4.2,0,12.6123
1.2,4.3,0,12.6188
1.2,4.4,0,12.6258
1.2,4.5,0,12.6323
1.2,4.6,0,12.6389
1.2,4.7,0,12.6454
1.2,4.8,0,12.6507
1.2,4.9,0,12.6552
1.2,5,0,12.6598
1.2,5.1,0,12.6655
1.2,5.2,0,12.6696
1.2,5.3,0,12.6723
1.2,5.4,0,12.6729
1.2,5.5,0,12.671
1.2,5.6,0,12.6664
1.2,5.7,0,12.6592
1.2,5.8,0,12.6494
1.2,5.9,0,12.6368
1.2,6,0,12.617
1.2,6.1,0,12.6046
1.2,6.2,0,12.5921
1.2,6.3,0,12.5796
1.2,6.4,0,12.5658
1.2,6.5,0,12.5513
1.2,6.6,0,12.5369
1.2,6.7,0,12.5224
1.2,6.8,0,12.5071
1.2,6.9,0,12.4918
1.2,7,0,12.477
1.2,7.1,0,12.4607
1.2,7.2,0,12.4444
1.2,7.3,0,12.4283
1.2,7.4,0,12.4115
1.2,7.5,0,12.3935
1.2,7.6,0,12.3755
1.2,7.7,0,12.3583
1.2,7.8,0,12.3394
1.2,7.9,0,12.3205
1.2,8,0,12.3025
1.2,8.1,0,12.2841
1.2,8.2,0,12.2655
1.2,8.3,0,12.2473
1.2,8.4,0,12.23
1.2,8.5,0,12.2126
1.2,8.6,0,12.1952
1.2,8.7,0,12.1788
1.2,8.8,0,12.163
1.2,8.9,0,12.1472
1.2,9,0,12.1317
1.2,9.1,0,12.1175
1.2,9.2,0,12.1034
1.2,9.3,0,12.0894
1.2,9.4,0,12.0766
1.2,9.5,0,12.0643
1.2,9.6,0,12.0521
1.2,9.7,0,12.0405
1.2,9.8,0,12.0302
1.2,9.9,0,12.0199
1.2,10,0,12.0098
1.2,10.1,0,12.0011
1.2,10.2,0,11.9928
1.2,10.3,0,11.9845
1.2,10.4,0,11.9772
1.2,10.5,0,11.9708
1.2,10.6,0,11.9643
1.2,10.7,0,11.9584
1.2,10.8,0,11.9541
1.2,10.9,0,11.9498
1.2,11,0,11.9457
1.2,11.1,0,11.9425
1.2,11.2,0,11.9396
1.2,11.3,0,11.9367
1.2,11.4,0,11.9349
1.2,11.5,0,11.9341
1.2,11.6,0,11.9333
1.2,11.7,0,11.9332
1.2,11.8,0,11.9332
1.2,11.9,0,11.9333
1.2,12,0,11.9336
1.2,12.1,0,11.9343
1.2,12.2,0,11.9349
1.2,12.3,0,11.9355
1.2,12.4,0,11.9367
1.2,12.5,0,11.9379
1.2,12.6,0,11.9391
1.2,12.7,0,11.9407
1.3,0,0,12.2598
1.3,0.1,0,12.2593
1.3,0.2,0,12.2584
1.3,0.3,0,12.2584
1.3,0.4,0,12.2578
1.3,0.5,0,12.2573
1.3,0.6,0,12.2572
1.3,0.7,0,12.2565
1.3,0.8,0,12.2568
1.3,0.9,0,12.2565
1.3,1,0,12.2563
1.3,1.1,0,12.2583
1.3,1.2,0,12.2597
1.3,1.3,0,12.2621
1.3,1.4,0,12.2645
1.3,1.5,0,12.2668
1.3,1.6,0,12.2716
1.3,1.7,0,12.2758
1.3,1.8,0,12.2813
1.3,1.9,0,12.2868
1.3,2,0,12.2924
1.3,2.1,0,12.3001
1.3,2.2,0,12.3071
1.3,2.3,0,12.3156
1.3,2.4,0,12.3241
1.3,2.5,0,12.3326
1.3,2.6,0,12.343
1.3,2.7,0,12.3528
1.3,2.8,0,12.3638
1.3,2.9,0,12.3745
1.3,3,0,12.3852
1.3,3.1,0,12.3971
1.3,3.2,0,12.4082
1.3,3.3,0,12.4201
1.3,3.4,0,12.4309
1.3,3.5,0,12.4418
1.3,3.6,0,12.4526
1.3,3.7,0,12.4625