x,y,z,U_0,U_1,U_2
0,0,0,0.300012,-0.00118883,0
0,0.1,0,0.30001,-0.000945445,5.18725e-41
0,0.2,0,0.300007,-0.000702063,1.03745e-40
0,0.3,0,0.300005,-0.000458681,1.55618e-40
0,0.4,0,0.300002,-0.000215299,2.0749e-40
0,0.5,0,0.3,-1.21858e-19,3.25742e-30
0,0.6,0,0.3,-1.46229e-19,3.9089e-30
0,0.7,0,0.3,-1.70601e-19,4.56038e-30
0,0.8,0,0.3,-1.94972e-19,5.21187e-30
0,0.9,0,0.3,-2.19344e-19,5.86335e-30
0,1,0,0.3,-2.37692e-19,6.48153e-30
0,1.1,0,0.3,-2.61461e-19,7.12968e-30
0,1.2,0,0.3,-2.8523e-19,7.77783e-30
0,1.3,0,0.3,-3.08999e-19,8.42598e-30
0,1.4,0,0.3,-3.32768e-19,9.07414e-30
0,1.5,0,0.3,-3.44682e-19,9.76763e-30
0,1.6,0,0.3,-3.67661e-19,1.04188e-29
0,1.7,0,0.3,-3.90639e-19,1.107e-29
0,1.8,0,0.3,-4.13618e-19,1.17212e-29
0,1.9,0,0.3,-4.36597e-19,1.23723e-29
0,2,0,0.3,-4.38274e-19,2.60447e-29
0,2.1,0,0.3,-4.60188e-19,2.73469e-29
0,2.2,0,0.3,-4.82101e-19,2.86491e-29
0,2.3,0,0.3,-5.04015e-19,2.99514e-29
0,2.4,0,0.3,-5.25929e-19,3.12536e-29
0,2.5,0,0.3,-5.11815e-19,1.62724e-29
0,2.6,0,0.3,-5.32288e-19,1.69233e-29
0,2.7,0,0.3,-5.5276e-19,1.75742e-29
0,2.8,0,0.3,-5.73233e-19,1.82251e-29
0,2.9,0,0.3,-5.93705e-19,1.8876e-29
0,3,0,0.3,-5.57497e-19,0
0,3.1,0,0.3,-5.7608e-19,0
0,3.2,0,0.3,-5.94663e-19,0
0,3.3,0,0.3,-6.13247e-19,0
0,3.4,0,0.3,-6.3183e-19,0
0,3.5,0,0.3,-5.70225e-19,0
0,3.6,0,0.3,-5.86517e-19,0
0,3.7,0,0.3,-6.02809e-19,0
0,3.8,0,0.3,-6.19101e-19,0
0,3.9,0,0.3,-6.35393e-19,0
0,4,0,0.3,-5.45596e-19,1.04143e-29
0,4.1,0,0.3,-5.59236e-19,1.06747e-29
0,4.2,0,0.3,-5.72876e-19,1.0935e-29
0,4.3,0,0.3,-5.86516e-19,1.11954e-29
0,4.4,0,0.3,-4.68864e-19,2.57754e-29
0,4.5,0,0.3,-4.7952e-19,2.63612e-29
0,4.6,0,0.3,-4.90176e-19,2.69471e-29
0,4.7,0,0.3,-5.00832e-19,2.75329e-29
0,4.8,0,0.3,-5.11488e-19,2.81187e-29
0,4.9,0,0.3,-3.59984e-19,3.18939e-29
0,5,0,0.3,-3.67331e-19,3.25447e-29
0,5.1,0,0.3,-3.74677e-19,3.31956e-29
0,5.2,0,0.3,-3.82024e-19,3.38465e-29
0,5.3,0,0.3,-3.89371e-19,3.44974e-29
0,5.4,0,0.3,-2.03423e-19,3.86632e-29
0,5.5,0,0.3,-2.0719e-19,3.93791e-29
0,5.6,0,0.3,-2.10957e-19,4.00951e-29
0,5.7,0,0.3,-2.14725e-19,4.08111e-29
0,5.8,0,0.3,-2.18492e-19,4.15271e-29
0,5.9,0,0.3,-3.45195e-21,4.99236e-29
0,6,0,0.3,-3.51046e-21,5.07698e-29
0,6.1,0,0.3,-3.56897e-21,5.1616e-29
0,6.2,0,0.3,-3.62747e-21,5.24621e-29
0,6.3,0,0.3,-3.68598e-21,5.33083e-29
0,6.4,0,0.3,2.33196e-19,5.83202e-29
0,6.5,0,0.3,2.3684e-19,5.92314e-29
0,6.6,0,0.3,2.40483e-19,6.01427e-29
0,6.7,0,0.3,2.44127e-19,6.10539e-29
0,6.8,0,0.3,2.47771e-19,6.19652e-29
0,6.9,0,0.3,4.99356e-19,6.28765e-29
0,7,0,0.3,5.06593e-19,6.37877e-29
0,7.1,0,0.3,5.1383e-19,6.4699e-29
0,7.2,0,0.3,5.21067e-19,6.56102e-29
0,7.3,0,0.3,5.28304e-19,6.65215e-29
0,7.4,0,0.3,7.85983e-19,6.74327e-29
0,7.5,0,0.3,7.96604e-19,6.8344e-29
0,7.6,0,0.3,8.07226e-19,6.92552e-29
0,7.7,0,0.3,8.17847e-19,7.01665e-29
0,7.8,0,0.3,8.28469e-19,7.10777e-29
0,7.9,0,0.3,1.08094e-18,7.1989e-29
0,8,0,0.3,1.09462e-18,7.29002e-29
0,8.1,0,0.3,1.10831e-18,7.38115e-29
0,8.2,0,0.3,1.12199e-18,7.47227e-29
0,8.3,0,0.3,1.13567e-18,7.5634e-29
0,8.4,0,0.3,1.3728e-18,6.56102e-29
0,8.5,0,0.3,1.38914e-18,6.63913e-29
0,8.6,0,0.3,1.40548e-18,6.71724e-29
0,8.7,0,0.3,1.42182e-18,6.79534e-29
0,8.8,0,0.3,1.63541e-18,8.59181e-29
0,8.9,0,0.3,1.65399e-18,8.68945e-29
0,9,0,0.3,1.67257e-18,8.78708e-29
0,9.1,0,0.3,1.69116e-18,8.88472e-29
0,9.2,0,0.3,1.70974e-18,8.98235e-29
0,9.3,0,0.3,1.89875e-18,6.05332e-29
0,9.4,0,0.3,1.91917e-18,6.11841e-29
0,9.5,0,0.3,1.93959e-18,6.1835e-29
0,9.6,0,0.3,1.96e-18,6.24859e-29
0,9.7,0,0.3,1.98042e-18,6.31368e-29
0,9.8,0,0.3,2.14282e-18,0
0,9.9,0,0.3,2.16469e-18,0
0,10,0,0.3,2.18655e-18,0
0,10.1,0,0.3,2.20842e-18,0
0,10.2,0,0.3,2.23029e-18,0
0,10.3,0,0.3,2.36501e-18,1.77459e-38
0,10.4,0,0.3,2.38797e-18,1.79182e-38
0,10.5,0,0.3,2.41093e-18,1.80905e-38
0,10.6,0,0.3,2.43389e-18,1.82628e-38
0,10.7,0,0.3,2.45685e-18,1.84351e-38
0,10.8,0,0.3,2.56853e-18,-4.09362e-38
0,10.9,0,0.3,2.59231e-18,-4.13153e-38
0,11,0,0.3,2.6161e-18,-4.16943e-38
0,11.1,0,0.3,2.63988e-18,-4.20733e-38
0,11.2,0,0.3,2.66366e-18,-4.24524e-38
0,11.3,0,0.3,2.76207e-18,1.94688e-38
0,11.4,0,0.3,2.78652e-18,1.96411e-38
0,11.5,0,0.3,2.81096e-18,1.98134e-38
0,11.6,0,0.3,2.8354e-18,1.99857e-38
0,11.7,0,0.3,2.85985e-18,2.0158e-38
0,11.8,0,0.3,2.88429e-18,2.03303e-38
0,11.9,0,0.3,2.90873e-18,2.05026e-38
0,12,0,0.3,2.93318e-18,2.06749e-38
0,12.1,0,0.3,2.95762e-18,2.08471e-38
0,12.2,0,0.3,2.98206e-18,2.10194e-38
0,12.3,0,0.299996,0.000216526,4.50144e-15
0,12.4,0,0.299993,0.000461294,9.59003e-15
0,12.5,0,0.299989,0.000706062,1.46786e-14
0,12.6,0,0.299985,0.00095083,1.97672e-14
0,12.7,0,0.299981,0.0011956,2.48558e-14
0.1,0,0,0.300013,-0.00190933,0
0.1,0.1,0,0.300015,-0.00190352,1.99235e-24
0.1,0.2,0,0.300012,-0.00166014,1.99235e-24
0.1,0.3,0,0.300009,-0.00141676,1.99235e-24
0.1,0.4,0,0.300007,-0.00117337,1.99235e-24
0.1,0.5,0,0.300004,-0.000953079,2.64948e-15
0.1,0.6,0,0.300003,-0.000936078,2.50226e-14
0.1,0.7,0,0.300003,-0.000936078,2.50226e-14
0.1,0.8,0,0.300003,-0.000936078,2.50226e-14
0.1,0.9,0,0.300003,-0.000936078,2.50226e-14
0.1,1,0,0.300001,-0.000930867,2.49938e-14
0.1,1.1,0,0.299994,-0.000912941,2.48947e-14
0.1,1.2,0,0.299994,-0.000912941,2.48947e-14
0.1,1.3,0,0.299994,-0.000912941,2.48947e-14
0.1,1.4,0,0.299994,-0.000912941,2.48947e-14
0.1,1.5,0,0.299991,-0.000902317,2.49353e-14
0.1,1.6,0,0.299985,-0.000882584,2.50108e-14
0.1,1.7,0,0.299985,-0.000882584,2.50108e-14
0.1,1.8,0,0.299985,-0.000882584,2.50108e-14
0.1,1.9,0,0.299985,-0.000882584,2.50108e-14
0.1,2,0,0.299982,-0.000863257,3.68248e-14
0.1,2.1,0,0.299978,-0.000841676,5.00171e-14
0.1,2.2,0,0.299978,-0.000841676,5.00171e-14
0.1,2.3,0,0.299978,-0.000841676,5.00171e-14
0.1,2.4,0,0.299978,-0.000841676,5.00171e-14
0.1,2.5,0,0.299974,-0.000808988,3.52432e-14
0.1,2.6,0,0.299971,-0.000786325,2.5e-14
0.1,2.7,0,0.299971,-0.000786325,2.5e-14
0.1,2.8,0,0.299971,-0.000786325,2.5e-14
0.1,2.9,0,0.299971,-0.000786325,2.5e-14
0.1,3,0,0.299965,-0.000734899,7.28346e-15
0.1,3.1,0,0.299962,-0.000713757,0
0.1,3.2,0,0.299962,-0.000713757,0
0.1,3.3,0,0.299962,-0.000713757,0
0.1,3.4,0,0.299962,-0.000713757,0
0.1,3.5,0,0.299954,-0.000641003,0
0.1,3.6,0,0.299952,-0.000625759,0
0.1,3.7,0,0.299952,-0.000625759,0
0.1,3.8,0,0.299952,-0.000625759,0
0.1,3.9,0,0.299952,-0.000625759,0
0.1,4,0,0.299941,-0.000529505,9.44882e-15
0.1,4.1,0,0.299941,-0.000523891,1e-14
0.1,4.2,0,0.299941,-0.000523891,1e-14
0.1,4.3,0,0.299941,-0.000523891,1e-14
0.1,4.4,0,0.29994,-0.000519378,1.04921e-14
0.1,4.5,0,0.299931,-0.000409283,2.25e-14
0.1,4.6,0,0.299931,-0.000409283,2.25e-14
0.1,4.7,0,0.299931,-0.000409283,2.25e-14
0.1,4.8,0,0.299931,-0.000409283,2.25e-14
0.1,4.9,0,0.29993,-0.000389265,2.28937e-14
0.1,5,0,0.299925,-0.000282174,2.5e-14
0.1,5.1,0,0.299925,-0.000282174,2.5e-14
0.1,5.2,0,0.299925,-0.000282174,2.5e-14
0.1,5.3,0,0.299925,-0.000282174,2.5e-14
0.1,5.4,0,0.299925,-0.000244284,2.5689e-14
0.1,5.5,0,0.299923,-0.000144689,2.75e-14
0.1,5.6,0,0.299923,-0.000144689,2.75e-14
0.1,5.7,0,0.299923,-0.000144689,2.75e-14
0.1,5.8,0,0.299923,-0.000144689,2.75e-14
0.1,5.9,0,0.299923,-8.86096e-05,2.94685e-14
0.1,6,0,0.299923,-2.2472e-06,3.25e-14
0.1,6.1,0,0.299923,-2.2472e-06,3.25e-14
0.1,6.2,0,0.299923,-2.2472e-06,3.25e-14
0.1,6.3,0,0.299923,-2.2472e-06,3.25e-14
0.1,6.4,0,0.299924,7.05304e-05,3.37795e-14
0.1,6.5,0,0.299925,0.000139949,3.5e-14
0.1,6.6,0,0.299925,0.000139949,3.5e-14
0.1,6.7,0,0.299925,0.000139949,3.5e-14
0.1,6.8,0,0.299925,0.000139949,3.5e-14
0.1,6.9,0,0.299929,0.000226888,3.5e-14
0.1,7,0,0.299931,0.000277965,3.5e-14
0.1,7.1,0,0.299931,0.000277965,3.5e-14
0.1,7.2,0,0.299931,0.000277965,3.5e-14
0.1,7.3,0,0.299931,0.000277965,3.5e-14
0.1,7.4,0,0.299936,0.0003752,3.5e-14
0.1,7.5,0,0.299938,0.000407953,3.5e-14
0.1,7.6,0,0.299938,0.000407953,3.5e-14
0.1,7.7,0,0.299938,0.000407953,3.5e-14
0.1,7.8,0,0.299938,0.000407953,3.5e-14
0.1,7.9,0,0.299944,0.000509798,3.5e-14
0.1,8,0,0.299945,0.000525538,3.5e-14
0.1,8.1,0,0.299945,0.000525538,3.5e-14
0.1,8.2,0,0.299945,0.000525538,3.5e-14
0.1,8.3,0,0.299945,0.000525538,3.5e-14
0.1,8.4,0,0.299952,0.000626096,3.00787e-14
0.1,8.5,0,0.299952,0.000627705,3e-14
0.1,8.6,0,0.299952,0.000627705,3e-14
0.1,8.7,0,0.299952,0.000627705,3e-14
0.1,8.8,0,0.299953,0.000634484,3.05906e-14
0.1,8.9,0,0.299959,0.000713793,3.75e-14
0.1,9,0,0.299959,0.000713793,3.75e-14
0.1,9.1,0,0.299959,0.000713793,3.75e-14
0.1,9.2,0,0.299959,0.000713793,3.75e-14
0.1,9.3,0,0.299961,0.000727648,3.50394e-14
0.1,9.4,0,0.299967,0.000784178,2.5e-14
0.1,9.5,0,0.299967,0.000784178,2.5e-14
0.1,9.6,0,0.299967,0.000784178,2.5e-14
0.1,9.7,0,0.299967,0.000784178,2.5e-14
0.1,9.8,0,0.299969,0.000801705,1.7126e-14
0.1,9.9,0,0.299974,0.000839826,0
0.1,10,0,0.299974,0.000839826,0
0.1,10.1,0,0.299974,0.000839826,0
0.1,10.2,0,0.299974,0.000839826,0
0.1,10.3,0,0.299977,0.000858052,2.86582e-24
0.1,10.4,0,0.299981,0.00088191,6.61744e-24
0.1,10.5,0,0.299981,0.00088191,6.61744e-24
0.1,10.6,0,0.299981,0.00088191,6.61744e-24
0.1,10.7,0,0.299981,0.00088191,6.61744e-24
0.1,10.8,0,0.299985,0.000899301,-5.05427e-24
0.1,10.9,0,0.299988,0.000913461,-1.45584e-23
0.1,11,0,0.299988,0.000913461,-1.45584e-23
0.1,11.1,0,0.299988,0.000913461,-1.45584e-23
0.1,11.2,0,0.299988,0.000913461,-1.45584e-23
0.1,11.3,0,0.299991,0.000930439,-3.85582e-25
0.1,11.4,0,0.299992,0.000938828,6.61744e-24
0.1,11.5,0,0.299992,0.000938828,6.61744e-24
0.1,11.6,0,0.299992,0.000938828,6.61744e-24
0.1,11.7,0,0.299992,0.000938828,6.61744e-24
0.1,11.8,0,0.299992,0.000938828,6.61744e-24
0.1,11.9,0,0.299992,0.000938828,6.61744e-24
0.1,12,0,0.299992,0.000938828,6.61744e-24
0.1,12.1,0,0.299992,0.000938828,6.61744e-24
0.1,12.2,0,0.299996,0.000957201,4.4148e-15
0.1,12.3,0,0.299993,0.00117487,9.50772e-15
0.1,12.4,0,0.299989,0.00141964,1.45963e-14
0.1,12.5,0,0.299985,0.00166441,1.96849e-14
0.1,12.6,0,0.299981,0.00190917,2.47735e-14
0.1,12.7,0,0.299983,0.00192247,2.98846e-14
0.2,0,0,0.300013,-0.00262983,0
0.2,0.1,0,0.300015,-0.00262577,2.00704e-24
0.2,0.2,0,0.300017,-0.00261821,3.98471e-24
0.2,0.3,0,0.300014,-0.00237483,3.98471e-24
0.2,0.4,0,0.300012,-0.00213145,3.98471e-24
0.2,0.5,0,0.300009,-0.00190841,2.33462e-15
0.2,0.6,0,0.300007,-0.00188889,2.80255e-14
0.2,0.7,0,0.300005,-0.00187216,5.00452e-14
0.2,0.8,0,0.300005,-0.00187216,5.00452e-14
0.2,0.9,0,0.300005,-0.00187216,5.00452e-14
0.2,1,0,0.300003,-0.00186724,5.0018e-14
0.2,1.1,0,0.299994,-0.00184336,4.9886e-14
0.2,1.2,0,0.299987,-0.00182588,4.97893e-14
0.2,1.3,0,0.299987,-0.00182588,4.97893e-14
0.2,1.4,0,0.299987,-0.00182588,4.97893e-14
0.2,1.5,0,0.299984,-0.00181546,4.98292e-14
0.2,1.6,0,0.299976,-0.00178418,4.99488e-14
0.2,1.7,0,0.29997,-0.00176517,5.00215e-14
0.2,1.8,0,0.29997,-0.00176517,5.00215e-14
0.2,1.9,0,0.29997,-0.00176517,5.00215e-14
0.2,2,0,0.299967,-0.00174584,6.18355e-14
0.2,2.1,0,0.29996,-0.00170397,8.74325e-14
0.2,2.2,0,0.299956,-0.00168335,1.00034e-13
0.2,2.3,0,0.299956,-0.00168335,1.00034e-13
0.2,2.4,0,0.299956,-0.00168335,1.00034e-13
0.2,2.5,0,0.299952,-0.00165066,8.52603e-14
0.2,2.6,0,0.299944,-0.00159401,5.96522e-14
0.2,2.7,0,0.299941,-0.00157265,5e-14
0.2,2.8,0,0.299941,-0.00157265,5e-14
0.2,2.9,0,0.299941,-0.00157265,5e-14
0.2,3,0,0.299935,-0.00152122,3.22835e-14
0.2,3.1,0,0.299927,-0.00144694,6.69291e-15
0.2,3.2,0,0.299924,-0.00142751,0
0.2,3.3,0,0.299924,-0.00142751,0
0.2,3.4,0,0.299924,-0.00142751,0
0.2,3.5,0,0.299916,-0.00135476,0
0.2,3.6,0,0.299905,-0.00126468,0
0.2,3.7,0,0.299904,-0.00125152,0
0.2,3.8,0,0.299904,-0.00125152,0
0.2,3.9,0,0.299904,-0.00125152,0
0.2,4,0,0.299893,-0.00115526,9.44882e-15
0.2,4.1,0,0.299881,-0.00105099,1.9685e-14
0.2,4.2,0,0.299881,-0.00104778,2e-14
0.2,4.3,0,0.299881,-0.00104778,2e-14
0.2,4.4,0,0.299881,-0.00104327,2.04921e-14
0.2,4.5,0,0.299871,-0.000925954,3.32874e-14
0.2,4.6,0,0.299861,-0.000818565,4.5e-14
0.2,4.7,0,0.299861,-0.000818565,4.5e-14
0.2,4.8,0,0.299861,-0.000818565,4.5e-14
0.2,4.9,0,0.29986,-0.000798548,4.53937e-14
0.2,5,0,0.299855,-0.000668436,4.79528e-14
0.2,5.1,0,0.29985,-0.000564347,5e-14
0.2,5.2,0,0.29985,-0.000564347,5e-14
0.2,5.3,0,0.29985,-0.000564347,5e-14
0.2,5.4,0,0.29985,-0.000526458,5.0689e-14
0.2,5.5,0,0.299847,-0.000385726,5.3248e-14
0.2,5.6,0,0.299846,-0.000289378,5.5e-14
0.2,5.7,0,0.299846,-0.000289378,5.5e-14
0.2,5.8,0,0.299846,-0.000289378,5.5e-14
0.2,5.9,0,0.299846,-0.000233299,5.69685e-14
0.2,6,0,0.299845,-8.74921e-05,6.20866e-14
0.2,6.1,0,0.299845,-4.4944e-06,6.5e-14
0.2,6.2,0,0.299845,-4.4944e-06,6.5e-14
0.2,6.3,0,0.299845,-4.4944e-06,6.5e-14
0.2,6.4,0,0.299846,6.82832e-05,6.62795e-14
0.2,6.5,0,0.299849,0.000213838,6.88386e-14
0.2,6.6,0,0.29985,0.000279898,7e-14
0.2,6.7,0,0.29985,0.000279898,7e-14
0.2,6.8,0,0.29985,0.000279898,7e-14
0.2,6.9,0,0.299854,0.000366837,7e-14
0.2,7,0,0.29986,0.000508114,7e-14
0.2,7.1,0,0.299862,0.00055593,7e-14
0.2,7.2,0,0.299862,0.00055593,7e-14
0.2,7.3,0,0.299862,0.00055593,7e-14
0.2,7.4,0,0.299867,0.000653165,7e-14
0.2,7.5,0,0.299874,0.000786224,7e-14
0.2,7.6,0,0.299876,0.000815907,7e-14
0.2,7.7,0,0.299876,0.000815907,7e-14
0.2,7.8,0,0.299876,0.000815907,7e-14
0.2,7.9,0,0.299882,0.000917752,7e-14
0.2,8,0,0.299889,0.00103811,7e-14
0.2,8.1,0,0.29989,0.00105108,7e-14
0.2,8.2,0,0.29989,0.00105108,7e-14
0.2,8.3,0,0.29989,0.00105108,7e-14
0.2,8.4,0,0.299897,0.00115163,6.50787e-14
0.2,8.5,0,0.299904,0.00125541,6e-14
0.2,8.6,0,0.299904,0.00125541,6e-14
0.2,8.7,0,0.299904,0.00125541,6e-14
0.2,8.8,0,0.299904,0.00126219,6.05906e-14
0.2,8.9,0,0.299912,0.00135031,6.82677e-14
0.2,9,0,0.299918,0.00142759,7.5e-14
0.2,9.1,0,0.299918,0.00142759,7.5e-14
0.2,9.2,0,0.299918,0.00142759,7.5e-14
0.2,9.3,0,0.29992,0.00144144,7.25394e-14
0.2,9.4,0,0.299928,0.00151349,5.97441e-14
0.2,9.5,0,0.299933,0.00156836,5e-14
0.2,9.6,0,0.299933,0.00156836,5e-14
0.2,9.7,0,0.299933,0.00156836,5e-14
0.2,9.8,0,0.299936,0.00158588,4.2126e-14
0.2,9.9,0,0.299943,0.00164285,1.65354e-14
0.2,10,0,0.299948,0.00167965,0
0.2,10.1,0,0.299948,0.00167965,0
0.2,10.2,0,0.299948,0.00167965,0
0.2,10.3,0,0.299951,0.00169788,2.86582e-24
0.2,10.4,0,0.299959,0.00174096,9.63958e-24
0.2,10.5,0,0.299963,0.00176382,1.32349e-23
0.2,10.6,0,0.299963,0.00176382,1.32349e-23
0.2,10.7,0,0.299963,0.00176382,1.32349e-23
0.2,10.8,0,0.299966,0.00178121,1.56318e-24
0.2,10.9,0,0.299973,0.00181351,-2.01129e-23
0.2,11,0,0.299975,0.00182692,-2.91168e-23
0.2,11.1,0,0.299975,0.00182692,-2.91168e-23
0.2,11.2,0,0.299975,0.00182692,-2.91168e-23
0.2,11.3,0,0.299978,0.0018439,-1.4944e-23
0.2,11.4,0,0.299983,0.00186987,6.73208e-24
0.2,11.5,0,0.299984,0.00187766,1.32349e-23
0.2,11.6,0,0.299984,0.00187766,1.32349e-23
0.2,11.7,0,0.299984,0.00187766,1.32349e-23
0.2,11.8,0,0.299984,0.00187766,1.32349e-23
0.2,11.9,0,0.299984,0.00187766,1.32349e-23
0.2,12,0,0.299984,0.00187766,1.32349e-23
0.2,12.1,0,0.299988,0.00189554,4.29655e-15
0.2,12.2,0,0.299992,0.00191686,9.42087e-15
0.2,12.3,0,0.299989,0.00213321,1.4514e-14
0.2,12.4,0,0.299985,0.00237798,1.96026e-14
0.2,12.5,0,0.299981,0.00262275,2.46912e-14
0.2,12.6,0,0.299983,0.00264226,2.98017e-14
0.2,12.7,0,0.299985,0.00264934,3.49135e-14
0.3,0,0,0.300013,-0.00335033,0
0.3,0.1,0,0.300015,-0.00334627,2.00704e-24
0.3,0.2,0,0.300017,-0.00334222,4.01408e-24
0.3,0.3,0,0.300019,-0.00333291,5.97706e-24
0.3,0.4,0,0.300016,-0.00308952,5.97706e-24
0.3,0.5,0,0.300014,-0.00286374,2.01977e-15
0.3,0.6,0,0.300012,-0.00284422,2.77106e-14
0.3,0.7,0,0.300009,-0.0028247,5.34015e-14
0.3,0.8,0,0.300008,-0.00280823,7.50678e-14
0.3,0.9,0,0.300008,-0.00280823,7.50678e-14
0.3,1,0,0.300006,-0.00280362,7.50423e-14
0.3,1.1,0,0.299997,-0.00277974,7.49103e-14
0.3,1.2,0,0.299987,-0.00275586,7.47782e-14
0.3,1.3,0,0.299981,-0.00273882,7.4684e-14
0.3,1.4,0,0.299981,-0.00273882,7.4684e-14
0.3,1.5,0,0.299978,-0.00272861,7.47231e-14
0.3,1.6,0,0.299969,-0.00269732,7.48427e-14
0.3,1.7,0,0.29996,-0.00266604,7.49623e-14
0.3,1.8,0,0.299955,-0.00264775,7.50323e-14
0.3,1.9,0,0.299955,-0.00264775,7.50323e-14
0.3,2,0,0.299952,-0.00262843,8.68463e-14
0.3,2.1,0,0.299945,-0.00258655,1.12443e-13
0.3,2.2,0,0.299938,-0.00254468,1.3804e-13
0.3,2.3,0,0.299934,-0.00252503,1.50051e-13
0.3,2.4,0,0.299934,-0.00252503,1.50051e-13
0.3,2.5,0,0.29993,-0.00249234,1.35277e-13
0.3,2.6,0,0.299922,-0.00243568,1.09669e-13
0.3,2.7,0,0.299915,-0.00237902,8.40613e-14
0.3,2.8,0,0.299912,-0.00235897,7.5e-14
0.3,2.9,0,0.299912,-0.00235897,7.5e-14
0.3,3,0,0.299906,-0.00230755,5.72835e-14
0.3,3.1,0,0.299897,-0.00223327,3.16929e-14
0.3,3.2,0,0.299889,-0.00215898,6.10236e-15
0.3,3.3,0,0.299886,-0.00214127,0
0.3,3.4,0,0.299886,-0.00214127,0
0.3,3.5,0,0.299878,-0.00206852,0
0.3,3.6,0,0.299867,-0.00197844,0
0.3,3.7,0,0.299857,-0.00188836,0
0.3,3.8,0,0.299855,-0.00187728,0
0.3,3.9,0,0.299855,-0.00187728,0
0.3,4,0,0.299845,-0.00178102,9.44882e-15
0.3,4.1,0,0.299833,-0.00167675,1.9685e-14
0.3,4.2,0,0.299822,-0.00157247,2.99213e-14
0.3,4.3,0,0.299822,-0.00157167,3e-14
0.3,4.4,0,0.299821,-0.00156716,3.04921e-14
0.3,4.5,0,0.299811,-0.00144984,4.32874e-14
0.3,4.6,0,0.299801,-0.00133253,5.60827e-14
0.3,4.7,0,0.299792,-0.00122785,6.75e-14
0.3,4.8,0,0.299792,-0.00122785,6.75e-14
0.3,4.9,0,0.299791,-0.00120783,6.78937e-14
0.3,5,0,0.299785,-0.00107772,7.04528e-14
0.3,5.1,0,0.29978,-0.000947607,7.30118e-14
0.3,5.2,0,0.299775,-0.000846521,7.5e-14
0.3,5.3,0,0.299775,-0.000846521,7.5e-14
0.3,5.4,0,0.299775,-0.000808631,7.5689e-14
0.3,5.5,0,0.299773,-0.000667899,7.8248e-14
0.3,5.6,0,0.29977,-0.000527167,8.08071e-14
0.3,5.7,0,0.299769,-0.000434067,8.25e-14
0.3,5.8,0,0.299769,-0.000434067,8.25e-14
0.3,5.9,0,0.299769,-0.000377988,8.44685e-14
0.3,6,0,0.299768,-0.000232181,8.95866e-14
0.3,6.1,0,0.299768,-8.63745e-05,9.47047e-14
0.3,6.2,0,0.299768,-6.7416e-06,9.75e-14
0.3,6.3,0,0.299768,-6.7416e-06,9.75e-14
0.3,6.4,0,0.299769,6.6036e-05,9.87795e-14
0.3,6.5,0,0.299772,0.000211591,1.01339e-13
0.3,6.6,0,0.299774,0.000357146,1.03898e-13
0.3,6.7,0,0.299775,0.000419847,1.05e-13
0.3,6.8,0,0.299775,0.000419847,1.05e-13
0.3,6.9,0,0.299779,0.000506786,1.05e-13
0.3,7,0,0.299785,0.000648063,1.05e-13
0.3,7.1,0,0.299791,0.000789339,1.05e-13
0.3,7.2,0,0.299793,0.000833895,1.05e-13
0.3,7.3,0,0.299793,0.000833895,1.05e-13
0.3,7.4,0,0.299798,0.000931131,1.05e-13
0.3,7.5,0,0.299805,0.00106419,1.05e-13
0.3,7.6,0,0.299812,0.00119725,1.05e-13
0.3,7.7,0,0.299814,0.00122386,1.05e-13
0.3,7.8,0,0.299814,0.00122386,1.05e-13
0.3,7.9,0,0.29982,0.00132571,1.05e-13
0.3,8,0,0.299827,0.00144607,1.05e-13
0.3,8.1,0,0.299834,0.00156643,1.05e-13
0.3,8.2,0,0.299835,0.00157661,1.05e-13
0.3,8.3,0,0.299835,0.00157661,1.05e-13
0.3,8.4,0,0.299842,0.00167717,1.00079e-13
0.3,8.5,0,0.299849,0.00178175,9.49606e-14
0.3,8.6,0,0.299856,0.00188311,9e-14
0.3,8.7,0,0.299856,0.00188311,9e-14
0.3,8.8,0,0.299856,0.00188989,9.05906e-14
0.3,8.9,0,0.299864,0.00197801,9.82677e-14
0.3,9,0,0.299871,0.00206614,1.05945e-13
0.3,9.1,0,0.299877,0.00214138,1.125e-13
0.3,9.2,0,0.299877,0.00214138,1.125e-13
0.3,9.3,0,0.299879,0.00215523,1.10039e-13
0.3,9.4,0,0.299887,0.00222728,9.72441e-14
0.3,9.5,0,0.299894,0.00229933,8.44488e-14
0.3,9.6,0,0.2999,0.00235253,7.5e-14
0.3,9.7,0,0.2999,0.00235253,7.5e-14
0.3,9.8,0,0.299902,0.00237006,6.7126e-14
0.3,9.9,0,0.29991,0.00242702,4.15354e-14
0.3,10,0,0.299918,0.00248399,1.59449e-14
0.3,10.1,0,0.299922,0.00251948,0
0.3,10.2,0,0.299922,0.00251948,0
0.3,10.3,0,0.299926,0.0025377,2.86582e-24
0.3,10.4,0,0.299933,0.00258078,9.63958e-24
0.3,10.5,0,0.29994,0.00262386,1.64133e-23
0.3,10.6,0,0.299944,0.00264573,1.98523e-23
0.3,10.7,0,0.299944,0.00264573,1.98523e-23
0.3,10.8,0,0.299947,0.00266312,8.18062e-24
0.3,10.9,0,0.299954,0.00269542,-1.34954e-23
0.3,11,0,0.29996,0.00272771,-3.51715e-23
0.3,11.1,0,0.299963,0.00274038,-4.36751e-23
0.3,11.2,0,0.299963,0.00274038,-4.36751e-23
0.3,11.3,0,0.299966,0.00275736,-2.95023e-23
0.3,11.4,0,0.299971,0.00278333,-7.8263e-24
0.3,11.5,0,0.299975,0.00280929,1.38497e-23
0.3,11.6,0,0.299977,0.00281648,1.98523e-23
0.3,11.7,0,0.299977,0.00281648,1.98523e-23
0.3,11.8,0,0.299977,0.00281648,1.98523e-23
0.3,11.9,0,0.299977,0.00281648,1.98523e-23
0.3,12,0,0.29998,0.00283387,4.17829e-15
0.3,12.1,0,0.299984,0.0028552,9.30262e-15
0.3,12.2,0,0.299988,0.00287652,1.44269e-14
0.3,12.3,0,0.299985,0.00309156,1.95203e-14
0.3,12.4,0,0.299981,0.00333632,2.46089e-14
0.3,12.5,0,0.299983,0.00336205,2.97188e-14
0.3,12.6,0,0.299985,0.00336913,3.48306e-14
0.3,12.7,0,0.299987,0.00337621,3.99423e-14
0.4,0,0,0.300014,-0.00407083,0
0.4,0.1,0,0.300016,-0.00406677,2.00704e-24
0.4,0.2,0,0.300017,-0.00406272,4.01408e-24
0.4,0.3,0,0.300019,-0.00405866,6.02112e-24
0.4,0.4,0,0.300021,-0.0040476,7.96941e-24
0.4,0.5,0,0.300019,-0.00381907,1.70491e-15
0.4,0.6,0,0.300016,-0.00379955,2.73958e-14
0.4,0.7,0,0.300014,-0.00378003,5.30867e-14
0.4,0.8,0,0.300012,-0.00376051,7.87775e-14
0.4,0.9,0,0.30001,-0.00374431,1.0009e-13
0.4,1,0,0.300009,-0.00374,1.00067e-13
0.4,1.1,0,0.299999,-0.00371612,9.99345e-14
0.4,1.2,0,0.29999,-0.00369224,9.98025e-14
0.4,1.3,0,0.299981,-0.00366835,9.96704e-14
0.4,1.4,0,0.299974,-0.00365177,9.95787e-14
0.4,1.5,0,0.299972,-0.00364175,9.9617e-14
0.4,1.6,0,0.299963,-0.00361047,9.97366e-14
0.4,1.7,0,0.299954,-0.00357919,9.98562e-14
0.4,1.8,0,0.299945,-0.0035479,9.99758e-14
0.4,1.9,0,0.29994,-0.00353034,1.00043e-13
0.4,2,0,0.299937,-0.00351101,1.11857e-13
0.4,2.1,0,0.29993,-0.00346914,1.37454e-13
0.4,2.2,0,0.299923,-0.00342726,1.63051e-13
0.4,2.3,0,0.299916,-0.00338539,1.88648e-13
0.4,2.4,0,0.299912,-0.0033667,2.00068e-13
0.4,2.5,0,0.299908,-0.00333402,1.85294e-13
0.4,2.6,0,0.2999,-0.00327736,1.59686e-13
0.4,2.7,0,0.299893,-0.0032207,1.34078e-13
0.4,2.8,0,0.299885,-0.00316404,1.0847e-13
0.4,2.9,0,0.299883,-0.0031453,1e-13
0.4,3,0,0.299877,-0.00309387,8.22835e-14
0.4,3.1,0,0.299868,-0.00301959,5.66929e-14
0.4,3.2,0,0.299859,-0.00294531,3.11024e-14
0.4,3.3,0,0.29985,-0.00287103,5.51181e-15
0.4,3.4,0,0.299849,-0.00285503,0
0.4,3.5,0,0.29984,-0.00278227,0
0.4,3.6,0,0.299829,-0.0026922,0
0.4,3.7,0,0.299819,-0.00260212,0
0.4,3.8,0,0.299808,-0.00251204,0
0.4,3.9,0,0.299807,-0.00250304,0
0.4,4,0,0.299797,-0.00240678,9.44882e-15
0.4,4.1,0,0.299785,-0.00230251,1.9685e-14
0.4,4.2,0,0.299773,-0.00219823,2.99213e-14
0.4,4.3,0,0.299762,-0.00209556,4e-14
0.4,4.4,0,0.299762,-0.00209105,4.04921e-14
0.4,4.5,0,0.299752,-0.00197373,5.32874e-14
0.4,4.6,0,0.299741,-0.00185642,6.60827e-14
0.4,4.7,0,0.299731,-0.0017391,7.8878e-14
0.4,4.8,0,0.299723,-0.00163713,9e-14
0.4,4.9,0,0.299722,-0.00161711,9.03937e-14
0.4,5,0,0.299716,-0.001487,9.29528e-14
0.4,5.1,0,0.29971,-0.00135689,9.55118e-14
0.4,5.2,0,0.299705,-0.00122678,9.80709e-14
0.4,5.3,0,0.299701,-0.00112869,1e-13
0.4,5.4,0,0.2997,-0.0010908,1.00689e-13
0.4,5.5,0,0.299698,-0.000950073,1.03248e-13
0.4,5.6,0,0.299695,-0.000809341,1.05807e-13
0.4,5.7,0,0.299693,-0.000668609,1.08366e-13
0.4,5.8,0,0.299692,-0.000578757,1.1e-13
0.4,5.9,0,0.299692,-0.000522677,1.11969e-13
0.4,6,0,0.299691,-0.00037687,1.17087e-13
0.4,6.1,0,0.299691,-0.000231064,1.22205e-13
0.4,6.2,0,0.29969,-8.52569e-05,1.27323e-13
0.4,6.3,0,0.29969,-8.9888e-06,1.3e-13
0.4,6.4,0,0.299691,6.37888e-05,1.3128e-13
0.4,6.5,0,0.299694,0.000209344,1.33839e-13
0.4,6.6,0,0.299697,0.000354899,1.36398e-13
0.4,6.7,0,0.299699,0.000500454,1.38957e-13
0.4,6.8,0,0.299701,0.000559796,1.4e-13
0.4,6.9,0,0.299704,0.000646735,1.4e-13
0.4,7,0,0.29971,0.000788012,1.4e-13
0.4,7.1,0,0.299716,0.000929288,1.4e-13
0.4,7.2,0,0.299722,0.00107056,1.4e-13
0.4,7.3,0,0.299723,0.00111186,1.4e-13
0.4,7.4,0,0.299729,0.0012091,1.4e-13
0.4,7.5,0,0.299736,0.00134215,1.4e-13
0.4,7.6,0,0.299743,0.00147521,1.4e-13
0.4,7.7,0,0.29975,0.00160827,1.4e-13
0.4,7.8,0,0.299752,0.00163181,1.4e-13
0.4,7.9,0,0.299758,0.00173366,1.4e-13
0.4,8,0,0.299765,0.00185402,1.4e-13
0.4,8.1,0,0.299772,0.00197438,1.4e-13
0.4,8.2,0,0.299779,0.00209475,1.4e-13
0.4,8.3,0,0.29978,0.00210215,1.4e-13
0.4,8.4,0,0.299787,0.00220271,1.35079e-13
0.4,8.5,0,0.299794,0.00230729,1.29961e-13
0.4,8.6,0,0.299801,0.00241187,1.24843e-13
0.4,8.7,0,0.299808,0.00251082,1.2e-13
0.4,8.8,0,0.299808,0.0025176,1.20591e-13
0.4,8.9,0,0.299816,0.00260572,1.28268e-13
0.4,9,0,0.299823,0.00269384,1.35945e-13
0.4,9.1,0,0.29983,0.00278196,1.43622e-13
0.4,9.2,0,0.299837,0.00285517,1.5e-13
0.4,9.3,0,0.299838,0.00286903,1.47539e-13
0.4,9.4,0,0.299846,0.00294107,1.34744e-13
0.4,9.5,0,0.299854,0.00301312,1.21949e-13
0.4,9.6,0,0.299861,0.00308517,1.09154e-13
0.4,9.7,0,0.299867,0.00313671,1e-13
0.4,9.8,0,0.299869,0.00315424,9.2126e-14
0.4,9.9,0,0.299877,0.0032112,6.65354e-14
0.4,10,0,0.299884,0.00326816,4.09449e-14
0.4,10.1,0,0.299892,0.00332513,1.53543e-14
0.4,10.2,0,0.299897,0.0033593,0
0.4,10.3,0,0.2999,0.00337753,2.86582e-24
0.4,10.4,0,0.299907,0.00342061,9.63958e-24
0.4,10.5,0,0.299914,0.00346369,1.64133e-23
0.4,10.6,0,0.299922,0.00350677,2.31871e-23
0.4,10.7,0,0.299925,0.00352764,2.64698e-23
0.4,10.8,0,0.299929,0.00354503,1.47981e-23
0.4,10.9,0,0.299935,0.00357733,-6.87797e-24
0.4,11,0,0.299942,0.00360962,-2.8554e-23
0.4,11.1,0,0.299948,0.00364192,-5.02301e-23
0.4,11.2,0,0.29995,0.00365384,-5.82335e-23
0.4,11.3,0,0.299954,0.00367082,-4.40607e-23
0.4,11.4,0,0.299958,0.00369679,-2.23847e-23
0.4,11.5,0,0.299963,0.00372275,-7.08639e-25
0.4,11.6,0,0.299968,0.00374872,2.09674e-23
0.4,11.7,0,0.299969,0.00375531,2.64698e-23
0.4,11.8,0,0.299969,0.00375531,2.64698e-23
0.4,11.9,0,0.299972,0.00377221,4.06004e-15
0.4,12,0,0.299976,0.00379353,9.18436e-15
0.4,12.1,0,0.29998,0.00381486,1.43087e-14
0.4,12.2,0,0.299984,0.00383619,1.9433e-14
0.4,12.3,0,0.299982,0.0040499,2.45266e-14
0.4,12.4,0,0.299983,0.00408184,2.96359e-14
0.4,12.5,0,0.299985,0.00408892,3.47476e-14
0.4,12.6,0,0.299987,0.004096,3.98594e-14
0.4,12.7,0,0.299989,0.00410308,4.49712e-14
0.5,0,0,0.300014,-0.00479133,0
0.5,0.1,0,0.300016,-0.0047881,-4.49912e-18
0.5,0.2,0,0.300018,-0.00478487,-8.99824e-18
0.5,0.3,0,0.30002,-0.00478165,-1.34974e-17
0.5,0.4,0,0.300021,-0.00477842,-1.79965e-17
0.5,0.5,0,0.300023,-0.00477418,8.63354e-16
0.5,0.6,0,0.300021,-0.00475475,2.67675e-14
0.5,0.7,0,0.300019,-0.00473532,5.26716e-14
0.5,0.8,0,0.300017,-0.00471584,7.84627e-14
0.5,0.9,0,0.300015,-0.00469632,1.04154e-13
0.5,1,0,0.300011,-0.00467638,1.25091e-13
0.5,1.1,0,0.300002,-0.0046525,1.24959e-13
0.5,1.2,0,0.299993,-0.00462861,1.24827e-13
0.5,1.3,0,0.299983,-0.00460473,1.24695e-13
0.5,1.4,0,0.299974,-0.00458085,1.24563e-13
0.5,1.5,0,0.299965,-0.0045549,1.24511e-13
0.5,1.6,0,0.299956,-0.00452361,1.2463e-13
0.5,1.7,0,0.299948,-0.00449233,1.2475e-13
0.5,1.8,0,0.299939,-0.00446105,1.2487e-13
0.5,1.9,0,0.29993,-0.00442977,1.24989e-13
0.5,2,0,0.299922,-0.00439359,1.36868e-13
0.5,2.1,0,0.299915,-0.00435172,1.62465e-13
0.5,2.2,0,0.299908,-0.00430984,1.88062e-13
0.5,2.3,0,0.299901,-0.00426797,2.13659e-13
0.5,2.4,0,0.299894,-0.00422609,2.39256e-13
0.5,2.5,0,0.299886,-0.00417569,2.35311e-13
0.5,2.6,0,0.299879,-0.00411903,2.09703e-13
0.5,2.7,0,0.299871,-0.00406237,1.84095e-13
0.5,2.8,0,0.299863,-0.00400572,1.58487e-13
0.5,2.9,0,0.299856,-0.00394906,1.32879e-13
0.5,3,0,0.299847,-0.0038802,1.07283e-13
0.5,3.1,0,0.299839,-0.00380592,8.16929e-14
0.5,3.2,0,0.29983,-0.00373163,5.61024e-14
0.5,3.3,0,0.299821,-0.00365735,3.05118e-14
0.5,3.4,0,0.299812,-0.00358307,4.92126e-15
0.5,3.5,0,0.299802,-0.00349603,0
0.5,3.6,0,0.299792,-0.00340595,0
0.5,3.7,0,0.299781,-0.00331588,0
0.5,3.8,0,0.29977,-0.0032258,0
0.5,3.9,0,0.29976,-0.00313572,0
0.5,4,0,0.299748,-0.00303254,9.44882e-15
0.5,4.1,0,0.299737,-0.00292827,1.9685e-14
0.5,4.2,0,0.299725,-0.00282399,2.99213e-14
0.5,4.3,0,0.299714,-0.00271972,4.01575e-14
0.5,4.4,0,0.299702,-0.00261494,5.04921e-14
0.5,4.5,0,0.299692,-0.00249763,6.32874e-14
0.5,4.6,0,0.299682,-0.00238031,7.60827e-14
0.5,4.7,0,0.299672,-0.00226299,8.8878e-14
0.5,4.8,0,0.299662,-0.00214568,1.01673e-13
0.5,4.9,0,0.299652,-0.0020264,1.12894e-13
0.5,5,0,0.299647,-0.00189628,1.15453e-13
0.5,5.1,0,0.299641,-0.00176617,1.18012e-13
0.5,5.2,0,0.299635,-0.00163606,1.20571e-13
0.5,5.3,0,0.29963,-0.00150595,1.2313e-13
0.5,5.4,0,0.299625,-0.00137298,1.25689e-13
0.5,5.5,0,0.299623,-0.00123225,1.28248e-13
0.5,5.6,0,0.299621,-0.00109151,1.30807e-13
0.5,5.7,0,0.299618,-0.000950782,1.33366e-13
0.5,5.8,0,0.299616,-0.00081005,1.35925e-13
0.5,5.9,0,0.299615,-0.000667366,1.39469e-13
0.5,6,0,0.299614,-0.00052156,1.44587e-13
0.5,6.1,0,0.299614,-0.000375753,1.49705e-13
0.5,6.2,0,0.299613,-0.000229946,1.54823e-13
0.5,6.3,0,0.299613,-8.41394e-05,1.59941e-13
0.5,6.4,0,0.299614,6.15416e-05,1.6378e-13
0.5,6.5,0,0.299617,0.000207097,1.66339e-13
0.5,6.6,0,0.299619,0.000352652,1.68898e-13
0.5,6.7,0,0.299622,0.000498207,1.71457e-13
0.5,6.8,0,0.299625,0.000643762,1.74016e-13
0.5,6.9,0,0.299629,0.000786684,1.75e-13
0.5,7,0,0.299635,0.000927961,1.75e-13
0.5,7.1,0,0.299641,0.00106924,1.75e-13
0.5,7.2,0,0.299647,0.00121051,1.75e-13
0.5,7.3,0,0.299653,0.00135179,1.75e-13
0.5,7.4,0,0.29966,0.00148706,1.75e-13
0.5,7.5,0,0.299667,0.00162012,1.75e-13
0.5,7.6,0,0.299674,0.00175318,1.75e-13
0.5,7.7,0,0.299681,0.00188624,1.75e-13
0.5,7.8,0,0.299688,0.0020193,1.75e-13
0.5,7.9,0,0.299696,0.00214161,1.75e-13
0.5,8,0,0.299703,0.00226197,1.75e-13
0.5,8.1,0,0.29971,0.00238234,1.75e-13
0.5,8.2,0,0.299717,0.0025027,1.75e-13
0.5,8.3,0,0.299724,0.00262306,1.75e-13
0.5,8.4,0,0.299732,0.00272825,1.70079e-13
0.5,8.5,0,0.299739,0.00283283,1.64961e-13
0.5,8.6,0,0.299746,0.00293741,1.59843e-13
0.5,8.7,0,0.299753,0.00304199,1.54724e-13
0.5,8.8,0,0.29976,0.0031453,1.50591e-13
0.5,8.9,0,0.299768,0.00323342,1.58268e-13
0.5,9,0,0.299775,0.00332155,1.65945e-13
0.5,9.1,0,0.299782,0.00340967,1.73622e-13
0.5,9.2,0,0.29979,0.00349779,1.81299e-13
0.5,9.3,0,0.299797,0.00358282,1.85039e-13
0.5,9.4,0,0.299805,0.00365487,1.72244e-13
0.5,9.5,0,0.299813,0.00372691,1.59449e-13
0.5,9.6,0,0.29982,0.00379896,1.46654e-13
0.5,9.7,0,0.299828,0.00387101,1.33858e-13
0.5,9.8,0,0.299836,0.00393842,1.17126e-13
0.5,9.9,0,0.299843,0.00399538,9.15354e-14
0.5,10,0,0.299851,0.00405234,6.59449e-14
0.5,10.1,0,0.299859,0.0041093,4.03543e-14
0.5,10.2,0,0.299866,0.00416627,1.47638e-14
0.5,10.3,0,0.299874,0.00421736,2.86582e-24
0.5,10.4,0,0.299881,0.00426043,9.63958e-24
0.5,10.5,0,0.299889,0.00430351,1.64133e-23
0.5,10.6,0,0.299896,0.00434659,2.31871e-23
0.5,10.7,0,0.299903,0.00438967,2.99609e-23
0.5,10.8,0,0.29991,0.00442694,2.14155e-23
0.5,10.9,0,0.299917,0.00445924,-2.60529e-25
0.5,11,0,0.299923,0.00449153,-2.19366e-23
0.5,11.1,0,0.299929,0.00452383,-4.36126e-23
0.5,11.2,0,0.299936,0.00455613,-6.52887e-23