/*--------------------------------*- C++ -*----------------------------------*\
| =========                 |                                                 |
| \\      /  F ield         | OpenFOAM: The Open Source CFD Toolbox           |
|  \\    /   O peration     | Version:  v1806                                 |
|   \\  /    A nd           | Web:      www.OpenFOAM.com                      |
|    \\/     M anipulation  |                                                 |
\*---------------------------------------------------------------------------*/
FoamFile
{
    version     2.0;
    format      ascii;
    class       volScalarField;
    location    "40";
    object      p;
}
// * * * * * * * * * * * * * * * * * * * * * * * * * * * * * * * * * * * * * //

dimensions      [0 2 -2 0 0 0 0];


internalField   nonuniform List<scalar> 
2400
(
0.000196879
0.000182601
0.000273251
0.000350138
0.000371707
0.000461388
0.000773563
0.00121848
0.00154808
0.00171519
0.00174565
0.00165141
0.0014597
0.0012195
0.000978646
0.00076671
0.000592733
0.000454961
0.000346028
0.000261429
0.000596138
0.000649364
0.000764494
0.00091478
0.0010858
0.00147929
0.00214966
0.00290906
0.00350821
0.00387836
0.00399908
0.00386226
0.00351463
0.00304276
0.00253313
0.00204974
0.00162536
0.00127093
0.000979176
0.000744834
0.000992256
0.00106926
0.00123892
0.00148664
0.00180315
0.00238317
0.00330593
0.00441336
0.00541228
0.00606873
0.00627975
0.00605136
0.00549496
0.00476348
0.00398631
0.00324977
0.00259692
0.00204423
0.00158303
0.00120838
0.0013782
0.00148257
0.00170553
0.0020411
0.00248146
0.00321959
0.00435932
0.00571674
0.00693699
0.0077521
0.0080432
0.00780612
0.00715402
0.00626002
0.00528489
0.00434348
0.00349602
0.00276862
0.00215382
0.00164927
0.00175269
0.00188198
0.00215323
0.00256935
0.00312569
0.00399882
0.00528976
0.00683313
0.00827027
0.0092696
0.0096431
0.00938293
0.00863366
0.00759724
0.0064557
0.00534089
0.00432497
0.00344297
0.0026891
0.00206522
0.0021125
0.00226395
0.00257955
0.00307098
0.00373106
0.00471328
0.00612664
0.00781913
0.00941077
0.0105302
0.0109717
0.0107187
0.00991577
0.00877771
0.0075048
0.00624603
0.00508536
0.00406729
0.00318791
0.00245512
0.00245493
0.00262636
0.00298242
0.00354194
0.00429376
0.00536916
0.00687626
0.0086775
0.0103972
0.0116301
0.0121348
0.011886
0.0110394
0.00982131
0.0084425
0.00706399
0.00577924
0.00464205
0.00364987
0.00281848
0.00277751
0.00296679
0.00335925
0.00397995
0.00481263
0.0059658
0.00754694
0.00943426
0.0112508
0.0125675
0.0131249
0.0128893
0.012017
0.0107399
0.00927692
0.00779943
0.00640883
0.00516807
0.00407489
0.00315517
0.00307801
0.00328309
0.00370805
0.00438311
0.00528618
0.0065051
0.00814457
0.0100963
0.0119891
0.013376
0.0139786
0.0137562
0.0128668
0.0115454
0.0100156
0.0084568
0.0069764
0.00564642
0.00446318
0.00346539
0.00335444
0.00357334
0.00402703
0.00474991
0.00571377
0.00698778
0.00867352
0.0106751
0.0126262
0.0140673
0.0147075
0.0145
0.0136013
0.0122475
0.0106653
0.00904013
0.0074842
0.00607831
0.00481522
0.00374974
0.00360503
0.00383583
0.00431466
0.00507916
0.00609487
0.00741493
0.00913746
0.0111769
0.0131726
0.0146567
0.0153282
0.015135
0.0142318
0.0128548
0.0112316
0.00955311
0.00793435
0.00646507
0.0051317
0.00400918
0.00382824
0.00406907
0.00456965
0.0053699
0.00642923
0.00778742
0.0095392
0.0116074
0.013637
0.0151544
0.0158515
0.0156717
0.0147676
0.0133742
0.0117196
0.00999895
0.00832882
0.00680806
0.00541355
0.00424517
0.00402272
0.00427181
0.00479092
0.00562133
0.00671671
0.00810614
0.00988103
0.0119709
0.014026
0.0155691
0.0162869
0.0161192
0.0152161
0.0138117
0.0121334
0.0103804
0.0086693
0.00710863
0.00566195
0.00445974
0.00418734
0.00444297
0.00497757
0.00583286
0.00695726
0.0083718
0.0101648
0.0122707
0.0143447
0.0159074
0.0166416
0.0164843
0.0155836
0.0141721
0.0124766
0.0106996
0.0089572
0.00736805
0.00587839
0.00465566
0.00432113
0.00458169
0.00512891
0.00600399
0.00715088
0.00858505
0.0103918
0.0125094
0.0145972
0.0161744
0.0169213
0.0167728
0.0158747
0.0144592
0.0127516
0.0109584
0.0091935
0.00758736
0.0060647
0.00483663
0.00442333
0.00468727
0.00524441
0.00613436
0.00729754
0.00874641
0.0105634
0.012689
0.0147864
0.0163742
0.0171304
0.0169887
0.0160933
0.0146758
0.0129605
0.0111577
0.00937866
0.00776721
0.00622318
0.00500749
0.00449332
0.00475921
0.00532368
0.00622368
0.00739726
0.00885622
0.0106801
0.0128109
0.0149147
0.0165097
0.0172721
0.0171352
0.016242
0.014824
0.0131046
0.011298
0.0095125
0.0079076
0.0063565
0.00517512
0.00453068
0.00479731
0.00536645
0.00627168
0.00745009
0.00891484
0.0107426
0.0128759
0.0149835
0.0165828
0.0173487
0.0172144
0.0163225
0.0149051
0.0131844
0.0113793
0.00959407
0.00800744
0.00646725
0.00535358
0.004535
0.00480159
0.00537273
0.00627802
0.00745594
0.00892269
0.0107514
0.0128845
0.0149933
0.0165945
0.0173609
0.0172271
0.0163355
0.0149194
0.0131999
0.0114007
0.00962194
0.00806405
0.00655606
0.00555594
0.00450607
0.00477179
0.00534279
0.00624279
0.00741406
0.00887942
0.0107068
0.0128376
0.0149449
0.0165451
0.017309
0.0171734
0.016281
0.0148668
0.0131505
0.011361
0.0095925
0.00807144
0.0066213
0.00575957
0.000230969
0.000225524
0.000219238
0.000212799
0.000206408
0.000200043
0.000193695
0.000187381
0.000181064
0.000174452
0.000631622
0.000612254
0.000593664
0.000575579
0.000557884
0.000540564
0.00052361
0.000507003
0.000490755
0.000475
0.00103239
0.00100246
0.00097298
0.000943933
0.00091533
0.000887167
0.000859431
0.000832107
0.000805177
0.000778589
0.00140924
0.0013682
0.00132792
0.00128832
0.00124935
0.00121101
0.00117328
0.00113615
0.00109959
0.0010636
0.00176625
0.00171519
0.00166501
0.0016156
0.00156693
0.001519
0.00147177
0.00142524
0.00137939
0.00133419
0.00210051
0.00203996
0.00198047
0.00192185
0.00186408
0.00180715
0.00175105
0.00169574
0.00164122
0.00158746
0.00241176
0.00234239
0.00227424
0.00220706
0.00214081
0.00207547
0.00201105
0.00194752
0.00188485
0.00182304
0.00269928
0.00262165
0.00254547
0.00247032
0.00239616
0.00232299
0.00225081
0.00217961
0.00210935
0.00204002
0.00296277
0.00287741
0.00279376
0.00271121
0.00262968
0.00254922
0.00246981
0.00239145
0.00231411
0.00223778
0.00320201
0.00310934
0.00301874
0.00292929
0.00284089
0.00275361
0.00266746
0.00258242
0.00249847
0.00241562
0.00341692
0.00331725
0.00322013
0.00312421
0.00302935
0.00293565
0.00284316
0.00275185
0.00266172
0.00257275
0.00360752
0.00350099
0.00339768
0.0032956
0.00319456
0.00309474
0.0029962
0.00289894
0.00280294
0.00270821
0.00377392
0.00366041
0.00355104
0.00344293
0.00333582
0.00322999
0.00312555
0.00302249
0.00292082
0.00282055
0.00391647
0.00379559
0.00368004
0.00356577
0.00345244
0.00334045
0.00322997
0.00312104
0.00301366
0.00290787
0.00403553
0.00390631
0.00378393
0.00366285
0.00354259
0.00342378
0.00330669
0.00319138
0.00307793
0.00296642
0.00413346
0.00399456
0.00386422
0.00373512
0.0036067
0.00347986
0.00335499
0.00323223
0.00311169
0.0029934
0.00421081
0.00405895
0.00391734
0.00377676
0.00363663
0.00349817
0.00336201
0.00322843
0.00309769
0.00297027
0.00428215
0.00411414
0.00395801
0.0038033
0.00364945
0.0034979
0.00334941
0.0032041
0.00306046
0.0029196
0.00435541
0.00415826
0.00397308
0.00379145
0.00361121
0.00343211
0.00325366
0.00307618
0.00289912
0.00271846
0.00447086
0.0042333
0.00401117
0.00380788
0.00361707
0.00343416
0.00325636
0.00308142
0.00290563
0.00269961
0.000164852
0.000154323
0.000144516
0.000135035
0.000125837
0.0001169
0.000108192
9.96786e-05
9.13347e-05
8.3135e-05
7.50558e-05
6.70736e-05
5.91647e-05
5.13049e-05
4.34698e-05
3.5636e-05
2.77775e-05
1.9848e-05
1.17925e-05
3.77242e-06
0.000454026
0.000427319
0.000401036
0.000375336
0.000350205
0.000325609
0.000301513
0.000277876
0.000254655
0.000231799
0.000209255
0.000186969
0.000164878
0.000142919
0.000121025
9.9132e-05
7.71729e-05
5.50444e-05
3.26604e-05
1.0483e-05
0.000742505
0.000698015
0.000654733
0.000612522
0.000571302
0.000530997
0.000491531
0.00045283
0.000414815
0.000377407
0.000340521
0.000304069
0.00026796
0.000232096
0.000196378
0.000160713
0.000125003
8.91046e-05
5.28987e-05
1.70401e-05
0.00101489
0.000954361
0.000895276
0.000837566
0.000781145
0.000725929
0.000671831
0.000618757
0.000566613
0.000515297
0.000464704
0.000414723
0.000365239
0.000316129
0.000267273
0.000218553
0.000169852
0.000120987
7.18048e-05
2.31435e-05
0.00127294
0.0011969
0.00112266
0.00105013
0.000979195
0.000909757
0.000841712
0.000774952
0.000709362
0.000644825
0.000581217
0.000518409
0.000456266
0.000394648
0.000333414
0.000272432
0.000211563
0.00015059
8.93187e-05
2.87669e-05
0.00151459
0.00142401
0.00133553
0.00124903
0.00116441
0.00108156
0.00100035
0.000920679
0.000842415
0.000765427
0.000689578
0.000614725
0.000540717
0.000467399
0.000394615
0.000322218
0.000250052
0.000177865
0.000105416
3.39025e-05
0.00173921
0.00163498
0.00153311
0.0014335
0.00133604
0.00124059
0.00114706
0.0010553
0.00096519
0.000876583
0.000789332
0.00070328
0.000618266
0.00053412
0.000450672
0.000367761
0.000285215
0.000202746
0.000120062
3.85389e-05
0.00194598
0.001829
0.00171464
0.00160279
0.00149335
0.00138619
0.0012812
0.00117823
0.00107715
0.000977815
0.000880057
0.000783713
0.000688608
0.000594561
0.000501386
0.000408909
0.000316943
0.00022516
0.000133215
4.26657e-05
0.00213421
0.00200535
0.00187938
0.00175618
0.00163565
0.00151767
0.00140212
0.00128886
0.00117775
0.00106862
0.000961303
0.000855629
0.000751407
0.000648441
0.000546532
0.000445489
0.000345108
0.000245023
0.000144832
4.62714e-05
0.00230317
0.00216329
0.00202655
0.00189288
0.00176215
0.00163427
0.00150911
0.00138652
0.00126634
0.00114842
0.00103256
0.000918586
0.000806285
0.000695446
0.000585854
0.0004773
0.000369563
0.000262236
0.00015486
4.93441e-05
0.00245203
0.0023019
0.00215523
0.00201194
0.00187193
0.0017351
0.0016013
0.0014704
0.00134221
0.00121657
0.00109326
0.000972086
0.000852817
0.000735223
0.000619068
0.000504125
0.000390149
0.000276696
0.000163246
5.18755e-05
0.00257969
0.00242002
0.0022642
0.00211216
0.0019638
0.00181901
0.00167765
0.00153953
0.00140448
0.00127229
0.00114272
0.00101555
0.000890518
0.000767376
0.000645861
0.000525722
0.000406694
0.000288291
0.00016994
5.38625e-05
0.00268462
0.00251602
0.00235179
0.00219187
0.00203616
0.00188453
0.00173677
0.0015927
0.00145207
0.00131465
0.00118015
0.00104831
0.000918854
0.00079148
0.000665903
0.000541849
0.000419028
0.00029692
0.000174901
5.53137e-05
0.00276462
0.00258752
0.00241559
0.00224875
0.00208685
0.00192967
0.00177694
0.00162839
0.0014837
0.00134257
0.00120467
0.00106968
0.000937267
0.000807106
0.000678877
0.000552279
0.000427003
0.000302501
0.000178112
5.62523e-05
0.00281582
0.00263058
0.00245178
0.00227925
0.00211269
0.00195168
0.00179582
0.00164467
0.00149782
0.00135485
0.00121535
0.00107894
0.000945235
0.000813881
0.000684526
0.000556849
0.000430525
0.000304995
0.000179587
5.6721e-05
0.00283405
0.00264051
0.00245577
0.00227919
0.00211004
0.00194755
0.00179098
0.00163966
0.00149298
0.0013504
0.00121141
0.00107556
0.000942421
0.000811606
0.00068275
0.000555523
0.000429602
0.00030444
0.000179389
5.67814e-05
0.00280142
0.00260106
0.00241388
0.00223775
0.00207072
0.00191125
0.00175815
0.00161042
0.00146727
0.00132805
0.00119219
0.00105924
0.000928744
0.00080034
0.000673681
0.000548463
0.000424392
0.000300975
0.000177635
5.6505e-05
0.00273097
0.00251928
0.00233025
0.0021573
0.00199616
0.00184387
0.00169831
0.00155795
0.00142172
0.00128885
0.00115875
0.00103097
0.00090513
0.000780908
0.000658029
0.000536254
0.000415351
0.000294928
0.000174528
5.59622e-05
0.00247949
0.00228111
0.00212689
0.00198734
0.00185476
0.0017264
0.00160063
0.00147655
0.00135377
0.0012321
0.00111142
0.000991628
0.00087265
0.000754401
0.00063679
0.000519735
0.000403132
0.000286747
0.000170302
5.51865e-05
0.00231698
0.00208742
0.00193886
0.0018186
0.00170855
0.00160153
0.0014947
0.00138699
0.00127819
0.00116842
0.00105789
0.000946852
0.000835472
0.000723898
0.000612229
0.000500536
0.000388858
0.000277139
0.000165266
5.41158e-05
0.00099619
0.00153719
0.00160312
0.00160035
0.00155866
0.0014925
0.00141198
0.00132219
0.00122621
0.00112602
0.00102296
0.000917937
0.000811571
0.000704295
0.000596409
0.000488124
0.000379591
0.000270909
0.000161997
5.30132e-05
0.00104735
0.00143465
0.00150646
0.00152865
0.00150495
0.00145116
0.00137938
0.0012959
0.00120462
0.00110809
0.00100797
0.000905385
0.000801099
0.000695641
0.000589383
0.000482582
0.000375426
0.00026806
0.00016047
5.26282e-05
0.00111261
0.00138786
0.00145066
0.00147898
0.00146325
0.00141681
0.00135102
0.00127226
0.00118473
0.00109126
0.000993696
0.000893294
0.000790918
0.000687165
0.000582457
0.000477091
0.00037128
0.000265196
0.000158887
5.23218e-05
0.00114816
0.00135575
0.00141235
0.00144137
0.00142945
0.00138765
0.00132609
0.00125091
0.00116642
0.00107552
0.000980172
0.000881723
0.000781093
0.000678929
0.000575688
0.000471696
0.000367188
0.000262354
0.000157288
5.19965e-05
0.00116651
0.00133457
0.00138598
0.00141351
0.00140293
0.00136364
0.00130472
0.00123205
0.00114983
0.00106099
0.000967501
0.000870748
0.000771682
0.000670976
0.000569108
0.000466421
0.000363168
0.000259548
0.000155684
5.16341e-05
0.00116986
0.00132283
0.00137008
0.0013949
0.00138364
0.00134489
0.00128711
0.00121584
0.00113512
0.00104778
0.000955768
0.000860435
0.000762735
0.000663343
0.000562743
0.000461286
0.000359231
0.000256782
0.000154083
5.1233e-05
0.00115889
0.00131951
0.0013638
0.001385
0.00137129
0.0013313
0.00127323
0.00120231
0.00112233
0.00103595
0.000945015
0.00085082
0.000754281
0.000656055
0.000556614
0.000456306
0.000355389
0.000254066
0.00015249
5.07913e-05
0.00113568
0.00132527
0.0013673
0.00138347
0.00136551
0.00132261
0.00126292
0.00119138
0.00111142
0.00102549
0.000935253
0.000841919
0.000746338
0.000649127
0.000550735
0.000451493
0.000351651
0.000251405
0.000150908
5.03083e-05
0.00109303
0.00134167
0.00138228
0.00139075
0.00136606
0.00131855
0.00125598
0.0011829
0.00110232
0.00101634
0.000926458
0.000833722
0.000738904
0.000642562
0.000545108
0.00044685
0.00034802
0.000248802
0.000149339
4.97857e-05
0.00103098
0.00138467
0.00141812
0.00140899
0.00137288
0.00131871
0.00125202
0.00117657
0.00109478
0.00100834
0.000918489
0.000826122
0.000731896
0.000636297
0.000539688
0.000442343
0.000344471
0.000246238
0.000147769
4.92269e-05
0.00164992
0.00157592
0.00151431
0.00145594
0.00139359
0.00132415
0.00124896
0.00116854
0.00108398
0.000996246
0.000906073
0.000814045
0.000720609
0.000626107
0.000530805
0.000434909
0.000338581
0.000241943
0.000145086
4.82415e-05
0.00180998
0.00169387
0.00160057
0.00151268
0.00142695
0.0013412
0.00125402
0.00116552
0.00107576
0.000984904
0.000893112
0.000800564
0.000707413
0.000613785
0.000519786
0.000425502
0.000331007
0.000236334
0.000141482
4.68117e-05
0.00193158
0.00179017
0.00166909
0.0015589
0.00145546
0.00135609
0.00125898
0.00116343
0.00106885
0.000974902
0.000881358
0.00078809
0.00069501
0.000602057
0.000509187
0.000416373
0.000323594
0.00023079
0.000137843
4.52886e-05
0.00198843
0.00183977
0.00170714
0.00158524
0.00147118
0.00136295
0.00125902
0.00115834
0.00106011
0.00096378
0.000868904
0.000775157
0.000682284
0.000590081
0.000498386
0.000407071
0.000316036
0.000225126
0.000134106
4.37007e-05
0.00200663
0.00185697
0.00171961
0.00159207
0.00147249
0.00135935
0.0012514
0.00114763
0.00104724
0.000949593
0.000854144
0.000760466
0.000668199
0.000577048
0.000486762
0.000397138
0.000308011
0.000219142
0.000130189
4.20614e-05
0.00199319
0.00184591
0.00170855
0.00157982
0.00145857
0.00134373
0.00123433
0.00112951
0.00102856
0.000930824
0.000835764
0.000742903
0.000651836
0.000562212
0.000473727
0.000386126
0.000299194
0.00021263
0.000125998
4.03699e-05
0.00195329
0.00181076
0.00167645
0.00154963
0.0014296
0.00131563
0.00120698
0.00110298
0.00100299
0.000906446
0.000812814
0.000721627
0.000632469
0.000544967
0.000458788
0.000373649
0.000289301
0.0002054
0.000121438
3.86164e-05
0.00189081
0.00175474
0.00162557
0.00150289
0.00138626
0.00127519
0.00116915
0.00106759
0.000969982
0.000875836
0.000784673
0.000696052
0.000609569
0.000524851
0.000441559
0.000359396
0.000278098
0.000197291
0.000116421
3.67832e-05
0.00180882
0.00168046
0.00155794
0.00144104
0.00132949
0.00122294
0.00112101
0.00102328
0.000929311
0.000838687
0.000750988
0.000665813
0.000582783
0.000501543
0.000421759
0.000343134
0.000265401
0.000188173
0.000110873
3.48475e-05
0.00170984
0.00159011
0.00147536
0.00136547
0.00126027
0.00115954
0.00106297
0.000970242
0.000881014
0.000794924
0.000711613
0.000630724
0.000551911
0.000474843
0.000399202
0.000324702
0.000251079
0.000177948
0.000104729
3.27848e-05
0.0015959
0.00148551
0.00137939
0.00127746
0.00117963
0.00108573
0.000995552
0.000908833
0.000825295
0.00074464
0.000666559
0.00059074
0.000516874
0.000444654
0.000373788
0.000304003
0.000235049
0.00016655
9.79432e-05
3.0571e-05
0.00146867
0.00136819
0.00127136
0.00117815
0.0010885
0.00100229
0.000919349
0.000839483
0.000762462
0.000688039
0.000615949
0.000545923
0.000477686
0.000410962
0.000345483
0.000280995
0.000217267
0.000153939
9.04811e-05
2.81849e-05
0.00132949
0.0012394
0.00115243
0.00106857
0.000987768
0.000909942
0.000834964
0.000762674
0.000692888
0.000625399
0.000559985
0.00049641
0.000434435
0.000373815
0.000314307
0.000255681
0.000197723
0.000140101
8.23233e-05
2.5609e-05
0.00117953
0.00110025
0.00102361
0.000949625
0.000878243
0.000809401
0.000742999
0.000678912
0.000616986
0.000557052
0.000498921
0.000442395
0.000387263
0.000333312
0.000280325
0.000228098
0.000176437
0.000125039
7.34624e-05
2.28305e-05
0.00101975
0.000951676
0.000885816
0.000822163
0.000760693
0.000701352
0.00064406
0.000588717
0.000535199
0.000483366
0.000433062
0.000384118
0.000336357
0.000289594
0.000243641
0.000198317
0.000153451
0.000108777
6.39031e-05
1.98417e-05
0.000851072
0.000794578
0.000739886
0.000686989
0.000635867
0.000586479
0.000538763
0.000492637
0.000448005
0.000404752
0.000362753
0.000321868
0.00028195
0.000242845
0.000204392
0.000166438
0.000128836
9.13553e-05
5.36625e-05
1.66408e-05
0.000674351
0.000629787
0.000586629
0.000544867
0.000504485
0.000465451
0.000427717
0.000391223
0.000355892
0.000321639
0.000288362
0.000255954
0.000224298
0.000193269
0.000162739
0.000132581
0.000102674
7.28271e-05
4.27655e-05
1.32304e-05
0.000490424
0.000458106
0.000426817
0.000396538
0.000367252
0.000338933
0.000311545
0.000285046
0.000259383
0.000234491
0.000210301
0.000186734
0.000163703
0.000141118
0.000118881
9.68986e-05
7.50778e-05
5.32684e-05
3.12541e-05
9.62148e-06
0.000300818
0.000281465
0.000262457
0.000243987
0.000226086
0.000208753
0.000191974
0.000175724
0.000159973
0.000144685
0.000129817
0.000115322
0.000101148
8.72398e-05
7.35371e-05
5.99807e-05
4.65111e-05
3.30243e-05
1.93598e-05
5.91292e-06
0.000110227
0.000102651
9.57393e-05
8.9065e-05
8.26063e-05
7.63557e-05
7.02958e-05
6.44122e-05
5.86932e-05
5.31271e-05
4.77011e-05
4.24012e-05
3.72119e-05
3.21163e-05
2.70956e-05
2.2131e-05
1.72029e-05
1.22669e-05
7.2344e-06
2.21501e-06
0.00309429
0.00286909
0.00272754
0.00260606
0.0024938
0.00238748
0.00228302
0.00217718
0.00206327
0.00191749
0.00328391
0.00307449
0.00291385
0.00276547
0.00262449
0.00249078
0.00236234
0.00223659
0.0021104
0.00198064
0.00327296
0.00308565
0.00293672
0.00279643
0.00266174
0.00253386
0.00241212
0.00229549
0.00218325
0.00207402
0.00324136
0.00307769
0.00294226
0.00281127
0.00268355
0.00256112
0.00244409
0.00233206
0.00222482
0.00212226
0.00317901
0.00303298
0.00290887
0.00278752
0.00266831
0.00255319
0.00244251
0.0023361
0.00223387
0.00213577
0.00308925
0.00295795
0.00284393
0.00273179
0.0026211
0.00251352
0.00240945
0.00230881
0.00221158
0.00211772
0.00297578
0.00285707
0.00275205
0.0026484
0.0025458
0.00244561
0.00234818
0.00225349
0.00216155
0.00207234
0.00284139
0.00273369
0.00263689
0.00254117
0.00244628
0.0023533
0.00226253
0.00217397
0.00208763
0.00200351
0.0026885
0.00259071
0.00250162
0.00241344
0.00232596
0.00224005
0.00215593
0.00207362
0.00199314
0.0019145
0.00251907
0.00243042
0.00234874
0.00226785
0.00218759
0.00210865
0.0020312
0.00195526
0.00188084
0.00180797
0.00233464
0.00225461
0.00218018
0.00210646
0.00203333
0.00196132
0.00189058
0.00182111
0.00175294
0.00168607
0.00213642
0.00206467
0.00199745
0.00193087
0.00186485
0.0017998
0.00173584
0.00167296
0.00161119
0.00155054
0.00192535
0.00186172
0.00180174
0.00174234
0.00168348
0.00162546
0.00156837
0.00151222
0.00145702
0.00140277
0.00170223
0.00164666
0.00159402
0.00154191
0.00149029
0.00143941
0.00138932
0.00134004
0.00129158
0.00124392
0.00146775
0.00142027
0.00137511
0.00133043
0.00128619
0.00124259
0.00119967
0.00115743
0.00111587
0.001075
0.00122254
0.00118324
0.00114576
0.00110869
0.00107201
0.00103586
0.00100027
0.000965247
0.000930786
0.000896892
0.000967255
0.000936299
0.000906701
0.000877445
0.000848515
0.000820012
0.000791959
0.000764353
0.000737195
0.000710481
0.000702724
0.000680403
0.000659015
0.000637846
0.000616898
0.000596246
0.000575906
0.000555872
0.000536139
0.000516701
0.000429413
0.000415179
0.000401847
0.000388826
0.000376019
0.000363451
0.000351129
0.000339051
0.000327252
0.000315879
0.000156706
0.000153307
0.000149177
0.000144805
0.000140409
0.000135999
0.000131567
0.000127132
0.00012264
0.000117722
0.00412053
0.00436826
0.00491021
0.00575251
0.00685457
0.00826938
0.0100605
0.0121575
0.0142309
0.0157977
0.0165277
0.0163678
0.0154668
0.0140664
0.0123849
0.0106535
0.00894246
0.00750486
0.00604728
0.00530061
0.00400557
0.00424744
0.00477897
0.00560421
0.00668562
0.00808291
0.00986117
0.0119463
0.0140061
0.0155594
0.0162784
0.0161116
0.0152093
0.0138142
0.0121448
0.0104292
0.00873526
0.00730357
0.00581875
0.00495971
0.00387725
0.00411241
0.0046321
0.00543791
0.00649528
0.00787214
0.00963545
0.0117065
0.0137499
0.0152869
0.0159927
0.0158181
0.0149147
0.0135264
0.0118714
0.010175
0.00850164
0.00708189
0.00559378
0.004701
0.00373577
0.00396366
0.00446987
0.00525363
0.00628369
0.00763723
0.00938304
0.0114369
0.0134603
0.0149775
0.015668
0.0154849
0.0145813
0.0132017
0.0115642
0.00989065
0.00824287
0.00684097
0.00536982
0.00446863
0.00358155
0.00380155
0.00429259
0.00505161
0.00605098
0.00737795
0.00910322
0.0111364
0.0131354
0.0146289
0.0153018
0.0151096
0.0142068
0.0128384
0.011222
0.00957565
0.00795926
0.00658163
0.00514308
0.00424525
0.003415
0.00362646
0.0041006
0.00483215
0.0057972
0.00709396
0.00879517
0.0108034
0.012773
0.0142384
0.0148912
0.0146895
0.013789
0.0124348
0.0108438
0.00922954
0.0076507
0.00630411
0.00491033
0.00402425
0.00323659
0.00343882
0.00389432
0.00459553
0.00552241
0.00678496
0.00845802
0.0104365
0.0123708
0.0138031
0.0144328
0.0142212
0.0133249
0.0119886
0.0104281
0.00885162
0.00731689
0.00600825
0.00466892
0.00380167
0.00304681
0.00323911
0.0036742
0.00434213
0.00522675
0.00645066
0.00809078
0.0100336
0.0119258
0.0133191
0.0139227
0.0137012
0.0128117
0.0114977
0.00997339
0.00844105
0.00695738
0.0056937
0.00441669
0.00357487
0.00284622
0.00302787
0.00344074
0.00407232
0.00491039
0.00609075
0.00769229
0.00959239
0.0114345
0.0127822
0.0133563
0.0131252
0.0122457
0.0109595
0.00947796
0.00799684
0.00657158
0.00535999
0.00415192
0.00334203
0.00263541
0.00280567
0.00319446
0.0037866
0.00457358
0.0057049
0.00726118
0.00911024
0.0108928
0.0121874
0.0127284
0.0124883
0.011623
0.010371
0.00893991
0.00751791
0.00615883
0.0050066
0.00387331
0.00310188
0.00241502
0.00257312
0.00293598
0.00348552
0.00421666
0.00529277
0.00679583
0.00858383
0.010296
0.0115288
0.0120329
0.011785
0.0109391
0.00972891
0.00835712
0.00700303
0.00571841
0.00463302
0.00357989
0.00285344
0.00218575
0.0023309
0.00266593
0.00316971
0.00384006
0.004854
0.00629429
0.00800922
0.00963817
0.0107995
0.0112628
0.0110091
0.010189
0.00902978
0.0077273
0.00645089
0.00524956
0.00423876
0.003271
0.00259597
0.00194832
0.00207971
0.00238502
0.00283993
0.00344437
0.00438819
0.0057542
0.00738167
0.00891254
0.00999145
0.0104098
0.0101533
0.00936706
0.00826959
0.00704796
0.0058601
0.00475155
0.00382337
0.00294621
0.00232891
0.00170353
0.00182029
0.00209406
0.00249704
0.00303032
0.00389492
0.00517272
0.00669532
0.00811085
0.00909558
0.00946526
0.00920967
0.00846699
0.00744395
0.0063164
0.00522921
0.00422366
0.00338648
0.00260527
0.00205185
0.00145222
0.0015534
0.0017939
0.0021421
0.00259885
0.00337363
0.0045462
0.00594326
0.0072235
0.00809969
0.00841654
0.00816795
0.00748137
0.00654802
0.00552976
0.00455671
0.00366523
0.00292782
0.00224816
0.00176455
0.00119528
0.00127976
0.0014853
0.00177631
0.00215135
0.00282358
0.00387036
0.00511612
0.00623874
0.00699468
0.00725627
0.00702044
0.00640315
0.00557667
0.00468497
0.0038411
0.00307568
0.00244721
0.00187498
0.00146692
0.000933692
0.00100046
0.00116914
0.00140045
0.00168955
0.00224445
0.00313898
0.0042052
0.00514157
0.00575453
0.00595595
0.00574592
0.00521985
0.00452325
0.00377871
0.00308085
0.00245454
0.00194465
0.00148605
0.00115904
0.000668413
0.000716742
0.000848083
0.0010162
0.00121346
0.00163598
0.00234656
0.00319163
0.00392345
0.0043937
0.00453725
0.00435704
0.00393351
0.00338509
0.00280822
0.00227459
0.00180165
0.00142059
0.00108225
0.000841478
0.000399681
0.000426805
0.000524875
0.000630791
0.000725972
0.000987831
0.00149126
0.0020712
0.00252608
0.00280124
0.00288102
0.00276408
0.00249292
0.00213921
0.00176563
0.00142104
0.00111836
0.000876951
0.000665554
0.000515546
0.000131526
0.00011985
0.000188702
0.000240435
0.000244891
0.000303998
0.000527719
0.000845297
0.0010857
0.0012106
0.00123057
0.00115697
0.00101555
0.000844151
0.000674425
0.000527258
0.000405277
0.000312152
0.000234077
0.000179516
0.00446694
0.00473035
0.00529978
0.0061941
0.00735649
0.00881708
0.0106417
0.0127709
0.0148777
0.0164761
0.0172353
0.0170963
0.016202
0.0147895
0.0130757
0.0112959
0.00953208
0.00804326
0.0066411
0.00612557
0.0044468
0.00470939
0.00527764
0.00616886
0.00732734
0.00878564
0.0106087
0.0127364
0.0148422
0.0164394
0.0171967
0.0170562
0.0161613
0.0147494
0.0130372
0.0112615
0.0095008
0.00802379
0.00663768
0.00615379
0.004424
0.00468579
0.00525247
0.00614013
0.00729459
0.00875032
0.0105714
0.0126971
0.0148011
0.0163968
0.0171523
0.0170103
0.0161148
0.0147037
0.0129935
0.0112217
0.00946491
0.00799703
0.00662126
0.0061465
0.00439863
0.00465943
0.00522428
0.00610805
0.00725809
0.00871081
0.0105296
0.0126531
0.0147551
0.0163489
0.0171023
0.0169587
0.0160625
0.0146524
0.0129443
0.0111765
0.0094239
0.00796382
0.00659371
0.00612895
0.00437071
0.00463031
0.00519308
0.00607265
0.00721781
0.00866705
0.0104833
0.0126044
0.014704
0.0162955
0.0170467
0.0169014
0.0160045
0.0145952
0.0128896
0.011126
0.00937768
0.00792433
0.00655567
0.0060954
0.00434022
0.00459845
0.00515888
0.0060339
0.00717375
0.00861905
0.0104324
0.0125508
0.0146477
0.0162367
0.0169853
0.0168382
0.0159406
0.0145323
0.0128294
0.0110702
0.00932627
0.0078785
0.00650722
0.00604384
0.00430718
0.00456388
0.00512169
0.00599181
0.00712591
0.00856682
0.010377
0.0124925
0.0145863
0.0161724
0.0169182
0.016769
0.0158707
0.0144636
0.0127636
0.0110089
0.00926969
0.00782638
0.00644853
0.00597497
0.00427162
0.00452658
0.00508153
0.0059464
0.0070743
0.00851033
0.010317
0.0124293
0.0145196
0.0161023
0.0168451
0.0166938
0.0157948
0.0143889
0.0126922
0.0109423
0.00920798
0.00776813
0.00637974
0.00589094
0.00423354
0.0044866
0.00503842
0.00589766
0.00701891
0.0084496
0.0102524
0.0123611
0.0144476
0.0160266
0.0167661
0.0166125
0.0157129
0.0143083
0.0126152
0.0108703
0.0091412
0.00770383
0.00630053
0.00579153
0.00419292
0.00444398
0.00499235
0.00584555
0.00695981
0.00838476
0.0101834
0.0122881
0.0143701
0.0159449
0.0166809
0.016525
0.0156248
0.0142217
0.0125326
0.0107927
0.00906972
0.00763319
0.0062104
0.00565431
)
;

boundaryField
{
    inlet
    {
        type            zeroGradient;
    }
    outlet
    {
        type            fixedValue;
        value           uniform 0;
    }
    upAndBottom
    {
        type            empty;
    }
    obstacle
    {
        type            zeroGradient;
    }
}


// ************************************************************************* //
