/*--------------------------------*- C++ -*----------------------------------*\
| =========                 |                                                 |
| \\      /  F ield         | OpenFOAM: The Open Source CFD Toolbox           |
|  \\    /   O peration     | Version:  v1806                                 |
|   \\  /    A nd           | Web:      www.OpenFOAM.com                      |
|    \\/     M anipulation  |                                                 |
\*---------------------------------------------------------------------------*/
FoamFile
{
    version     2.0;
    format      ascii;
    class       volVectorField;
    location    "380";
    object      U;
}
// * * * * * * * * * * * * * * * * * * * * * * * * * * * * * * * * * * * * * //

dimensions      [0 1 -1 0 0 0 0];


internalField   nonuniform List<vector> 
2400
(
(0.299999 -7.6678e-05 0)
(0.299994 -0.000453325 0)
(0.299988 -0.000623703 0)
(0.299976 -0.00105698 0)
(0.299962 -0.00127215 0)
(0.299935 -0.0018122 0)
(0.299908 -0.00213652 0)
(0.299862 -0.00283647 0)
(0.299819 -0.00333962 0)
(0.299749 -0.00425212 0)
(0.299686 -0.00501305 0)
(0.299591 -0.00618237 0)
(0.299509 -0.00726137 0)
(0.299399 -0.00868047 0)
(0.299314 -0.0100463 0)
(0.299226 -0.0115787 0)
(0.299185 -0.0129825 0)
(0.299188 -0.014249 0)
(0.29927 -0.0151202 0)
(0.299437 -0.0155003 0)
(0.299997 -7.23326e-05 0)
(0.299988 -0.000455545 0)
(0.299974 -0.000612495 0)
(0.299954 -0.00105571 0)
(0.299924 -0.00125279 0)
(0.299881 -0.00180694 0)
(0.299833 -0.00210644 0)
(0.299762 -0.00282528 0)
(0.299692 -0.00329628 0)
(0.299588 -0.00423328 0)
(0.299494 -0.00495628 0)
(0.299359 -0.00615577 0)
(0.299251 -0.00719755 0)
(0.299109 -0.00865187 0)
(0.299023 -0.00999554 0)
(0.298943 -0.0115674 0)
(0.298963 -0.0129815 0)
(0.299066 -0.0142914 0)
(0.299305 -0.0152053 0)
(0.299677 -0.0156165 0)
(0.299994 -6.46679e-05 0)
(0.299981 -0.000458783 0)
(0.299957 -0.000592876 0)
(0.299928 -0.00105336 0)
(0.299878 -0.00121952 0)
(0.299814 -0.00179892 0)
(0.299737 -0.00205614 0)
(0.299633 -0.00280978 0)
(0.299525 -0.00322561 0)
(0.299374 -0.00420906 0)
(0.299236 -0.00486593 0)
(0.299042 -0.00612499 0)
(0.298894 -0.00709985 0)
(0.298696 -0.00862722 0)
(0.298599 -0.00992713 0)
(0.298508 -0.011583 0)
(0.298591 -0.0130085 0)
(0.298797 -0.0144046 0)
(0.299223 -0.0153792 0)
(0.299847 -0.0158564 0)
(0.299992 -5.35139e-05 0)
(0.299976 -0.000463255 0)
(0.29994 -0.000564397 0)
(0.299901 -0.00105 0)
(0.29983 -0.00117152 0)
(0.299745 -0.00178834 0)
(0.299636 -0.00198406 0)
(0.299497 -0.00279047 0)
(0.299347 -0.00312489 0)
(0.299143 -0.0041807 0)
(0.298956 -0.00473751 0)
(0.298693 -0.00609247 0)
(0.298498 -0.00696115 0)
(0.298229 -0.00861039 0)
(0.298113 -0.00983148 0)
(0.29799 -0.0116305 0)
(0.298134 -0.0130554 0)
(0.298427 -0.0145925 0)
(0.299051 -0.0156502 0)
(0.299947 -0.0162099 0)
(0.299989 -3.92632e-05 0)
(0.299971 -0.00046869 0)
(0.299923 -0.000527192 0)
(0.299876 -0.00104523 0)
(0.299783 -0.00110851 0)
(0.299677 -0.00177452 0)
(0.299535 -0.00188892 0)
(0.299361 -0.0027663 0)
(0.299167 -0.00299099 0)
(0.29891 -0.00414695 0)
(0.29867 -0.00456472 0)
(0.298334 -0.00605727 0)
(0.298087 -0.00677003 0)
(0.297733 -0.00860166 0)
(0.297594 -0.00969048 0)
(0.297414 -0.0117126 0)
(0.29762 -0.0131022 0)
(0.297974 -0.0148616 0)
(0.298812 -0.0160146 0)
(0.299993 -0.016692 0)
(0.299986 -2.2473e-05 0)
(0.299967 -0.000474487 0)
(0.299907 -0.000481931 0)
(0.299853 -0.00103845 0)
(0.299736 -0.00103117 0)
(0.299611 -0.00175684 0)
(0.299435 -0.00177102 0)
(0.299229 -0.00273675 0)
(0.298989 -0.00282305 0)
(0.29868 -0.00410771 0)
(0.298383 -0.00434392 0)
(0.29797 -0.00602044 0)
(0.297666 -0.00651738 0)
(0.297215 -0.00860463 0)
(0.297048 -0.00948635 0)
(0.296782 -0.0118381 0)
(0.297052 -0.0131248 0)
(0.297432 -0.0152275 0)
(0.298512 -0.0164659 0)
(0.29999 -0.0173236 0)
(0.299983 -3.84133e-06 0)
(0.299965 -0.000479867 0)
(0.299891 -0.000429592 0)
(0.299831 -0.00102889 0)
(0.29969 -0.000940733 0)
(0.299549 -0.0017345 0)
(0.299337 -0.00163149 0)
(0.299101 -0.00270114 0)
(0.298812 -0.00262147 0)
(0.298453 -0.00406272 0)
(0.298096 -0.00407316 0)
(0.297605 -0.00598275 0)
(0.297237 -0.00619555 0)
(0.296677 -0.00862273 0)
(0.296474 -0.00920072 0)
(0.296089 -0.0120171 0)
(0.296427 -0.013093 0)
(0.296779 -0.015713 0)
(0.298145 -0.0169868 0)
(0.299925 -0.0181338 0)
(0.299981 1.58448e-05 0)
(0.299966 -0.000483765 0)
(0.299877 -0.000371475 0)
(0.299811 -0.0010154 0)
(0.299645 -0.000838918 0)
(0.299491 -0.00170619 0)
(0.299242 -0.00147229 0)
(0.298978 -0.00265801 0)
(0.298639 -0.00238782 0)
(0.298232 -0.00401042 0)
(0.297809 -0.00375205 0)
(0.29724 -0.00594289 0)
(0.2968 -0.00579863 0)
(0.296119 -0.00865653 0)
(0.295869 -0.00881561 0)
(0.295327 -0.0122578 0)
(0.295735 -0.0129711 0)
(0.295989 -0.0163471 0)
(0.297703 -0.0175451 0)
(0.299766 -0.0191664 0)
(0.299978 3.55017e-05 0)
(0.299968 -0.000484875 0)
(0.299864 -0.000309287 0)
(0.299795 -0.000996466 0)
(0.299602 -0.000728071 0)
(0.299437 -0.00166996 0)
(0.29915 -0.00129628 0)
(0.298863 -0.00260485 0)
(0.29847 -0.0021251 0)
(0.298019 -0.00394756 0)
(0.297525 -0.00338234 0)
(0.296879 -0.00589671 0)
(0.296354 -0.0053235 0)
(0.295544 -0.00870195 0)
(0.295228 -0.0083155 0)
(0.294493 -0.0125626 0)
(0.294961 -0.0127212 0)
(0.295032 -0.0171602 0)
(0.297172 -0.0180973 0)
(0.299462 -0.0204837 0)
(0.299975 5.38059e-05 0)
(0.299973 -0.000481594 0)
(0.299851 -0.000245194 0)
(0.299782 -0.000970078 0)
(0.29956 -0.000611252 0)
(0.299389 -0.00162305 0)
(0.29906 -0.00110747 0)
(0.298756 -0.00253793 0)
(0.298304 -0.00183806 0)
(0.297816 -0.00386892 0)
(0.297243 -0.00296841 0)
(0.296523 -0.00583676 0)
(0.295901 -0.00477084 0)
(0.294954 -0.00874917 0)
(0.294547 -0.00768895 0)
(0.293583 -0.0129259 0)
(0.29409 -0.0123065 0)
(0.293877 -0.0181792 0)
(0.296531 -0.0185913 0)
(0.298938 -0.0221692 0)
(0.299971 6.93502e-05 0)
(0.299983 -0.000471907 0)
(0.299838 -0.00018185 0)
(0.299774 -0.000933689 0)
(0.299517 -0.000492336 0)
(0.29935 -0.00156184 0)
(0.298971 -0.000911177 0)
(0.298662 -0.0024521 0)
(0.29814 -0.00153348 0)
(0.297629 -0.0037671 0)
(0.296962 -0.00251775 0)
(0.296182 -0.00575207 0)
(0.295438 -0.0041458 0)
(0.294357 -0.00878212 0)
(0.293822 -0.00693005 0)
(0.292599 -0.0133309 0)
(0.293102 -0.0116928 0)
(0.292498 -0.0194217 0)
(0.29575 -0.018967 0)
(0.298093 -0.0243359 0)
(0.299966 8.05046e-05 0)
(0.299998 -0.00045343 0)
(0.299823 -0.000122498 0)
(0.299774 -0.000884113 0)
(0.299472 -0.000376184 0)
(0.299325 -0.00148155 0)
(0.298879 -0.000714354 0)
(0.298588 -0.00234044 0)
(0.297971 -0.00122069 0)
(0.297469 -0.00363198 0)
(0.296674 -0.00204157 0)
(0.295868 -0.00562761 0)
(0.294957 -0.00345897 0)
(0.29377 -0.00877803 0)
(0.293043 -0.00603983 0)
(0.291553 -0.0137478 0)
(0.291973 -0.0108496 0)
(0.290871 -0.0208906 0)
(0.294784 -0.0191501 0)
(0.296798 -0.0271468 0)
(0.299961 8.55342e-05 0)
(0.300016 -0.00042342 0)
(0.299806 -7.09718e-05 0)
(0.299781 -0.000817441 0)
(0.299422 -0.00026884 0)
(0.299315 -0.00137593 0)
(0.298778 -0.000526156 0)
(0.298542 -0.00219348 0)
(0.297789 -0.000912678 0)
(0.297352 -0.00344956 0)
(0.296361 -0.0015564 0)
(0.29561 -0.00544281 0)
(0.294434 -0.002728 0)
(0.293232 -0.00870653 0)
(0.292179 -0.00502834 0)
(0.290485 -0.0141338 0)
(0.290661 -0.00975053 0)
(0.288993 -0.0225704 0)
(0.293561 -0.0190426 0)
(0.294898 -0.0308266 0)
(0.299958 8.28921e-05 0)
(0.300035 -0.000379195 0)
(0.299791 -3.1223e-05 0)
(0.299794 -0.000729317 0)
(0.29937 -0.000177248 0)
(0.29932 -0.00123719 0)
(0.298668 -0.000358494 0)
(0.298529 -0.00199813 0)
(0.297584 -0.000628053 0)
(0.297294 -0.00319922 0)
(0.296002 -0.00108799 0)
(0.295446 -0.0051671 0)
(0.293823 -0.00198229 0)
(0.292816 -0.00852451 0)
(0.291157 -0.00391916 0)
(0.289498 -0.0144317 0)
(0.289062 -0.00837996 0)
(0.286931 -0.0244211 0)
(0.291963 -0.0185295 0)
(0.292195 -0.0355946 0)
(0.299965 7.17194e-05 0)
(0.300044 -0.000319037 0)
(0.299786 -6.24136e-06 0)
(0.299798 -0.00061629 0)
(0.299329 -0.000107458 0)
(0.299325 -0.0010579 0)
(0.298564 -0.000223767 0)
(0.298534 -0.00173892 0)
(0.297368 -0.000391026 0)
(0.297292 -0.00285109 0)
(0.295593 -0.000678532 0)
(0.295402 -0.00475066 0)
(0.293079 -0.00127695 0)
(0.292609 -0.00815887 0)
(0.289846 -0.00276166 0)
(0.288786 -0.0145556 0)
(0.286927 -0.00674504 0)
(0.284938 -0.0263944 0)
(0.289721 -0.01746 0)
(0.288501 -0.0417856 0)
(0.299991 5.24582e-05 0)
(0.300028 -0.000243114 0)
(0.299807 3.02765e-06 0)
(0.299772 -0.000477743 0)
(0.299324 -6.22521e-05 0)
(0.299297 -0.000834767 0)
(0.298504 -0.000129611 0)
(0.298512 -0.00140525 0)
(0.297194 -0.000221094 0)
(0.29729 -0.00237597 0)
(0.295192 -0.000375865 0)
(0.295433 -0.00412269 0)
(0.292234 -0.000714937 0)
(0.29263 -0.00747205 0)
(0.288152 -0.00167643 0)
(0.288549 -0.0143205 0)
(0.28382 -0.00490446 0)
(0.283585 -0.0284502 0)
(0.285985 -0.0155759 0)
(0.284038 -0.050465 0)
(0.300044 2.75008e-05 0)
(0.29997 -0.000154395 0)
(0.299872 -6.46873e-07 0)
(0.299688 -0.000317303 0)
(0.299389 -3.89026e-05 0)
(0.29919 -0.00057212 0)
(0.29855 -7.42579e-05 0)
(0.298383 -0.000999889 0)
(0.29717 -0.000120671 0)
(0.297157 -0.00176634 0)
(0.294976 -0.000200279 0)
(0.295338 -0.00323621 0)
(0.291536 -0.000382223 0)
(0.292647 -0.00629119 0)
(0.286293 -0.000930796 0)
(0.288665 -0.0132908 0)
(0.279439 -0.0031121 0)
(0.28346 -0.0302241 0)
(0.278645 -0.012648 0)
(0.280611 -0.0632961 0)
(0.300129 5.89556e-07 0)
(0.299861 -5.8098e-05 0)
(0.299992 -1.31543e-05 0)
(0.29953 -0.000143733 0)
(0.299551 -3.12129e-05 0)
(0.298966 -0.000283505 0)
(0.298759 -4.95617e-05 0)
(0.298069 -0.000542745 0)
(0.297416 -8.04819e-05 0)
(0.296729 -0.00105061 0)
(0.295198 -0.000143077 0)
(0.294788 -0.00211862 0)
(0.291505 -0.000294938 0)
(0.292019 -0.00457898 0)
(0.285214 -0.000695801 0)
(0.288161 -0.0110107 0)
(0.274787 -0.00200404 0)
(0.283667 -0.0303176 0)
(0.265198 -0.00839862 0)
(0.28203 -0.0803773 0)
(0.300237 -2.05313e-05 0)
(0.299711 3.52243e-05 0)
(0.300155 -1.96943e-05 0)
(0.299307 3.12234e-05 0)
(0.2998 -1.29866e-05 0)
(0.298629 9.57654e-06 0)
(0.299132 -1.04791e-05 0)
(0.297555 -7.29366e-05 0)
(0.29797 -2.25207e-05 0)
(0.295936 -0.000300582 0)
(0.296002 -7.95524e-05 0)
(0.293547 -0.000890067 0)
(0.29259 -0.000255539 0)
(0.290073 -0.00247144 0)
(0.286291 -0.000781215 0)
(0.28515 -0.0072677 0)
(0.273458 -0.00239309 0)
(0.279863 -0.0256124 0)
(0.249549 -0.00806793 0)
(0.288568 -0.102374 0)
(0.300343 -3.79889e-05 0)
(0.299553 0.000129792 0)
(0.300326 -3.4672e-05 0)
(0.299071 0.000202061 0)
(0.300077 -2.61208e-06 0)
(0.29826 0.000301882 0)
(0.299577 1.63353e-05 0)
(0.296962 0.000402829 0)
(0.298687 1.33628e-05 0)
(0.294955 0.000474666 0)
(0.297174 -5.1514e-05 0)
(0.291867 0.00040222 0)
(0.29455 -0.000276261 0)
(0.287007 -0.000211362 0)
(0.28964 -0.000882084 0)
(0.278927 -0.00299615 0)
(0.278867 -0.0026104 0)
(0.264678 -0.0178896 0)
(0.25131 -0.00834943 0)
(0.284219 -0.152249 0)
(0.299597 -0.0152941 0)
(0.299631 -0.0152401 0)
(0.299662 -0.0151767 0)
(0.299691 -0.0151046 0)
(0.299721 -0.0150242 0)
(0.299751 -0.0149352 0)
(0.299782 -0.0148378 0)
(0.299813 -0.014732 0)
(0.299844 -0.0146182 0)
(0.299874 -0.0144965 0)
(0.299951 -0.0154387 0)
(0.300008 -0.0153913 0)
(0.300061 -0.0153341 0)
(0.300114 -0.0152672 0)
(0.300167 -0.0151908 0)
(0.300221 -0.015105 0)
(0.300274 -0.0150099 0)
(0.300328 -0.0149057 0)
(0.300381 -0.0147924 0)
(0.300433 -0.0146706 0)
(0.300294 -0.0156797 0)
(0.300387 -0.0156311 0)
(0.300475 -0.0155718 0)
(0.30056 -0.0155024 0)
(0.300645 -0.0154231 0)
(0.300729 -0.0153339 0)
(0.300813 -0.015235 0)
(0.300896 -0.0151266 0)
(0.300977 -0.0150088 0)
(0.301056 -0.0148822 0)
(0.300584 -0.01604 0)
(0.300716 -0.0159921 0)
(0.300841 -0.0159326 0)
(0.300962 -0.015862 0)
(0.301083 -0.0157805 0)
(0.301203 -0.0156881 0)
(0.301322 -0.0155849 0)
(0.301439 -0.0154711 0)
(0.301553 -0.0153469 0)
(0.301665 -0.0152129 0)
(0.30084 -0.0165347 0)
(0.301015 -0.016488 0)
(0.301183 -0.016428 0)
(0.301345 -0.0163551 0)
(0.301506 -0.0162695 0)
(0.301667 -0.0161713 0)
(0.301825 -0.0160608 0)
(0.301981 -0.0159381 0)
(0.302133 -0.0158036 0)
(0.302282 -0.0156581 0)
(0.301072 -0.0171846 0)
(0.301298 -0.0171396 0)
(0.301515 -0.0170786 0)
(0.301726 -0.0170022 0)
(0.301935 -0.0169106 0)
(0.302142 -0.0168041 0)
(0.302347 -0.0166831 0)
(0.302547 -0.0165479 0)
(0.302743 -0.0163989 0)
(0.302934 -0.0162371 0)
(0.301285 -0.0180204 0)
(0.301572 -0.017977 0)
(0.301849 -0.0179138 0)
(0.302118 -0.0178316 0)
(0.302384 -0.0177311 0)
(0.302648 -0.0176125 0)
(0.302907 -0.0174765 0)
(0.30316 -0.0173235 0)
(0.303407 -0.017154 0)
(0.303646 -0.0169696 0)
(0.301478 -0.0190861 0)
(0.301842 -0.0190432 0)
(0.302194 -0.018975 0)
(0.302535 -0.018883 0)
(0.302871 -0.0187685 0)
(0.303203 -0.018632 0)
(0.303528 -0.0184742 0)
(0.303845 -0.0182958 0)
(0.304152 -0.0180977 0)
(0.304449 -0.0178818 0)
(0.301652 -0.020442 0)
(0.302118 -0.0203966 0)
(0.302566 -0.0203174 0)
(0.302997 -0.0202086 0)
(0.303419 -0.0200722 0)
(0.303834 -0.0199088 0)
(0.304239 -0.0197192 0)
(0.304633 -0.0195047 0)
(0.305013 -0.0192662 0)
(0.305379 -0.0190066 0)
(0.301811 -0.0221666 0)
(0.302421 -0.0221123 0)
(0.302994 -0.0220125 0)
(0.303536 -0.0218757 0)
(0.304063 -0.0217051 0)
(0.304579 -0.0215014 0)
(0.305084 -0.0212656 0)
(0.305571 -0.0209992 0)
(0.306039 -0.0207038 0)
(0.306486 -0.0203835 0)
(0.301972 -0.0243604 0)
(0.302785 -0.0242865 0)
(0.303522 -0.0241507 0)
(0.304201 -0.0239688 0)
(0.304856 -0.0237459 0)
(0.305499 -0.0234824 0)
(0.306124 -0.0231793 0)
(0.306725 -0.0228389 0)
(0.307298 -0.0224635 0)
(0.307842 -0.0220587 0)
(0.302166 -0.027157 0)
(0.303268 -0.0270436 0)
(0.304219 -0.0268472 0)
(0.305066 -0.0265942 0)
(0.305878 -0.0262919 0)
(0.306675 -0.0259401 0)
(0.307449 -0.0255394 0)
(0.308188 -0.0250933 0)
(0.308888 -0.0246053 0)
(0.309546 -0.0240832 0)
(0.302462 -0.030733 0)
(0.303968 -0.0305475 0)
(0.305194 -0.0302531 0)
(0.306244 -0.0298908 0)
(0.307247 -0.0294698 0)
(0.308235 -0.0289884 0)
(0.309192 -0.0284474 0)
(0.310099 -0.0278515 0)
(0.310951 -0.0272056 0)
(0.311744 -0.0265208 0)
(0.302975 -0.0352764 0)
(0.30504 -0.0349775 0)
(0.306618 -0.034537 0)
(0.307918 -0.0340134 0)
(0.309158 -0.0334189 0)
(0.310388 -0.0327508 0)
(0.311577 -0.0320106 0)
(0.312694 -0.0312051 0)
(0.313733 -0.0303406 0)
(0.314691 -0.0294333 0)
(0.30395 -0.0410791 0)
(0.306797 -0.0406168 0)
(0.308853 -0.0399734 0)
(0.310491 -0.0392248 0)
(0.312049 -0.0383842 0)
(0.313597 -0.0374485 0)
(0.315086 -0.0364214 0)
(0.316472 -0.0353143 0)
(0.317746 -0.0341366 0)
(0.318908 -0.0329131 0)
(0.30617 -0.0487377 0)
(0.31008 -0.0479734 0)
(0.312785 -0.0470139 0)
(0.314899 -0.0459495 0)
(0.316906 -0.0447827 0)
(0.318883 -0.0435003 0)
(0.320752 -0.0421023 0)
(0.322452 -0.0406028 0)
(0.323969 -0.0390088 0)
(0.325299 -0.0373656 0)
(0.311733 -0.0591957 0)
(0.31679 -0.057728 0)
(0.319998 -0.0559872 0)
(0.322396 -0.0541442 0)
(0.32467 -0.0522142 0)
(0.326893 -0.0501762 0)
(0.328934 -0.0480254 0)
(0.330705 -0.0457797 0)
(0.332189 -0.0434403 0)
(0.333407 -0.0410935 0)
(0.322478 -0.0739568 0)
(0.328478 -0.071879 0)
(0.331348 -0.0694336 0)
(0.332758 -0.0667361 0)
(0.333856 -0.0637882 0)
(0.334814 -0.060602 0)
(0.335473 -0.0572127 0)
(0.335726 -0.0536683 0)
(0.33558 -0.0499603 0)
(0.33503 -0.046265 0)
(0.321545 -0.0758065 0)
(0.32433 -0.0701137 0)
(0.323205 -0.0653116 0)
(0.32061 -0.0610126 0)
(0.317739 -0.0568421 0)
(0.314655 -0.0526914 0)
(0.311212 -0.0485586 0)
(0.307412 -0.0444405 0)
(0.303423 -0.0402966 0)
(0.299087 -0.03615 0)
(0.265392 -0.0912783 0)
(0.247934 -0.0788729 0)
(0.225763 -0.0680315 0)
(0.2068 -0.0584357 0)
(0.191256 -0.0497516 0)
(0.177699 -0.0418965 0)
(0.165506 -0.0348635 0)
(0.154656 -0.0286014 0)
(0.145013 -0.0229297 0)
(0.13609 -0.0170784 0)
(0.299946 -0.0141882 0)
(0.300069 -0.0135998 0)
(0.300192 -0.0129242 0)
(0.300306 -0.0121793 0)
(0.300411 -0.0113865 0)
(0.300502 -0.0105659 0)
(0.300582 -0.00973798 0)
(0.300647 -0.00891929 0)
(0.300701 -0.00812648 0)
(0.300739 -0.00737052 0)
(0.30077 -0.00666433 0)
(0.300783 -0.00601319 0)
(0.300794 -0.00542735 0)
(0.300784 -0.00490668 0)
(0.300782 -0.00446038 0)
(0.30075 -0.00408355 0)
(0.30074 -0.00378586 0)
(0.300685 -0.0035587 0)
(0.300674 -0.00341192 0)
(0.300594 -0.0033363 0)
(0.300556 -0.0143572 0)
(0.300731 -0.0137543 0)
(0.300887 -0.0130626 0)
(0.301017 -0.0123008 0)
(0.30112 -0.0114902 0)
(0.301194 -0.0106515 0)
(0.301242 -0.00980566 0)
(0.301263 -0.00896977 0)
(0.301266 -0.0081608 0)
(0.301244 -0.00739011 0)
(0.301212 -0.00667059 0)
(0.301158 -0.00600767 0)
(0.301106 -0.00541146 0)
(0.301027 -0.00488173 0)
(0.300966 -0.00442765 0)
(0.300865 -0.00404372 0)
(0.300808 -0.00374012 0)
(0.30068 -0.00350666 0)
(0.300642 -0.00335546 0)
(0.300474 -0.00327406 0)
(0.301241 -0.0145588 0)
(0.3015 -0.0139341 0)
(0.301721 -0.013214 0)
(0.301897 -0.0124196 0)
(0.302024 -0.011575 0)
(0.3021 -0.0107028 0)
(0.302133 -0.0098256 0)
(0.302121 -0.00896147 0)
(0.302078 -0.00812794 0)
(0.301997 -0.00733649 0)
(0.301903 -0.0066 0)
(0.301774 -0.00592348 0)
(0.301651 -0.00531681 0)
(0.301488 -0.00477896 0)
(0.301357 -0.00431905 0)
(0.301165 -0.00393039 0)
(0.301048 -0.00362373 0)
(0.300819 -0.00338721 0)
(0.300743 -0.00323475 0)
(0.300449 -0.00315138 0)
(0.301924 -0.0148683 0)
(0.302284 -0.0141991 0)
(0.302585 -0.013427 0)
(0.302817 -0.0125771 0)
(0.302978 -0.0116766 0)
(0.303064 -0.0107512 0)
(0.303088 -0.00982536 0)
(0.303048 -0.00891837 0)
(0.302965 -0.00804833 0)
(0.302831 -0.00722669 0)
(0.302677 -0.00646612 0)
(0.302476 -0.00577094 0)
(0.302285 -0.00515051 0)
(0.30204 -0.00460272 0)
(0.301841 -0.00413624 0)
(0.301557 -0.00374313 0)
(0.301382 -0.00343417 0)
(0.301048 -0.003196 0)
(0.300934 -0.00304337 0)
(0.300508 -0.00295897 0)
(0.302625 -0.0152823 0)
(0.303095 -0.0145492 0)
(0.303484 -0.0137037 0)
(0.303776 -0.012776 0)
(0.303972 -0.0117984 0)
(0.304067 -0.0108003 0)
(0.30408 -0.00980883 0)
(0.304009 -0.00884456 0)
(0.303883 -0.00792622 0)
(0.303691 -0.00706514 0)
(0.303476 -0.00627349 0)
(0.303203 -0.00555467 0)
(0.302943 -0.00491705 0)
(0.302615 -0.0043573 0)
(0.30235 -0.00388309 0)
(0.301976 -0.00348523 0)
(0.301744 -0.00317386 0)
(0.301307 -0.00293439 0)
(0.301157 -0.00278148 0)
(0.300602 -0.00269644 0)
(0.303372 -0.0158174 0)
(0.303966 -0.0149957 0)
(0.304449 -0.01405 0)
(0.304804 -0.0130181 0)
(0.305031 -0.0119386 0)
(0.305129 -0.010846 0)
(0.305122 -0.00977021 0)
(0.305012 -0.00873362 0)
(0.304834 -0.00775523 0)
(0.304577 -0.006846 0)
(0.304293 -0.00601711 0)
(0.303941 -0.00527072 0)
(0.303608 -0.00461362 0)
(0.303195 -0.00404097 0)
(0.302861 -0.00355885 0)
(0.302396 -0.00315671 0)
(0.302107 -0.0028435 0)
(0.301568 -0.00260349 0)
(0.301383 -0.00245073 0)
(0.300701 -0.00236559 0)
(0.304195 -0.0164891 0)
(0.304929 -0.0155475 0)
(0.305514 -0.0144688 0)
(0.305931 -0.0133009 0)
(0.306183 -0.012091 0)
(0.306275 -0.0108793 0)
(0.306236 -0.00969947 0)
(0.306072 -0.00857513 0)
(0.30583 -0.00752529 0)
(0.305495 -0.00656004 0)
(0.305132 -0.00568899 0)
(0.304693 -0.00491247 0)
(0.304279 -0.00423506 0)
(0.303775 -0.00364991 0)
(0.303369 -0.00316102 0)
(0.302811 -0.00275621 0)
(0.302463 -0.00244275 0)
(0.301823 -0.00220375 0)
(0.301602 -0.00205222 0)
(0.300796 -0.00196779 0)
(0.305128 -0.0173177 0)
(0.30602 -0.0162155 0)
(0.306714 -0.0149626 0)
(0.30719 -0.0136202 0)
(0.307458 -0.0122464 0)
(0.307527 -0.0108884 0)
(0.307439 -0.00958328 0)
(0.307206 -0.00835556 0)
(0.306882 -0.00722353 0)
(0.306455 -0.00619561 0)
(0.305999 -0.00527906 0)
(0.30546 -0.00447155 0)
(0.304958 -0.00377473 0)
(0.304357 -0.00317918 0)
(0.303872 -0.00268622 0)
(0.303219 -0.00228172 0)
(0.30281 -0.00197078 0)
(0.30207 -0.00173525 0)
(0.301813 -0.00158668 0)
(0.300885 -0.00150413 0)
(0.30621 -0.0183275 0)
(0.307282 -0.0170113 0)
(0.30809 -0.0155317 0)
(0.308618 -0.013968 0)
(0.308886 -0.0123914 0)
(0.308912 -0.0108566 0)
(0.308752 -0.0094038 0)
(0.308426 -0.0080573 0)
(0.307999 -0.00683357 0)
(0.30746 -0.00573826 0)
(0.306896 -0.00477507 0)
(0.306245 -0.00393797 0)
(0.305643 -0.00322485 0)
(0.304938 -0.00262306 0)
(0.30437 -0.00213071 0)
(0.303619 -0.0017312 0)
(0.303149 -0.00142694 0)
(0.302308 -0.00119835 0)
(0.302016 -0.00105517 0)
(0.30097 -0.000976071 0)
(0.307498 -0.0195462 0)
(0.30877 -0.0179453 0)
(0.309694 -0.0161725 0)
(0.31026 -0.0143304 0)
(0.310501 -0.0125058 0)
(0.310454 -0.010761 0)
(0.310192 -0.00913762 0)
(0.309744 -0.00765796 0)
(0.309188 -0.00633519 0)
(0.308516 -0.00517053 0)
(0.307825 -0.00416262 0)
(0.307048 -0.00330032 0)
(0.306335 -0.00257694 0)
(0.305518 -0.00197557 0)
(0.304862 -0.00149069 0)
(0.304011 -0.00110274 0)
(0.303478 -0.000811052 0)
(0.30254 -0.000593961 0)
(0.302214 -0.000459474 0)
(0.301053 -0.000385662 0)
(0.309066 -0.021004 0)
(0.310558 -0.0190246 0)
(0.311592 -0.0168741 0)
(0.312169 -0.0146845 0)
(0.312347 -0.0125607 0)
(0.312186 -0.0105708 0)
(0.311783 -0.00875469 0)
(0.311177 -0.00712991 0)
(0.310462 -0.00570414 0)
(0.30963 -0.00447189 0)
(0.308791 -0.00342521 0)
(0.307871 -0.00254609 0)
(0.307037 -0.00182208 0)
(0.306099 -0.00123057 0)
(0.30535 -0.000762633 0)
(0.304395 -0.000393338 0)
(0.3038 -0.000122181 0)
(0.302763 7.72032e-05 0)
(0.302404 0.000197912 0)
(0.301131 0.000264819 0)
(0.311016 -0.02273 0)
(0.312744 -0.0202489 0)
(0.31387 -0.0176142 0)
(0.314416 -0.0149958 0)
(0.314479 -0.0125166 0)
(0.314152 -0.010246 0)
(0.313559 -0.00821757 0)
(0.312752 -0.00644025 0)
(0.31184 -0.00491238 0)
(0.310816 -0.00361891 0)
(0.309804 -0.00254371 0)
(0.308721 -0.00166065 0)
(0.307749 -0.000949507 0)
(0.306677 -0.00038029 0)
(0.305828 5.73648e-05 0)
(0.304759 0.000396103 0)
(0.304094 0.000636656 0)
(0.30295 0.000813141 0)
(0.302557 0.00091491 0)
(0.301162 0.000975327 0)
(0.313501 -0.0247571 0)
(0.315477 -0.0216104 0)
(0.316661 -0.0183595 0)
(0.317114 -0.0152188 0)
(0.31699 -0.0123237 0)
(0.316426 -0.00973697 0)
(0.315577 -0.00748005 0)
(0.31451 -0.00554825 0)
(0.313349 -0.00392597 0)
(0.312085 -0.00258327 0)
(0.310859 -0.001494 0)
(0.309574 -0.000620188 0)
(0.308435 6.04912e-05 0)
(0.307195 0.00058893 0)
(0.306219 0.000980403 0)
(0.305004 0.00127625 0)
(0.304254 0.00147594 0)
(0.302967 0.00162499 0)
(0.302529 0.00170236 0)
(0.300965 0.00175839 0)
(0.316793 -0.0271043 0)
(0.319021 -0.0230736 0)
(0.320197 -0.0190439 0)
(0.320452 -0.0152768 0)
(0.320021 -0.0119038 0)
(0.319099 -0.00896705 0)
(0.317878 -0.00646732 0)
(0.316439 -0.00438262 0)
(0.314925 -0.00268069 0)
(0.313327 -0.00131059 0)
(0.311798 -0.00023056 0)
(0.310223 0.000608311 0)
(0.308832 0.00123899 0)
(0.307343 0.00171016 0)
(0.306174 0.002043 0)
(0.304736 0.00228611 0)
(0.303844 0.00243581 0)
(0.302329 0.0025506 0)
(0.301811 0.00259753 0)
(0.299974 0.00265085 0)
(0.32143 -0.029799 0)
(0.323833 -0.0245834 0)
(0.324792 -0.0195619 0)
(0.324578 -0.0150408 0)
(0.323561 -0.0111208 0)
(0.322006 -0.00779968 0)
(0.320145 -0.00503972 0)
(0.318078 -0.00280129 0)
(0.315973 -0.00102696 0)
(0.313824 0.000342705 0)
(0.311793 0.00137954 0)
(0.309748 0.00214815 0)
(0.307942 0.00270383 0)
(0.306051 0.00309481 0)
(0.304544 0.00335232 0)
(0.302741 0.00352164 0)
(0.301592 0.00360975 0)
(0.299715 0.00367364 0)
(0.299042 0.0036842 0)
(0.296782 0.00372562 0)
(0.328092 -0.033085 0)
(0.330122 -0.0261719 0)
(0.330129 -0.0198174 0)
(0.32868 -0.0143176 0)
(0.326361 -0.00971253 0)
(0.323537 -0.00595301 0)
(0.32047 -0.00293589 0)
(0.317277 -0.000575681 0)
(0.314135 0.00122564 0)
(0.311048 0.00255656 0)
(0.308189 0.00351892 0)
(0.305408 0.0041865 0)
(0.30295 0.0046369 0)
(0.300463 0.00491003 0)
(0.298437 0.00506702 0)
(0.296138 0.00512548 0)
(0.294595 0.00513633 0)
(0.292272 0.00510934 0)
(0.291361 0.00507649 0)
(0.288619 0.00506436 0)
(0.335656 -0.0349564 0)
(0.335272 -0.0259892 0)
(0.332334 -0.0182077 0)
(0.327946 -0.0116884 0)
(0.322919 -0.00640099 0)
(0.317701 -0.00226944 0)
(0.312578 0.000832525 0)
(0.307633 0.00310074 0)
(0.303012 0.00472625 0)
(0.298701 0.00585221 0)
(0.294814 0.00660467 0)
(0.291193 0.00705301 0)
(0.288022 0.00730029 0)
(0.284971 0.00736341 0)
(0.282452 0.00734985 0)
(0.279792 0.00721637 0)
(0.277913 0.00710576 0)
(0.275387 0.00690335 0)
(0.274278 0.00680796 0)
(0.271425 0.00664295 0)
(0.333001 -0.0360269 0)
(0.325259 -0.0233853 0)
(0.316254 -0.0136128 0)
(0.306999 -0.00622064 0)
(0.29813 -0.000654865 0)
(0.289933 0.00342272 0)
(0.282612 0.00628263 0)
(0.276189 0.00820094 0)
(0.270633 0.00943066 0)
(0.265798 0.0101447 0)
(0.261662 0.0104952 0)
(0.258033 0.0105572 0)
(0.25498 0.0104553 0)
(0.252222 0.0101836 0)
(0.250001 0.00989618 0)
(0.247841 0.00947187 0)
(0.246303 0.00917652 0)
(0.244487 0.0086993 0)
(0.243622 0.00851844 0)
(0.241797 0.00807323 0)
(0.28922 -0.0255176 0)
(0.268224 -0.0121299 0)
(0.25174 -0.00137823 0)
(0.238554 0.00550938 0)
(0.228447 0.00985919 0)
(0.220613 0.0124355 0)
(0.214636 0.0138638 0)
(0.210139 0.0145081 0)
(0.206822 0.0146338 0)
(0.204382 0.0144127 0)
(0.202654 0.0139839 0)
(0.201416 0.0134061 0)
(0.200637 0.0127821 0)
(0.20011 0.012077 0)
(0.199913 0.0114537 0)
(0.199826 0.0107103 0)
(0.199976 0.0102318 0)
(0.200238 0.00945347 0)
(0.200495 0.00924265 0)
(0.201234 0.00845182 0)
(0.128574 0.00719686 0)
(0.120419 0.00917205 0)
(0.117113 0.0132471 0)
(0.114085 0.0143365 0)
(0.114366 0.0153583 0)
(0.115922 0.0155509 0)
(0.11835 0.0154474 0)
(0.121243 0.0150644 0)
(0.124413 0.0145079 0)
(0.127693 0.0138298 0)
(0.131015 0.0130894 0)
(0.134295 0.0123085 0)
(0.137538 0.011545 0)
(0.140682 0.0107499 0)
(0.143745 0.0100796 0)
(0.146753 0.00926495 0)
(0.149508 0.00884685 0)
(0.152609 0.00788393 0)
(0.154612 0.0079373 0)
(0.15866 0.00676891 0)
(0.0376954 -0.00543408 0)
(0.038469 0.00326207 0)
(0.0489304 0.00897941 0)
(0.0520896 0.0102625 0)
(0.0579082 0.0114884 0)
(0.063639 0.0116468 0)
(0.0699435 0.0116147 0)
(0.0762978 0.0113256 0)
(0.0826265 0.0109003 0)
(0.0887822 0.0103723 0)
(0.0947182 0.00978932 0)
(0.100387 0.00917035 0)
(0.105793 0.00856 0)
(0.110935 0.0079213 0)
(0.115776 0.00738219 0)
(0.120502 0.00671677 0)
(0.124656 0.00639713 0)
(0.129371 0.0055747 0)
(0.13224 0.00571111 0)
(0.138163 0.00461934 0)
(0.0126813 -0.0148935 0)
(0.0119701 0.00101042 0)
(0.0238602 0.00718748 0)
(0.0287387 0.00865031 0)
(0.0365111 0.00971743 0)
(0.04378 0.00977835 0)
(0.051544 0.0097094 0)
(0.0592036 0.00943385 0)
(0.0667318 0.00905723 0)
(0.0739851 0.00859909 0)
(0.0809248 0.00809613 0)
(0.0875155 0.00756204 0)
(0.0937579 0.0070338 0)
(0.099677 0.00648024 0)
(0.105208 0.00601009 0)
(0.110604 0.00543371 0)
(0.115299 0.00515038 0)
(0.120644 0.00444596 0)
(0.123847 0.0045538 0)
(0.130496 0.00362918 0)
(-0.00186919 -0.015064 0)
(-0.00657235 -0.000380282 0)
(0.00451824 0.00512311 0)
(0.0103087 0.0067453 0)
(0.0194763 0.00760736 0)
(0.0279313 0.00760751 0)
(0.0368511 0.00751315 0)
(0.0455494 0.00726918 0)
(0.0540376 0.0069573 0)
(0.0621735 0.00658617 0)
(0.0699244 0.0061803 0)
(0.0772631 0.00574805 0)
(0.0841877 0.00531767 0)
(0.0907409 0.00486546 0)
(0.0968368 0.00447631 0)
(0.102781 0.00400711 0)
(0.10792 0.00376248 0)
(0.113779 0.00320673 0)
(0.117256 0.00326348 0)
(0.124492 0.00256429 0)
(-0.00970693 -0.0118127 0)
(-0.0184759 -0.00103976 0)
(-0.0089293 0.00304581 0)
(-0.00273226 0.00456123 0)
(0.00731484 0.00516695 0)
(0.0165966 0.0051433 0)
(0.0263423 0.00504969 0)
(0.0357866 0.00486354 0)
(0.0449674 0.00463734 0)
(0.0537431 0.00437167 0)
(0.062085 0.00407926 0)
(0.0699715 0.00376419 0)
(0.0773977 0.00344534 0)
(0.0844187 0.00310809 0)
(0.0909321 0.00281087 0)
(0.097282 0.00246179 0)
(0.102749 0.00226308 0)
(0.108986 0.00186983 0)
(0.112668 0.00187884 0)
(0.120331 0.00141846 0)
(-0.0131291 -0.00695836 0)
(-0.0246101 -0.00109237 0)
(-0.0164237 0.0011823 0)
(-0.0101257 0.00224219 0)
(0.000373188 0.00253511 0)
(0.0101323 0.00249482 0)
(0.0203598 0.00241288 0)
(0.0302403 0.0022998 0)
(0.0398271 0.00217191 0)
(0.0489798 0.00202298 0)
(0.0576729 0.00185409 0)
(0.0658874 0.00166581 0)
(0.0736161 0.00146724 0)
(0.0809207 0.00125383 0)
(0.0876878 0.00105592 0)
(0.0942841 0.000835628 0)
(0.0999514 0.000688143 0)
(0.106416 0.000466397 0)
(0.110223 0.000431074 0)
(0.118142 0.000217839 0)
(-0.0132587 -0.00147895 0)
(-0.0255034 -0.000751855 0)
(-0.0179863 -0.000517694 0)
(-0.0117364 -0.000121019 0)
(-0.00114609 -0.000170105 0)
(0.00874559 -0.000233715 0)
(0.019104 -0.000301749 0)
(0.0291008 -0.000335584 0)
(0.0387952 -0.000360265 0)
(0.0480502 -0.000388276 0)
(0.0568424 -0.000429947 0)
(0.0651533 -0.000487714 0)
(0.072974 -0.000562423 0)
(0.080367 -0.000648026 0)
(0.0872143 -0.000743207 0)
(0.0938886 -0.000830406 0)
(0.099619 -0.000924009 0)
(0.106153 -0.000969218 0)
(0.11 -0.001048 0)
(0.117994 -0.00100809 0)
(-0.0103238 0.00363684 0)
(-0.0213311 -0.000404533 0)
(-0.0136461 -0.00218332 0)
(-0.0075271 -0.0024521 0)
(0.00281884 -0.00286005 0)
(0.0124982 -0.0029501 0)
(0.0226317 -0.0030036 0)
(0.0324195 -0.00295852 0)
(0.0419178 -0.00288133 0)
(0.0509958 -0.0027905 0)
(0.0596308 -0.00270712 0)
(0.0678024 -0.00263623 0)
(0.0755006 -0.00258851 0)
(0.0827832 -0.0025472 0)
(0.0895334 -0.00254014 0)
(0.0961142 -0.00249441 0)
(0.101768 -0.002534 0)
(0.108212 -0.00240248 0)
(0.112011 -0.00252496 0)
(0.119898 -0.00223101 0)
(-0.00375772 0.00737698 0)
(-0.0119162 -0.000389499 0)
(-0.00342702 -0.00393477 0)
(0.00244451 -0.00467327 0)
(0.0121885 -0.00543809 0)
(0.0213058 -0.00555892 0)
(0.0308544 -0.00560009 0)
(0.0401067 -0.00548344 0)
(0.0491066 -0.00531241 0)
(0.057731 -0.00511133 0)
(0.065956 -0.00491109 0)
(0.0737563 -0.0047191 0)
(0.0811213 -0.00455544 0)
(0.0880982 -0.00439302 0)
(0.0945777 -0.00428822 0)
(0.100897 -0.0041141 0)
(0.106338 -0.00410243 0)
(0.112534 -0.00379829 0)
(0.116199 -0.00396704 0)
(0.1238 -0.0034212 0)
(0.00786848 0.0082603 0)
(0.00324633 -0.000865868 0)
(0.0126248 -0.00574883 0)
(0.0180258 -0.00673526 0)
(0.0267415 -0.00779883 0)
(0.0349335 -0.00796077 0)
(0.043537 -0.00799811 0)
(0.0519319 -0.00782547 0)
(0.0601402 -0.00757602 0)
(0.0680454 -0.00728019 0)
(0.0756192 -0.00697744 0)
(0.082828 -0.00667757 0)
(0.0896604 -0.00640946 0)
(0.0961474 -0.00613659 0)
(0.102192 -0.00594241 0)
(0.108092 -0.00564889 0)
(0.113192 -0.00559111 0)
(0.118991 -0.00512337 0)
(0.122446 -0.00534175 0)
(0.129589 -0.00455097 0)
(0.0270151 0.00324698 0)
(0.0250651 -0.00202562 0)
(0.034379 -0.00750972 0)
(0.0389152 -0.00861638 0)
(0.0461142 -0.00986234 0)
(0.0529948 -0.0100808 0)
(0.0602985 -0.0101241 0)
(0.0675272 -0.0099173 0)