x,y,z,p
0,0,0,5.69998e-05
0,0.1,0,0.000104707
0,0.2,0,0.000152414
0,0.3,0,0.000200121
0,0.4,0,0.000255875
0,0.5,0,0.000319677
0,0.6,0,0.000383479
0,0.7,0,0.000447281
0,0.8,0,0.000510694
0,0.9,0,0.000574107
0,1,0,0.00063752
0,1.1,0,0.000700631
0,1.2,0,0.000763442
0,1.3,0,0.000826253
0,1.4,0,0.000889064
0,1.5,0,0.000951038
0,1.6,0,0.00101301
0,1.7,0,0.00107499
0,1.8,0,0.00113641
0,1.9,0,0.00119729
0,2,0,0.00125816
0,2.1,0,0.00131904
0,2.2,0,0.00137852
0,2.3,0,0.001438
0,2.4,0,0.00149748
0,2.5,0,0.00155609
0,2.6,0,0.00161383
0,2.7,0,0.00167158
0,2.8,0,0.00172932
0,2.9,0,0.00178495
0,3,0,0.00184059
0,3.1,0,0.00189622
0,3.2,0,0.00195059
0,3.3,0,0.00200368
0,3.4,0,0.00205679
0,3.5,0,0.00210988
0,3.6,0,0.00215999
0,3.7,0,0.0022101
0,3.8,0,0.00226021
0,3.9,0,0.00230859
0,4,0,0.00235521
0,4.1,0,0.00240185
0,4.2,0,0.00244848
0,4.3,0,0.00249111
0,4.4,0,0.00253374
0,4.5,0,0.00257638
0,4.6,0,0.00261675
0,4.7,0,0.00265486
0,4.8,0,0.00269297
0,4.9,0,0.00273107
0,5,0,0.00276413
0,5.1,0,0.00279718
0,5.2,0,0.00283023
0,5.3,0,0.00286048
0,5.4,0,0.00288794
0,5.5,0,0.0029154
0,5.6,0,0.00294287
0,5.7,0,0.00296423
0,5.8,0,0.00298558
0,5.9,0,0.00300695
0,6,0,0.00302502
0,6.1,0,0.0030398
0,6.2,0,0.00305458
0,6.3,0,0.00306937
0,6.4,0,0.00307709
0,6.5,0,0.00308482
0,6.6,0,0.00309255
0,6.7,0,0.0030969
0,6.8,0,0.00309788
0,6.9,0,0.00309885
0,7,0,0.00309982
0,7.1,0,0.00309349
0,7.2,0,0.00308678
0,7.3,0,0.00307785
0,7.4,0,0.00306674
0,7.5,0,0.00305343
0,7.6,0,0.00303792
0,7.7,0,0.00302022
0,7.8,0,0.00300033
0,7.9,0,0.00297823
0,8,0,0.00294547
0,8.1,0,0.00292106
0,8.2,0,0.00289665
0,8.3,0,0.00286672
0,8.4,0,0.0028338
0,8.5,0,0.00279942
0,8.6,0,0.00276161
0,8.7,0,0.00272379
0,8.8,0,0.00268149
0,8.9,0,0.00263896
0,9,0,0.00259372
0,9.1,0,0.00254669
0,9.2,0,0.00249858
0,9.3,0,0.00244727
0,9.4,0,0.00239595
0,9.5,0,0.002341
0,9.6,0,0.00228565
0,9.7,0,0.00222821
0,9.8,0,0.00216908
0,9.9,0,0.00210923
0,10,0,0.00204657
0,10.1,0,0.00198391
0,10.2,0,0.00191849
0,10.3,0,0.00185258
0,10.4,0,0.00178519
0,10.5,0,0.00171631
0,10.6,0,0.00164703
0,10.7,0,0.00157547
0,10.8,0,0.0015039
0,10.9,0,0.00143042
0,11,0,0.00135647
0,11.1,0,0.00128156
0,11.2,0,0.00120551
0,11.3,0,0.00112927
0,11.4,0,0.00105141
0,11.5,0,0.000973542
0,11.6,0,0.000894546
0,11.7,0,0.000815174
0,11.8,0,0.000735316
0,11.9,0,0.000654732
0,12,0,0.000574102
0,12.1,0,0.000492603
0,12.2,0,0.000411105
0,12.3,0,0.000329177
0,12.4,0,0.000247066
0,12.5,0,0.000172301
0,12.6,0,0.000111177
0,12.7,0,5.00543e-05
0.1,0,0,4.43332e-05
0.1,0.1,0,9.20775e-05
0.1,0.2,0,0.000139785
0.1,0.3,0,0.000192042
0.1,0.4,0,0.000255987
0.1,0.5,0,0.000319789
0.1,0.6,0,0.00038359
0.1,0.7,0,0.000447506
0.1,0.8,0,0.000510885
0.1,0.9,0,0.000574298
0.1,1,0,0.000637767
0.1,1.1,0,0.000700934
0.1,1.2,0,0.000763719
0.1,1.3,0,0.00082653
0.1,1.4,0,0.000889548
0.1,1.5,0,0.000951411
0.1,1.6,0,0.00101339
0.1,1.7,0,0.00107546
0.1,1.8,0,0.00113695
0.1,1.9,0,0.00119777
0.1,2,0,0.00125865
0.1,2.1,0,0.00131986
0.1,2.2,0,0.00137912
0.1,2.3,0,0.0014386
0.1,2.4,0,0.00149823
0.1,2.5,0,0.00155693
0.1,2.6,0,0.00161457
0.1,2.7,0,0.00167232
0.1,2.8,0,0.00173057
0.1,2.9,0,0.00178585
0.1,3,0,0.00184148
0.1,3.1,0,0.00189734
0.1,3.2,0,0.00195181
0.1,3.3,0,0.00200476
0.1,3.4,0,0.00205786
0.1,3.5,0,0.00211168
0.1,3.6,0,0.00216125
0.1,3.7,0,0.00221136
0.1,3.8,0,0.00226177
0.1,3.9,0,0.00231027
0.1,4,0,0.00235667
0.1,4.1,0,0.0024033
0.1,4.2,0,0.00245089
0.1,4.3,0,0.00249276
0.1,4.4,0,0.0025354
0.1,4.5,0,0.00257841
0.1,4.6,0,0.00261892
0.1,4.7,0,0.00265672
0.1,4.8,0,0.00269483
0.1,4.9,0,0.00273408
0.1,5,0,0.00276619
0.1,5.1,0,0.00279924
0.1,5.2,0,0.00283272
0.1,5.3,0,0.00286311
0.1,5.4,0,0.00289022
0.1,5.5,0,0.00291768
0.1,5.6,0,0.0029463
0.1,5.7,0,0.00296669
0.1,5.8,0,0.00298805
0.1,5.9,0,0.0030098
0.1,6,0,0.00302799
0.1,6.1,0,0.00304245
0.1,6.2,0,0.00305723
0.1,6.3,0,0.00307299
0.1,6.4,0,0.00307993
0.1,6.5,0,0.00308766
0.1,6.6,0,0.0030957
0.1,6.7,0,0.00309978
0.1,6.8,0,0.00310029
0.1,6.9,0,0.00310126
0.1,7,0,0.00310355
0.1,7.1,0,0.00309716
0.1,7.2,0,0.00309045
0.1,7.3,0,0.00308153
0.1,7.4,0,0.00307042
0.1,7.5,0,0.00305712
0.1,7.6,0,0.00304161
0.1,7.7,0,0.00302389
0.1,7.8,0,0.00300398
0.1,7.9,0,0.00298186
0.1,8,0,0.00294912
0.1,8.1,0,0.0029242
0.1,8.2,0,0.00289996
0.1,8.3,0,0.00286802
0.1,8.4,0,0.0028351
0.1,8.5,0,0.00280167
0.1,8.6,0,0.00276287
0.1,8.7,0,0.0027271
0.1,8.8,0,0.0026827
0.1,8.9,0,0.00264069
0.1,9,0,0.00259487
0.1,9.1,0,0.00254783
0.1,9.2,0,0.00250087
0.1,9.3,0,0.00244835
0.1,9.4,0,0.00239882
0.1,9.5,0,0.00234202
0.1,9.6,0,0.00228697
0.1,9.7,0,0.00222917
0.1,9.8,0,0.00217003
0.1,9.9,0,0.00211144
0.1,10,0,0.00204746
0.1,10.1,0,0.0019862
0.1,10.2,0,0.0019193
0.1,10.3,0,0.00185347
0.1,10.4,0,0.00178601
0.1,10.5,0,0.00171705
0.1,10.6,0,0.00164895
0.1,10.7,0,0.00157613
0.1,10.8,0,0.0015055
0.1,10.9,0,0.00143101
0.1,11,0,0.00135705
0.1,11.1,0,0.00128227
0.1,11.2,0,0.00120602
0.1,11.3,0,0.00113069
0.1,11.4,0,0.00105184
0.1,11.5,0,0.000974473
0.1,11.6,0,0.000894902
0.1,11.7,0,0.000815529
0.1,11.8,0,0.00073579
0.1,11.9,0,0.00065501
0.1,12,0,0.000574882
0.1,12.1,0,0.000492803
0.1,12.2,0,0.000411461
0.1,12.3,0,0.000329297
0.1,12.4,0,0.000247186
0.1,12.5,0,0.000164969
0.1,12.6,0,0.000100097
0.1,12.7,0,3.89311e-05
0.2,0,0,3.16666e-05
0.2,0.1,0,7.94215e-05
0.2,0.2,0,0.000128065
0.2,0.3,0,0.000192153
0.2,0.4,0,0.000256098
0.2,0.5,0,0.0003199
0.2,0.6,0,0.000383783
0.2,0.7,0,0.000447731
0.2,0.8,0,0.000511101
0.2,0.9,0,0.000574501
0.2,1,0,0.000638114
0.2,1.1,0,0.000701281
0.2,1.2,0,0.000764001
0.2,1.3,0,0.000826955
0.2,1.4,0,0.000890032
0.2,1.5,0,0.000951864
0.2,1.6,0,0.00101378
0.2,1.7,0,0.0010761
0.2,1.8,0,0.00113759
0.2,1.9,0,0.00119826
0.2,2,0,0.00125937
0.2,2.1,0,0.00132067
0.2,2.2,0,0.00137988
0.2,2.3,0,0.00143924
0.2,2.4,0,0.00149925
0.2,2.5,0,0.00155795
0.2,2.6,0,0.00161534
0.2,2.7,0,0.00167343
0.2,2.8,0,0.00173182
0.2,2.9,0,0.001787
0.2,3,0,0.00184243
0.2,3.1,0,0.00189885
0.2,3.2,0,0.00195332
0.2,3.3,0,0.00200586
0.2,3.4,0,0.00205944
0.2,3.5,0,0.00211348
0.2,3.6,0,0.00216289
0.2,3.7,0,0.00221267
0.2,3.8,0,0.00226387
0.2,3.9,0,0.00231237
0.2,4,0,0.00235817
0.2,4.1,0,0.00240544
0.2,4.2,0,0.0024533
0.2,4.3,0,0.00249496
0.2,4.4,0,0.00253713
0.2,4.5,0,0.00258114
0.2,4.6,0,0.00262164
0.2,4.7,0,0.00265865
0.2,4.8,0,0.00269751
0.2,4.9,0,0.00273709
0.2,5,0,0.00276894
0.2,5.1,0,0.0028014
0.2,5.2,0,0.00283597
0.2,5.3,0,0.00286636
0.2,5.4,0,0.00289257
0.2,5.5,0,0.00292078
0.2,5.6,0,0.00294973
0.2,5.7,0,0.00296985
0.2,5.8,0,0.0029906
0.2,5.9,0,0.00301336
0.2,6,0,0.00303154
0.2,6.1,0,0.00304516
0.2,6.2,0,0.00306057
0.2,6.3,0,0.00307661
0.2,6.4,0,0.00308333
0.2,6.5,0,0.00309056
0.2,6.6,0,0.00309941
0.2,6.7,0,0.00310349
0.2,6.8,0,0.0031028
0.2,6.9,0,0.00310461
0.2,7,0,0.00310727
0.2,7.1,0,0.00310082
0.2,7.2,0,0.00309412
0.2,7.3,0,0.00308522
0.2,7.4,0,0.00307411
0.2,7.5,0,0.00306081
0.2,7.6,0,0.00304529
0.2,7.7,0,0.00302756
0.2,7.8,0,0.00300763
0.2,7.9,0,0.0029855
0.2,8,0,0.00295276
0.2,8.1,0,0.00292739
0.2,8.2,0,0.0029036
0.2,8.3,0,0.00287109
0.2,8.4,0,0.00283791
0.2,8.5,0,0.00280525
0.2,8.6,0,0.00276413
0.2,8.7,0,0.00273062
0.2,8.8,0,0.00268432
0.2,8.9,0,0.00264415
0.2,9,0,0.00259799
0.2,9.1,0,0.00255025
0.2,9.2,0,0.00250426
0.2,9.3,0,0.00244944
0.2,9.4,0,0.00240212
0.2,9.5,0,0.00234368
0.2,9.6,0,0.00229014
0.2,9.7,0,0.00223222
0.2,9.8,0,0.00217195
0.2,9.9,0,0.00211446
0.2,10,0,0.00204834
0.2,10.1,0,0.00198904
0.2,10.2,0,0.00192087
0.2,10.3,0,0.00185612
0.2,10.4,0,0.00178865
0.2,10.5,0,0.00171842
0.2,10.6,0,0.00165137
0.2,10.7,0,0.00157679
0.2,10.8,0,0.00150768
0.2,10.9,0,0.00143234
0.2,11,0,0.00135891
0.2,11.1,0,0.00128419
0.2,11.2,0,0.00120684
0.2,11.3,0,0.00113235
0.2,11.4,0,0.00105227
0.2,11.5,0,0.000975863
0.2,11.6,0,0.00089584
0.2,11.7,0,0.000816532
0.2,11.8,0,0.000736906
0.2,11.9,0,0.000655389
0.2,12,0,0.000575724
0.2,12.1,0,0.000493003
0.2,12.2,0,0.000412027
0.2,12.3,0,0.000329711
0.2,12.4,0,0.000247432
0.2,12.5,0,0.000165257
0.2,12.6,0,8.90133e-05
0.2,12.7,0,2.7808e-05
0.3,0,0,1.89999e-05
0.3,0.1,0,6.67548e-05
0.3,0.2,0,0.000128161
0.3,0.3,0,0.000192265
0.3,0.4,0,0.000256209
0.3,0.5,0,0.00032006
0.3,0.6,0,0.000384008
0.3,0.7,0,0.000447956
0.3,0.8,0,0.000511326
0.3,0.9,0,0.000574863
0.3,1,0,0.000638462
0.3,1.1,0,0.000701629
0.3,1.2,0,0.000764438
0.3,1.3,0,0.000827439
0.3,1.4,0,0.000890516
0.3,1.5,0,0.000952348
0.3,1.6,0,0.00101447
0.3,1.7,0,0.00107673
0.3,1.8,0,0.00113823
0.3,1.9,0,0.00119905
0.3,2,0,0.00126018
0.3,2.1,0,0.00132149
0.3,2.2,0,0.0013807
0.3,2.3,0,0.00144035
0.3,2.4,0,0.00150027
0.3,2.5,0,0.00155897
0.3,2.6,0,0.00161658
0.3,2.7,0,0.00167468
0.3,2.8,0,0.00173308
0.3,2.9,0,0.00178825
0.3,3,0,0.00184409
0.3,3.1,0,0.00190036
0.3,3.2,0,0.00195483
0.3,3.3,0,0.00200768
0.3,3.4,0,0.00206124
0.3,3.5,0,0.00211527
0.3,3.6,0,0.00216468
0.3,3.7,0,0.00221501
0.3,3.8,0,0.00226597
0.3,3.9,0,0.00231447
0.3,4,0,0.00236068
0.3,4.1,0,0.00240785
0.3,4.2,0,0.00245572
0.3,4.3,0,0.00249738
0.3,4.4,0,0.00254018
0.3,4.5,0,0.00258386
0.3,4.6,0,0.00262437
0.3,4.7,0,0.00266186
0.3,4.8,0,0.00270052
0.3,4.9,0,0.0027401
0.3,5,0,0.00277194
0.3,5.1,0,0.00280505
0.3,5.2,0,0.00283922
0.3,5.3,0,0.00286961
0.3,5.4,0,0.00289631
0.3,5.5,0,0.00292422
0.3,5.6,0,0.00295317
0.3,5.7,0,0.00297329
0.3,5.8,0,0.00299457
0.3,5.9,0,0.00301691
0.3,6,0,0.0030351
0.3,6.1,0,0.00304913
0.3,6.2,0,0.00306419
0.3,6.3,0,0.00308023
0.3,6.4,0,0.00308695
0.3,6.5,0,0.00309461
0.3,6.6,0,0.00310312
0.3,6.7,0,0.0031072
0.3,6.8,0,0.00310707
0.3,6.9,0,0.00310833
0.3,7,0,0.00311099
0.3,7.1,0,0.00310448
0.3,7.2,0,0.00309779
0.3,7.3,0,0.0030889
0.3,7.4,0,0.0030778
0.3,7.5,0,0.00306449
0.3,7.6,0,0.00304897
0.3,7.7,0,0.00303123
0.3,7.8,0,0.00301128
0.3,7.9,0,0.00298914
0.3,8,0,0.00295641
0.3,8.1,0,0.00293124
0.3,8.2,0,0.00290725
0.3,8.3,0,0.00287473
0.3,8.4,0,0.00284149
0.3,8.5,0,0.00280883
0.3,8.6,0,0.00276881
0.3,8.7,0,0.00273414
0.3,8.8,0,0.00268856
0.3,8.9,0,0.00264762
0.3,9,0,0.00260145
0.3,9.1,0,0.00255364
0.3,9.2,0,0.00250765
0.3,9.3,0,0.0024539
0.3,9.4,0,0.00240542
0.3,9.5,0,0.00234745
0.3,9.6,0,0.00229332
0.3,9.7,0,0.0022354
0.3,9.8,0,0.00217505
0.3,9.9,0,0.00211749
0.3,10,0,0.00205229
0.3,10.1,0,0.00199189
0.3,10.2,0,0.00192396
0.3,10.3,0,0.00185876
0.3,10.4,0,0.0017913
0.3,10.5,0,0.00172108
0.3,10.6,0,0.00165379
0.3,10.7,0,0.00157992
0.3,10.8,0,0.00150986
0.3,10.9,0,0.00143456
0.3,11,0,0.00136083
0.3,11.1,0,0.00128612
0.3,11.2,0,0.00120882
0.3,11.3,0,0.00113401
0.3,11.4,0,0.00105438
0.3,11.5,0,0.000977252
0.3,11.6,0,0.000897229
0.3,11.7,0,0.000817648
0.3,11.8,0,0.000738023
0.3,11.9,0,0.000656499
0.3,12,0,0.000576566
0.3,12.1,0,0.000494025
0.3,12.2,0,0.000412593
0.3,12.3,0,0.000330278
0.3,12.4,0,0.00024772
0.3,12.5,0,0.000165544
0.3,12.6,0,8.26065e-05
0.3,12.7,0,1.66848e-05
0.4,0,0,6.33332e-06
0.4,0.1,0,6.40988e-05
0.4,0.2,0,0.000128235
0.4,0.3,0,0.000192371
0.4,0.4,0,0.000256337
0.4,0.5,0,0.000320285
0.4,0.6,0,0.000384233
0.4,0.7,0,0.000448181
0.4,0.8,0,0.000511674
0.4,0.9,0,0.000575244
0.4,1,0,0.000638815
0.4,1.1,0,0.000702006
0.4,1.2,0,0.000764993
0.4,1.3,0,0.000827979
0.4,1.4,0,0.000891001
0.4,1.5,0,0.000953042
0.4,1.6,0,0.00101522
0.4,1.7,0,0.00107739
0.4,1.8,0,0.00113892
0.4,1.9,0,0.00120002
0.4,2,0,0.00126113
0.4,2.1,0,0.00132231
0.4,2.2,0,0.00138184
0.4,2.3,0,0.00144158
0.4,2.4,0,0.00150132
0.4,2.5,0,0.00156006
0.4,2.6,0,0.00161811
0.4,2.7,0,0.00167615
0.4,2.8,0,0.00173433
0.4,2.9,0,0.00178999
0.4,3,0,0.00184595
0.4,3.1,0,0.00190192
0.4,3.2,0,0.00195645
0.4,3.3,0,0.00200991
0.4,3.4,0,0.00206338
0.4,3.5,0,0.00211707
0.4,3.6,0,0.00216714
0.4,3.7,0,0.00221765
0.4,3.8,0,0.00226815
0.4,3.9,0,0.0023167
0.4,4,0,0.00236374
0.4,4.1,0,0.00241077
0.4,4.2,0,0.00245813
0.4,4.3,0,0.00250063
0.4,4.4,0,0.00254366
0.4,4.5,0,0.00258669
0.4,4.6,0,0.00262725
0.4,4.7,0,0.00266573
0.4,4.8,0,0.00270421
0.4,4.9,0,0.00274311
0.4,5,0,0.00277588
0.4,5.1,0,0.00280924
0.4,5.2,0,0.0028426
0.4,5.3,0,0.00287302
0.4,5.4,0,0.00290072
0.4,5.5,0,0.00292842
0.4,5.6,0,0.0029566
0.4,5.7,0,0.00297757
0.4,5.8,0,0.00299909
0.4,5.9,0,0.0030206
0.4,6,0,0.00303879
0.4,6.1,0,0.00305366
0.4,6.2,0,0.00306853
0.4,6.3,0,0.00308385
0.4,6.4,0,0.00309126
0.4,6.5,0,0.0030991
0.4,6.6,0,0.00310695
0.4,6.7,0,0.0031111
0.4,6.8,0,0.00311209
0.4,6.9,0,0.00311308
0.4,7,0,0.00311471
0.4,7.1,0,0.00310814
0.4,7.2,0,0.00310146
0.4,7.3,0,0.00309258
0.4,7.4,0,0.00308149
0.4,7.5,0,0.00306818
0.4,7.6,0,0.00305265
0.4,7.7,0,0.0030349
0.4,7.8,0,0.00301493
0.4,7.9,0,0.00299277
0.4,8,0,0.00296005
0.4,8.1,0,0.00293539
0.4,8.2,0,0.00291098
0.4,8.3,0,0.00288007
0.4,8.4,0,0.00284704
0.4,8.5,0,0.00281258
0.4,8.6,0,0.00277465
0.4,8.7,0,0.00273766
0.4,8.8,0,0.00269435
0.4,8.9,0,0.0026517
0.4,9,0,0.00260637
0.4,9.1,0,0.0025592
0.4,9.2,0,0.00251104
0.4,9.3,0,0.0024595
0.4,9.4,0,0.00240871
0.4,9.5,0,0.0023529
0.4,9.6,0,0.00229731
0.4,9.7,0,0.00223972
0.4,9.8,0,0.00218029
0.4,9.9,0,0.00212051
0.4,10,0,0.00205728
0.4,10.1,0,0.00199474
0.4,10.2,0,0.00192863
0.4,10.3,0,0.00186234
0.4,10.4,0,0.00179471
0.4,10.5,0,0.0017254
0.4,10.6,0,0.00165621
0.4,10.7,0,0.00158386
0.4,10.8,0,0.00151204
0.4,10.9,0,0.00143808
0.4,11,0,0.00136363
0.4,11.1,0,0.00128846
0.4,11.2,0,0.00121189
0.4,11.3,0,0.00113567
0.4,11.4,0,0.001057
0.4,11.5,0,0.000978642
0.4,11.6,0,0.000899331
0.4,11.7,0,0.000819435
0.4,11.8,0,0.000739289
0.4,11.9,0,0.000658179
0.4,12,0,0.000577408
0.4,12.1,0,0.000495234
0.4,12.2,0,0.000413207
0.4,12.3,0,0.000330985
0.4,12.4,0,0.00024834
0.4,12.5,0,0.000165825
0.4,12.6,0,8.28512e-05
0.4,12.7,0,5.56159e-06
0.5,0,0,0
0.5,0.1,0,6.42111e-05
0.5,0.2,0,0.000128347
0.5,0.3,0,0.000192483
0.5,0.4,0,0.00025667
0.5,0.5,0,0.000320618
0.5,0.6,0,0.000384566
0.5,0.7,0,0.000448633
0.5,0.8,0,0.00051224
0.5,0.9,0,0.000575811
0.5,1,0,0.000639381
0.5,1.1,0,0.00070283
0.5,1.2,0,0.000765816
0.5,1.3,0,0.000828803
0.5,1.4,0,0.000891973
0.5,1.5,0,0.000954155
0.5,1.6,0,0.00101633
0.5,1.7,0,0.0010785
0.5,1.8,0,0.00114036
0.5,1.9,0,0.00120147
0.5,2,0,0.00126257
0.5,2.1,0,0.00132395
0.5,2.2,0,0.00138367
0.5,2.3,0,0.00144341
0.5,2.4,0,0.00150315
0.5,2.5,0,0.00156232
0.5,2.6,0,0.00162036
0.5,2.7,0,0.0016784
0.5,2.8,0,0.00173683
0.5,2.9,0,0.00179274
0.5,3,0,0.0018487
0.5,3.1,0,0.00190467
0.5,3.2,0,0.00195974
0.5,3.3,0,0.00201321
0.5,3.4,0,0.00206667
0.5,3.5,0,0.00212065
0.5,3.6,0,0.00217103
0.5,3.7,0,0.00222153
0.5,3.8,0,0.00227203
0.5,3.9,0,0.00232122
0.5,4,0,0.00236825
0.5,4.1,0,0.00241528
0.5,4.2,0,0.00246296
0.5,4.3,0,0.00250577
0.5,4.4,0,0.00254881
0.5,4.5,0,0.00259184
0.5,4.6,0,0.002633
0.5,4.7,0,0.00267148
0.5,4.8,0,0.00270995
0.5,4.9,0,0.00274923
0.5,5,0,0.00278217
0.5,5.1,0,0.00281553
0.5,5.2,0,0.00284889
0.5,5.3,0,0.00287974
0.5,5.4,0,0.00290744
0.5,5.5,0,0.00293513
0.5,5.6,0,0.00296387
0.5,5.7,0,0.0029846
0.5,5.8,0,0.00300611
0.5,5.9,0,0.00302763
0.5,6,0,0.00304599
0.5,6.1,0,0.00306086
0.5,6.2,0,0.00307573
0.5,6.3,0,0.00309196
0.5,6.4,0,0.00309855
0.5,6.5,0,0.0031064
0.5,6.6,0,0.00311424
0.5,6.7,0,0.00311865
0.5,6.8,0,0.00311964
0.5,6.9,0,0.00312063
0.5,7,0,0.00312338
0.5,7.1,0,0.00311689
0.5,7.2,0,0.00311025
0.5,7.3,0,0.00310141
0.5,7.4,0,0.00309034
0.5,7.5,0,0.00307704
0.5,7.6,0,0.0030615
0.5,7.7,0,0.00304373
0.5,7.8,0,0.00302373
0.5,7.9,0,0.00300152
0.5,8,0,0.00296872
0.5,8.1,0,0.00294274
0.5,8.2,0,0.00291833
0.5,8.3,0,0.00288729
0.5,8.4,0,0.00285426
0.5,8.5,0,0.00281967
0.5,8.6,0,0.00278175
0.5,8.7,0,0.00274555
0.5,8.8,0,0.00270134
0.5,8.9,0,0.00265869
0.5,9,0,0.00261324
0.5,9.1,0,0.00256606
0.5,9.2,0,0.00251778
0.5,9.3,0,0.0024662
0.5,9.4,0,0.00241567
0.5,9.5,0,0.00235938
0.5,9.6,0,0.0023038
0.5,9.7,0,0.00224593
0.5,9.8,0,0.0021865
0.5,9.9,0,0.00212649
0.5,10,0,0.00206317
0.5,10.1,0,0.0020006
0.5,10.2,0,0.00193414
0.5,10.3,0,0.00186784
0.5,10.4,0,0.00179978
0.5,10.5,0,0.00173048
0.5,10.6,0,0.00166092
0.5,10.7,0,0.00158846
0.5,10.8,0,0.00151658
0.5,10.9,0,0.00144219
0.5,11,0,0.00136774
0.5,11.1,0,0.00129204
0.5,11.2,0,0.00121548
0.5,11.3,0,0.00113886
0.5,11.4,0,0.00106005
0.5,11.5,0,0.000981679
0.5,11.6,0,0.000901838
0.5,11.7,0,0.000821942
0.5,11.8,0,0.000741248
0.5,11.9,0,0.000660138
0.5,12,0,0.00057901
0.5,12.1,0,0.000496643
0.5,12.2,0,0.000414616
0.5,12.3,0,0.000331842
0.5,12.4,0,0.000249197
0.5,12.5,0,0.000166118
0.5,12.6,0,8.31448e-05
0.5,12.7,0,0
0.6,0,0,0
0.6,0.1,0,6.43291e-05
0.6,0.2,0,0.000128497
0.6,0.3,0,0.000192792
0.6,0.4,0,0.000257021
0.6,0.5,0,0.00032106
0.6,0.6,0,0.000385059
0.6,0.7,0,0.000449312
0.6,0.8,0,0.000512977
0.6,0.9,0,0.000576563
0.6,1,0,0.000640388
0.6,1.1,0,0.000703885
0.6,1.2,0,0.000766909
0.6,1.3,0,0.000829974
0.6,1.4,0,0.000893434
0.6,1.5,0,0.000955629
0.6,1.6,0,0.00101781
0.6,1.7,0,0.00108037
0.6,1.8,0,0.00114229
0.6,1.9,0,0.00120338
0.6,2,0,0.0012646
0.6,2.1,0,0.00132641
0.6,2.2,0,0.00138609
0.6,2.3,0,0.00144582
0.6,2.4,0,0.00150612
0.6,2.5,0,0.00156538
0.6,2.6,0,0.00162335
0.6,2.7,0,0.00168156
0.6,2.8,0,0.00174059
0.6,2.9,0,0.0017964
0.6,3,0,0.00185234
0.6,3.1,0,0.00190907
0.6,3.2,0,0.00196424
0.6,3.3,0,0.00201756
0.6,3.4,0,0.00207124
0.6,3.5,0,0.00212602
0.6,3.6,0,0.00217622
0.6,3.7,0,0.00222667
0.6,3.8,0,0.00227815
0.6,3.9,0,0.00232745
0.6,4,0,0.00237421
0.6,4.1,0,0.00242152
0.6,4.2,0,0.00247021
0.6,4.3,0,0.00251268
0.6,4.4,0,0.00255561
0.6,4.5,0,0.00259988
0.6,4.6,0,0.00264116
0.6,4.7,0,0.00267911
0.6,4.8,0,0.00271793
0.6,4.9,0,0.00275847
0.6,5,0,0.00279073
0.6,5.1,0,0.00282391
0.6,5.2,0,0.00285883
0.6,5.3,0,0.00288977
0.6,5.4,0,0.00291646
0.6,5.5,0,0.0029446
0.6,5.6,0,0.00297497
0.6,5.7,0,0.00299446
0.6,5.8,0,0.00301564
0.6,5.9,0,0.00303919
0.6,6,0,0.0030576
0.6,6.1,0,0.00307072
0.6,6.2,0,0.00308618
0.6,6.3,0,0.00310454
0.6,6.4,0,0.00310918
0.6,6.5,0,0.00311648
0.6,6.6,0,0.00312696
0.6,6.7,0,0.00313137
0.6,6.8,0,0.00312973
0.6,6.9,0,0.00313147
0.6,7,0,0.00313698
0.6,7.1,0,0.00313072
0.6,7.2,0,0.00312417
0.6,7.3,0,0.00311538
0.6,7.4,0,0.00310435
0.6,7.5,0,0.00309106
0.6,7.6,0,0.00307551
0.6,7.7,0,0.00305771
0.6,7.8,0,0.00303766
0.6,7.9,0,0.00301537
0.6,8,0,0.00298241
0.6,8.1,0,0.0029533
0.6,8.2,0,0.00293124
0.6,8.3,0,0.00289706
0.6,8.4,0,0.0028635
0.6,8.5,0,0.00283236
0.6,8.6,0,0.0027901
0.6,8.7,0,0.00275816
0.6,8.8,0,0.00270954
0.6,8.9,0,0.00266977
0.6,9,0,0.0026227
0.6,9.1,0,0.00257431
0.6,9.2,0,0.00252934
0.6,9.3,0,0.002474
0.6,9.4,0,0.00242662
0.6,9.5,0,0.00236691
0.6,9.6,0,0.00231308
0.6,9.7,0,0.00225449
0.6,9.8,0,0.00219368
0.6,9.9,0,0.00213606
0.6,10,0,0.00206995
0.6,10.1,0,0.00200944
0.6,10.2,0,0.00194046
0.6,10.3,0,0.00187511
0.6,10.4,0,0.00180682
0.6,10.5,0,0.0017363
0.6,10.6,0,0.0016682
0.6,10.7,0,0.00159374
0.6,10.8,0,0.00152307
0.6,10.9,0,0.00144689
0.6,11,0,0.00137288
0.6,11.1,0,0.00129715
0.6,11.2,0,0.00121958
0.6,11.3,0,0.00114373
0.6,11.4,0,0.00106353
0.6,11.5,0,0.000985746
0.6,11.6,0,0.000904778
0.6,11.7,0,0.000824944
0.6,11.8,0,0.000744235
0.6,11.9,0,0.000662374
0.6,12,0,0.000581464
0.6,12.1,0,0.000498252
0.6,12.2,0,0.000416262
0.6,12.3,0,0.000332928
0.6,12.4,0,0.00025014
0.6,12.5,0,0.000166872
0.6,12.6,0,8.34875e-05
0.6,12.7,0,0
0.7,0,0,0
0.7,0.1,0,6.43291e-05
0.7,0.2,0,0.000128754
0.7,0.3,0,0.000193128
0.7,0.4,0,0.000257357
0.7,0.5,0,0.000321441
0.7,0.6,0,0.000385738
0.7,0.7,0,0.000449991
0.7,0.8,0,0.000513656
0.7,0.9,0,0.000577485
0.7,1,0,0.000641436
0.7,1.1,0,0.000704933
0.7,1.2,0,0.000767976
0.7,1.3,0,0.000831435
0.7,1.4,0,0.000894894
0.7,1.5,0,0.000957089
0.7,1.6,0,0.00101954
0.7,1.7,0,0.0010823
0.7,1.8,0,0.00114422
0.7,1.9,0,0.0012053
0.7,2,0,0.00126706
0.7,2.1,0,0.00132887
0.7,2.2,0,0.00138855
0.7,2.3,0,0.00144861
0.7,2.4,0,0.00150919
0.7,2.5,0,0.00156845
0.7,2.6,0,0.00162638
0.7,2.7,0,0.00168531
0.7,2.8,0,0.00174435
0.7,2.9,0,0.00180015
0.7,3,0,0.00185648
0.7,3.1,0,0.00191359
0.7,3.2,0,0.00196877
0.7,3.3,0,0.00202201
0.7,3.4,0,0.00207662
0.7,3.5,0,0.00213139
0.7,3.6,0,0.00218159
0.7,3.7,0,0.00223246
0.7,3.8,0,0.00228444
0.7,3.9,0,0.00233374
0.7,4,0,0.00238036
0.7,4.1,0,0.00242877
0.7,4.2,0,0.00247747
0.7,4.3,0,0.00251993
0.7,4.4,0,0.00256324
0.7,4.5,0,0.00260812
0.7,4.6,0,0.00264941
0.7,4.7,0,0.00268709
0.7,4.8,0,0.00272717
0.7,4.9,0,0.00276771
0.7,5,0,0.00279997
0.7,5.1,0,0.00283334
0.7,5.2,0,0.00286903
0.7,5.3,0,0.00289997
0.7,5.4,0,0.00292616
0.7,5.5,0,0.0029557
0.7,5.6,0,0.00298607
0.7,5.7,0,0.00300556
0.7,5.8,0,0.00302652
0.7,5.9,0,0.0030511
0.7,6,0,0.00306951
0.7,6.1,0,0.00308175
0.7,6.2,0,0.00309876
0.7,6.3,0,0.00311713
0.7,6.4,0,0.00312176
0.7,6.5,0,0.00312833
0.7,6.6,0,0.00314012
0.7,6.7,0,0.00314453
0.7,6.8,0,0.00314157
0.7,6.9,0,0.00314507
0.7,7,0,0.00315059
0.7,7.1,0,0.00314455
0.7,7.2,0,0.00313808
0.7,7.3,0,0.00312936
0.7,7.4,0,0.00311835
0.7,7.5,0,0.00310508
0.7,7.6,0,0.00308953
0.7,7.7,0,0.00307169
0.7,7.8,0,0.00305159
0.7,7.9,0,0.00302923
0.7,8,0,0.0029961
0.7,8.1,0,0.00296568
0.7,8.2,0,0.00294465
0.7,8.3,0,0.00291046
0.7,8.4,0,0.00287654
0.7,8.5,0,0.0028454
0.7,8.6,0,0.00280059
0.7,8.7,0,0.00277077
0.7,8.8,0,0.00272074
0.7,8.9,0,0.00268189
0.7,9,0,0.00263482
0.7,9.1,0,0.00258587
0.7,9.2,0,0.0025409
0.7,9.3,0,0.00248344
0.7,9.4,0,0.00243757
0.7,9.5,0,0.00237709
0.7,9.6,0,0.00232336
0.7,9.7,0,0.00226477
0.7,9.8,0,0.00220318
0.7,9.9,0,0.00214564
0.7,10,0,0.00207791
0.7,10.1,0,0.00201827
0.7,10.2,0,0.00194897
0.7,10.3,0,0.00188318
0.7,10.4,0,0.00181489
0.7,10.5,0,0.0017434
0.7,10.6,0,0.00167548
0.7,10.7,0,0.00159986
0.7,10.8,0,0.00152955
0.7,10.9,0,0.00145332
0.7,11,0,0.00137857
0.7,11.1,0,0.00130284
0.7,11.2,0,0.00122428
0.7,11.3,0,0.00114861
0.7,11.4,0,0.00106763
0.7,11.5,0,0.000989813
0.7,11.6,0,0.000908845
0.7,11.7,0,0.000828204
0.7,11.8,0,0.000747494
0.7,11.9,0,0.000664758
0.7,12,0,0.000583917
0.7,12.1,0,0.000500275
0.7,12.2,0,0.000417912
0.7,12.3,0,0.000334577
0.7,12.4,0,0.000250977
0.7,12.5,0,0.000167709
0.7,12.6,0,8.36296e-05
0.7,12.7,0,0
0.8,0,0,0
0.8,0.1,0,6.43822e-05
0.8,0.2,0,0.00012895
0.8,0.3,0,0.000193464
0.8,0.4,0,0.000257693
0.8,0.5,0,0.000321997
0.8,0.6,0,0.000386386
0.8,0.7,0,0.000450669
0.8,0.8,0,0.000514419
0.8,0.9,0,0.000578465
0.8,1,0,0.000642484
0.8,1.1,0,0.000705982
0.8,1.2,0,0.000769366
0.8,1.3,0,0.000832883
0.8,1.4,0,0.000896355
0.8,1.5,0,0.000958679
0.8,1.6,0,0.00102145
0.8,1.7,0,0.00108422
0.8,1.8,0,0.00114614
0.8,1.9,0,0.00120774
0.8,2,0,0.00126953
0.8,2.1,0,0.00133134
0.8,2.2,0,0.0013912
0.8,2.3,0,0.00145173
0.8,2.4,0,0.00151226
0.8,2.5,0,0.00157152
0.8,2.6,0,0.00163017
0.8,2.7,0,0.0016891
0.8,2.8,0,0.00174811
0.8,2.9,0,0.00180417
0.8,3,0,0.00186112
0.8,3.1,0,0.00191812
0.8,3.2,0,0.0019733
0.8,3.3,0,0.00202749
0.8,3.4,0,0.00208204
0.8,3.5,0,0.00213677
0.8,3.6,0,0.00218729
0.8,3.7,0,0.00223897
0.8,3.8,0,0.00229073
0.8,3.9,0,0.00234003
0.8,4,0,0.00238784
0.8,4.1,0,0.00243612
0.8,4.2,0,0.00248472
0.8,4.3,0,0.00252759
0.8,4.4,0,0.0025719
0.8,4.5,0,0.00261637
0.8,4.6,0,0.00265765
0.8,4.7,0,0.00269683
0.8,4.8,0,0.00273658
0.8,4.9,0,0.00277695
0.8,5,0,0.00280973
0.8,5.1,0,0.00284433
0.8,5.2,0,0.00287924
0.8,5.3,0,0.00291018
0.8,5.4,0,0.00293829
0.8,5.5,0,0.00296714
0.8,5.6,0,0.00299717
0.8,5.7,0,0.00301734
0.8,5.8,0,0.00303989
0.8,5.9,0,0.003063
0.8,6,0,0.00308141
0.8,6.1,0,0.00309619
0.8,6.2,0,0.00311193
0.8,6.3,0,0.00312972
0.8,6.4,0,0.00313523
0.8,6.5,0,0.0031438
0.8,6.6,0,0.00315328
0.8,6.7,0,0.00315769
0.8,6.8,0,0.003158
0.8,6.9,0,0.00315956
0.8,7,0,0.00316419
0.8,7.1,0,0.00315838
0.8,7.2,0,0.003152
0.8,7.3,0,0.00314333
0.8,7.4,0,0.00313236
0.8,7.5,0,0.0031191
0.8,7.6,0,0.00310354
0.8,7.7,0,0.00308568
0.8,7.8,0,0.00306553
0.8,7.9,0,0.00304308
0.8,8,0,0.00300979
0.8,8.1,0,0.00298198
0.8,8.2,0,0.00295805
0.8,8.3,0,0.00292497
0.8,8.4,0,0.00289124
0.8,8.5,0,0.00285844
0.8,8.6,0,0.00281789
0.8,8.7,0,0.00278339
0.8,8.8,0,0.00273657
0.8,8.9,0,0.00269401
0.8,9,0,0.00264747
0.8,9.1,0,0.00259922
0.8,9.2,0,0.00255246
0.8,9.3,0,0.00249815
0.8,9.4,0,0.00244851
0.8,9.5,0,0.00239003
0.8,9.6,0,0.00233364
0.8,9.7,0,0.00227518
0.8,9.8,0,0.0022144
0.8,9.9,0,0.00215521
0.8,10,0,0.00208953
0.8,10.1,0,0.0020271
0.8,10.2,0,0.0019589
0.8,10.3,0,0.00189124
0.8,10.4,0,0.00182296
0.8,10.5,0,0.00175209
0.8,10.6,0,0.00168276
0.8,10.7,0,0.00160835
0.8,10.8,0,0.00153604
0.8,10.9,0,0.00146033
0.8,11,0,0.00138435
0.8,11.1,0,0.00130852
0.8,11.2,0,0.0012303
0.8,11.3,0,0.00115348
0.8,11.4,0,0.00107308
0.8,11.5,0,0.00099388
0.8,11.6,0,0.000913085
0.8,11.7,0,0.000831642
0.8,11.8,0,0.000750754
0.8,11.9,0,0.00066805
0.8,12,0,0.000586371
0.8,12.1,0,0.000502768
0.8,12.2,0,0.000419561
0.8,12.3,0,0.000336178
0.8,12.4,0,0.000251979
0.8,12.5,0,0.000168547
0.8,12.6,0,8.40824e-05
0.8,12.7,0,0
0.9,0,0,0
0.9,0.1,0,6.45678e-05
0.9,0.2,0,0.000129136
0.9,0.3,0,0.000193703
0.9,0.4,0,0.000258182
0.9,0.5,0,0.000322571
0.9,0.6,0,0.000386959
0.9,0.7,0,0.000451348
0.9,0.8,0,0.000515394
0.9,0.9,0,0.00057944
0.9,1,0,0.000643486
0.9,1.1,0,0.000707267
0.9,1.2,0,0.000770783
0.9,1.3,0,0.000834299
0.9,1.4,0,0.000897816
0.9,1.5,0,0.000960591
0.9,1.6,0,0.00102337
0.9,1.7,0,0.00108614
0.9,1.8,0,0.00114843
0.9,1.9,0,0.00121022
0.9,2,0,0.00127201
0.9,2.1,0,0.0013338
0.9,2.2,0,0.00139432
0.9,2.3,0,0.00145484
0.9,2.4,0,0.00151536
0.9,2.5,0,0.00157509
0.9,2.6,0,0.00163401
0.9,2.7,0,0.00169294
0.9,2.8,0,0.00175187
0.9,2.9,0,0.00180882
0.9,3,0,0.00186577
0.9,3.1,0,0.00192273
0.9,3.2,0,0.00197848
0.9,3.3,0,0.00203303
0.9,3.4,0,0.00208759
0.9,3.5,0,0.00214214
0.9,3.6,0,0.00219382
0.9,3.7,0,0.00224549
0.9,3.8,0,0.00229717
0.9,3.9,0,0.00234714
0.9,4,0,0.00239542
0.9,4.1,0,0.00244369
0.9,4.2,0,0.00249197
0.9,4.3,0,0.00253628
0.9,4.4,0,0.00258059
0.9,4.5,0,0.0026249
0.9,4.6,0,0.00266693
0.9,4.7,0,0.00270668
0.9,4.8,0,0.00274644
0.9,4.9,0,0.00278619
0.9,5,0,0.00282079
0.9,5.1,0,0.00285539
0.9,5.2,0,0.00288999
0.9,5.3,0,0.00292171
0.9,5.4,0,0.00295057
0.9,5.5,0,0.00297942
0.9,5.6,0,0.00300827
0.9,5.7,0,0.00303082
0.9,5.8,0,0.00305337
0.9,5.9,0,0.00307592
0.9,6,0,0.00309507
0.9,6.1,0,0.00311081
0.9,6.2,0,0.00312656
0.9,6.3,0,0.0031423
0.9,6.4,0,0.00315088
0.9,6.5,0,0.00315946
0.9,6.6,0,0.00316804
0.9,6.7,0,0.00317311
0.9,6.8,0,0.00317467
0.9,6.9,0,0.00317623
0.9,7,0,0.0031778
0.9,7.1,0,0.00317221
0.9,7.2,0,0.00316592
0.9,7.3,0,0.0031573
0.9,7.4,0,0.00314637
0.9,7.5,0,0.00313312
0.9,7.6,0,0.00311755
0.9,7.7,0,0.00309966
0.9,7.8,0,0.00307946
0.9,7.9,0,0.00305693
0.9,8,0,0.00302347
0.9,8.1,0,0.00299851
0.9,8.2,0,0.00297355
0.9,8.3,0,0.00294288
0.9,8.4,0,0.00290915
0.9,8.5,0,0.00287392
0.9,8.6,0,0.00283518
0.9,8.7,0,0.00279645
0.9,8.8,0,0.0027531
0.9,8.9,0,0.00270951
0.9,9,0,0.00266313
0.9,9.1,0,0.00261488
0.9,9.2,0,0.00256553
0.9,9.3,0,0.00251286
0.9,9.4,0,0.00246018
0.9,9.5,0,0.00240374
0.9,9.6,0,0.00234688
0.9,9.7,0,0.00228786
0.9,9.8,0,0.00222708
0.9,9.9,0,0.00216557
0.9,10,0,0.00210115
0.9,10.1,0,0.00203674
0.9,10.2,0,0.00196947
0.9,10.3,0,0.00190171
0.9,10.4,0,0.00183243
0.9,10.5,0,0.00176162
0.9,10.6,0,0.0016904
0.9,10.7,0,0.00161685
0.9,10.8,0,0.00154329
0.9,10.9,0,0.0014678
0.9,11,0,0.00139181
0.9,11.1,0,0.00131487
0.9,11.2,0,0.00123676
0.9,11.3,0,0.00115847
0.9,11.4,0,0.00107854
0.9,11.5,0,0.000998612
0.9,11.6,0,0.000917548
0.9,11.7,0,0.000836106
0.9,11.8,0,0.00075418
0.9,11.9,0,0.000671527
0.9,12,0,0.000588829
0.9,12.1,0,0.000505262
0.9,12.2,0,0.000421695
0.9,12.3,0,0.000337685
0.9,12.4,0,0.000253486
0.9,12.5,0,0.000169155
0.9,12.6,0,8.45773e-05
0.9,12.7,0,0
1,0,0,0
1,0.1,0,6.48337e-05
1,0.2,0,0.000129402
1,0.3,0,0.000194071
1,0.4,0,0.000258874
1,0.5,0,0.000323342
1,0.6,0,0.000387731
1,0.7,0,0.000452463
1,0.8,0,0.000516705
1,0.9,0,0.00058075
1,1,0,0.000644945
1,1.1,0,0.000709107
1,1.2,0,0.000772687
1,1.3,0,0.000836204
1,1.4,0,0.000900226
1,1.5,0,0.000963168
1,1.6,0,0.00102594
1,1.7,0,0.00108894
1,1.8,0,0.00115172
1,1.9,0,0.00121356
1,2,0,0.00127535
1,2.1,0,0.00133788
1,2.2,0,0.00139854
1,2.3,0,0.00145906
1,2.4,0,0.0015199
1,2.5,0,0.00158027
1,2.6,0,0.00163923
1,2.7,0,0.00169816
1,2.8,0,0.00175814
1,2.9,0,0.00181516
1,3,0,0.00187211
1,3.1,0,0.00192951
1,3.2,0,0.00198606
1,3.3,0,0.00204062
1,3.4,0,0.00209518
1,3.5,0,0.00215116
1,3.6,0,0.00220277
1,3.7,0,0.00225445
1,3.8,0,0.00230671
1,3.9,0,0.00235763
1,4,0,0.00240585
1,4.1,0,0.00245413
1,4.2,0,0.00250425
1,4.3,0,0.00254828
1,4.4,0,0.00259259
1,4.5,0,0.00263763
1,4.6,0,0.00268071
1,4.7,0,0.00272031
1,4.8,0,0.00276007
1,4.9,0,0.00280203
1,5,0,0.00283609
1,5.1,0,0.00287069
1,5.2,0,0.00290611
1,5.3,0,0.00293891
1,5.4,0,0.00296754
1,5.5,0,0.00299639
1,5.6,0,0.00302758
1,5.7,0,0.00304942
1,5.8,0,0.00307196
1,5.9,0,0.00309532
1,6,0,0.00311544
1,6.1,0,0.00313091
1,6.2,0,0.00314666
1,6.3,0,0.00316448
1,6.4,0,0.00317221
1,6.5,0,0.00318079
1,6.6,0,0.00319004
1,6.7,0,0.00319549
1,6.8,0,0.00319659
1,6.9,0,0.00319815
1,7,0,0.00320155
1,7.1,0,0.00319612
1,7.2,0,0.00318991
1,7.3,0,0.00318136
1,7.4,0,0.00317047
1,7.5,0,0.00315723
1,7.6,0,0.00314164
1,7.7,0,0.00312371
1,7.8,0,0.00310343
1,7.9,0,0.00308082
1,8,0,0.00304721
1,8.1,0,0.00302155
1,8.2,0,0.00299671
1,8.3,0,0.00296345
1,8.4,0,0.00292972
1,8.5,0,0.00289505
1,8.6,0,0.00285506
1,8.7,0,0.0028183
1,8.8,0,0.00277212
1,8.9,0,0.00272904
1,9,0,0.00268116
1,9.1,0,0.00263292
1,9.2,0,0.00258417
1,9.3,0,0.00252982
1,9.4,0,0.00247884
1,9.5,0,0.00241956
1,9.6,0,0.00236298
1,9.7,0,0.00230251
1,9.8,0,0.00224173
1,9.9,0,0.00218096
1,10,0,0.0021146
1,10.1,0,0.00205148
1,10.2,0,0.00198172
1,10.3,0,0.00191403
1,10.4,0,0.00184359
1,10.5,0,0.00177266
1,10.6,0,0.00170215
1,10.7,0,0.00162669
1,10.8,0,0.00155393
1,10.9,0,0.00147646
1,11,0,0.00140047
1,11.1,0,0.00132267
1,11.2,0,0.00124425
1,11.3,0,0.00116641
1,11.4,0,0.00108487
1,11.5,0,0.00100525
1,11.6,0,0.000922723
1,11.7,0,0.000841281
1,11.8,0,0.000758565
1,11.9,0,0.000675557
1,12,0,0.000592873
1,12.1,0,0.000508156
1,12.2,0,0.000424547
1,12.3,0,0.000339451
1,12.4,0,0.000255252
1,12.5,0,0.000170044
1,12.6,0,8.52087e-05
1,12.7,0,0
1.1,0,0,0
1.1,0.1,0,6.49097e-05
1.1,0.2,0,0.000129688
1.1,0.3,0,0.000194622
1.1,0.4,0,0.000259425
1.1,0.5,0,0.000324097
1.1,0.6,0,0.000388748
1.1,0.7,0,0.000453579
1.1,0.8,0,0.000517876
1.1,0.9,0,0.000582091
1.1,1,0,0.000646671
1.1,1.1,0,0.000710834
1.1,1.2,0,0.000774579
1.1,1.3,0,0.00083847
1.1,1.4,0,0.000902637
1.1,1.5,0,0.000965626
1.1,1.6,0,0.00102856
1.1,1.7,0,0.00109213
1.1,1.8,0,0.00115491
1.1,1.9,0,0.0012169
1.1,2,0,0.00127923
1.1,2.1,0,0.00134197
1.1,2.2,0,0.00140267
1.1,2.3,0,0.00146335
1.1,2.4,0,0.00152501
1.1,2.5,0,0.00158538
1.1,2.6,0,0.00164445
1.1,2.7,0,0.00170413
1.1,2.8,0,0.00176441
1.1,2.9,0,0.00182145
1.1,3,0,0.00187854
1.1,3.1,0,0.00193708
1.1,3.2,0,0.00199364
1.1,3.3,0,0.00204821
1.1,3.4,0,0.00210379
1.1,3.5,0,0.00216018
1.1,3.6,0,0.00221178
1.1,3.7,0,0.00226353
1.1,3.8,0,0.00231731
1.1,3.9,0,0.00236823