x,y,z,p
0,0,0,0.0113107
0,0.1,0,0.024985
0,0.2,0,0.0386594
0,0.3,0,0.0546476
0,0.4,0,0.0729497
0,0.5,0,0.0912518
0,0.6,0,0.1096
0,0.7,0,0.127947
0,0.8,0,0.146331
0,0.9,0,0.164751
0,1,0,0.183171
0,1.1,0,0.201643
0,1.2,0,0.220114
0,1.3,0,0.238601
0,1.4,0,0.257105
0,1.5,0,0.275609
0,1.6,0,0.294124
0,1.7,0,0.312638
0,1.8,0,0.331144
0,1.9,0,0.349639
0,2,0,0.368135
0,2.1,0,0.38654
0,2.2,0,0.404945
0,2.3,0,0.423255
0,2.4,0,0.441471
0,2.5,0,0.459686
0,2.6,0,0.477632
0,2.7,0,0.495579
0,2.8,0,0.513393
0,2.9,0,0.531074
0,3,0,0.548755
0,3.1,0,0.566201
0,3.2,0,0.583648
0,3.3,0,0.600809
0,3.4,0,0.617684
0,3.5,0,0.634559
0,3.6,0,0.650325
0,3.7,0,0.66609
0,3.8,0,0.681407
0,3.9,0,0.696276
0,4,0,0.711144
0,4.1,0,0.725891
0,4.2,0,0.740638
0,4.3,0,0.755125
0,4.4,0,0.769354
0,4.5,0,0.783581
0,4.6,0,0.794903
0,4.7,0,0.806225
0,4.8,0,0.815158
0,4.9,0,0.821702
0,5,0,0.828246
0,5.1,0,0.835913
0,5.2,0,0.840766
0,5.3,0,0.844359
0,5.4,0,0.846629
0,5.5,0,0.847431
0,5.6,0,0.846679
0,5.7,0,0.844361
0,5.8,0,0.840622
0,5.9,0,0.835795
0,6,0,0.82769
0,6.1,0,0.821163
0,6.2,0,0.814636
0,6.3,0,0.808109
0,6.4,0,0.798303
0,6.5,0,0.786733
0,6.6,0,0.775163
0,6.7,0,0.762839
0,6.8,0,0.748755
0,6.9,0,0.734671
0,7,0,0.720587
0,7.1,0,0.706554
0,7.2,0,0.692523
0,7.3,0,0.678493
0,7.4,0,0.665134
0,7.5,0,0.652223
0,7.6,0,0.639312
0,7.7,0,0.626451
0,7.8,0,0.613737
0,7.9,0,0.601023
0,8,0,0.588309
0,8.1,0,0.575228
0,8.2,0,0.562106
0,8.3,0,0.548985
0,8.4,0,0.53567
0,8.5,0,0.522196
0,8.6,0,0.508722
0,8.7,0,0.495151
0,8.8,0,0.481188
0,8.9,0,0.467225
0,9,0,0.453262
0,9.1,0,0.439022
0,9.2,0,0.424733
0,9.3,0,0.410444
0,9.4,0,0.396213
0,9.5,0,0.38204
0,9.6,0,0.367867
0,9.7,0,0.353764
0,9.8,0,0.340061
0,9.9,0,0.326357
0,10,0,0.312654
0,10.1,0,0.299403
0,10.2,0,0.286265
0,10.3,0,0.273127
0,10.4,0,0.260249
0,10.5,0,0.247688
0,10.6,0,0.235128
0,10.7,0,0.22262
0,10.8,0,0.210595
0,10.9,0,0.198569
0,11,0,0.186543
0,11.1,0,0.17487
0,11.2,0,0.163314
0,11.3,0,0.151758
0,11.4,0,0.140358
0,11.5,0,0.129194
0,11.6,0,0.11803
0,11.7,0,0.10688
0,11.8,0,0.0960167
0,11.9,0,0.0851531
0,12,0,0.0742895
0,12.1,0,0.0635717
0,12.2,0,0.0529163
0,12.3,0,0.0422609
0,12.4,0,0.0325534
0,12.5,0,0.0246062
0,12.6,0,0.016659
0,12.7,0,0.00871174
0.1,0,0,0.00678642
0.1,0.1,0,0.0203593
0.1,0.2,0,0.0363112
0.1,0.3,0,0.0546113
0.1,0.4,0,0.0729477
0.1,0.5,0,0.0910839
0.1,0.6,0,0.109556
0.1,0.7,0,0.127815
0.1,0.8,0,0.146206
0.1,0.9,0,0.164722
0.1,1,0,0.182938
0.1,1.1,0,0.201621
0.1,1.2,0,0.220014
0.1,1.3,0,0.238508
0.1,1.4,0,0.257095
0.1,1.5,0,0.27559
0.1,1.6,0,0.294123
0.1,1.7,0,0.312774
0.1,1.8,0,0.33129
0.1,1.9,0,0.34966
0.1,2,0,0.368847
0.1,2.1,0,0.386609
0.1,2.2,0,0.405625
0.1,2.3,0,0.42396
0.1,2.4,0,0.441591
0.1,2.5,0,0.46165
0.1,2.6,0,0.477781
0.1,2.7,0,0.496976
0.1,2.8,0,0.514774
0.1,2.9,0,0.53119
0.1,3,0,0.55193
0.1,3.1,0,0.56632
0.1,3.2,0,0.58539
0.1,3.3,0,0.602718
0.1,3.4,0,0.618137
0.1,3.5,0,0.637782
0.1,3.6,0,0.650981
0.1,3.7,0,0.667776
0.1,3.8,0,0.682885
0.1,3.9,0,0.696516
0.1,4,0,0.712506
0.1,4.1,0,0.725772
0.1,4.2,0,0.739905
0.1,4.3,0,0.754771
0.1,4.4,0,0.769992
0.1,4.5,0,0.778644
0.1,4.6,0,0.797171
0.1,4.7,0,0.803644
0.1,4.8,0,0.812697
0.1,4.9,0,0.824212
0.1,5,0,0.820084
0.1,5.1,0,0.827443
0.1,5.2,0,0.831848
0.1,5.3,0,0.83494
0.1,5.4,0,0.836671
0.1,5.5,0,0.83694
0.1,5.6,0,0.835695
0.1,5.7,0,0.83295
0.1,5.8,0,0.828858
0.1,5.9,0,0.823774
0.1,6,0,0.815428
0.1,6.1,0,0.821148
0.1,6.2,0,0.818784
0.1,6.3,0,0.801858
0.1,6.4,0,0.794457
0.1,6.5,0,0.789342
0.1,6.6,0,0.774478
0.1,6.7,0,0.759682
0.1,6.8,0,0.749365
0.1,6.9,0,0.735642
0.1,7,0,0.722286
0.1,7.1,0,0.706469
0.1,7.2,0,0.691691
0.1,7.3,0,0.682586
0.1,7.4,0,0.668253
0.1,7.5,0,0.651555
0.1,7.6,0,0.642249
0.1,7.7,0,0.632642
0.1,7.8,0,0.614618
0.1,7.9,0,0.602459
0.1,8,0,0.594045
0.1,8.1,0,0.577348
0.1,8.2,0,0.562249
0.1,8.3,0,0.551568
0.1,8.4,0,0.538055
0.1,8.5,0,0.522525
0.1,8.6,0,0.509624
0.1,8.7,0,0.496689
0.1,8.8,0,0.481663
0.1,8.9,0,0.467589
0.1,9,0,0.453823
0.1,9.1,0,0.439308
0.1,9.2,0,0.424844
0.1,9.3,0,0.410574
0.1,9.4,0,0.396202
0.1,9.5,0,0.381773
0.1,9.6,0,0.367701
0.1,9.7,0,0.353731
0.1,9.8,0,0.339751
0.1,9.9,0,0.326027
0.1,10,0,0.312556
0.1,10.1,0,0.299146
0.1,10.2,0,0.28587
0.1,10.3,0,0.272911
0.1,10.4,0,0.260061
0.1,10.5,0,0.247311
0.1,10.6,0,0.234834
0.1,10.7,0,0.222483
0.1,10.8,0,0.210295
0.1,10.9,0,0.198244
0.1,11,0,0.186372
0.1,11.1,0,0.174649
0.1,11.2,0,0.163023
0.1,11.3,0,0.151559
0.1,11.4,0,0.140201
0.1,11.5,0,0.12896
0.1,11.6,0,0.117834
0.1,11.7,0,0.106776
0.1,11.8,0,0.0958624
0.1,11.9,0,0.0849873
0.1,12,0,0.0741977
0.1,12.1,0,0.0634809
0.1,12.2,0,0.0528061
0.1,12.3,0,0.0421893
0.1,12.4,0,0.0316082
0.1,12.5,0,0.0210875
0.1,12.6,0,0.0131489
0.1,12.7,0,0.00522704
0.2,0,0,0.00226214
0.2,0.1,0,0.0181126
0.2,0.2,0,0.0362406
0.2,0.3,0,0.0545407
0.2,0.4,0,0.0727455
0.2,0.5,0,0.090916
0.2,0.6,0,0.109299
0.2,0.7,0,0.127594
0.2,0.8,0,0.145985
0.2,0.9,0,0.164392
0.2,1,0,0.182704
0.2,1.1,0,0.201309
0.2,1.2,0,0.219838
0.2,1.3,0,0.238331
0.2,1.4,0,0.256993
0.2,1.5,0,0.275571
0.2,1.6,0,0.294241
0.2,1.7,0,0.313047
0.2,1.8,0,0.331564
0.2,1.9,0,0.350498
0.2,2,0,0.36956
0.2,2.1,0,0.387932
0.2,2.2,0,0.406915
0.2,2.3,0,0.42525
0.2,2.4,0,0.444139
0.2,2.5,0,0.463614
0.2,2.6,0,0.480994
0.2,2.7,0,0.499622
0.2,2.8,0,0.51742
0.2,2.9,0,0.53563
0.2,3,0,0.555106
0.2,3.1,0,0.571119
0.2,3.2,0,0.588756
0.2,3.3,0,0.606084
0.2,3.4,0,0.622816
0.2,3.5,0,0.641004
0.2,3.6,0,0.655233
0.2,3.7,0,0.67049
0.2,3.8,0,0.685599
0.2,3.9,0,0.699115
0.2,4,0,0.713868
0.2,4.1,0,0.72652
0.2,4.2,0,0.738558
0.2,4.3,0,0.753424
0.2,4.4,0,0.764062
0.2,4.5,0,0.773707
0.2,4.6,0,0.787385
0.2,4.7,0,0.796213
0.2,4.8,0,0.805267
0.2,4.9,0,0.811079
0.2,5,0,0.811922
0.2,5.1,0,0.818972
0.2,5.2,0,0.82293
0.2,5.3,0,0.825522
0.2,5.4,0,0.826712
0.2,5.5,0,0.826449
0.2,5.6,0,0.824711
0.2,5.7,0,0.821538
0.2,5.8,0,0.817094
0.2,5.9,0,0.811754
0.2,6,0,0.803166
0.2,6.1,0,0.805419
0.2,6.2,0,0.800634
0.2,6.3,0,0.79193
0.2,6.4,0,0.78453
0.2,6.5,0,0.777271
0.2,6.6,0,0.76991
0.2,6.7,0,0.755395
0.2,6.8,0,0.745536
0.2,6.9,0,0.735947
0.2,7,0,0.724023
0.2,7.1,0,0.709672
0.2,7.2,0,0.698964
0.2,7.3,0,0.688774
0.2,7.4,0,0.674441
0.2,7.5,0,0.662096
0.2,7.6,0,0.650178
0.2,7.7,0,0.640162
0.2,7.8,0,0.624632
0.2,7.9,0,0.610908
0.2,8,0,0.60021
0.2,8.1,0,0.584145
0.2,8.2,0,0.56927
0.2,8.3,0,0.555384
0.2,8.4,0,0.541871
0.2,8.5,0,0.526728
0.2,8.6,0,0.511713
0.2,8.7,0,0.498439
0.2,8.8,0,0.483518
0.2,8.9,0,0.468689
0.2,9,0,0.454412
0.2,9.1,0,0.439902
0.2,9.2,0,0.425278
0.2,9.3,0,0.410715
0.2,9.4,0,0.396343
0.2,9.5,0,0.382036
0.2,9.6,0,0.367764
0.2,9.7,0,0.35374
0.2,9.8,0,0.339871
0.2,9.9,0,0.326122
0.2,10,0,0.312504
0.2,10.1,0,0.299124
0.2,10.2,0,0.285956
0.2,10.3,0,0.272818
0.2,10.4,0,0.259969
0.2,10.5,0,0.247344
0.2,10.6,0,0.234761
0.2,10.7,0,0.222361
0.2,10.8,0,0.210239
0.2,10.9,0,0.198205
0.2,11,0,0.18624
0.2,11.1,0,0.174526
0.2,11.2,0,0.162976
0.2,11.3,0,0.151435
0.2,11.4,0,0.140077
0.2,11.5,0,0.128903
0.2,11.6,0,0.117755
0.2,11.7,0,0.106674
0.2,11.8,0,0.0957883
0.2,11.9,0,0.084949
0.2,12,0,0.0741281
0.2,12.1,0,0.0634129
0.2,12.2,0,0.0527831
0.2,12.3,0,0.0421539
0.2,12.4,0,0.0315729
0.2,12.5,0,0.0210434
0.2,12.6,0,0.010522
0.2,12.7,0,0.00174235
0.3,0,0,0
0.3,0.1,0,0.0180999
0.3,0.2,0,0.036228
0.3,0.3,0,0.0542711
0.3,0.4,0,0.0724758
0.3,0.5,0,0.0906714
0.3,0.6,0,0.108897
0.3,0.7,0,0.127192
0.3,0.8,0,0.145503
0.3,0.9,0,0.163911
0.3,1,0,0.182369
0.3,1.1,0,0.200856
0.3,1.2,0,0.219384
0.3,1.3,0,0.238076
0.3,1.4,0,0.256738
0.3,1.5,0,0.27556
0.3,1.6,0,0.294421
0.3,1.7,0,0.313228
0.3,1.8,0,0.332475
0.3,1.9,0,0.35141
0.3,2,0,0.370464
0.3,2.1,0,0.38987
0.3,2.2,0,0.408853
0.3,2.3,0,0.428471
0.3,2.4,0,0.447361
0.3,2.5,0,0.465871
0.3,2.6,0,0.485628
0.3,2.7,0,0.504256
0.3,2.8,0,0.52337
0.3,2.9,0,0.54158
0.3,3,0,0.558594
0.3,3.1,0,0.57787
0.3,3.2,0,0.595507
0.3,3.3,0,0.612797
0.3,3.4,0,0.629529
0.3,3.5,0,0.64464
0.3,3.6,0,0.661411
0.3,3.7,0,0.676668
0.3,3.8,0,0.69028
0.3,3.9,0,0.703795
0.3,4,0,0.71582
0.3,4.1,0,0.727288
0.3,4.2,0,0.739326
0.3,4.3,0,0.74727
0.3,4.4,0,0.757908
0.3,4.5,0,0.770385
0.3,4.6,0,0.773791
0.3,4.7,0,0.782619
0.3,4.8,0,0.789138
0.3,4.9,0,0.794951
0.3,5,0,0.806413
0.3,5.1,0,0.813328
0.3,5.2,0,0.81703
0.3,5.3,0,0.819334
0.3,5.4,0,0.82023
0.3,5.5,0,0.819688
0.3,5.6,0,0.817707
0.3,5.7,0,0.814335
0.3,5.8,0,0.809713
0.3,5.9,0,0.804167
0.3,6,0,0.795121
0.3,6.1,0,0.780615
0.3,6.2,0,0.77583
0.3,6.3,0,0.775549
0.3,6.4,0,0.769855
0.3,6.5,0,0.762366
0.3,6.6,0,0.755005
0.3,6.7,0,0.75247
0.3,6.8,0,0.743292
0.3,6.9,0,0.733703
0.3,7,0,0.725366
0.3,7.1,0,0.718861
0.3,7.2,0,0.708153
0.3,7.3,0,0.696578
0.3,7.4,0,0.688982
0.3,7.5,0,0.677662
0.3,7.6,0,0.665744
0.3,7.7,0,0.650027
0.3,7.8,0,0.639144
0.3,7.9,0,0.62542
0.3,8,0,0.607548
0.3,8.1,0,0.594296
0.3,8.2,0,0.579421
0.3,8.3,0,0.563514
0.3,8.4,0,0.546786
0.3,8.5,0,0.531844
0.3,8.6,0,0.516828
0.3,8.7,0,0.500336
0.3,8.8,0,0.485404
0.3,8.9,0,0.470575
0.3,9,0,0.455253
0.3,9.1,0,0.440374
0.3,9.2,0,0.425751
0.3,9.3,0,0.411054
0.3,9.4,0,0.3964
0.3,9.5,0,0.38213
0.3,9.6,0,0.367858
0.3,9.7,0,0.353542
0.3,9.8,0,0.339813
0.3,9.9,0,0.326064
0.3,10,0,0.312275
0.3,10.1,0,0.298976
0.3,10.2,0,0.285808
0.3,10.3,0,0.272638
0.3,10.4,0,0.259713
0.3,10.5,0,0.247122
0.3,10.6,0,0.23454
0.3,10.7,0,0.22204
0.3,10.8,0,0.209974
0.3,10.9,0,0.197941
0.3,11,0,0.185944
0.3,11.1,0,0.174261
0.3,11.2,0,0.162711
0.3,11.3,0,0.151169
0.3,11.4,0,0.139828
0.3,11.5,0,0.128671
0.3,11.6,0,0.117523
0.3,11.7,0,0.106458
0.3,11.8,0,0.0956117
0.3,11.9,0,0.0847724
0.3,12,0,0.0739672
0.3,12.1,0,0.0633112
0.3,12.2,0,0.0526813
0.3,12.3,0,0.042053
0.3,12.4,0,0.0315168
0.3,12.5,0,0.0210037
0.3,12.6,0,0.0104823
0.3,12.7,0,0
0.4,0,0,0
0.4,0.1,0,0.0180718
0.4,0.2,0,0.0360699
0.4,0.3,0,0.0541129
0.4,0.4,0,0.0721638
0.4,0.5,0,0.0903502
0.4,0.6,0,0.108507
0.4,0.7,0,0.126769
0.4,0.8,0,0.14508
0.4,0.9,0,0.163424
0.4,1,0,0.181934
0.4,1.1,0,0.20038
0.4,1.2,0,0.219078
0.4,1.3,0,0.23777
0.4,1.4,0,0.256575
0.4,1.5,0,0.275557
0.4,1.6,0,0.294472
0.4,1.7,0,0.313703
0.4,1.8,0,0.332951
0.4,1.9,0,0.352388
0.4,2,0,0.371559
0.4,2.1,0,0.39139
0.4,2.2,0,0.410659
0.4,2.3,0,0.430277
0.4,2.4,0,0.450291
0.4,2.5,0,0.468422
0.4,2.6,0,0.489307
0.4,2.7,0,0.507513
0.4,2.8,0,0.526626
0.4,2.9,0,0.546579
0.4,3,0,0.562396
0.4,3.1,0,0.583311
0.4,3.2,0,0.599572
0.4,3.3,0,0.616862
0.4,3.4,0,0.635199
0.4,3.5,0,0.648688
0.4,3.6,0,0.666972
0.4,3.7,0,0.680337
0.4,3.8,0,0.693949
0.4,3.9,0,0.707828
0.4,4,0,0.718361
0.4,4.1,0,0.729259
0.4,4.2,0,0.739759
0.4,4.3,0,0.747703
0.4,4.4,0,0.75436
0.4,4.5,0,0.768676
0.4,4.6,0,0.766661
0.4,4.7,0,0.779885
0.4,4.8,0,0.786404
0.4,4.9,0,0.786446
0.4,5,0,0.803559
0.4,5.1,0,0.81051
0.4,5.2,0,0.814148
0.4,5.3,0,0.816378
0.4,5.4,0,0.817223
0.4,5.5,0,0.816657
0.4,5.6,0,0.814684
0.4,5.7,0,0.811342
0.4,5.8,0,0.806713
0.4,5.9,0,0.801015
0.4,6,0,0.791292
0.4,6.1,0,0.771998
0.4,6.2,0,0.761994
0.4,6.3,0,0.771139
0.4,6.4,0,0.765446
0.4,6.5,0,0.754072
0.4,6.6,0,0.752111
0.4,6.7,0,0.749807
0.4,6.8,0,0.741327
0.4,6.9,0,0.734465
0.4,7,0,0.726896
0.4,7.1,0,0.722081
0.4,7.2,0,0.715451
0.4,7.3,0,0.701893
0.4,7.4,0,0.694297
0.4,7.5,0,0.688962
0.4,7.6,0,0.673025
0.4,7.7,0,0.656707
0.4,7.8,0,0.649746
0.4,7.9,0,0.63454
0.4,8,0,0.61354
0.4,8.1,0,0.601055
0.4,8.2,0,0.586888
0.4,8.3,0,0.567687
0.4,8.4,0,0.550959
0.4,8.5,0,0.536094
0.4,8.6,0,0.519167
0.4,8.7,0,0.50239
0.4,8.8,0,0.487341
0.4,8.9,0,0.471519
0.4,9,0,0.455744
0.4,9.1,0,0.440842
0.4,9.2,0,0.425877
0.4,9.3,0,0.410806
0.4,9.4,0,0.396151
0.4,9.5,0,0.381863
0.4,9.6,0,0.367407
0.4,9.7,0,0.353056
0.4,9.8,0,0.339344
0.4,9.9,0,0.325558
0.4,10,0,0.311724
0.4,10.1,0,0.298425
0.4,10.2,0,0.285256
0.4,10.3,0,0.27208
0.4,10.4,0,0.259155
0.4,10.5,0,0.246541
0.4,10.6,0,0.233989
0.4,10.7,0,0.221501
0.4,10.8,0,0.209411
0.4,10.9,0,0.197394
0.4,11,0,0.185449
0.4,11.1,0,0.173762
0.4,11.2,0,0.162203
0.4,11.3,0,0.150743
0.4,11.4,0,0.139402
0.4,11.5,0,0.128226
0.4,11.6,0,0.117159
0.4,11.7,0,0.106124
0.4,11.8,0,0.0952727
0.4,11.9,0,0.0844876
0.4,12,0,0.0737405
0.4,12.1,0,0.0630849
0.4,12.2,0,0.0524943
0.4,12.3,0,0.0419405
0.4,12.4,0,0.0314043
0.4,12.5,0,0.0209092
0.4,12.6,0,0.0104631
0.4,12.7,0,0
0.5,0,0,0
0.5,0.1,0,0.0179699
0.5,0.2,0,0.0359399
0.5,0.3,0,0.0539456
0.5,0.4,0,0.0719873
0.5,0.5,0,0.0900289
0.5,0.6,0,0.108221
0.5,0.7,0,0.126414
0.5,0.8,0,0.144708
0.5,0.9,0,0.163103
0.5,1,0,0.181499
0.5,1.1,0,0.200156
0.5,1.2,0,0.218814
0.5,1.3,0,0.237625
0.5,1.4,0,0.256589
0.5,1.5,0,0.275554
0.5,1.6,0,0.294839
0.5,1.7,0,0.314124
0.5,1.8,0,0.333545
0.5,1.9,0,0.3531
0.5,2,0,0.372655
0.5,2.1,0,0.392348
0.5,2.2,0,0.412041
0.5,2.3,0,0.431705
0.5,2.4,0,0.451339
0.5,2.5,0,0.470973
0.5,2.6,0,0.490307
0.5,2.7,0,0.509641
0.5,2.8,0,0.528686
0.5,2.9,0,0.547442
0.5,3,0,0.566199
0.5,3.1,0,0.584098
0.5,3.2,0,0.601998
0.5,3.3,0,0.619306
0.5,3.4,0,0.636021
0.5,3.5,0,0.652737
0.5,3.6,0,0.667615
0.5,3.7,0,0.682493
0.5,3.8,0,0.696126
0.5,3.9,0,0.708514
0.5,4,0,0.720902
0.5,4.1,0,0.730832
0.5,4.2,0,0.740762
0.5,4.3,0,0.749975
0.5,4.4,0,0.758472
0.5,4.5,0,0.766968
0.5,4.6,0,0.774771
0.5,4.7,0,0.782573
0.5,4.8,0,0.78932
0.5,4.9,0,0.795012
0.5,5,0,0.800704
0.5,5.1,0,0.807692
0.5,5.2,0,0.811266
0.5,5.3,0,0.813421
0.5,5.4,0,0.814215
0.5,5.5,0,0.813626
0.5,5.6,0,0.81166
0.5,5.7,0,0.808347
0.5,5.8,0,0.803713
0.5,5.9,0,0.797863
0.5,6,0,0.787463
0.5,6.1,0,0.782245
0.5,6.2,0,0.777026
0.5,6.3,0,0.771808
0.5,6.4,0,0.766044
0.5,6.5,0,0.759986
0.5,6.6,0,0.753928
0.5,6.7,0,0.747749
0.5,6.8,0,0.741289
0.5,6.9,0,0.73483
0.5,7,0,0.72837
0.5,7.1,0,0.720558
0.5,7.2,0,0.712675
0.5,7.3,0,0.704793
0.5,7.4,0,0.6951
0.5,7.5,0,0.684201
0.5,7.6,0,0.673301
0.5,7.7,0,0.661568
0.5,7.8,0,0.64733
0.5,7.9,0,0.633093
0.5,8,0,0.618855
0.5,8.1,0,0.602823
0.5,8.2,0,0.586591
0.5,8.3,0,0.570359
0.5,8.4,0,0.553926
0.5,8.5,0,0.537329
0.5,8.6,0,0.520732
0.5,8.7,0,0.504255
0.5,8.8,0,0.488259
0.5,8.9,0,0.472263
0.5,9,0,0.456267
0.5,9.1,0,0.440969
0.5,9.2,0,0.425794
0.5,9.3,0,0.410619
0.5,9.4,0,0.395807
0.5,9.5,0,0.381358
0.5,9.6,0,0.366909
0.5,9.7,0,0.352558
0.5,9.8,0,0.33876
0.5,9.9,0,0.324963
0.5,10,0,0.311165
0.5,10.1,0,0.297867
0.5,10.2,0,0.284694
0.5,10.3,0,0.27152
0.5,10.4,0,0.258619
0.5,10.5,0,0.246051
0.5,10.6,0,0.233483
0.5,10.7,0,0.220971
0.5,10.8,0,0.20897
0.5,10.9,0,0.196969
0.5,11,0,0.184968
0.5,11.1,0,0.173345
0.5,11.2,0,0.161847
0.5,11.3,0,0.150349
0.5,11.4,0,0.139018
0.5,11.5,0,0.127938
0.5,11.6,0,0.116858
0.5,11.7,0,0.105794
0.5,11.8,0,0.095035
0.5,11.9,0,0.0842762
0.5,12,0,0.0735173
0.5,12.1,0,0.0629084
0.5,12.2,0,0.0523639
0.5,12.3,0,0.0418193
0.5,12.4,0,0.0313122
0.5,12.5,0,0.0208748
0.5,12.6,0,0.0104374
0.5,12.7,0,0
0.6,0,0,0
0.6,0.1,0,0.017855
0.6,0.2,0,0.035854
0.6,0.3,0,0.0537638
0.6,0.4,0,0.0716804
0.6,0.5,0,0.0899172
0.6,0.6,0,0.107764
0.6,0.7,0,0.126105
0.6,0.8,0,0.14435
0.6,0.9,0,0.162549
0.6,1,0,0.181331
0.6,1.1,0,0.199642
0.6,1.2,0,0.218501
0.6,1.3,0,0.237415
0.6,1.4,0,0.25628
0.6,1.5,0,0.275552
0.6,1.6,0,0.294888
0.6,1.7,0,0.314213
0.6,1.8,0,0.333855
0.6,1.9,0,0.353591
0.6,2,0,0.372906
0.6,2.1,0,0.393251
0.6,2.2,0,0.41268
0.6,2.3,0,0.432502
0.6,2.4,0,0.452559
0.6,2.5,0,0.471511
0.6,2.6,0,0.491735
0.6,2.7,0,0.510748
0.6,2.8,0,0.529874
0.6,2.9,0,0.549033
0.6,3,0,0.567338
0.6,3.1,0,0.585872
0.6,3.2,0,0.60368
0.6,3.3,0,0.621203
0.6,3.4,0,0.638226
0.6,3.5,0,0.654838
0.6,3.6,0,0.670551
0.6,3.7,0,0.68529
0.6,3.8,0,0.699143
0.6,3.9,0,0.711888
0.6,4,0,0.72426
0.6,4.1,0,0.734632
0.6,4.2,0,0.744928
0.6,4.3,0,0.754617
0.6,4.4,0,0.763224
0.6,4.5,0,0.773291
0.6,4.6,0,0.783627
0.6,4.7,0,0.791027
0.6,4.8,0,0.799367
0.6,4.9,0,0.807054
0.6,5,0,0.809671
0.6,5.1,0,0.816986
0.6,5.2,0,0.820823
0.6,5.3,0,0.823268
0.6,5.4,0,0.824335
0.6,5.5,0,0.823972
0.6,5.6,0,0.822172
0.6,5.7,0,0.818948
0.6,5.8,0,0.814319
0.6,5.9,0,0.80836
0.6,6,0,0.797407
0.6,6.1,0,0.79743
0.6,6.2,0,0.793994
0.6,6.3,0,0.781723
0.6,6.4,0,0.772886
0.6,6.5,0,0.766213
0.6,6.6,0,0.758922
0.6,6.7,0,0.750758
0.6,6.8,0,0.74218
0.6,6.9,0,0.735723
0.6,7,0,0.729567
0.6,7.1,0,0.721107
0.6,7.2,0,0.712951
0.6,7.3,0,0.704968
0.6,7.4,0,0.695294
0.6,7.5,0,0.684472
0.6,7.6,0,0.673319
0.6,7.7,0,0.661478
0.6,7.8,0,0.648096
0.6,7.9,0,0.633756
0.6,8,0,0.618772
0.6,8.1,0,0.603532
0.6,8.2,0,0.587724
0.6,8.3,0,0.570856
0.6,8.4,0,0.55435
0.6,8.5,0,0.538111
0.6,8.6,0,0.521237
0.6,8.7,0,0.50428
0.6,8.8,0,0.487935
0.6,8.9,0,0.471882
0.6,9,0,0.455843
0.6,9.1,0,0.440098
0.6,9.2,0,0.424669
0.6,9.3,0,0.409624
0.6,9.4,0,0.394706
0.6,9.5,0,0.37995
0.6,9.6,0,0.365589
0.6,9.7,0,0.35136
0.6,9.8,0,0.337355
0.6,9.9,0,0.323541
0.6,10,0,0.309905
0.6,10.1,0,0.296542
0.6,10.2,0,0.283304
0.6,10.3,0,0.270256
0.6,10.4,0,0.257407
0.6,10.5,0,0.244767
0.6,10.6,0,0.232272
0.6,10.7,0,0.219904
0.6,10.8,0,0.20784
0.6,10.9,0,0.195839
0.6,11,0,0.184011
0.6,11.1,0,0.172394
0.6,11.2,0,0.160868
0.6,11.3,0,0.149496
0.6,11.4,0,0.138256
0.6,11.5,0,0.127152
0.6,11.6,0,0.116132
0.6,11.7,0,0.105217
0.6,11.8,0,0.0944607
0.6,11.9,0,0.083708
0.6,12,0,0.0730844
0.6,12.1,0,0.0625423
0.6,12.2,0,0.0520218
0.6,12.3,0,0.0415513
0.6,12.4,0,0.031137
0.6,12.5,0,0.0207648
0.6,12.6,0,0.0103553
0.6,12.7,0,0
0.7,0,0,0
0.7,0.1,0,0.0178841
0.7,0.2,0,0.0357972
0.7,0.3,0,0.053707
0.7,0.4,0,0.0716937
0.7,0.5,0,0.0898054
0.7,0.6,0,0.1078
0.7,0.7,0,0.125943
0.7,0.8,0,0.144188
0.7,0.9,0,0.162578
0.7,1,0,0.181164
0.7,1.1,0,0.199676
0.7,1.2,0,0.218389
0.7,1.3,0,0.237303
0.7,1.4,0,0.256377
0.7,1.5,0,0.275551
0.7,1.6,0,0.294926
0.7,1.7,0,0.314342
0.7,1.8,0,0.333984
0.7,1.9,0,0.353661
0.7,2,0,0.373157
0.7,2.1,0,0.393238
0.7,2.2,0,0.413054
0.7,2.3,0,0.432876
0.7,2.4,0,0.452674
0.7,2.5,0,0.472049
0.7,2.6,0,0.491952
0.7,2.7,0,0.511533
0.7,2.8,0,0.530659
0.7,2.9,0,0.549769
0.7,3,0,0.568477
0.7,3.1,0,0.586919
0.7,3.2,0,0.60527
0.7,3.3,0,0.622793
0.7,3.4,0,0.640019
0.7,3.5,0,0.656938
0.7,3.6,0,0.672513
0.7,3.7,0,0.687949
0.7,3.8,0,0.701801
0.7,3.9,0,0.714889
0.7,4,0,0.727619
0.7,4.1,0,0.738356
0.7,4.2,0,0.749459
0.7,4.3,0,0.759149
0.7,4.4,0,0.769437
0.7,4.5,0,0.779615
0.7,4.6,0,0.789548
0.7,4.7,0,0.799079
0.7,4.8,0,0.807418
0.7,4.9,0,0.814026
0.7,5,0,0.818638
0.7,5.1,0,0.82628
0.7,5.2,0,0.830381
0.7,5.3,0,0.833115
0.7,5.4,0,0.834454
0.7,5.5,0,0.83432
0.7,5.6,0,0.832684
0.7,5.7,0,0.829549
0.7,5.8,0,0.824925
0.7,5.9,0,0.818857
0.7,6,0,0.807351
0.7,6.1,0,0.805024
0.7,6.2,0,0.797923
0.7,6.3,0,0.789145
0.7,6.4,0,0.780309
0.7,6.5,0,0.77147
0.7,6.6,0,0.762593
0.7,6.7,0,0.754403
0.7,6.8,0,0.746016
0.7,6.9,0,0.737741
0.7,7,0,0.73078
0.7,7.1,0,0.722289
0.7,7.2,0,0.7136
0.7,7.3,0,0.7051
0.7,7.4,0,0.695427
0.7,7.5,0,0.684232
0.7,7.6,0,0.673007
0.7,7.7,0,0.661174
0.7,7.8,0,0.647359
0.7,7.9,0,0.633231
0.7,8,0,0.618614
0.7,8.1,0,0.60321
0.7,8.2,0,0.587226
0.7,8.3,0,0.571031
0.7,8.4,0,0.554526
0.7,8.5,0,0.53793
0.7,8.6,0,0.521273
0.7,8.7,0,0.504374
0.7,8.8,0,0.488007
0.7,8.9,0,0.471619
0.7,9,0,0.455412
0.7,9.1,0,0.439695
0.7,9.2,0,0.424156
0.7,9.3,0,0.408705
0.7,9.4,0,0.393788
0.7,9.5,0,0.379123
0.7,9.6,0,0.364488
0.7,9.7,0,0.350193
0.7,9.8,0,0.336266
0.7,9.9,0,0.322422
0.7,10,0,0.308676
0.7,10.1,0,0.295335
0.7,10.2,0,0.2822
0.7,10.3,0,0.26908
0.7,10.4,0,0.25623
0.7,10.5,0,0.243711
0.7,10.6,0,0.231229
0.7,10.7,0,0.218843
0.7,10.8,0,0.206853
0.7,10.9,0,0.194961
0.7,11,0,0.183096
0.7,11.1,0,0.171493
0.7,11.2,0,0.160117
0.7,11.3,0,0.148744
0.7,11.4,0,0.137504
0.7,11.5,0,0.126512
0.7,11.6,0,0.115563
0.7,11.7,0,0.10464
0.7,11.8,0,0.0939352
0.7,11.9,0,0.0833141
0.7,12,0,0.072692
0.7,12.1,0,0.0621532
0.7,12.2,0,0.0517535
0.7,12.3,0,0.0413531
0.7,12.4,0,0.0309388
0.7,12.5,0,0.020623
0.7,12.6,0,0.0103336
0.7,12.7,0,0
0.8,0,0,0
0.8,0.1,0,0.017924
0.8,0.2,0,0.0358372
0.8,0.3,0,0.05379
0.8,0.4,0,0.0717767
0.8,0.5,0,0.0896579
0.8,0.6,0,0.107884
0.8,0.7,0,0.126026
0.8,0.8,0,0.144269
0.8,0.9,0,0.162658
0.8,1,0,0.180894
0.8,1.1,0,0.199734
0.8,1.2,0,0.218447
0.8,1.3,0,0.237315
0.8,1.4,0,0.25639
0.8,1.5,0,0.275253
0.8,1.6,0,0.294847
0.8,1.7,0,0.314263
0.8,1.8,0,0.33377
0.8,1.9,0,0.353447
0.8,2,0,0.372894
0.8,2.1,0,0.392925
0.8,2.2,0,0.41274
0.8,2.3,0,0.432621
0.8,2.4,0,0.452419
0.8,2.5,0,0.472029
0.8,2.6,0,0.492011
0.8,2.7,0,0.511592
0.8,2.8,0,0.5313
0.8,2.9,0,0.55041
0.8,3,0,0.569194
0.8,3.1,0,0.588327
0.8,3.2,0,0.606678
0.8,3.3,0,0.624951
0.8,3.4,0,0.642178
0.8,3.5,0,0.65897
0.8,3.6,0,0.675455
0.8,3.7,0,0.690891
0.8,3.8,0,0.705675
0.8,3.9,0,0.718762
0.8,4,0,0.731778
0.8,4.1,0,0.7432
0.8,4.2,0,0.754303
0.8,4.3,0,0.765313
0.8,4.4,0,0.775601
0.8,4.5,0,0.787834
0.8,4.6,0,0.795762
0.8,4.7,0,0.805293
0.8,4.8,0,0.814624
0.8,4.9,0,0.821231
0.8,5,0,0.829795
0.8,5.1,0,0.837786
0.8,5.2,0,0.842157
0.8,5.3,0,0.845131
0.8,5.4,0,0.846678
0.8,5.5,0,0.846696
0.8,5.6,0,0.845144
0.8,5.7,0,0.842013
0.8,5.8,0,0.837311
0.8,5.9,0,0.831061
0.8,6,0,0.818954
0.8,6.1,0,0.807945
0.8,6.2,0,0.800844
0.8,6.3,0,0.795011
0.8,6.4,0,0.785137
0.8,6.5,0,0.776168
0.8,6.6,0,0.767291
0.8,6.7,0,0.758731
0.8,6.8,0,0.749403
0.8,6.9,0,0.741128
0.8,7,0,0.732791
0.8,7.1,0,0.724578
0.8,7.2,0,0.715889
0.8,7.3,0,0.706461
0.8,7.4,0,0.696979
0.8,7.5,0,0.685967
0.8,7.6,0,0.674743
0.8,7.7,0,0.66072
0.8,7.8,0,0.647767
0.8,7.9,0,0.633638
0.8,8,0,0.617717
0.8,8.1,0,0.602868
0.8,8.2,0,0.586885
0.8,8.3,0,0.570528
0.8,8.4,0,0.554063
0.8,8.5,0,0.537548
0.8,8.6,0,0.52089
0.8,8.7,0,0.503768
0.8,8.8,0,0.487552
0.8,8.9,0,0.471164
0.8,9,0,0.454612
0.8,9.1,0,0.438824
0.8,9.2,0,0.423286
0.8,9.3,0,0.407742
0.8,9.4,0,0.392547
0.8,9.5,0,0.37788
0.8,9.6,0,0.363246
0.8,9.7,0,0.348743
0.8,9.8,0,0.334821
0.8,9.9,0,0.320977
0.8,10,0,0.307186
0.8,10.1,0,0.293864
0.8,10.2,0,0.28073
0.8,10.3,0,0.267614
0.8,10.4,0,0.254835
0.8,10.5,0,0.24234
0.8,10.6,0,0.229857
0.8,10.7,0,0.217555
0.8,10.8,0,0.205649
0.8,10.9,0,0.193757
0.8,11,0,0.181945
0.8,11.1,0,0.170487
0.8,11.2,0,0.159111
0.8,11.3,0,0.147748
0.8,11.4,0,0.13666
0.8,11.5,0,0.125716
0.8,11.6,0,0.114766
0.8,11.7,0,0.10395
0.8,11.8,0,0.0933536
0.8,11.9,0,0.0827324
0.8,12,0,0.0721698
0.8,12.1,0,0.0617938
0.8,12.2,0,0.0513941
0.8,12.3,0,0.0409972
0.8,12.4,0,0.0307587
0.8,12.5,0,0.020498
0.8,12.6,0,0.0102085
0.8,12.7,0,0
0.9,0,0,0
0.9,0.1,0,0.0179349
0.9,0.2,0,0.0357476
0.9,0.3,0,0.0537004
0.9,0.4,0,0.0716989
0.9,0.5,0,0.0894745
0.9,0.6,0,0.107783
0.9,0.7,0,0.125751
0.9,0.8,0,0.143993
0.9,0.9,0,0.162439
0.9,1,0,0.180521
0.9,1.1,0,0.199487
0.9,1.2,0,0.217968
0.9,1.3,0,0.236837
0.9,1.4,0,0.256008
0.9,1.5,0,0.27466
0.9,1.6,0,0.294432
0.9,1.7,0,0.313558
0.9,1.8,0,0.333065
0.9,1.9,0,0.3529
0.9,2,0,0.372116
0.9,2.1,0,0.392361
0.9,2.2,0,0.411987
0.9,2.3,0,0.431868
0.9,2.4,0,0.452028
0.9,2.5,0,0.471448
0.9,2.6,0,0.491833
0.9,2.7,0,0.511359
0.9,2.8,0,0.531067
0.9,2.9,0,0.551032
0.9,3,0,0.569491
0.9,3.1,0,0.589406
0.9,3.2,0,0.607693
0.9,3.3,0,0.625967
0.9,3.4,0,0.644574
0.9,3.5,0,0.660932
0.9,3.6,0,0.678466
0.9,3.7,0,0.694128
0.9,3.8,0,0.708912
0.9,3.9,0,0.723794
0.9,4,0,0.736738
0.9,4.1,0,0.748479
0.9,4.2,0,0.761613
0.9,4.3,0,0.772623
0.9,4.4,0,0.783772
0.9,4.5,0,0.797951
0.9,4.6,0,0.804275
0.9,4.7,0,0.817646
0.9,4.8,0,0.826976
0.9,4.9,0,0.83262
0.9,5,0,0.84314
0.9,5.1,0,0.851503
0.9,5.2,0,0.856152
0.9,5.3,0,0.859316
0.9,5.4,0,0.861007
0.9,5.5,0,0.861102
0.9,5.6,0,0.859552
0.9,5.7,0,0.856343
0.9,5.8,0,0.851476
0.9,5.9,0,0.84497
0.9,6,0,0.832215
0.9,6.1,0,0.81928
0.9,6.2,0,0.808959
0.9,6.3,0,0.80576
0.9,6.4,0,0.795886
0.9,6.5,0,0.782845
0.9,6.6,0,0.773784
0.9,6.7,0,0.765269
0.9,6.8,0,0.754147
0.9,6.9,0,0.743754
0.9,7,0,0.735379
0.9,7.1,0,0.727358
0.9,7.2,0,0.717686
0.9,7.3,0,0.706299
0.9,7.4,0,0.696818
0.9,7.5,0,0.687559
0.9,7.6,0,0.673445
0.9,7.7,0,0.659092
0.9,7.8,0,0.647761
0.9,7.9,0,0.632896
0.9,8,0,0.615622
0.9,8.1,0,0.601207
0.9,8.2,0,0.58616
0.9,8.3,0,0.568688
0.9,8.4,0,0.552222
0.9,8.5,0,0.536565
0.9,8.6,0,0.51957
0.9,8.7,0,0.502333
0.9,8.8,0,0.486311
0.9,8.9,0,0.469946
0.9,9,0,0.453242
0.9,9.1,0,0.437435
0.9,9.2,0,0.421771
0.9,9.3,0,0.406187
0.9,9.4,0,0.390991
0.9,9.5,0,0.376177
0.9,9.6,0,0.361499
0.9,9.7,0,0.347006
0.9,9.8,0,0.333011
0.9,9.9,0,0.319128
0.9,10,0,0.305395
0.9,10.1,0,0.292061
0.9,10.2,0,0.278898
0.9,10.3,0,0.265902
0.9,10.4,0,0.253123
0.9,10.5,0,0.240603
0.9,10.6,0,0.228271
0.9,10.7,0,0.216011
0.9,10.8,0,0.204094
0.9,10.9,0,0.192323
0.9,11,0,0.18062
0.9,11.1,0,0.169163
0.9,11.2,0,0.157862
0.9,11.3,0,0.146669
0.9,11.4,0,0.135581
0.9,11.5,0,0.124663
0.9,11.6,0,0.113898
0.9,11.7,0,0.103129
0.9,11.8,0,0.0925478
0.9,11.9,0,0.0820772
0.9,12,0,0.0716143
0.9,12.1,0,0.0612402
0.9,12.2,0,0.0509546
0.9,12.3,0,0.040715
0.9,12.4,0,0.0304765
0.9,12.5,0,0.020278
0.9,12.6,0,0.0101687
0.9,12.7,0,0
1,0,0,0
1,0.1,0,0.0178236
1,0.2,0,0.0356471
1,0.3,0,0.0535054
1,0.4,0,0.0713983
1,0.5,0,0.0892912
1,0.6,0,0.107342
1,0.7,0,0.125392
1,0.8,0,0.143564
1,0.9,0,0.161856
1,1,0,0.180148
1,1.1,0,0.198755
1,1.2,0,0.217363
1,1.3,0,0.236147
1,1.4,0,0.255107
1,1.5,0,0.274067
1,1.6,0,0.293372
1,1.7,0,0.312676
1,1.8,0,0.33213
1,1.9,0,0.351734
1,2,0,0.371338
1,2.1,0,0.391179
1,2.2,0,0.411019
1,2.3,0,0.430925
1,2.4,0,0.450897
1,2.5,0,0.470869
1,2.6,0,0.490797
1,2.7,0,0.510725
1,2.8,0,0.530509
1,2.9,0,0.550148
1,3,0,0.569788
1,3.1,0,0.588857
1,3.2,0,0.607927
1,3.3,0,0.626548
1,3.4,0,0.644721
1,3.5,0,0.662894
1,3.6,0,0.679605
1,3.7,0,0.696317
1,3.8,0,0.712077
1,3.9,0,0.726888
1,4,0,0.741699
1,4.1,0,0.755152
1,4.2,0,0.768605
1,4.3,0,0.781879
1,4.4,0,0.794973
1,4.5,0,0.808067
1,4.6,0,0.819835
1,4.7,0,0.831602
1,4.8,0,0.841285
1,4.9,0,0.848885
1,5,0,0.856485
1,5.1,0,0.86522
1,5.2,0,0.870147
1,5.3,0,0.873501
1,5.4,0,0.875335
1,5.5,0,0.875507
1,5.6,0,0.87396
1,5.7,0,0.870672
1,5.8,0,0.865641
1,5.9,0,0.85888
1,6,0,0.845476
1,6.1,0,0.836501
1,6.2,0,0.827526
1,6.3,0,0.818551
1,6.4,0,0.807597
1,6.5,0,0.795577
1,6.6,0,0.783557
1,6.7,0,0.771777
1,6.8,0,0.760554
1,6.9,0,0.749331
1,7,0,0.738109
1,7.1,0,0.727344
1,7.2,0,0.716604
1,7.3,0,0.705863
1,7.4,0,0.694176
1,7.5,0,0.681856
1,7.6,0,0.669536
1,7.7,0,0.656678
1,7.8,0,0.642201
1,7.9,0,0.627724
1,8,0,0.613247
1,8.1,0,0.597585
1,8.2,0,0.581792
1,8.3,0,0.565999
1,8.4,0,0.549896
1,8.5,0,0.533541
1,8.6,0,0.517187
1,8.7,0,0.500835
1,8.8,0,0.484495
1,8.9,0,0.468156
1,9,0,0.451817
1,9.1,0,0.43604
1,9.2,0,0.420363
1,9.3,0,0.404686
1,9.4,0,0.389463
1,9.5,0,0.374693
1,9.6,0,0.359923
1,9.7,0,0.345286
1,9.8,0,0.331402
1,9.9,0,0.317519
1,10,0,0.303635
1,10.1,0,0.290398
1,10.2,0,0.277321
1,10.3,0,0.264245
1,10.4,0,0.251493
1,10.5,0,0.239136
1,10.6,0,0.226779
1,10.7,0,0.214486
1,10.8,0,0.202758
1,10.9,0,0.19103
1,11,0,0.179302
1,11.1,0,0.167975
1,11.2,0,0.156782
1,11.3,0,0.145589
1,11.4,0,0.13457
1,11.5,0,0.123813
1,11.6,0,0.113056
1,11.7,0,0.102316
1,11.8,0,0.091893
1,11.9,0,0.0814699
1,12,0,0.0710468
1,12.1,0,0.0607829
1,12.2,0,0.0505871
1,12.3,0,0.0403914
1,12.4,0,0.0302366
1,12.5,0,0.0201577
1,12.6,0,0.0100789
1,12.7,0,0
1.1,0,0,0
1.1,0.1,0,0.0176921
1.1,0.2,0,0.0354474
1.1,0.3,0,0.0531618
1.1,0.4,0,0.0709791
1.1,0.5,0,0.0887729
1.1,0.6,0,0.106704
1.1,0.7,0,0.124696
1.1,0.8,0,0.142752
1.1,0.9,0,0.160986
1.1,1,0,0.179171
1.1,1.1,0,0.197678
1.1,1.2,0,0.216229
1.1,1.3,0,0.234921
1.1,1.4,0,0.253845
1.1,1.5,0,0.272691
1.1,1.6,0,0.291984
1.1,1.7,0,0.311236
1.1,1.8,0,0.330665
1.1,1.9,0,0.350296
1.1,2,0,0.369861
1.1,2.1,0,0.389796
1.1,2.2,0,0.40969
1.1,2.3,0,0.429691
1.1,2.4,0,0.449704
1.1,2.5,0,0.470022
1.1,2.6,0,0.489909
1.1,2.7,0,0.510201
1.1,2.8,0,0.5302
1.1,2.9,0,0.549693
1.1,3,0,0.570581
1.1,3.1,0,0.589021
1.1,3.2,0,0.609008
1.1,3.3,0,0.628161
1.1,3.4,0,0.645948
1.1,3.5,0,0.666341
1.1,3.6,0,0.682589
1.1,3.7,0,0.700382
1.1,3.8,0,0.717176
1.1,3.9,0,0.731938
1.1,4,0,0.748753
1.1,4.1,0,0.762584
1.1,4.2,0,0.776845
1.1,4.3,0,0.791983
1.1,4.4,0,0.806133
1.1,4.5,0,0.818949
1.1,4.6,0,0.83809
1.1,4.7,0,0.846934
1.1,4.8,0,0.85844
1.1,4.9,0,0.870787
1.1,5,0,0.869963
1.1,5.1,0,0.87921
1.1,5.2,0,0.884377
1.1,5.3,0,0.887837
1.1,5.4,0,0.88964
1.1,5.5,0,0.889646
1.1,5.6,0,0.887799
1.1,5.7,0,0.884074
1.1,5.8,0,0.878486
1.1,5.9,0,0.871074
1.1,6,0,0.856579
1.1,6.1,0,0.859137
1.1,6.2,0,0.854083
1.1,6.3,0,0.832525
1.1,6.4,0,0.81876
1.1,6.5,0,0.808479
1.1,6.6,0,0.793838
1.1,6.7,0,0.778447
1.1,6.8,0,0.764749
1.1,6.9,0,0.753595
1.1,7,0,0.742951
1.1,7.1,0,0.728713
1.1,7.2,0,0.716535
1.1,7.3,0,0.707747
1.1,7.4,0,0.694561
1.1,7.5,0,0.679371
1.1,7.6,0,0.668533
1.1,7.7,0,0.656781
1.1,7.8,0,0.6392
1.1,7.9,0,0.624898
1.1,8,0,0.612313
1.1,8.1,0,0.595055
1.1,8.2,0,0.578389
1.1,8.3,0,0.563673
1.1,8.4,0,0.547827
1.1,8.5,0,0.531058
1.1,8.6,0,0.514851
1.1,8.7,0,0.49867
1.1,8.8,0,0.482088
1.1,8.9,0,0.465758
1.1,9,0,0.449644
1.1,9.1,0,0.433607
1.1,9.2,0,0.417761
1.1,9.3,0,0.402334
1.1,9.4,0,0.387066
1.1,9.5,0,0.371972
1.1,9.6,0,0.357356
1.1,9.7,0,0.342938
1.1,9.8,0,0.328736
1.1,9.9,0,0.314835
1.1,10,0,0.301258
1.1,10.1,0,0.287911
1.1,10.2,0,0.27472
1.1,10.3,0,0.261872
1.1,10.4,0,0.249226
1.1,10.5,0,0.236766
1.1,10.6,0,0.224528
1.1,10.7,0,0.212471
1.1,10.8,0,0.200697
1.1,10.9,0,0.18898
1.1,11,0,0.177502
1.1,11.1,0,0.166241
1.1,11.2,0,0.15505
1.1,11.3,0,0.144028
1.1,11.4,0,0.133165
1.1,11.5,0,0.122448
1.1,11.6,0,0.111773
1.1,11.7,0,0.101238
1.1,11.8,0,0.0908854
1.1,11.9,0,0.0804904
1.1,12,0,0.0702611
1.1,12.1,0,0.0601228
1.1,12.2,0,0.0499887
1.1,12.3,0,0.0399126
1.1,12.4,0,0.0299131
1.1,12.5,0,0.019955
1.1,12.6,0,0.00992758
1.1,12.7,0,0
1.2,0,0,0
1.2,0.1,0,0.0176239
1.2,0.2,0,0.0351795
1.2,0.3,0,0.0528939
1.2,0.4,0,0.0705364
1.2,0.5,0,0.0882546
1.2,0.6,0,0.106127
1.2,0.7,0,0.123942
1.2,0.8,0,0.141997
1.2,0.9,0,0.160067
1.2,1,0,0.178194
1.2,1.1,0,0.196645
1.2,1.2,0,0.215039
1.2,1.3,0,0.233731
1.2,1.4,0,0.252505
1.2,1.5,0,0.271314
1.2,1.6,0,0.290555
1.2,1.7,0,0.309744
1.2,1.8,0,0.329174
1.2,1.9,0,0.348793
1.2,2,0,0.368384
1.2,2.1,0,0.388372
1.2,2.2,0,0.408413
1.2,2.3,0,0.428414
1.2,2.4,0,0.448816
1.2,2.5,0,0.469175
1.2,2.6,0,0.489426
1.2,2.7,0,0.51004
1.2,2.8,0,0.53004
1.2,2.9,0,0.550633
1.2,3,0,0.571374
1.2,3.1,0,0.590732
1.2,3.2,0,0.611007
1.2,3.3,0,0.63016
1.2,3.4,0,0.64978
1.2,3.5,0,0.669786
1.2,3.6,0,0.687117
1.2,3.7,0,0.705529
1.2,3.8,0,0.722323
1.2,3.9,0,0.739041
1.2,4,0,0.755807
1.2,4.1,0,0.770447
1.2,4.2,0,0.785895
1.2,4.3,0,0.801032
1.2,4.4,0,0.815959
1.2,4.5,0,0.829831
1.2,4.6,0,0.846048
1.2,4.7,0,0.859342
1.2,4.8,0,0.870848
1.2,4.9,0,0.879518
1.2,5,0,0.88344
1.2,5.1,0,0.893201
1.2,5.2,0,0.898606
1.2,5.3,0,0.902174
1.2,5.4,0,0.903944
1.2,5.5,0,0.903784
1.2,5.6,0,0.901637
1.2,5.7,0,0.897477
1.2,5.8,0,0.891331
1.2,5.9,0,0.883268
1.2,6,0,0.867682
1.2,6.1,0,0.866046
1.2,6.2,0,0.855893
1.2,6.3,0,0.84205
1.2,6.4,0,0.828285
1.2,6.5,0,0.814771
1.2,6.6,0,0.801176
1.2,6.7,0,0.785861
1.2,6.8,0,0.772527
1.2,6.9,0,0.759407
1.2,7,0,0.747822
1.2,7.1,0,0.734166
1.2,7.2,0,0.721815
1.2,7.3,0,0.71046
1.2,7.4,0,0.697275
1.2,7.5,0,0.683411