/*--------------------------------*- C++ -*----------------------------------*\
| =========                 |                                                 |
| \\      /  F ield         | OpenFOAM: The Open Source CFD Toolbox           |
|  \\    /   O peration     | Version:  v1806                                 |
|   \\  /    A nd           | Web:      www.OpenFOAM.com                      |
|    \\/     M anipulation  |                                                 |
\*---------------------------------------------------------------------------*/
FoamFile
{
    version     2.0;
    format      ascii;
    class       volVectorField;
    location    "70";
    object      U;
}
// * * * * * * * * * * * * * * * * * * * * * * * * * * * * * * * * * * * * * //

dimensions      [0 1 -1 0 0 0 0];


internalField   nonuniform List<vector> 
2400
(
(0.300015 -0.000675704 0)
(0.29999 -0.00266281 0)
(0.299864 -0.0041717 0)
(0.299947 -0.00528292 0)
(0.299936 -0.00795197 0)
(0.299708 -0.0121736 0)
(0.299104 -0.014897 0)
(0.299147 -0.0163464 0)
(0.298915 -0.0201454 0)
(0.298774 -0.0285839 0)
(0.296893 -0.0367226 0)
(0.296033 -0.0431001 0)
(0.293997 -0.048263 0)
(0.293161 -0.0614115 0)
(0.289351 -0.0754445 0)
(0.284047 -0.0945696 0)
(0.277131 -0.10651 0)
(0.264988 -0.124444 0)
(0.25328 -0.140672 0)
(0.234846 -0.157565 0)
(0.300013 -0.000676201 0)
(0.299976 -0.00263361 0)
(0.299819 -0.00415453 0)
(0.299856 -0.00529435 0)
(0.299793 -0.00791334 0)
(0.299509 -0.0120159 0)
(0.298804 -0.0147666 0)
(0.298712 -0.0163 0)
(0.298312 -0.0200836 0)
(0.298032 -0.0282046 0)
(0.295889 -0.0361497 0)
(0.294741 -0.0424889 0)
(0.292105 -0.0476579 0)
(0.290926 -0.0604891 0)
(0.286258 -0.0734588 0)
(0.28059 -0.0919432 0)
(0.272853 -0.10209 0)
(0.260403 -0.119151 0)
(0.249875 -0.133424 0)
(0.232187 -0.14845 0)
(0.300012 -0.000672815 0)
(0.299959 -0.0025957 0)
(0.299764 -0.00412786 0)
(0.299745 -0.00528294 0)
(0.29961 -0.00783667 0)
(0.299244 -0.011825 0)
(0.298406 -0.0146045 0)
(0.298139 -0.0161931 0)
(0.297521 -0.019926 0)
(0.297062 -0.0277441 0)
(0.294617 -0.0355159 0)
(0.293146 -0.0417723 0)
(0.289873 -0.0468977 0)
(0.288417 -0.0594311 0)
(0.283009 -0.0715851 0)
(0.277403 -0.0898014 0)
(0.269209 -0.0986984 0)
(0.257149 -0.116076 0)
(0.247878 -0.129316 0)
(0.23061 -0.144127 0)
(0.300011 -0.000666576 0)
(0.299943 -0.00255113 0)
(0.29971 -0.00408355 0)
(0.29963 -0.00524482 0)
(0.299415 -0.00773687 0)
(0.298962 -0.0116109 0)
(0.29799 -0.0143913 0)
(0.297532 -0.0160098 0)
(0.296683 -0.0197022 0)
(0.296021 -0.0272322 0)
(0.293286 -0.0348018 0)
(0.291495 -0.0409118 0)
(0.287641 -0.0460022 0)
(0.285943 -0.0582661 0)
(0.27983 -0.0696244 0)
(0.274406 -0.0876179 0)
(0.265657 -0.095084 0)
(0.254007 -0.112903 0)
(0.245809 -0.124445 0)
(0.228688 -0.138633 0)
(0.300009 -0.000657746 0)
(0.299928 -0.00249792 0)
(0.29966 -0.00402163 0)
(0.299515 -0.00518402 0)
(0.299219 -0.00761175 0)
(0.298678 -0.0113601 0)
(0.297578 -0.0141202 0)
(0.296924 -0.0157572 0)
(0.295852 -0.0194113 0)
(0.294968 -0.02664 0)
(0.291964 -0.0339832 0)
(0.289851 -0.0399055 0)
(0.285496 -0.044978 0)
(0.283556 -0.0569493 0)
(0.276753 -0.0675631 0)
(0.271586 -0.0853884 0)
(0.262155 -0.0914051 0)
(0.251166 -0.110127 0)
(0.243939 -0.119899 0)
(0.22677 -0.134146 0)
(0.300008 -0.000646148 0)
(0.299912 -0.00243649 0)
(0.299611 -0.00394364 0)
(0.299402 -0.00509995 0)
(0.299027 -0.00745783 0)
(0.298398 -0.0110723 0)
(0.297175 -0.0137962 0)
(0.296329 -0.0154374 0)
(0.295051 -0.0190454 0)
(0.293924 -0.0259619 0)
(0.290676 -0.0330675 0)
(0.288233 -0.0387658 0)
(0.283463 -0.043835 0)
(0.281246 -0.0554743 0)
(0.273792 -0.0654286 0)
(0.268913 -0.0831018 0)
(0.258667 -0.0876986 0)
(0.248604 -0.107695 0)
(0.242082 -0.115319 0)
(0.224665 -0.129997 0)
(0.300006 -0.000631847 0)
(0.299897 -0.00236739 0)
(0.299563 -0.0038497 0)
(0.299292 -0.0049923 0)
(0.298842 -0.00727574 0)
(0.298122 -0.0107499 0)
(0.296785 -0.0134216 0)
(0.295751 -0.0150519 0)
(0.294286 -0.0186048 0)
(0.292896 -0.0252009 0)
(0.289438 -0.0320604 0)
(0.286642 -0.0375025 0)
(0.281552 -0.0425839 0)
(0.278987 -0.0538379 0)
(0.270963 -0.0632398 0)
(0.26634 -0.0807297 0)
(0.255161 -0.0839898 0)
(0.246327 -0.105598 0)
(0.240111 -0.110676 0)
(0.222363 -0.126508 0)
(0.300005 -0.000614947 0)
(0.299883 -0.00229077 0)
(0.299517 -0.00374009 0)
(0.299185 -0.00486211 0)
(0.298664 -0.00706644 0)
(0.297852 -0.0103937 0)
(0.296409 -0.012998 0)
(0.295191 -0.0146047 0)
(0.29356 -0.0180909 0)
(0.291889 -0.0243591 0)
(0.288257 -0.0309644 0)
(0.285077 -0.0361252 0)
(0.279768 -0.0412312 0)
(0.276751 -0.0520362 0)
(0.268286 -0.0610105 0)
(0.263802 -0.0782331 0)
(0.251633 -0.0803233 0)
(0.244321 -0.103809 0)
(0.237849 -0.105876 0)
(0.219875 -0.123778 0)
(0.300004 -0.00059552 0)
(0.299868 -0.00220678 0)
(0.299473 -0.00361549 0)
(0.299083 -0.00471051 0)
(0.298494 -0.0068304 0)
(0.297589 -0.0100045 0)
(0.296048 -0.0125281 0)
(0.294651 -0.0141001 0)
(0.292873 -0.0175049 0)
(0.290906 -0.0234392 0)
(0.287141 -0.0297813 0)
(0.283534 -0.0346434 0)
(0.278115 -0.039778 0)
(0.274508 -0.0500677 0)
(0.265792 -0.0587481 0)
(0.261215 -0.0755693 0)
(0.248116 -0.0767553 0)
(0.242534 -0.10226 0)
(0.235091 -0.100843 0)
(0.217324 -0.122066 0)
(0.300003 -0.000573644 0)
(0.299854 -0.00211563 0)
(0.29943 -0.0034766 0)
(0.298984 -0.00453854 0)
(0.298333 -0.00656822 0)
(0.297335 -0.00958365 0)
(0.295704 -0.0120141 0)
(0.294131 -0.0135415 0)
(0.292226 -0.016848 0)
(0.289951 -0.0224451 0)
(0.286092 -0.028512 0)
(0.282016 -0.033066 0)
(0.276595 -0.0382211 0)
(0.272239 -0.0479359 0)
(0.263509 -0.0564504 0)
(0.258482 -0.0726933 0)
(0.244687 -0.0733498 0)
(0.240845 -0.100834 0)
(0.231632 -0.0955549 0)
(0.214973 -0.121694 0)
(0.300002 -0.000549409 0)
(0.299841 -0.00201757 0)
(0.299389 -0.00332409 0)
(0.29889 -0.00434725 0)
(0.29818 -0.00628077 0)
(0.29709 -0.00913246 0)
(0.295377 -0.011458 0)
(0.293633 -0.0129326 0)
(0.291617 -0.0161222 0)
(0.28903 -0.021381 0)
(0.28511 -0.0271566 0)
(0.280527 -0.0314026 0)
(0.275204 -0.0365541 0)
(0.269933 -0.0456498 0)
(0.261461 -0.0541019 0)
(0.255507 -0.0695639 0)
(0.241466 -0.0701688 0)
(0.239028 -0.0993598 0)
(0.227322 -0.0900752 0)
(0.213247 -0.123067 0)
(0.300002 -0.000522913 0)
(0.299827 -0.0019129 0)
(0.29935 -0.00315871 0)
(0.298801 -0.00413774 0)
(0.298036 -0.00596906 0)
(0.296856 -0.00865238 0)
(0.295068 -0.0108622 0)
(0.29316 -0.0122768 0)
(0.291046 -0.0153297 0)
(0.288148 -0.0202516 0)
(0.284193 -0.0257155 0)
(0.279079 -0.0296622 0)
(0.273933 -0.034768 0)
(0.267596 -0.043224 0)
(0.259656 -0.0516734 0)
(0.252209 -0.066154 0)
(0.238601 -0.067249 0)
(0.23674 -0.0976188 0)
(0.222148 -0.0846056 0)
(0.212666 -0.126611 0)
(0.300001 -0.000494267 0)
(0.299814 -0.00180192 0)
(0.299313 -0.00298121 0)
(0.298717 -0.0039111 0)
(0.297901 -0.00563426 0)
(0.296636 -0.00814495 0)
(0.294778 -0.0102288 0)
(0.292713 -0.011577 0)
(0.290511 -0.0144734 0)
(0.287311 -0.0190612 0)
(0.283335 -0.0241897 0)
(0.277686 -0.0278528 0)
(0.272764 -0.032853 0)
(0.265254 -0.0406771 0)
(0.258077 -0.0491222 0)
(0.248554 -0.062467 0)
(0.236225 -0.0645696 0)
(0.233531 -0.0953649 0)
(0.216347 -0.0795095 0)
(0.213641 -0.132666 0)
(0.300001 -0.000463591 0)
(0.299802 -0.001685 0)
(0.299279 -0.00279235 0)
(0.298638 -0.00366844 0)
(0.297774 -0.00527772 0)
(0.296429 -0.00761176 0)
(0.294506 -0.0095602 0)
(0.292295 -0.0108362 0)
(0.290011 -0.013557 0)
(0.286528 -0.0178135 0)
(0.28253 -0.0225813 0)
(0.276369 -0.0259809 0)
(0.271671 -0.0308004 0)
(0.262956 -0.0380284 0)
(0.256671 -0.0463948 0)
(0.24458 -0.0585426 0)
(0.234393 -0.0620364 0)
(0.228922 -0.0923541 0)
(0.21049 -0.075301 0)
(0.216106 -0.141293 0)
(0.300001 -0.000431023 0)
(0.299791 -0.00156251 0)
(0.299247 -0.00259295 0)
(0.298565 -0.00341085 0)
(0.297657 -0.00490091 0)
(0.296237 -0.00705446 0)
(0.294253 -0.00885906 0)
(0.291909 -0.0100571 0)
(0.289544 -0.0125847 0)
(0.285805 -0.0165119 0)
(0.281773 -0.0208947 0)
(0.275148 -0.02405 0)
(0.270628 -0.0286066 0)
(0.260764 -0.0352925 0)
(0.255351 -0.0434345 0)
(0.240419 -0.0544409 0)
(0.233016 -0.0594854 0)
(0.222561 -0.088375 0)
(0.205436 -0.0725857 0)
(0.219086 -0.151965 0)
(0.300001 -0.000396706 0)
(0.299781 -0.00143486 0)
(0.299218 -0.00238382 0)
(0.298498 -0.00313948 0)
(0.29755 -0.00450542 0)
(0.29606 -0.00647471 0)
(0.294019 -0.00812812 0)
(0.291556 -0.0092422 0)
(0.28911 -0.0115615 0)
(0.285149 -0.0151588 0)
(0.281058 -0.0191361 0)
(0.274043 -0.0220607 0)
(0.26961 -0.0262745 0)
(0.258752 -0.0324748 0)
(0.25401 -0.040195 0)
(0.236285 -0.0502229 0)
(0.231835 -0.0566701 0)
(0.214417 -0.0833624 0)
(0.202029 -0.0719001 0)
(0.220437 -0.163314 0)
(0.300001 -0.000360799 0)
(0.299771 -0.00130246 0)
(0.299191 -0.00216581 0)
(0.298437 -0.00285546 0)
(0.297452 -0.00409293 0)
(0.295901 -0.00587423 0)
(0.293805 -0.00737028 0)
(0.291238 -0.00839387 0)
(0.288709 -0.0104927 0)
(0.284563 -0.0137561 0)
(0.280384 -0.0173138 0)
(0.27307 -0.0200108 0)
(0.2686 -0.0238156 0)
(0.256988 -0.0295684 0)
(0.252548 -0.036655 0)
(0.232457 -0.0459243 0)
(0.230429 -0.0532651 0)
(0.204947 -0.0775841 0)
(0.200481 -0.0732639 0)
(0.216955 -0.173309 0)
(0.300001 -0.000323468 0)
(0.299763 -0.00116575 0)
(0.299167 -0.00193981 0)
(0.298382 -0.00255999 0)
(0.297363 -0.00366519 0)
(0.295758 -0.00525478 0)
(0.293611 -0.00658855 0)
(0.290956 -0.00751459 0)
(0.288344 -0.00938426 0)
(0.284049 -0.0123059 0)
(0.279755 -0.0154379 0)
(0.272236 -0.017896 0)
(0.267597 -0.0212495 0)
(0.255516 -0.026553 0)
(0.250901 -0.0328312 0)
(0.229218 -0.0415186 0)
(0.228277 -0.0489937 0)
(0.195177 -0.0714059 0)
(0.199555 -0.0757567 0)
(0.204815 -0.179891 0)
(0.300001 -0.000284903 0)
(0.299755 -0.0010252 0)
(0.299146 -0.00170674 0)
(0.298334 -0.00225429 0)
(0.297285 -0.00322404 0)
(0.295634 -0.00461829 0)
(0.293439 -0.00578604 0)
(0.29071 -0.00660696 0)
(0.288016 -0.00824214 0)
(0.283608 -0.0108103 0)
(0.279178 -0.013519 0)
(0.271539 -0.0157122 0)
(0.266623 -0.0186017 0)
(0.254347 -0.0234016 0)
(0.249083 -0.0287794 0)
(0.22676 -0.0369058 0)
(0.224987 -0.0437647 0)
(0.18656 -0.0649253 0)
(0.196086 -0.0772936 0)
(0.180177 -0.181074 0)
(0.3 -0.00024528 0)
(0.299749 -0.000881308 0)
(0.299127 -0.00146759 0)
(0.298293 -0.00193969 0)
(0.297217 -0.00277131 0)
(0.295527 -0.00396691 0)
(0.293289 -0.00496575 0)
(0.2905 -0.00567448 0)
(0.287728 -0.00707143 0)
(0.283235 -0.0092743 0)
(0.278663 -0.0115653 0)
(0.270968 -0.0134624 0)
(0.265712 -0.0158921 0)
(0.253452 -0.0201007 0)
(0.247199 -0.0245671 0)
(0.225093 -0.0319613 0)
(0.220569 -0.0377128 0)
(0.180452 -0.0577855 0)
(0.185611 -0.07455 0)
(0.139367 -0.170266 0)
(0.217925 -0.165864 0)
(0.203445 -0.169581 0)
(0.188554 -0.172165 0)
(0.173791 -0.173117 0)
(0.158247 -0.170114 0)
(0.14058 -0.161855 0)
(0.12042 -0.149451 0)
(0.0988722 -0.135012 0)
(0.0779426 -0.119914 0)
(0.0595486 -0.104768 0)
(0.217121 -0.15556 0)
(0.204154 -0.158785 0)
(0.190803 -0.161294 0)
(0.17757 -0.161983 0)
(0.163247 -0.157962 0)
(0.146512 -0.148104 0)
(0.127146 -0.134373 0)
(0.106184 -0.119739 0)
(0.0854028 -0.105863 0)
(0.0666663 -0.0929103 0)
(0.21684 -0.150862 0)
(0.204897 -0.154049 0)
(0.192629 -0.156615 0)
(0.180365 -0.156966 0)
(0.166623 -0.152066 0)
(0.150194 -0.141048 0)
(0.131179 -0.126289 0)
(0.110751 -0.111113 0)
(0.0905393 -0.0973501 0)
(0.0721404 -0.0851222 0)
(0.216545 -0.144594 0)
(0.20598 -0.147586 0)
(0.195155 -0.150136 0)
(0.184097 -0.149985 0)
(0.170968 -0.143963 0)
(0.154667 -0.131621 0)
(0.13562 -0.115917 0)
(0.115217 -0.100572 0)
(0.0951186 -0.0874526 0)
(0.0768292 -0.0764326 0)
(0.216492 -0.139693 0)
(0.20742 -0.142757 0)
(0.198063 -0.145294 0)
(0.188026 -0.14437 0)
(0.175166 -0.136906 0)
(0.15866 -0.123028 0)
(0.139366 -0.106246 0)
(0.118892 -0.0905846 0)
(0.0988776 -0.0779238 0)
(0.0807052 -0.0679199 0)
(0.216711 -0.135185 0)
(0.209376 -0.138369 0)
(0.201553 -0.140711 0)
(0.192333 -0.138649 0)
(0.179372 -0.129446 0)
(0.162274 -0.113957 0)
(0.142428 -0.0962214 0)
(0.121709 -0.080438 0)
(0.101733 -0.0683776 0)
(0.0837197 -0.0594379 0)
(0.217363 -0.131561 0)
(0.211975 -0.134972 0)
(0.205586 -0.136836 0)
(0.19676 -0.133151 0)
(0.183187 -0.121836 0)
(0.165109 -0.104617 0)
(0.144501 -0.0860104 0)
(0.123478 -0.0702555 0)
(0.103588 -0.0589024 0)
(0.085833 -0.0510518 0)
(0.218665 -0.128853 0)
(0.215355 -0.13243 0)
(0.210086 -0.133313 0)
(0.201022 -0.12742 0)
(0.186224 -0.113677 0)
(0.16678 -0.0947456 0)
(0.145272 -0.0754942 0)
(0.12399 -0.0600242 0)
(0.104326 -0.0495426 0)
(0.0869968 -0.0428252 0)
(0.220887 -0.127245 0)
(0.219561 -0.130734 0)
(0.214769 -0.129912 0)
(0.204596 -0.121171 0)
(0.187902 -0.104766 0)
(0.166789 -0.0842638 0)
(0.144387 -0.0646956 0)
(0.123028 -0.0498255 0)
(0.103839 -0.0403983 0)
(0.0871695 -0.034851 0)
(0.224308 -0.126817 0)
(0.224451 -0.129639 0)
(0.219087 -0.126158 0)
(0.206731 -0.113965 0)
(0.187498 -0.0948519 0)
(0.164574 -0.0731184 0)
(0.141478 -0.0536966 0)
(0.120393 -0.0397996 0)
(0.102038 -0.0316119 0)
(0.0863245 -0.0272463 0)
(0.229084 -0.127511 0)
(0.229531 -0.128688 0)
(0.222123 -0.121451 0)
(0.206417 -0.10537 0)
(0.18416 -0.0837755 0)
(0.159549 -0.061376 0)
(0.136211 -0.0426849 0)
(0.115932 -0.0301602 0)
(0.0988739 -0.0233675 0)
(0.0844602 -0.0201477 0)
(0.235049 -0.128988 0)
(0.233794 -0.127145 0)
(0.222555 -0.115054 0)
(0.202426 -0.0949895 0)
(0.176997 -0.0715072 0)
(0.151196 -0.0492478 0)
(0.128355 -0.0319614 0)
(0.109582 -0.0211891 0)
(0.0943543 -0.0158813 0)
(0.0816042 -0.0137024 0)
(0.24147 -0.130502 0)
(0.235595 -0.12401 0)
(0.218698 -0.106195 0)
(0.193436 -0.0825873 0)
(0.165224 -0.0582324 0)
(0.139187 -0.0371275 0)
(0.11786 -0.02194 0)
(0.101403 -0.0132182 0)
(0.0885495 -0.00938233 0)
(0.0778097 -0.00805488 0)
(0.246823 -0.130838 0)
(0.232649 -0.118108 0)
(0.208682 -0.0942069 0)
(0.178247 -0.0682205 0)
(0.148374 -0.0444206 0)
(0.123532 -0.025599 0)
(0.104922 -0.0131179 0)
(0.0915884 -0.00659033 0)
(0.0815783 -0.00408308 0)
(0.0731366 -0.00333015 0)
(0.248728 -0.128356 0)
(0.222199 -0.108251 0)
(0.190777 -0.0787777 0)
(0.156124 -0.0523973 0)
(0.126579 -0.0308634 0)
(0.104717 -0.0153963 0)
(0.090013 -0.00600508 0)
(0.0804359 -0.00158626 0)
(0.0735616 -0.000143908 0)
(0.0676102 0.000376758 0)
(0.244051 -0.121143 0)
(0.201412 -0.0935539 0)
(0.163913 -0.0602566 0)
(0.127265 -0.036191 0)
(0.100838 -0.0186249 0)
(0.0837421 -0.00728425 0)
(0.0738084 -0.00101182 0)
(0.0682448 0.0015932 0)
(0.0645272 0.00233601 0)
(0.0611506 0.00299839 0)
(0.229115 -0.107182 0)
(0.167994 -0.0737741 0)
(0.128397 -0.0399478 0)
(0.0933374 -0.0212313 0)
(0.073118 -0.00886177 0)
(0.0619678 -0.00184993 0)
(0.056969 0.00170515 0)
(0.0551556 0.00297619 0)
(0.0543205 0.00338442 0)
(0.0534817 0.00451178 0)
(0.199871 -0.0844116 0)
(0.121156 -0.0495435 0)
(0.0868168 -0.0202341 0)
(0.0578555 -0.00941404 0)
(0.0460752 -0.00250584 0)
(0.0407707 0.000762412 0)
(0.0399658 0.00234487 0)
(0.0410427 0.0028369 0)
(0.0424657 0.00315173 0)
(0.04395 0.00489628 0)
(0.151549 -0.0510525 0)
(0.0635176 -0.0230959 0)
(0.0447118 -0.00444555 0)
(0.0258862 -0.00212549 0)
(0.0224114 0.000260101 0)
(0.02133 0.00102294 0)
(0.0230406 0.00146674 0)
(0.0255633 0.00159498 0)
(0.0281787 0.00187808 0)
(0.0312753 0.00406029 0)
(0.0746966 -0.0244155 0)
(0.00629024 -0.00540457 0)
(0.00981746 0.000939522 0)
(0.0030678 8.56661e-05 0)
(0.00447156 0.000382734 0)
(0.00502277 0.000327405 0)
(0.00674312 0.00036917 0)
(0.00859882 0.000384258 0)
(0.0105843 0.000539718 0)
(0.0132486 0.00198407 0)
(0.047853 -0.0932169 0)
(0.0407025 -0.0852061 0)
(0.0345786 -0.0774993 0)
(0.0293825 -0.0701802 0)
(0.0250144 -0.0633009 0)
(0.0213647 -0.0568888 0)
(0.0183275 -0.0509494 0)
(0.0158072 -0.0454704 0)
(0.0137201 -0.0404263 0)
(0.0119947 -0.0357828 0)
(0.0105712 -0.0315011 0)
(0.00939999 -0.0275401 0)
(0.0084406 -0.0238599 0)
(0.00766015 -0.0204242 0)
(0.00703225 -0.017204 0)
(0.00653585 -0.014184 0)
(0.00615442 -0.0113737 0)
(0.00587486 -0.0088281 0)
(0.0056814 -0.00668831 0)
(0.00555583 -0.00527708 0)
(0.054409 -0.0833017 0)
(0.0467238 -0.0766764 0)
(0.040017 -0.0702753 0)
(0.0342487 -0.0641274 0)
(0.0293359 -0.0582666 0)
(0.0251808 -0.0527228 0)
(0.0216858 -0.047514 0)
(0.018759 -0.0426442 0)
(0.0163165 -0.0381056 0)
(0.0142846 -0.0338805 0)
(0.0125997 -0.0299451 0)
(0.0112078 -0.0262717 0)
(0.010064 -0.0228314 0)
(0.0091315 -0.0195974 0)
(0.00838025 -0.0165486 0)
(0.00778621 -0.013676 0)
(0.00733035 -0.0109938 0)
(0.00699738 -0.00855971 0)
(0.00676476 -0.0065158 0)
(0.00659778 -0.00517494 0)
(0.0599003 -0.0764042 0)
(0.0521154 -0.0704801 0)
(0.0452068 -0.0647846 0)
(0.0391552 -0.0593199 0)
(0.0339106 -0.0541014 0)
(0.0294015 -0.0491455 0)
(0.0255508 -0.0444635 0)
(0.0222812 -0.0400584 0)
(0.0195188 -0.0359248 0)
(0.0171957 -0.03205 0)
(0.0152509 -0.0284162 0)
(0.0136314 -0.0250019 0)
(0.0122916 -0.0217848 0)
(0.0111934 -0.0187439 0)
(0.010305 -0.0158637 0)
(0.00960066 -0.0131396 0)
(0.00905924 -0.0105888 0)
(0.0086631 -0.00827019 0)
(0.00838282 -0.00632247 0)
(0.00816998 -0.0050444 0)
(0.0645883 -0.0688097 0)
(0.0567416 -0.0636882 0)
(0.0497166 -0.0587871 0)
(0.0435004 -0.0540771 0)
(0.0380517 -0.0495557 0)
(0.0333117 -0.0452315 0)
(0.0292159 -0.0411138 0)
(0.0256987 -0.037207 0)
(0.0226954 -0.0335098 0)
(0.0201452 -0.0300148 0)
(0.0179917 -0.02671 0)
(0.0161848 -0.0235806 0)
(0.0146801 -0.0206106 0)
(0.01344 -0.017785 0)
(0.0124325 -0.0150936 0)
(0.0116308 -0.0125363 0)
(0.0110126 -0.0101333 0)
(0.0105584 -0.00794335 0)
(0.0102336 -0.00609993 0)
(0.00997942 -0.00488657 0)
(0.0684971 -0.061281 0)
(0.0606326 -0.0568907 0)
(0.0535501 -0.0527169 0)
(0.0472384 -0.0487065 0)
(0.0416617 -0.0448425 0)
(0.0367692 -0.0411251 0)
(0.0325053 -0.0375597 0)
(0.028813 -0.03415 0)
(0.0256353 -0.0308958 0)
(0.022917 -0.0277928 0)
(0.0206063 -0.0248332 0)
(0.0186558 -0.022007 0)
(0.0170232 -0.0193033 0)
(0.0156716 -0.0167124 0)
(0.0145692 -0.0142289 0)
(0.0136889 -0.0118567 0)
(0.0130076 -0.0096181 0)
(0.0125045 -0.00757116 0)
(0.0121413 -0.0058429 0)
(0.0118512 -0.00470078 0)
(0.0716063 -0.0537654 0)
(0.0637777 -0.0500816 0)
(0.0566968 -0.0466058 0)
(0.0503521 -0.0432662 0)
(0.0447112 -0.0400346 0)
(0.03973 -0.0369051 0)
(0.0353604 -0.0338799 0)
(0.0315528 -0.0309618 0)
(0.0282564 -0.028151 0)
(0.0254213 -0.0254449 0)
(0.0229994 -0.0228387 0)
(0.0209461 -0.020326 0)
(0.0192207 -0.0179004 0)
(0.0177871 -0.0155567 0)
(0.0166141 -0.0132937 0)
(0.0156744 -0.0111188 0)
(0.0149441 -0.00905606 0)
(0.0144018 -0.00716205 0)
(0.0140067 -0.0055569 0)
(0.013686 -0.00449122 0)
(0.0739017 -0.0463222 0)
(0.0661725 -0.0433173 0)
(0.0591558 -0.0405082 0)
(0.0528387 -0.0378092 0)
(0.0471923 -0.0351843 0)
(0.0421791 -0.0326232 0)
(0.0377585 -0.0301254 0)
(0.0338877 -0.0276917 0)
(0.0305221 -0.025322 0)
(0.027616 -0.0230144 0)
(0.0251249 -0.0207657 0)
(0.0230062 -0.0185727 0)
(0.0212207 -0.0164324 0)
(0.0197332 -0.0143436 0)
(0.0185128 -0.012309 0)
(0.0175319 -0.0103391 0)
(0.0167667 -0.00845927 0)
(0.016195 -0.00672445 0)
(0.0157751 -0.00524757 0)
(0.0154292 -0.00426205 0)
(0.0753651 -0.0390154 0)
(0.0678114 -0.0366593 0)
(0.0609271 -0.0344816 0)
(0.0546993 -0.0323893 0)
(0.0491041 -0.0303424 0)
(0.0441118 -0.0283276 0)
(0.0396905 -0.0263416 0)
(0.0358046 -0.024383 0)
(0.0324151 -0.0224495 0)
(0.0294807 -0.0205388 0)
(0.0269594 -0.0186486 0)
(0.0248106 -0.0167775 0)
(0.0229962 -0.0149258 0)
(0.0214815 -0.0130956 0)
(0.0202358 -0.0112933 0)
(0.0192319 -0.00953205 0)
(0.0184455 -0.00783857 0)
(0.0178547 -0.00626601 0)
(0.017417 -0.00492017 0)
(0.0170519 -0.00401723 0)
(0.0759829 -0.031925 0)
(0.0686914 -0.0301771 0)
(0.0620126 -0.0285866 0)
(0.0559364 -0.0270604 0)
(0.0504476 -0.0255578 0)
(0.045527 -0.024064 0)
(0.0411528 -0.0225721 0)
(0.0372974 -0.0210768 0)
(0.0339275 -0.0195724 0)
(0.0310056 -0.0180544 0)
(0.0284919 -0.0165203 0)
(0.0263471 -0.01497 0)
(0.0245338 -0.0134063 0)
(0.0230179 -0.0118346 0)
(0.0217688 -0.0102646 0)
(0.0207595 -0.00871199 0)
(0.0199658 -0.00720486 0)
(0.0193661 -0.00579465 0)
(0.0189184 -0.00458031 0)
(0.0185405 -0.00376099 0)
(0.0757511 -0.0251431 0)
(0.0688154 -0.0239464 0)
(0.0624163 -0.0228858 0)
(0.056553 -0.0218755 0)
(0.0512237 -0.0208779 0)
(0.0464237 -0.0198762 0)
(0.0421431 -0.0188586 0)
(0.038363 -0.0178131 0)
(0.0350558 -0.0167286 0)
(0.0321869 -0.0155966 0)
(0.0297183 -0.0144132 0)
(0.0276113 -0.0131791 0)
(0.025829 -0.0118993 0)
(0.0243374 -0.0105822 0)
(0.0231066 -0.00924066 0)
(0.0221095 -0.00789328 0)
(0.0213225 -0.00656929 0)
(0.0207245 -0.00531869 0)
(0.0202747 -0.00423399 0)
(0.0198906 -0.0034978 0)
(0.0746794 -0.0187687 0)
(0.068193 -0.0180439 0)
(0.0621436 -0.0174397 0)
(0.05655 -0.0168855 0)
(0.0514305 -0.016348 0)
(0.0467985 -0.0158071 0)
(0.042658 -0.0152424 0)
(0.0389992 -0.014632 0)
(0.0357989 -0.0139562 0)
(0.0330247 -0.013201 0)
(0.0306394 -0.0123599 0)
(0.0286045 -0.0114338 0)
(0.026883 -0.0104299 0)
(0.0254416 -0.00935972 0)
(0.0242503 -0.00823938 0)
(0.0232829 -0.0070903 0)
(0.0225165 -0.0059431 0)
(0.021931 -0.00484664 0)
(0.0214871 -0.00388748 0)
(0.021104 -0.0032324 0)
(0.0727914 -0.0128999 0)
(0.0668378 -0.0125408 0)
(0.0611977 -0.0123033 0)
(0.0559231 -0.0121368 0)
(0.0510598 -0.0120115 0)
(0.0466432 -0.0118994 0)
(0.0426917 -0.0117662 0)
(0.0392031 -0.0115753 0)
(0.0361571 -0.0112953 0)
(0.033522 -0.0109046 0)
(0.0312601 -0.0103937 0)
(0.0293325 -0.00976357 0)
(0.0277024 -0.00902349 0)
(0.0263366 -0.00818857 0)
(0.0252061 -0.00727837 0)
(0.0242857 -0.00631727 0)
(0.0235536 -0.00533752 0)
(0.0229911 -0.00438709 0)
(0.0225613 -0.00354716 0)
(0.0221862 -0.00296961 0)
(0.0701176 -0.00762252 0)
(0.0647597 -0.00749533 0)
(0.059571 -0.00752104 0)
(0.0546552 -0.00767022 0)
(0.050093 -0.00791064 0)
(0.0459424 -0.00819792 0)
(0.0422345 -0.0084762 0)
(0.0389714 -0.00868884 0)
(0.0361328 -0.00878926 0)
(0.0336853 -0.00874725 0)
(0.0315896 -0.00854984 0)
(0.0298061 -0.00819861 0)
(0.0282981 -0.00770568 0)
(0.0270334 -0.00708998 0)
(0.0259844 -0.00637493 0)
(0.0251276 -0.00558809 0)
(0.024443 -0.00476347 0)
(0.0239136 -0.00394844 0)
(0.0235057 -0.00321931 0)
(0.0231456 -0.00271418 0)
(0.0666781 -0.00299687 0)
(0.061947 -0.00294341 0)
(0.0572309 -0.00312397 0)
(0.0527077 -0.00352185 0)
(0.0484955 -0.0040895 0)
(0.0446718 -0.00475352 0)
(0.0412738 -0.00542628 0)
(0.0383021 -0.00602536 0)
(0.035732 -0.00648698 0)
(0.033526 -0.00677215 0)
(0.0316423 -0.00686543 0)
(0.0300409 -0.00677011 0)
(0.0286859 -0.00650208 0)
(0.0275472 -0.00608475 0)
(0.0265995 -0.00554575 0)
(0.0258219 -0.00491596 0)
(0.0251969 -0.00423127 0)
(0.0247101 -0.00353859 0)
(0.0243311 -0.00290987 0)
(0.0239922 -0.00247062 0)
(0.0624501 0.000951379 0)
(0.0583396 0.00110121 0)
(0.0541018 0.000864412 0)
(0.0500106 0.000268545 0)
(0.046215 -0.000602271 0)
(0.0428 -0.00162909 0)
(0.0397979 -0.00268224 0)
(0.0371986 -0.00364755 0)
(0.0349683 -0.00444422 0)
(0.0330634 -0.00502673 0)
(0.0314402 -0.00537958 0)
(0.0300593 -0.00550961 0)
(0.0288875 -0.00543778 0)
(0.027898 -0.00519264 0)
(0.0270695 -0.00480627 0)
(0.026385 -0.00431289 0)
(0.0258302 -0.00375018 0)
(0.0253939 -0.00316462 0)
(0.02505 -0.00262414 0)
(0.0247379 -0.00224296 0)
(0.0573184 0.00424118 0)
(0.053791 0.00464533 0)
(0.0500474 0.00441673 0)
(0.0464628 0.00364041 0)
(0.0431897 0.00246764 0)
(0.0402994 0.00108439 0)
(0.0378054 -0.000329229 0)
(0.0356781 -0.00163052 0)
(0.0338689 -0.00272414 0)
(0.032329 -0.00356189 0)
(0.0310152 -0.00413218 0)
(0.0298917 -0.00444785 0)
(0.0289304 -0.0045362 0)
(0.0281106 -0.00443139 0)
(0.0274164 -0.00416993 0)
(0.026836 -0.00378906 0)
(0.0263598 -0.00332791 0)
(0.0259804 -0.00283236 0)
(0.0256764 -0.0023665 0)
(0.025395 -0.00203449 0)
(0.0510198 0.00693694 0)
(0.0480314 0.00769122 0)
(0.0448656 0.00747269 0)
(0.0419432 0.00648957 0)
(0.0393687 0.00499636 0)
(0.0371723 0.00326426 0)
(0.035329 0.0015236 0)
(0.0337853 -6.24897e-05 0)
(0.0324832 -0.00139508 0)
(0.0313716 -0.00242926 0)
(0.0304124 -0.00316132 0)
(0.029578 -0.00361254 0)
(0.0288495 -0.00381735 0)
(0.0282147 -0.00381542 0)
(0.0276656 -0.00364714 0)
(0.0271969 -0.00335205 0)
(0.0268047 -0.00297006 0)
(0.026486 -0.00254598 0)
(0.0262248 -0.00214006 0)
(0.0259769 -0.00184758 0)
(0.0430744 0.00905041 0)
(0.0406676 0.0101378 0)
(0.0383473 0.00986639 0)
(0.0363831 0.008623 0)
(0.0347716 0.0067989 0)
(0.0334838 0.00475348 0)
(0.0324538 0.00275127 0)
(0.0316092 0.000962016 0)
(0.0308921 -0.00052439 0)
(0.0302616 -0.00167554 0)
(0.0296915 -0.0024989 0)
(0.0291683 -0.00302511 0)
(0.0286863 -0.00329547 0)
(0.0282448 -0.00335414 0)
(0.0278457 -0.00324411 0)
(0.0274915 -0.00300603 0)
(0.0271849 -0.00267951 0)
(0.0269282 -0.00230758 0)
(0.0267107 -0.00194643 0)
(0.0264968 -0.00168338 0)
(0.0328253 0.0104104 0)
(0.0313649 0.011679 0)
(0.0304719 0.0112666 0)
(0.0299082 0.00973189 0)
(0.0295802 0.00762573 0)
(0.0294222 0.00536977 0)
(0.0293482 0.00323011 0)
(0.0292916 0.00136102 0)
(0.0292129 -0.000165072 0)
(0.0290928 -0.00133371 0)
(0.0289273 -0.00216462 0)
(0.028722 -0.00269677 0)
(0.0284882 -0.00297644 0)
(0.0282389 -0.00305021 0)
(0.0279872 -0.00296173 0)
(0.0277448 -0.002751 0)
(0.0275212 -0.00245596 0)
(0.0273242 -0.0021169 0)
(0.0271489 -0.00178549 0)
(0.0269677 -0.00154157 0)
(0.0197796 0.0115264 0)
(0.0203467 0.0119942 0)
(0.0217466 0.0112158 0)
(0.0230164 0.00944356 0)
(0.0242221 0.00723053 0)
(0.0253281 0.004964 0)
(0.026273 0.00287424 0)
(0.0270292 0.0010892 0)
(0.0275931 -0.000339522 0)
(0.0279773 -0.00141236 0)
(0.0282052 -0.00215919 0)
(0.0283049 -0.00262405 0)
(0.0283061 -0.00285488 0)
(0.0282367 -0.00289772 0)
(0.0281217 -0.00279431 0)
(0.0279819 -0.00258197 0)
(0.0278339 -0.00229535 0)
(0.0276909 -0.00197087 0)
(0.0275542 -0.00165515 0)
(0.0274017 -0.00142065 0)
(0.00594868 0.00605529 0)
(0.00966684 0.00894305 0)
(0.0141644 0.00899262 0)
(0.017262 0.00761136 0)
(0.0198432 0.00567763 0)
(0.0220255 0.00366163 0)
(0.0238192 0.00181528 0)
(0.0252457 0.000263916 0)
(0.0263356 -0.000950475 0)
(0.0271293 -0.00183583 0)
(0.0276734 -0.00242672 0)
(0.0280158 -0.00276785 0)
(0.0282021 -0.00290526 0)
(0.0282729 -0.00288165 0)
(0.0282633 -0.00273468 0)
(0.0282019 -0.0024973 0)
(0.028111 -0.00219974 0)
(0.0280084 -0.0018738 0)
(0.0279009 -0.00156111 0)
(0.0277687 -0.0013292 0)
(0.00183633 0.00172169 0)
(0.00495627 0.00538544 0)
(0.00953245 0.00605007 0)
(0.0133298 0.0051496 0)
(0.016714 0.00360718 0)
(0.0196264 0.00193966 0)
(0.0220352 0.000419905 0)
(0.0239614 -0.00082959 0)
(0.0254475 -0.00177506 0)
(0.02655 -0.00243048 0)
(0.0273318 -0.00283218 0)
(0.0278553 -0.00302348 0)
(0.0281785 -0.00304679 0)
(0.0283522 -0.00294003 0)
(0.0284191 -0.00273571 0)
(0.0284138 -0.00246167 0)
(0.0283635 -0.0021432 0)
(0.0282892 -0.00180724 0)
(0.0282017 -0.00149062 0)
(0.0280834 -0.00125784 0)
(0.000338725 0.000590006 0)
(0.00248793 0.00271317 0)
(0.0066433 0.0030689 0)
(0.010663 0.00232268 0)
(0.0144982 0.00109549 0)
(0.0179006 -0.000197974 0)
(0.0207582 -0.00133135 0)
(0.0230629 -0.00221319 0)
(0.0248534 -0.00282917 0)
(0.0261935 -0.00320312 0)
(0.0271573 -0.00337375 0)
(0.0278183 -0.00338206 0)
(0.0282442 -0.00326547 0)
(0.0284938 -0.00305572 0)
(0.0286162 -0.00277883 0)
(0.028651 -0.00245647 0)
(0.0286289 -0.00210818 0)
(0.028574 -0.00175544 0)
(0.0284994 -0.00142988 0)
(0.02839 -0.00119253 0)
(-0.000133369 -1.66752e-05 0)
(0.00138634 0.00058103 0)
(0.00508084 0.000246261 0)
(0.00912964 -0.000630481 0)
(0.0132014 -0.00166739 0)
(0.0169044 -0.00260881 0)
(0.0200539 -0.00333091 0)
(0.0226093 -0.00380418 0)
(0.0246015 -0.00404845 0)
(0.0260976 -0.00410334 0)
(0.0271786 -0.00401182 0)
(0.0279262 -0.00381253 0)
(0.028415 -0.00353703 0)
(0.0287096 -0.0032098 0)
(0.0288635 -0.00284944 0)
(0.02892 -0.00247058 0)
(0.0289123 -0.00208634 0)
(0.0288665 -0.0017123 0)
(0.0287974 -0.00137452 0)
(0.0286908 -0.00113001 0)
(-0.000276839 -0.000282211 0)
(0.000985783 -0.00123215 0)
(0.00449448 -0.00245796 0)
(0.00858349 -0.00364009 0)
(0.0127946 -0.00457219 0)
(0.0166617 -0.00518087 0)
(0.0199621 -0.00547814 0)
(0.0226404 -0.00551731 0)
(0.0247257 -0.0053629 0)
(0.0262887 -0.00507483 0)
(0.027416 -0.00470174 0)
(0.028194 -0.00427981 0)
(0.0287018 -0.00383411 0)
(0.0290073 -0.00338111 0)
(0.0291667 -0.00293129 0)
(0.029225 -0.00249165 0)
(0.0292168 -0.00206846 0)
(0.0291691 -0.00167106 0)
(0.0290974 -0.00131971 0)
(0.0289871 -0.00106704 0)
(-0.000296482 -0.000471083 0)
(0.00104553 -0.00300136 0)
(0.00474499 -0.0051912 0)
(0.00897814 -0.0067223 0)
(0.0132846 -0.00755803 0)
(0.0171999 -0.00782267 0)
(0.0205137 -0.00767752 0)
(0.0231831 -0.00726557 0)
(0.025247 -0.00669859 0)
(0.0267825 -0.00605724 0)
(0.0278802 -0.00539542 0)
(0.0286292 -0.00474616 0)
(0.0291097 -0.00412741 0)
(0.0293905 -0.00354708 0)
(0.0295281 -0.00300711 0)
(0.0295673 -0.00250662 0)
(0.029543 -0.0020448 0)
(0.029482 -0.00162463 0)
(0.0293997 -0.00126041 0)
(0.0292787 -0.00100015 0)
(-0.000148521 -0.000781465 0)
(0.00166495 -0.00502701 0)
(0.00594987 -0.00813246 0)
(0.0104121 -0.00991065 0)
(0.0147417 -0.0105685 0)
(0.0185651 -0.0104399 0)
(0.0217365 -0.00982817 0)
(0.0242532 -0.00895667 0)
(0.0261737 -0.00797731 0)
(0.0275827 -0.00698707 0)
(0.0285725 -0.00604257 0)
(0.0292314 -0.00517236 0)
(0.0296377 -0.00438662 0)
(0.0298578 -0.00368447 0)
(0.0299461 -0.00305924 0)
(0.0299456 -0.00250218 0)
(0.0298897 -0.00200548 0)
(0.029804 -0.00156581 0)
(0.0297027 -0.00119151 0)
(0.0295644 -0.000925779 0)
(0.000513325 -0.00153373 0)
(0.00332538 -0.00763334 0)
(0.00848318 -0.0114257 0)
(0.0131157 -0.0131885 0)
(0.0172851 -0.0135048 0)
(0.0208088 -0.01291 0)
(0.0236466 -0.0118125 0)
(0.0258499 -0.0104892 0)
(0.0274977 -0.00911634 0)
(0.0286791 -0.0077988 0)
(0.029483 -0.00659219 0)
(0.029992 -0.00551912 0)
(0.0302784 -0.00458168 0)
(0.0304029 -0.00377038 0)
(0.0304155 -0.0030703 0)
(0.0303555 -0.00246527 0)
(0.030253 -0.00194083 0)
(0.0301318 -0.00148756 0)
(0.0300037 -0.00110798 0)
(0.0298416 -0.000840625 0)
(0.00267143 -0.00310641 0)
(0.0069896 -0.0111427 0)
(0.0129149 -0.0150799 0)
(0.0173728 -0.0164077 0)
(0.0210224 -0.016181 0)
(0.0239505 -0.0150625 0)
(0.0262265 -0.0134905 0)
(0.0279436 -0.011753 0)
(0.0291891 -0.0100305 0)
(0.0300452 -0.00842735 0)
(0.0305896 -0.00699475 0)
(0.0308932 -0.00574881 0)
(0.0310175 -0.00468403 0)
(0.0310147 -0.00378315 0)
(0.0309274 -0.00302396 0)
(0.0307896 -0.00238363 0)
(0.0306271 -0.00184174 0)
(0.0304605 -0.00138322 0)
(0.0302981 -0.00100503 0)
(0.0301067 -0.000741838 0)