x,y,z,p
0,0,0,0.0324536
0,0.1,0,0.0523195
0,0.2,0,0.0721854
0,0.3,0,0.0920513
0,0.4,0,0.111917
0,0.5,0,0.132596
0,0.6,0,0.159504
0,0.7,0,0.186412
0,0.8,0,0.21332
0,0.9,0,0.240228
0,1,0,0.267108
0,1.1,0,0.293898
0,1.2,0,0.320688
0,1.3,0,0.347477
0,1.4,0,0.374267
0,1.5,0,0.40071
0,1.6,0,0.426496
0,1.7,0,0.452283
0,1.8,0,0.478069
0,1.9,0,0.503855
0,2,0,0.528962
0,2.1,0,0.553275
0,2.2,0,0.577587
0,2.3,0,0.6019
0,2.4,0,0.626213
0,2.5,0,0.649264
0,2.6,0,0.671389
0,2.7,0,0.693515
0,2.8,0,0.715641
0,2.9,0,0.737766
0,3,0,0.757697
0,3.1,0,0.776652
0,3.2,0,0.795607
0,3.3,0,0.814562
0,3.4,0,0.833517
0,3.5,0,0.851366
0,3.6,0,0.868953
0,3.7,0,0.886539
0,3.8,0,0.904125
0,3.9,0,0.921712
0,4,0,0.936721
0,4.1,0,0.951516
0,4.2,0,0.966311
0,4.3,0,0.981106
0,4.4,0,0.995781
0,4.5,0,1.00747
0,4.6,0,1.01915
0,4.7,0,1.03084
0,4.8,0,1.04253
0,4.9,0,1.05381
0,5,0,1.06286
0,5.1,0,1.07192
0,5.2,0,1.08098
0,5.3,0,1.09003
0,5.4,0,1.09787
0,5.5,0,1.10238
0,5.6,0,1.1069
0,5.7,0,1.11142
0,5.8,0,1.11594
0,5.9,0,1.1193
0,6,0,1.12083
0,6.1,0,1.12235
0,6.2,0,1.12388
0,6.3,0,1.1254
0,6.4,0,1.12545
0,6.5,0,1.12403
0,6.6,0,1.12261
0,6.7,0,1.12119
0,6.8,0,1.11977
0,6.9,0,1.11647
0,7,0,1.112
0,7.1,0,1.10753
0,7.2,0,1.10307
0,7.3,0,1.0986
0,7.4,0,1.09152
0,7.5,0,1.08348
0,7.6,0,1.07545
0,7.7,0,1.06741
0,7.8,0,1.05937
0,7.9,0,1.04912
0,8,0,1.03846
0,8.1,0,1.02781
0,8.2,0,1.01715
0,8.3,0,1.00649
0,8.4,0,0.992364
0,8.5,0,0.978096
0,8.6,0,0.963828
0,8.7,0,0.949559
0,8.8,0,0.935103
0,8.9,0,0.918391
0,9,0,0.90168
0,9.1,0,0.884968
0,9.2,0,0.868257
0,9.3,0,0.851241
0,9.4,0,0.832949
0,9.5,0,0.814657
0,9.6,0,0.796365
0,9.7,0,0.778072
0,9.8,0,0.758804
0,9.9,0,0.737339
0,10,0,0.715874
0,10.1,0,0.694409
0,10.2,0,0.672944
0,10.3,0,0.650652
0,10.4,0,0.627233
0,10.5,0,0.603814
0,10.6,0,0.580395
0,10.7,0,0.556976
0,10.8,0,0.532341
0,10.9,0,0.506662
0,11,0,0.480984
0,11.1,0,0.455305
0,11.2,0,0.429627
0,11.3,0,0.402766
0,11.4,0,0.37528
0,11.5,0,0.347794
0,11.6,0,0.320308
0,11.7,0,0.292822
0,11.8,0,0.264409
0,11.9,0,0.235718
0,12,0,0.207027
0,12.1,0,0.178336
0,12.2,0,0.149645
0,12.3,0,0.126655
0,12.4,0,0.104408
0,12.5,0,0.0821615
0,12.6,0,0.0599148
0,12.7,0,0.0376681
0.1,0,0,0.0259629
0.1,0.1,0,0.053796
0.1,0.2,0,0.0736619
0.1,0.3,0,0.0935278
0.1,0.4,0,0.113394
0.1,0.5,0,0.134075
0.1,0.6,0,0.161731
0.1,0.7,0,0.188639
0.1,0.8,0,0.215547
0.1,0.9,0,0.242455
0.1,1,0,0.269311
0.1,1.1,0,0.296012
0.1,1.2,0,0.322802
0.1,1.3,0,0.349591
0.1,1.4,0,0.376381
0.1,1.5,0,0.402676
0.1,1.6,0,0.428177
0.1,1.7,0,0.453963
0.1,1.8,0,0.47975
0.1,1.9,0,0.505536
0.1,2,0,0.530432
0.1,2.1,0,0.554509
0.1,2.2,0,0.578822
0.1,2.3,0,0.603135
0.1,2.4,0,0.627448
0.1,2.5,0,0.650573
0.1,2.6,0,0.672749
0.1,2.7,0,0.694875
0.1,2.8,0,0.717001
0.1,2.9,0,0.739126
0.1,3,0,0.759729
0.1,3.1,0,0.778961
0.1,3.2,0,0.797916
0.1,3.3,0,0.816871
0.1,3.4,0,0.835826
0.1,3.5,0,0.85362
0.1,3.6,0,0.871195
0.1,3.7,0,0.888781
0.1,3.8,0,0.906368
0.1,3.9,0,0.923954
0.1,4,0,0.938695
0.1,4.1,0,0.953474
0.1,4.2,0,0.968269
0.1,4.3,0,0.983064
0.1,4.4,0,0.997739
0.1,4.5,0,1.00942
0.1,4.6,0,1.02111
0.1,4.7,0,1.03279
0.1,4.8,0,1.04448
0.1,4.9,0,1.0557
0.1,5,0,1.06443
0.1,5.1,0,1.07349
0.1,5.2,0,1.08254
0.1,5.3,0,1.0916
0.1,5.4,0,1.0996
0.1,5.5,0,1.10457
0.1,5.6,0,1.10909
0.1,5.7,0,1.1136
0.1,5.8,0,1.11812
0.1,5.9,0,1.12165
0.1,6,0,1.12342
0.1,6.1,0,1.12495
0.1,6.2,0,1.12647
0.1,6.3,0,1.128
0.1,6.4,0,1.12793
0.1,6.5,0,1.12639
0.1,6.6,0,1.12497
0.1,6.7,0,1.12355
0.1,6.8,0,1.12213
0.1,6.9,0,1.11869
0.1,7,0,1.11414
0.1,7.1,0,1.10967
0.1,7.2,0,1.1052
0.1,7.3,0,1.10073
0.1,7.4,0,1.09358
0.1,7.5,0,1.08552
0.1,7.6,0,1.07748
0.1,7.7,0,1.06944
0.1,7.8,0,1.0614
0.1,7.9,0,1.05067
0.1,8,0,1.03994
0.1,8.1,0,1.02928
0.1,8.2,0,1.01862
0.1,8.3,0,1.00797
0.1,8.4,0,0.993892
0.1,8.5,0,0.979625
0.1,8.6,0,0.965356
0.1,8.7,0,0.951088
0.1,8.8,0,0.936605
0.1,8.9,0,0.919587
0.1,9,0,0.902875
0.1,9.1,0,0.886164
0.1,9.2,0,0.869452
0.1,9.3,0,0.852201
0.1,9.4,0,0.832948
0.1,9.5,0,0.814656
0.1,9.6,0,0.796364
0.1,9.7,0,0.778071
0.1,9.8,0,0.758614
0.1,9.9,0,0.736739
0.1,10,0,0.715275
0.1,10.1,0,0.69381
0.1,10.2,0,0.672345
0.1,10.3,0,0.649809
0.1,10.4,0,0.626071
0.1,10.5,0,0.602652
0.1,10.6,0,0.579233
0.1,10.7,0,0.555814
0.1,10.8,0,0.531071
0.1,10.9,0,0.505305
0.1,11,0,0.479627
0.1,11.1,0,0.453948
0.1,11.2,0,0.42827
0.1,11.3,0,0.401417
0.1,11.4,0,0.373935
0.1,11.5,0,0.346449
0.1,11.6,0,0.318963
0.1,11.7,0,0.291477
0.1,11.8,0,0.263064
0.1,11.9,0,0.234373
0.1,12,0,0.205682
0.1,12.1,0,0.176991
0.1,12.2,0,0.148662
0.1,12.3,0,0.125685
0.1,12.4,0,0.103438
0.1,12.5,0,0.0811916
0.1,12.6,0,0.0589449
0.1,12.7,0,0.0301345
0.2,0,0,0.0194722
0.2,0.1,0,0.047364
0.2,0.2,0,0.0751384
0.2,0.3,0,0.0950043
0.2,0.4,0,0.11487
0.2,0.5,0,0.135454
0.2,0.6,0,0.163221
0.2,0.7,0,0.190866
0.2,0.8,0,0.217774
0.2,0.9,0,0.244682
0.2,1,0,0.271541
0.2,1.1,0,0.298213
0.2,1.2,0,0.324916
0.2,1.3,0,0.351706
0.2,1.4,0,0.378495
0.2,1.5,0,0.4048
0.2,1.6,0,0.430133
0.2,1.7,0,0.455644
0.2,1.8,0,0.48143
0.2,1.9,0,0.507217
0.2,2,0,0.532113
0.2,2.1,0,0.555969
0.2,2.2,0,0.580057
0.2,2.3,0,0.60437
0.2,2.4,0,0.628683
0.2,2.5,0,0.651808
0.2,2.6,0,0.674061
0.2,2.7,0,0.696235
0.2,2.8,0,0.718361
0.2,2.9,0,0.740486
0.2,3,0,0.761089
0.2,3.1,0,0.781015
0.2,3.2,0,0.800224
0.2,3.3,0,0.819179
0.2,3.4,0,0.838135
0.2,3.5,0,0.855929
0.2,3.6,0,0.873447
0.2,3.7,0,0.891024
0.2,3.8,0,0.90861
0.2,3.9,0,0.926196
0.2,4,0,0.940937
0.2,4.1,0,0.95544
0.2,4.2,0,0.970226
0.2,4.3,0,0.985021
0.2,4.4,0,0.999696
0.2,4.5,0,1.01138
0.2,4.6,0,1.02306
0.2,4.7,0,1.03474
0.2,4.8,0,1.04643
0.2,4.9,0,1.05765
0.2,5,0,1.06631
0.2,5.1,0,1.07506
0.2,5.2,0,1.08411
0.2,5.3,0,1.09317
0.2,5.4,0,1.10117
0.2,5.5,0,1.10632
0.2,5.6,0,1.11127
0.2,5.7,0,1.11579
0.2,5.8,0,1.12031
0.2,5.9,0,1.12384
0.2,6,0,1.12578
0.2,6.1,0,1.12755
0.2,6.2,0,1.12907
0.2,6.3,0,1.1306
0.2,6.4,0,1.13053
0.2,6.5,0,1.12886
0.2,6.6,0,1.12733
0.2,6.7,0,1.12591
0.2,6.8,0,1.12449
0.2,6.9,0,1.12105
0.2,7,0,1.11635
0.2,7.1,0,1.1118
0.2,7.2,0,1.10734
0.2,7.3,0,1.10287
0.2,7.4,0,1.09571
0.2,7.5,0,1.08757
0.2,7.6,0,1.07951
0.2,7.7,0,1.07147
0.2,7.8,0,1.06344
0.2,7.9,0,1.0527
0.2,8,0,1.04147
0.2,8.1,0,1.03076
0.2,8.2,0,1.0201
0.2,8.3,0,1.00944
0.2,8.4,0,0.995367
0.2,8.5,0,0.981153
0.2,8.6,0,0.966885
0.2,8.7,0,0.952616
0.2,8.8,0,0.938134
0.2,8.9,0,0.921081
0.2,9,0,0.904071
0.2,9.1,0,0.887359
0.2,9.2,0,0.870648
0.2,9.3,0,0.853397
0.2,9.4,0,0.83388
0.2,9.5,0,0.814655
0.2,9.6,0,0.796362
0.2,9.7,0,0.77807
0.2,9.8,0,0.758613
0.2,9.9,0,0.736536
0.2,10,0,0.714675
0.2,10.1,0,0.69321
0.2,10.2,0,0.671745
0.2,10.3,0,0.64921
0.2,10.4,0,0.625214
0.2,10.5,0,0.601489
0.2,10.6,0,0.57807
0.2,10.7,0,0.554651
0.2,10.8,0,0.529908
0.2,10.9,0,0.504031
0.2,11,0,0.478269
0.2,11.1,0,0.452591
0.2,11.2,0,0.426913
0.2,11.3,0,0.40006
0.2,11.4,0,0.372587
0.2,11.5,0,0.345104
0.2,11.6,0,0.317618
0.2,11.7,0,0.290132
0.2,11.8,0,0.261719
0.2,11.9,0,0.233028
0.2,12,0,0.204337
0.2,12.1,0,0.175999
0.2,12.2,0,0.147728
0.2,12.3,0,0.124715
0.2,12.4,0,0.102468
0.2,12.5,0,0.0802217
0.2,12.6,0,0.0515875
0.2,12.7,0,0.0226009
0.3,0,0,0.0129814
0.3,0.1,0,0.0408733
0.3,0.2,0,0.0687651
0.3,0.3,0,0.0964808
0.3,0.4,0,0.116347
0.3,0.5,0,0.136834
0.3,0.6,0,0.164601
0.3,0.7,0,0.192368
0.3,0.8,0,0.220001
0.3,0.9,0,0.246909
0.3,1,0,0.273771
0.3,1.1,0,0.300443
0.3,1.2,0,0.327114
0.3,1.3,0,0.35382
0.3,1.4,0,0.380609
0.3,1.5,0,0.406923
0.3,1.6,0,0.432256
0.3,1.7,0,0.45759
0.3,1.8,0,0.483111
0.3,1.9,0,0.508897
0.3,2,0,0.533793
0.3,2.1,0,0.55765
0.3,2.2,0,0.581506
0.3,2.3,0,0.605605
0.3,2.4,0,0.629918
0.3,2.5,0,0.653043
0.3,2.6,0,0.675296
0.3,2.7,0,0.69755
0.3,2.8,0,0.719721
0.3,2.9,0,0.741846
0.3,3,0,0.762449
0.3,3.1,0,0.782376
0.3,3.2,0,0.802302
0.3,3.3,0,0.821488
0.3,3.4,0,0.840443
0.3,3.5,0,0.858238
0.3,3.6,0,0.875756
0.3,3.7,0,0.893274
0.3,3.8,0,0.910852
0.3,3.9,0,0.928439
0.3,4,0,0.943179
0.3,4.1,0,0.957682
0.3,4.2,0,0.972186
0.3,4.3,0,0.986978
0.3,4.4,0,1.00165
0.3,4.5,0,1.01333
0.3,4.6,0,1.02501
0.3,4.7,0,1.03669
0.3,4.8,0,1.04838
0.3,4.9,0,1.0596
0.3,5,0,1.06827
0.3,5.1,0,1.07693
0.3,5.2,0,1.08568
0.3,5.3,0,1.09474
0.3,5.4,0,1.10274
0.3,5.5,0,1.10789
0.3,5.6,0,1.11304
0.3,5.7,0,1.11798
0.3,5.8,0,1.12249
0.3,5.9,0,1.12602
0.3,6,0,1.12797
0.3,6.1,0,1.12991
0.3,6.2,0,1.13167
0.3,6.3,0,1.13319
0.3,6.4,0,1.13312
0.3,6.5,0,1.13146
0.3,6.6,0,1.1298
0.3,6.7,0,1.12827
0.3,6.8,0,1.12685
0.3,6.9,0,1.12341
0.3,7,0,1.11871
0.3,7.1,0,1.11401
0.3,7.2,0,1.10947
0.3,7.3,0,1.105
0.3,7.4,0,1.09785
0.3,7.5,0,1.08971
0.3,7.6,0,1.08156
0.3,7.7,0,1.07351
0.3,7.8,0,1.06547
0.3,7.9,0,1.05473
0.3,8,0,1.04351
0.3,8.1,0,1.03228
0.3,8.2,0,1.02157
0.3,8.3,0,1.01092
0.3,8.4,0,0.996841
0.3,8.5,0,0.982628
0.3,8.6,0,0.968413
0.3,8.7,0,0.954145
0.3,8.8,0,0.939662
0.3,8.9,0,0.92261
0.3,9,0,0.905557
0.3,9.1,0,0.888555
0.3,9.2,0,0.871843
0.3,9.3,0,0.854592
0.3,9.4,0,0.835075
0.3,9.5,0,0.815558
0.3,9.6,0,0.796361
0.3,9.7,0,0.778069
0.3,9.8,0,0.758612
0.3,9.9,0,0.736535
0.3,10,0,0.714457
0.3,10.1,0,0.692611
0.3,10.2,0,0.671146
0.3,10.3,0,0.64861
0.3,10.4,0,0.624615
0.3,10.5,0,0.60062
0.3,10.6,0,0.576908
0.3,10.7,0,0.553489
0.3,10.8,0,0.528746
0.3,10.9,0,0.502868
0.3,11,0,0.476991
0.3,11.1,0,0.451234
0.3,11.2,0,0.425555
0.3,11.3,0,0.398703
0.3,11.4,0,0.371229
0.3,11.5,0,0.343756
0.3,11.6,0,0.316273
0.3,11.7,0,0.288787
0.3,11.8,0,0.260374
0.3,11.9,0,0.231683
0.3,12,0,0.203335
0.3,12.1,0,0.175064
0.3,12.2,0,0.146794
0.3,12.3,0,0.123745
0.3,12.4,0,0.101499
0.3,12.5,0,0.0730406
0.3,12.6,0,0.0440539
0.3,12.7,0,0.0150673
0.4,0,0,0.00649072
0.4,0.1,0,0.0343826
0.4,0.2,0,0.0622744
0.4,0.3,0,0.0901663
0.4,0.4,0,0.117823
0.4,0.5,0,0.138213
0.4,0.6,0,0.165981
0.4,0.7,0,0.193748
0.4,0.8,0,0.221515
0.4,0.9,0,0.249136
0.4,1,0,0.276002
0.4,1.1,0,0.302673
0.4,1.2,0,0.329344
0.4,1.3,0,0.356016
0.4,1.4,0,0.382723
0.4,1.5,0,0.409047
0.4,1.6,0,0.43438
0.4,1.7,0,0.459713
0.4,1.8,0,0.485046
0.4,1.9,0,0.510578
0.4,2,0,0.535474
0.4,2.1,0,0.55933
0.4,2.2,0,0.583187
0.4,2.3,0,0.607043
0.4,2.4,0,0.631153
0.4,2.5,0,0.654277
0.4,2.6,0,0.676531
0.4,2.7,0,0.698785
0.4,2.8,0,0.721039
0.4,2.9,0,0.743207
0.4,3,0,0.763809
0.4,3.1,0,0.783736
0.4,3.2,0,0.803662
0.4,3.3,0,0.823588
0.4,3.4,0,0.842752
0.4,3.5,0,0.860547
0.4,3.6,0,0.878065
0.4,3.7,0,0.895583
0.4,3.8,0,0.913101
0.4,3.9,0,0.930681
0.4,4,0,0.945421
0.4,4.1,0,0.959925
0.4,4.2,0,0.974428
0.4,4.3,0,0.988936
0.4,4.4,0,1.00361
0.4,4.5,0,1.01529
0.4,4.6,0,1.02697
0.4,4.7,0,1.03865
0.4,4.8,0,1.05033
0.4,4.9,0,1.06155
0.4,5,0,1.07022
0.4,5.1,0,1.07888
0.4,5.2,0,1.08755
0.4,5.3,0,1.09631
0.4,5.4,0,1.10431
0.4,5.5,0,1.10946
0.4,5.6,0,1.11461
0.4,5.7,0,1.11976
0.4,5.8,0,1.12468
0.4,5.9,0,1.12821
0.4,6,0,1.13015
0.4,6.1,0,1.1321
0.4,6.2,0,1.13404
0.4,6.3,0,1.13579
0.4,6.4,0,1.13572
0.4,6.5,0,1.13406
0.4,6.6,0,1.13239
0.4,6.7,0,1.13073
0.4,6.8,0,1.12921
0.4,6.9,0,1.12577
0.4,7,0,1.12107
0.4,7.1,0,1.11637
0.4,7.2,0,1.11167
0.4,7.3,0,1.10714
0.4,7.4,0,1.09998
0.4,7.5,0,1.09184
0.4,7.6,0,1.0837
0.4,7.7,0,1.07556
0.4,7.8,0,1.0675
0.4,7.9,0,1.05677
0.4,8,0,1.04554
0.4,8.1,0,1.03431
0.4,8.2,0,1.02308
0.4,8.3,0,1.01239
0.4,8.4,0,0.998316
0.4,8.5,0,0.984103
0.4,8.6,0,0.969889
0.4,8.7,0,0.955673
0.4,8.8,0,0.941191
0.4,8.9,0,0.924138
0.4,9,0,0.907086
0.4,9.1,0,0.890033
0.4,9.2,0,0.873038
0.4,9.3,0,0.855787
0.4,9.4,0,0.83627
0.4,9.5,0,0.816753
0.4,9.6,0,0.797237
0.4,9.7,0,0.778068
0.4,9.8,0,0.758611
0.4,9.9,0,0.736534
0.4,10,0,0.714456
0.4,10.1,0,0.692379
0.4,10.2,0,0.670546
0.4,10.3,0,0.648011
0.4,10.4,0,0.624015
0.4,10.5,0,0.60002
0.4,10.6,0,0.576025
0.4,10.7,0,0.552326
0.4,10.8,0,0.527583
0.4,10.9,0,0.501706
0.4,11,0,0.475828
0.4,11.1,0,0.44995
0.4,11.2,0,0.424198
0.4,11.3,0,0.397346
0.4,11.4,0,0.369872
0.4,11.5,0,0.342399
0.4,11.6,0,0.314925
0.4,11.7,0,0.287442
0.4,11.8,0,0.259029
0.4,11.9,0,0.230671
0.4,12,0,0.2024
0.4,12.1,0,0.17413
0.4,12.2,0,0.145859
0.4,12.3,0,0.122775
0.4,12.4,0,0.0944936
0.4,12.5,0,0.0655069
0.4,12.6,0,0.0365203
0.4,12.7,0,0.00753363
0.5,0,0,0
0.5,0.1,0,0.0279206
0.5,0.2,0,0.0558412
0.5,0.3,0,0.0837619
0.5,0.4,0,0.111682
0.5,0.5,0,0.139605
0.5,0.6,0,0.167368
0.5,0.7,0,0.19513
0.5,0.8,0,0.222895
0.5,0.9,0,0.250662
0.5,1,0,0.278232
0.5,1.1,0,0.304903
0.5,1.2,0,0.331575
0.5,1.3,0,0.358246
0.5,1.4,0,0.384917
0.5,1.5,0,0.411171
0.5,1.6,0,0.436504
0.5,1.7,0,0.461837
0.5,1.8,0,0.48717
0.5,1.9,0,0.512503
0.5,2,0,0.537155
0.5,2.1,0,0.561011
0.5,2.2,0,0.584868
0.5,2.3,0,0.608724
0.5,2.4,0,0.632581
0.5,2.5,0,0.655512
0.5,2.6,0,0.677766
0.5,2.7,0,0.70002
0.5,2.8,0,0.722274
0.5,2.9,0,0.744527
0.5,3,0,0.76517
0.5,3.1,0,0.785096
0.5,3.2,0,0.805022
0.5,3.3,0,0.824948
0.5,3.4,0,0.844874
0.5,3.5,0,0.862856
0.5,3.6,0,0.880374
0.5,3.7,0,0.897892
0.5,3.8,0,0.91541
0.5,3.9,0,0.932928
0.5,4,0,0.947664
0.5,4.1,0,0.962167
0.5,4.2,0,0.97667
0.5,4.3,0,0.991174
0.5,4.4,0,1.00557
0.5,4.5,0,1.01725
0.5,4.6,0,1.02893
0.5,4.7,0,1.04061
0.5,4.8,0,1.05229
0.5,4.9,0,1.06351
0.5,5,0,1.07217
0.5,5.1,0,1.08083
0.5,5.2,0,1.0895
0.5,5.3,0,1.09816
0.5,5.4,0,1.10588
0.5,5.5,0,1.11103
0.5,5.6,0,1.11618
0.5,5.7,0,1.12133
0.5,5.8,0,1.12648
0.5,5.9,0,1.1304
0.5,6,0,1.13234
0.5,6.1,0,1.13429
0.5,6.2,0,1.13623
0.5,6.3,0,1.13818
0.5,6.4,0,1.13832
0.5,6.5,0,1.13665
0.5,6.6,0,1.13499
0.5,6.7,0,1.13333
0.5,6.8,0,1.13166
0.5,6.9,0,1.12813
0.5,7,0,1.12343
0.5,7.1,0,1.11873
0.5,7.2,0,1.11403
0.5,7.3,0,1.10933
0.5,7.4,0,1.10212
0.5,7.5,0,1.09398
0.5,7.6,0,1.08583
0.5,7.7,0,1.07769
0.5,7.8,0,1.06955
0.5,7.9,0,1.0588
0.5,8,0,1.04757
0.5,8.1,0,1.03634
0.5,8.2,0,1.02512
0.5,8.3,0,1.01389
0.5,8.4,0,0.99979
0.5,8.5,0,0.985577
0.5,8.6,0,0.971364
0.5,8.7,0,0.957151
0.5,8.8,0,0.942719
0.5,8.9,0,0.925667
0.5,9,0,0.908614
0.5,9.1,0,0.891562
0.5,9.2,0,0.874509
0.5,9.3,0,0.856983
0.5,9.4,0,0.837466
0.5,9.5,0,0.817949
0.5,9.6,0,0.798432
0.5,9.7,0,0.778915
0.5,9.8,0,0.75861
0.5,9.9,0,0.736533
0.5,10,0,0.714455
0.5,10.1,0,0.692378
0.5,10.2,0,0.6703
0.5,10.3,0,0.647411
0.5,10.4,0,0.623416
0.5,10.5,0,0.599421
0.5,10.6,0,0.575425
0.5,10.7,0,0.55143
0.5,10.8,0,0.526421
0.5,10.9,0,0.500543
0.5,11,0,0.474666
0.5,11.1,0,0.448788
0.5,11.2,0,0.42291
0.5,11.3,0,0.395989
0.5,11.4,0,0.368515
0.5,11.5,0,0.341042
0.5,11.6,0,0.313568
0.5,11.7,0,0.286094
0.5,11.8,0,0.258008
0.5,11.9,0,0.229739
0.5,12,0,0.201469
0.5,12.1,0,0.1732
0.5,12.2,0,0.144931
0.5,12.3,0,0.116023
0.5,12.4,0,0.0870173
0.5,12.5,0,0.0580115
0.5,12.6,0,0.0290058
0.5,12.7,0,0
0.6,0,0,0
0.6,0.1,0,0.0293934
0.6,0.2,0,0.0573141
0.6,0.3,0,0.0852347
0.6,0.4,0,0.113155
0.6,0.5,0,0.141098
0.6,0.6,0,0.169431
0.6,0.7,0,0.197194
0.6,0.8,0,0.224956
0.6,0.9,0,0.252719
0.6,1,0,0.280418
0.6,1.1,0,0.307615
0.6,1.2,0,0.334287
0.6,1.3,0,0.360959
0.6,1.4,0,0.387631
0.6,1.5,0,0.414035
0.6,1.6,0,0.439666
0.6,1.7,0,0.465001
0.6,1.8,0,0.490337
0.6,1.9,0,0.515672
0.6,2,0,0.540571
0.6,2.1,0,0.564692
0.6,2.2,0,0.588549
0.6,2.3,0,0.612406
0.6,2.4,0,0.636262
0.6,2.5,0,0.659351
0.6,2.6,0,0.681713
0.6,2.7,0,0.703967
0.6,2.8,0,0.726221
0.6,2.9,0,0.748474
0.6,3,0,0.76952
0.6,3.1,0,0.789612
0.6,3.2,0,0.809539
0.6,3.3,0,0.829465
0.6,3.4,0,0.849391
0.6,3.5,0,0.867474
0.6,3.6,0,0.885014
0.6,3.7,0,0.902532
0.6,3.8,0,0.92005
0.6,3.9,0,0.937568
0.6,4,0,0.952533
0.6,4.1,0,0.967049
0.6,4.2,0,0.981553
0.6,4.3,0,0.996056
0.6,4.4,0,1.01046
0.6,4.5,0,1.02229
0.6,4.6,0,1.03397
0.6,4.7,0,1.04565
0.6,4.8,0,1.05733
0.6,4.9,0,1.06853
0.6,5,0,1.0771
0.6,5.1,0,1.08577
0.6,5.2,0,1.09443
0.6,5.3,0,1.1031
0.6,5.4,0,1.11095
0.6,5.5,0,1.11645
0.6,5.6,0,1.1216
0.6,5.7,0,1.12675
0.6,5.8,0,1.1319
0.6,5.9,0,1.13595
0.6,6,0,1.13809
0.6,6.1,0,1.14004
0.6,6.2,0,1.14198
0.6,6.3,0,1.14393
0.6,6.4,0,1.14414
0.6,6.5,0,1.14254
0.6,6.6,0,1.14088
0.6,6.7,0,1.13921
0.6,6.8,0,1.13755
0.6,6.9,0,1.1338
0.6,7,0,1.12897
0.6,7.1,0,1.12427
0.6,7.2,0,1.11957
0.6,7.3,0,1.11487
0.6,7.4,0,1.1074
0.6,7.5,0,1.09918
0.6,7.6,0,1.09103
0.6,7.7,0,1.08289
0.6,7.8,0,1.07475
0.6,7.9,0,1.06355
0.6,8,0,1.05225
0.6,8.1,0,1.04102
0.6,8.2,0,1.0298
0.6,8.3,0,1.01857
0.6,8.4,0,1.0041
0.6,8.5,0,0.989884
0.6,8.6,0,0.975671
0.6,8.7,0,0.961457
0.6,8.8,0,0.94697
0.6,8.9,0,0.929267
0.6,9,0,0.912215
0.6,9.1,0,0.895162
0.6,9.2,0,0.87811
0.6,9.3,0,0.860337
0.6,9.4,0,0.839815
0.6,9.5,0,0.820298
0.6,9.6,0,0.800781
0.6,9.7,0,0.781264
0.6,9.8,0,0.760705
0.6,9.9,0,0.738073
0.6,10,0,0.715996
0.6,10.1,0,0.693918
0.6,10.2,0,0.671841
0.6,10.3,0,0.648611
0.6,10.4,0,0.62417
0.6,10.5,0,0.600175
0.6,10.6,0,0.57618
0.6,10.7,0,0.552184
0.6,10.8,0,0.526808
0.6,10.9,0,0.500638
0.6,11,0,0.47476
0.6,11.1,0,0.448883
0.6,11.2,0,0.423005
0.6,11.3,0,0.396073
0.6,11.4,0,0.368599
0.6,11.5,0,0.341125
0.6,11.6,0,0.313652
0.6,11.7,0,0.285718
0.6,11.8,0,0.257489
0.6,11.9,0,0.229219
0.6,12,0,0.20095
0.6,12.1,0,0.17268
0.6,12.2,0,0.143905
0.6,12.3,0,0.114917
0.6,12.4,0,0.0859117
0.6,12.5,0,0.056906
0.6,12.6,0,0.0279002
0.6,12.7,0,0
0.7,0,0,0
0.7,0.1,0,0.0294041
0.7,0.2,0,0.0587869
0.7,0.3,0,0.0867075
0.7,0.4,0,0.114628
0.7,0.5,0,0.142568
0.7,0.6,0,0.170933
0.7,0.7,0,0.199257
0.7,0.8,0,0.22702
0.7,0.9,0,0.254782
0.7,1,0,0.282489
0.7,1.1,0,0.30983
0.7,1.2,0,0.337006
0.7,1.3,0,0.363678
0.7,1.4,0,0.39035
0.7,1.5,0,0.416761
0.7,1.6,0,0.442556
0.7,1.7,0,0.468172
0.7,1.8,0,0.493507
0.7,1.9,0,0.518843
0.7,2,0,0.543749
0.7,2.1,0,0.56812
0.7,2.2,0,0.59223
0.7,2.3,0,0.616087
0.7,2.4,0,0.639943
0.7,2.5,0,0.663032
0.7,2.6,0,0.685558
0.7,2.7,0,0.707914
0.7,2.8,0,0.730168
0.7,2.9,0,0.752421
0.7,3,0,0.773467
0.7,3.1,0,0.793977
0.7,3.2,0,0.814055
0.7,3.3,0,0.833982
0.7,3.4,0,0.853908
0.7,3.5,0,0.871991
0.7,3.6,0,0.889635
0.7,3.7,0,0.907172
0.7,3.8,0,0.92469
0.7,3.9,0,0.942208
0.7,4,0,0.957173
0.7,4.1,0,0.971924
0.7,4.2,0,0.986435
0.7,4.3,0,1.00094
0.7,4.4,0,1.01534
0.7,4.5,0,1.02719
0.7,4.6,0,1.03902
0.7,4.7,0,1.0507
0.7,4.8,0,1.06238
0.7,4.9,0,1.07358
0.7,5,0,1.08213
0.7,5.1,0,1.0907
0.7,5.2,0,1.09937
0.7,5.3,0,1.10803
0.7,5.4,0,1.11588
0.7,5.5,0,1.12153
0.7,5.6,0,1.12703
0.7,5.7,0,1.13218
0.7,5.8,0,1.13733
0.7,5.9,0,1.14137
0.7,6,0,1.14366
0.7,6.1,0,1.14579
0.7,6.2,0,1.14774
0.7,6.3,0,1.14968
0.7,6.4,0,1.14989
0.7,6.5,0,1.14837
0.7,6.6,0,1.14677
0.7,6.7,0,1.1451
0.7,6.8,0,1.14344
0.7,6.9,0,1.13969
0.7,7,0,1.13463
0.7,7.1,0,1.12981
0.7,7.2,0,1.12511
0.7,7.3,0,1.12041
0.7,7.4,0,1.11294
0.7,7.5,0,1.10445
0.7,7.6,0,1.09623
0.7,7.7,0,1.08809
0.7,7.8,0,1.07995
0.7,7.9,0,1.06875
0.7,8,0,1.05699
0.7,8.1,0,1.0457
0.7,8.2,0,1.03447
0.7,8.3,0,1.02325
0.7,8.4,0,1.00878
0.7,8.5,0,0.99419
0.7,8.6,0,0.979977
0.7,8.7,0,0.965764
0.7,8.8,0,0.951277
0.7,8.9,0,0.933501
0.7,9,0,0.915815
0.7,9.1,0,0.898763
0.7,9.2,0,0.88171
0.7,9.3,0,0.863937
0.7,9.4,0,0.843139
0.7,9.5,0,0.822647
0.7,9.6,0,0.80313
0.7,9.7,0,0.783613
0.7,9.8,0,0.763053
0.7,9.9,0,0.740149
0.7,10,0,0.717536
0.7,10.1,0,0.695459
0.7,10.2,0,0.673381
0.7,10.3,0,0.650152
0.7,10.4,0,0.625352
0.7,10.5,0,0.600929
0.7,10.6,0,0.576934
0.7,10.7,0,0.552938
0.7,10.8,0,0.527562
0.7,10.9,0,0.501002
0.7,11,0,0.474855
0.7,11.1,0,0.448978
0.7,11.2,0,0.4231
0.7,11.3,0,0.396157
0.7,11.4,0,0.368683
0.7,11.5,0,0.341209
0.7,11.6,0,0.313288
0.7,11.7,0,0.2852
0.7,11.8,0,0.256969
0.7,11.9,0,0.228699
0.7,12,0,0.20043
0.7,12.1,0,0.171668
0.7,12.2,0,0.142802
0.7,12.3,0,0.113812
0.7,12.4,0,0.0848062
0.7,12.5,0,0.0558004
0.7,12.6,0,0.0278776
0.7,12.7,0,0
0.8,0,0,0
0.8,0.1,0,0.0294041
0.8,0.2,0,0.0588082
0.8,0.3,0,0.0881803
0.8,0.4,0,0.116101
0.8,0.5,0,0.144038
0.8,0.6,0,0.172403
0.8,0.7,0,0.200768
0.8,0.8,0,0.229083
0.8,0.9,0,0.256846
0.8,1,0,0.28456
0.8,1.1,0,0.311901
0.8,1.2,0,0.339242
0.8,1.3,0,0.366398
0.8,1.4,0,0.39307
0.8,1.5,0,0.419487
0.8,1.6,0,0.445282
0.8,1.7,0,0.471077
0.8,1.8,0,0.496678
0.8,1.9,0,0.522013
0.8,2,0,0.546927
0.8,2.1,0,0.571299
0.8,2.2,0,0.59567
0.8,2.3,0,0.619768
0.8,2.4,0,0.643625
0.8,2.5,0,0.666714
0.8,2.6,0,0.689239
0.8,2.7,0,0.711765
0.8,2.8,0,0.734115
0.8,2.9,0,0.756369
0.8,3,0,0.777415
0.8,3.1,0,0.797924
0.8,3.2,0,0.818433
0.8,3.3,0,0.838498
0.8,3.4,0,0.858425
0.8,3.5,0,0.876508
0.8,3.6,0,0.894152
0.8,3.7,0,0.911796
0.8,3.8,0,0.92933
0.8,3.9,0,0.946848
0.8,4,0,0.961813
0.8,4.1,0,0.976564
0.8,4.2,0,0.991315
0.8,4.3,0,1.00582
0.8,4.4,0,1.02022
0.8,4.5,0,1.03207
0.8,4.6,0,1.04391
0.8,4.7,0,1.05574
0.8,4.8,0,1.06742
0.8,4.9,0,1.07862
0.8,5,0,1.08717
0.8,5.1,0,1.09573
0.8,5.2,0,1.1043
0.8,5.3,0,1.11297
0.8,5.4,0,1.12082
0.8,5.5,0,1.12647
0.8,5.6,0,1.13212
0.8,5.7,0,1.1376
0.8,5.8,0,1.14275
0.8,5.9,0,1.1468
0.8,6,0,1.14908
0.8,6.1,0,1.15136
0.8,6.2,0,1.15349
0.8,6.3,0,1.15544
0.8,6.4,0,1.15565
0.8,6.5,0,1.15412
0.8,6.6,0,1.1526
0.8,6.7,0,1.15099
0.8,6.8,0,1.14933
0.8,6.9,0,1.14558
0.8,7,0,1.14052
0.8,7.1,0,1.13546
0.8,7.2,0,1.13065
0.8,7.3,0,1.12595
0.8,7.4,0,1.11848
0.8,7.5,0,1.10999
0.8,7.6,0,1.1015
0.8,7.7,0,1.09329
0.8,7.8,0,1.08515
0.8,7.9,0,1.07395
0.8,8,0,1.06219
0.8,8.1,0,1.05043
0.8,8.2,0,1.03915
0.8,8.3,0,1.02793
0.8,8.4,0,1.01346
0.8,8.5,0,0.998866
0.8,8.6,0,0.984283
0.8,8.7,0,0.97007
0.8,8.8,0,0.955583
0.8,8.9,0,0.937808
0.8,9,0,0.920033
0.8,9.1,0,0.902363
0.8,9.2,0,0.885311
0.8,9.3,0,0.867538
0.8,9.4,0,0.84674
0.8,9.5,0,0.825942
0.8,9.6,0,0.805479
0.8,9.7,0,0.785962
0.8,9.8,0,0.765402
0.8,9.9,0,0.742498
0.8,10,0,0.719593
0.8,10.1,0,0.697
0.8,10.2,0,0.674922
0.8,10.3,0,0.651693
0.8,10.4,0,0.626892
0.8,10.5,0,0.602092
0.8,10.6,0,0.577688
0.8,10.7,0,0.553693
0.8,10.8,0,0.528316
0.8,10.9,0,0.501756
0.8,11,0,0.475196
0.8,11.1,0,0.449072
0.8,11.2,0,0.423195
0.8,11.3,0,0.396241
0.8,11.4,0,0.368767
0.8,11.5,0,0.340858
0.8,11.6,0,0.31277
0.8,11.7,0,0.284682
0.8,11.8,0,0.256449
0.8,11.9,0,0.22818
0.8,12,0,0.19943
0.8,12.1,0,0.170564
0.8,12.2,0,0.141699
0.8,12.3,0,0.112706
0.8,12.4,0,0.0837006
0.8,12.5,0,0.0557552
0.8,12.6,0,0.0278776
0.8,12.7,0,0
0.9,0,0,0
0.9,0.1,0,0.0294041
0.9,0.2,0,0.0588082
0.9,0.3,0,0.0882124
0.9,0.4,0,0.117574
0.9,0.5,0,0.145509
0.9,0.6,0,0.173874
0.9,0.7,0,0.202238
0.9,0.8,0,0.230603
0.9,0.9,0,0.258909
0.9,1,0,0.286631
0.9,1.1,0,0.313972
0.9,1.2,0,0.341313
0.9,1.3,0,0.368654
0.9,1.4,0,0.395789
0.9,1.5,0,0.422213
0.9,1.6,0,0.448008
0.9,1.7,0,0.473803
0.9,1.8,0,0.499598
0.9,1.9,0,0.525183
0.9,2,0,0.550105
0.9,2.1,0,0.574477
0.9,2.2,0,0.598848
0.9,2.3,0,0.62322
0.9,2.4,0,0.647306
0.9,2.5,0,0.670395
0.9,2.6,0,0.692921
0.9,2.7,0,0.715446
0.9,2.8,0,0.737972
0.9,2.9,0,0.760316
0.9,3,0,0.781362
0.9,3.1,0,0.801871
0.9,3.2,0,0.82238
0.9,3.3,0,0.84289
0.9,3.4,0,0.862941
0.9,3.5,0,0.881024
0.9,3.6,0,0.898669
0.9,3.7,0,0.916313
0.9,3.8,0,0.933957
0.9,3.9,0,0.951488
0.9,4,0,0.966452
0.9,4.1,0,0.981204
0.9,4.2,0,0.995955
0.9,4.3,0,1.0107
0.9,4.4,0,1.0251
0.9,4.5,0,1.03695
0.9,4.6,0,1.0488
0.9,4.7,0,1.06064
0.9,4.8,0,1.07247
0.9,4.9,0,1.08367
0.9,5,0,1.09222
0.9,5.1,0,1.10077
0.9,5.2,0,1.10932
0.9,5.3,0,1.1179
0.9,5.4,0,1.12575
0.9,5.5,0,1.1314
0.9,5.6,0,1.13705
0.9,5.7,0,1.1427
0.9,5.8,0,1.14817
0.9,5.9,0,1.15222
0.9,6,0,1.1545
0.9,6.1,0,1.15679
0.9,6.2,0,1.15907
0.9,6.3,0,1.16119
0.9,6.4,0,1.1614
0.9,6.5,0,1.15988
0.9,6.6,0,1.15835
0.9,6.7,0,1.15683
0.9,6.8,0,1.15522
0.9,6.9,0,1.15147
0.9,7,0,1.14641
0.9,7.1,0,1.14135
0.9,7.2,0,1.13629
0.9,7.3,0,1.13148
0.9,7.4,0,1.12402
0.9,7.5,0,1.11553
0.9,7.6,0,1.10704
0.9,7.7,0,1.09855
0.9,7.8,0,1.09035
0.9,7.9,0,1.07914
0.9,8,0,1.06738
0.9,8.1,0,1.05563
0.9,8.2,0,1.04387
0.9,8.3,0,1.03261
0.9,8.4,0,1.01814
0.9,8.5,0,1.00355
0.9,8.6,0,0.988951
0.9,8.7,0,0.974377
0.9,8.8,0,0.959889
0.9,8.9,0,0.942114
0.9,9,0,0.924339
0.9,9.1,0,0.906564
0.9,9.2,0,0.888911
0.9,9.3,0,0.871139
0.9,9.4,0,0.85034
0.9,9.5,0,0.829542
0.9,9.6,0,0.808744
0.9,9.7,0,0.788311
0.9,9.8,0,0.767751
0.9,9.9,0,0.744847
0.9,10,0,0.721942
0.9,10.1,0,0.699037
0.9,10.2,0,0.676463
0.9,10.3,0,0.653233
0.9,10.4,0,0.628433
0.9,10.5,0,0.603633
0.9,10.6,0,0.578832
0.9,10.7,0,0.554447
0.9,10.8,0,0.529071
0.9,10.9,0,0.50251
0.9,11,0,0.47595
0.9,11.1,0,0.449389
0.9,11.2,0,0.42329
0.9,11.3,0,0.396324
0.9,11.4,0,0.368428
0.9,11.5,0,0.34034
0.9,11.6,0,0.312252
0.9,11.7,0,0.284164
0.9,11.8,0,0.255929
0.9,11.9,0,0.227193
0.9,12,0,0.198327
0.9,12.1,0,0.169461
0.9,12.2,0,0.140595
0.9,12.3,0,0.111601
0.9,12.4,0,0.0836328
0.9,12.5,0,0.0557552
0.9,12.6,0,0.0278776
0.9,12.7,0,0
1,0,0,0
1,0.1,0,0.0294041
1,0.2,0,0.0588082
1,0.3,0,0.0882124
1,0.4,0,0.117616
1,0.5,0,0.146979
1,0.6,0,0.175344
1,0.7,0,0.203709
1,0.8,0,0.232074
1,0.9,0,0.260438
1,1,0,0.288702
1,1.1,0,0.316043
1,1.2,0,0.343384
1,1.3,0,0.370725
1,1.4,0,0.398066
1,1.5,0,0.424939
1,1.6,0,0.450734
1,1.7,0,0.476529
1,1.8,0,0.502324
1,1.9,0,0.528119
1,2,0,0.553283
1,2.1,0,0.577655
1,2.2,0,0.602027
1,2.3,0,0.626398
1,2.4,0,0.65077
1,2.5,0,0.674076
1,2.6,0,0.696602
1,2.7,0,0.719128
1,2.8,0,0.741653
1,2.9,0,0.764179
1,3,0,0.785309
1,3.1,0,0.805818
1,3.2,0,0.826327
1,3.3,0,0.846837
1,3.4,0,0.867346
1,3.5,0,0.885541
1,3.6,0,0.903186
1,3.7,0,0.92083
1,3.8,0,0.938474
1,3.9,0,0.956118
1,4,0,0.971092
1,4.1,0,0.985844
1,4.2,0,1.0006
1,4.3,0,1.01535
1,4.4,0,1.02999
1,4.5,0,1.04183
1,4.6,0,1.05368
1,4.7,0,1.06553
1,4.8,0,1.07737
1,4.9,0,1.08871
1,5,0,1.09726
1,5.1,0,1.10581
1,5.2,0,1.11437
1,5.3,0,1.12292
1,5.4,0,1.13069
1,5.5,0,1.13634
1,5.6,0,1.14199
1,5.7,0,1.14764
1,5.8,0,1.15329
1,5.9,0,1.15764
1,6,0,1.15993
1,6.1,0,1.16221
1,6.2,0,1.16449
1,6.3,0,1.16678
1,6.4,0,1.16715
1,6.5,0,1.16563
1,6.6,0,1.1641
1,6.7,0,1.16258
1,6.8,0,1.16105
1,6.9,0,1.15735
1,7,0,1.1523
1,7.1,0,1.14724
1,7.2,0,1.14218
1,7.3,0,1.13712
1,7.4,0,1.12955
1,7.5,0,1.12107
1,7.6,0,1.11258
1,7.7,0,1.10409
1,7.8,0,1.0956
1,7.9,0,1.08434
1,8,0,1.07258
1,8.1,0,1.06082
1,8.2,0,1.04906
1,8.3,0,1.0373
1,8.4,0,1.02282
1,8.5,0,1.00822
1,8.6,0,0.99363
1,8.7,0,0.979035
1,8.8,0,0.964196
1,8.9,0,0.946421
1,9,0,0.928646
1,9.1,0,0.910871
1,9.2,0,0.893096
1,9.3,0,0.874739
1,9.4,0,0.853941
1,9.5,0,0.833143
1,9.6,0,0.812345
1,9.7,0,0.791547
1,9.8,0,0.7701
1,9.9,0,0.747195
1,10,0,0.724291
1,10.1,0,0.701386
1,10.2,0,0.678481
1,10.3,0,0.654774
1,10.4,0,0.629974
1,10.5,0,0.605173
1,10.6,0,0.580373
1,10.7,0,0.555573
1,10.8,0,0.529825
1,10.9,0,0.503264
1,11,0,0.476704
1,11.1,0,0.450144
1,11.2,0,0.423583
1,11.3,0,0.395998
1,11.4,0,0.36791
1,11.5,0,0.339822
1,11.6,0,0.311734
1,11.7,0,0.283646
1,11.8,0,0.254955
1,11.9,0,0.226089
1,12,0,0.197224
1,12.1,0,0.168358
1,12.2,0,0.139492
1,12.3,0,0.11151
1,12.4,0,0.0836328
1,12.5,0,0.0557552
1,12.6,0,0.0278776
1,12.7,0,0
1.1,0,0,0
1.1,0.1,0,0.0294041
1.1,0.2,0,0.0588082
1.1,0.3,0,0.0882124
1.1,0.4,0,0.117621
1.1,0.5,0,0.147342
1.1,0.6,0,0.176603
1.1,0.7,0,0.204969
1.1,0.8,0,0.233335
1.1,0.9,0,0.261701
1.1,1,0,0.290077
1.1,1.1,0,0.318428
1.1,1.2,0,0.345767
1.1,1.3,0,0.373106
1.1,1.4,0,0.400445
1.1,1.5,0,0.427778
1.1,1.6,0,0.454554
1.1,1.7,0,0.480348
1.1,1.8,0,0.506141
1.1,1.9,0,0.531935
1.1,2,0,0.557682
1.1,2.1,0,0.582711
1.1,2.2,0,0.607112
1.1,2.3,0,0.631513
1.1,2.4,0,0.655914
1.1,2.5,0,0.679606
1.1,2.6,0,0.70239
1.1,2.7,0,0.724916
1.1,2.8,0,0.747441
1.1,2.9,0,0.769967
1.1,3,0,0.791407
1.1,3.1,0,0.812045
1.1,3.2,0,0.832554
1.1,3.3,0,0.853063
1.1,3.4,0,0.873572
1.1,3.5,0,0.892276
1.1,3.6,0,0.910027
1.1,3.7,0,0.927671
1.1,3.8,0,0.945315
1.1,3.9,0,0.96296
1.1,4,0,0.97857
1.1,4.1,0,0.993358
1.1,4.2,0,1.00811
1.1,4.3,0,1.02286
1.1,4.4,0,1.03752
1.1,4.5,0,1.04982
1.1,4.6,0,1.06166
1.1,4.7,0,1.07351
1.1,4.8,0,1.08536
1.1,4.9,0,1.09676
1.1,5,0,1.10564
1.1,5.1,0,1.11419
1.1,5.2,0,1.12274
1.1,5.3,0,1.13129
1.1,5.4,0,1.1391
1.1,5.5,0,1.14485
1.1,5.6,0,1.1505
1.1,5.7,0,1.15615
1.1,5.8,0,1.1618
1.1,5.9,0,1.16616
1.1,6,0,1.16846
1.1,6.1,0,1.17074
1.1,6.2,0,1.17302
1.1,6.3,0,1.17531
1.1,6.4,0,1.17573
1.1,6.5,0,1.17426
1.1,6.6,0,1.17273
1.1,6.7,0,1.1712
1.1,6.8,0,1.16968
1.1,6.9,0,1.1659
1.1,7,0,1.16079
1.1,7.1,0,1.15573
1.1,7.2,0,1.15067
1.1,7.3,0,1.14561
1.1,7.4,0,1.13784
1.1,7.5,0,1.12927
1.1,7.6,0,1.12079
1.1,7.7,0,1.1123
1.1,7.8,0,1.10381
1.1,7.9,0,1.0922
1.1,8,0,1.08039
1.1,8.1,0,1.06863
1.1,8.2,0,1.05687
1.1,8.3,0,1.04511
1.1,8.4,0,1.02995
1.1,8.5,0,1.01535
1.1,8.6,0,1.00075
1.1,8.7,0,0.986158
1.1,8.8,0,0.971271
1.1,8.9,0,0.952931
1.1,9,0,0.935156
1.1,9.1,0,0.917381
1.1,9.2,0,0.899606
1.1,9.3,0,0.881148
1.1,9.4,0,0.859935
1.1,9.5,0,0.839137
1.1,9.6,0,0.818339
1.1,9.7,0,0.797541
1.1,9.8,0,0.775896
1.1,9.9,0,0.752559
1.1,10,0,0.729655
1.1,10.1,0,0.70675
1.1,10.2,0,0.683845
1.1,10.3,0,0.659695
1.1,10.4,0,0.634333
1.1,10.5,0,0.609533
1.1,10.6,0,0.584733
1.1,10.7,0,0.559932
1.1,10.8,0,0.534155
1.1,10.9,0,0.507579
1.1,11,0,0.481003
1.1,11.1,0,0.454427
1.1,11.2,0,0.427317
1.1,11.3,0,0.399408
1.1,11.4,0,0.371288
1.1,11.5,0,0.343169
1.1,11.6,0,0.315049
1.1,11.7,0,0.285777
1.1,11.8,0,0.25681
1.1,11.9,0,0.227958
1.1,12,0,0.199106
1.1,12.1,0,0.170255
1.1,12.2,0,0.140752
1.1,12.3,0,0.112778
1.1,12.4,0,0.0849108
1.1,12.5,0,0.0570432
1.1,12.6,0,0.0291755
1.1,12.7,0,0
1.2,0,0,0
1.2,0.1,0,0.0294041
1.2,0.2,0,0.0588082
1.2,0.3,0,0.088216
1.2,0.4,0,0.117945
1.2,0.5,0,0.14767
1.2,0.6,0,0.176979
1.2,0.7,0,0.206225
1.2,0.8,0,0.234591
1.2,0.9,0,0.262957
1.2,1,0,0.291332
1.2,1.1,0,0.319857
1.2,1.2,0,0.348166
1.2,1.3,0,0.375505
1.2,1.4,0,0.402843
1.2,1.5,0,0.430177
1.2,1.6,0,0.457495
1.2,1.7,0,0.484247
1.2,1.8,0,0.51004
1.2,1.9,0,0.535834
1.2,2,0,0.561582
1.2,2.1,0,0.587261
1.2,2.2,0,0.612268
1.2,2.3,0,0.636669
1.2,2.4,0,0.66107
1.2,2.5,0,0.684762
1.2,2.6,0,0.707934
1.2,2.7,0,0.730703
1.2,2.8,0,0.753229
1.2,2.9,0,0.775755
1.2,3,0,0.797195
1.2,3.1,0,0.818154
1.2,3.2,0,0.83878
1.2,3.3,0,0.85929
1.2,3.4,0,0.879799
1.2,3.5,0,0.898502
1.2,3.6,0,0.916776
1.2,3.7,0,0.934512
1.2,3.8,0,0.952156
1.2,3.9,0,0.969801
1.2,4,0,0.985411
1.2,4.1,0,1.00085
1.2,4.2,0,1.01562
1.2,4.3,0,1.03038
1.2,4.4,0,1.04503
1.2,4.5,0,1.05736
1.2,4.6,0,1.06965
1.2,4.7,0,1.08149
1.2,4.8,0,1.09334
1.2,4.9,0,1.10474
1.2,5,0,1.11369
1.2,5.1,0,1.12257
1.2,5.2,0,1.13112
1.2,5.3,0,1.13967
1.2,5.4,0,1.14748
1.2,5.5,0,1.15327
1.2,5.6,0,1.15902
1.2,5.7,0,1.16467
1.2,5.8,0,1.17032
1.2,5.9,0,1.17468
1.2,6,0,1.17698
1.2,6.1,0,1.17927
1.2,6.2,0,1.18156
1.2,6.3,0,1.18384
1.2,6.4,0,1.18427
1.2,6.5,0,1.18284
1.2,6.6,0,1.18136
1.2,6.7,0,1.17983
1.2,6.8,0,1.17831
1.2,6.9,0,1.17452
1.2,7,0,1.16933
1.2,7.1,0,1.16423
1.2,7.2,0,1.15917
1.2,7.3,0,1.15411
1.2,7.4,0,1.14633
1.2,7.5,0,1.13755
1.2,7.6,0,1.12899
1.2,7.7,0,1.12051
1.2,7.8,0,1.11202
1.2,7.9,0,1.10041
1.2,8,0,1.08824
1.2,8.1,0,1.07644
1.2,8.2,0,1.06468
1.2,8.3,0,1.05292
1.2,8.4,0,1.03776
1.2,8.5,0,1.02247
1.2,8.6,0,1.00788
1.2,8.7,0,0.993281
1.2,8.8,0,0.978393
1.2,8.9,0,0.959991
1.2,9,0,0.941666
1.2,9.1,0,0.923891
1.2,9.2,0,0.906116
1.2,9.3,0,0.887658
1.2,9.4,0,0.866332
1.2,9.5,0,0.845132
1.2,9.6,0,0.824334
1.2,9.7,0,0.803535
1.2,9.8,0,0.781891
1.2,9.9,0,0.75834
1.2,10,0,0.735018
1.2,10.1,0,0.712114
1.2,10.2,0,0.689209
1.2,10.3,0,0.665059
1.2,10.4,0,0.639213
1.2,10.5,0,0.613893
1.2,10.6,0,0.589092
1.2,10.7,0,0.564292