/*--------------------------------*- C++ -*----------------------------------*\
| =========                 |                                                 |
| \\      /  F ield         | OpenFOAM: The Open Source CFD Toolbox           |
|  \\    /   O peration     | Version:  v1806                                 |
|   \\  /    A nd           | Web:      www.OpenFOAM.com                      |
|    \\/     M anipulation  |                                                 |
\*---------------------------------------------------------------------------*/
FoamFile
{
    version     2.0;
    format      ascii;
    class       surfaceScalarField;
    location    "110";
    object      phi;
}
// * * * * * * * * * * * * * * * * * * * * * * * * * * * * * * * * * * * * * //

dimensions      [0 3 -1 0 0 0 0];
oriented        oriented;


internalField   nonuniform List<scalar> 
4680
(
0.0750007
-0.000486784
0.075003
-0.0014607
0.0750074
-0.00243299
0.0750143
-0.00340064
0.0750244
-0.00436104
0.0750386
-0.00531125
0.0750577
-0.00624792
0.0750829
-0.00716718
0.0751154
-0.00806464
0.0751567
-0.00893536
0.0752082
-0.00977393
0.0752715
-0.0105745
0.0753481
-0.0113309
0.0754395
-0.012037
0.075547
-0.0126866
0.0756716
-0.0132738
0.0758139
-0.0137936
0.0759744
-0.0142417
0.0761528
-0.014615
-0.0149112
0.0763459
0.0750018
-0.000488582
0.0750073
-0.0014662
0.0750168
-0.00244246
0.0750309
-0.00341478
0.0750507
-0.00438079
0.0750772
-0.00533781
0.075112
-0.00628271
0.0751567
-0.00721184
0.075213
-0.00812098
0.0752829
-0.0090053
0.0753684
-0.00985943
0.0754714
-0.0106775
0.0755936
-0.0114532
0.0757366
-0.0121799
0.0759012
-0.0128512
0.0760881
-0.0134607
0.0762969
-0.0140025
0.0765269
-0.0144716
0.076776
-0.0148642
-0.0151778
0.0770427
0.0750028
-0.000491397
0.0750113
-0.00147471
0.0750259
-0.00245708
0.0750476
-0.00343641
0.0750775
-0.0044107
0.0751173
-0.00537766
0.0751691
-0.00633443
0.0752349
-0.00727765
0.0753172
-0.00820326
0.0754184
-0.00910657
0.0755412
-0.00998218
0.0756877
-0.010824
0.0758601
-0.0116255
0.0760597
-0.0123796
0.0762875
-0.013079
0.0765432
-0.0137164
0.076826
-0.0142853
0.0771335
-0.0147792
0.0774629
-0.0151936
-0.0155249
0.07781
0.0750036
-0.000495037
0.0750147
-0.00148572
0.0750336
-0.00247601
0.0750616
-0.00346443
0.0751004
-0.00444947
0.075152
-0.0054293
0.075219
-0.00640145
0.0753043
-0.0073629
0.0754108
-0.00830979
0.0755418
-0.0092376
0.0757005
-0.0101408
0.0758896
-0.0110131
0.0761116
-0.0118475
0.0763681
-0.0126361
0.07666
-0.0133708
0.0769865
-0.014043
0.077346
-0.0146447
0.077735
-0.0151681
0.0781488
-0.0156074
-0.0159572
0.0785811
0.0750042
-0.000499263
0.075017
-0.00149852
0.0750391
-0.00249806
0.0750718
-0.0034972
0.0751174
-0.00449503
0.0751784
-0.00549033
0.075258
-0.00648104
0.0753598
-0.00746469
0.0754876
-0.00843758
0.0756455
-0.0093955
0.0758374
-0.0103327
0.0760669
-0.0112427
0.0763372
-0.0121178
0.0766503
-0.0129492
0.0770069
-0.0137275
0.0774063
-0.0144424
0.0778459
-0.0150844
0.0783209
-0.0156431
0.0788249
-0.0161113
-0.0164815
0.0793491
0.0750045
-0.000503766
0.0750182
-0.00151219
0.0750418
-0.00252169
0.0750772
-0.00353261
0.0751269
-0.0045447
0.0751941
-0.00555756
0.0752827
-0.00656962
0.0753972
-0.00757918
0.0755422
-0.00858262
0.0757231
-0.0095764
0.0759446
-0.0105542
0.0762118
-0.0115099
0.0765283
-0.0124343
0.0768972
-0.0133181
0.0773195
-0.0141499
0.0777944
-0.0149173
0.0783188
-0.0156087
0.078886
-0.0162104
0.079488
-0.0167133
-0.0171065
0.080113
0.0750044
-0.000508161
0.0750178
-0.00152556
0.0750411
-0.00254499
0.0750765
-0.003568
0.0751269
-0.00459514
0.0751964
-0.00562706
0.0752895
-0.00666268
0.0754118
-0.00770148
0.0755689
-0.00873975
0.0757677
-0.00977527
0.0760141
-0.0108005
0.0763149
-0.0118107
0.0766747
-0.012794
0.0770983
-0.0137417
0.0775871
-0.0146386
0.0781408
-0.015471
0.0787556
-0.0162235
0.0794234
-0.0168782
0.0801339
-0.0174238
-0.0178438
0.0808711
0.0750038
-0.000511986
0.0750155
-0.00153725
0.0750362
-0.00256565
0.0750684
-0.0036002
0.0751155
-0.00464228
0.0751824
-0.00569395
0.0752743
-0.00675457
0.0753982
-0.00782543
0.0755608
-0.00890232
0.0757711
-0.00998557
0.0760357
-0.0110652
0.076365
-0.01214
0.0767635
-0.0131925
0.0772401
-0.0142183
0.0777954
-0.015194
0.0784318
-0.0161074
0.0791442
-0.0169358
0.079923
-0.017657
0.0807557
-0.0182564
-0.0187086
0.0816205
0.0750027
-0.000514696
0.0750111
-0.00154562
0.0750264
-0.00258098
0.0750516
-0.00362539
0.0750906
-0.00468124
0.0751489
-0.00575232
0.0752327
-0.00683838
0.0753507
-0.00794338
0.0755103
-0.00906188
0.0757235
-0.0101988
0.0759977
-0.0113393
0.0763481
-0.0124903
0.0767785
-0.013623
0.0773052
-0.014745
0.0779256
-0.0158143
0.0786494
-0.0168312
0.0794672
-0.0177536
0.0803708
-0.0185606
0.0813438
-0.0192295
-0.0197212
0.0823564
0.075001
-0.000515666
0.0750041
-0.0015488
0.075011
-0.00258781
0.0750248
-0.00363916
0.0750498
-0.00470628
0.0750926
-0.00579514
0.07516
-0.00690579
0.0752625
-0.00804588
0.0754085
-0.00920786
0.0756139
-0.0104042
0.0758859
-0.0116113
0.0762476
-0.012852
0.0766996
-0.014075
0.077272
-0.0153174
0.0779527
-0.016495
0.07877
-0.0176486
0.0797005
-0.018684
0.0807472
-0.0196074
0.0818845
-0.0203667
-0.0209089
0.0830721
0.0749985
-0.000514196
0.0749944
-0.00154467
0.0749892
-0.00258262
0.0749865
-0.00363647
0.0749911
-0.00471083
0.0750101
-0.00581419
0.0750513
-0.00694694
0.0751268
-0.00812143
0.0752462
-0.00932725
0.0754296
-0.0105876
0.0756842
-0.0118659
0.0760435
-0.0132114
0.0765017
-0.0145332
0.0771131
-0.0159287
0.0778436
-0.0172255
0.0787636
-0.0185686
0.0798099
-0.0197304
0.0810273
-0.0208248
0.0823574
-0.0216968
-0.0223103
0.0837587
0.0749953
-0.00050952
0.0749816
-0.00153093
0.0749605
-0.00256152
0.0749357
-0.00361172
0.0749124
-0.00468752
0.0748983
-0.00580005
0.0749018
-0.00695043
0.0749366
-0.00815624
0.0750137
-0.00940434
0.0751572
-0.0107311
0.0753749
-0.0120836
0.0757124
-0.0135488
0.0761559
-0.0149767
0.0767944
-0.0165672
0.0775554
-0.0179865
0.0785912
-0.0196044
0.0797457
-0.0208848
0.0811804
-0.0222596
0.0827316
-0.023248
-0.0239846
0.084406
0.0749913
-0.000500835
0.0749655
-0.00150514
0.0749244
-0.0025204
0.0748716
-0.00355894
0.0748124
-0.00462835
0.0747547
-0.00574231
0.0747077
-0.00690339
0.0746856
-0.00813421
0.0747018
-0.00942054
0.0747828
-0.0108121
0.0749399
-0.0122407
0.0752277
-0.0138366
0.0756295
-0.0153786
0.0762721
-0.0172098
0.0770352
-0.0187496
0.0781998
-0.020769
0.0794347
-0.0221198
0.0811716
-0.0239964
0.082956
-0.0250324
-0.0260347
0.0850061
0.0749865
-0.00048733
0.0749462
-0.00146487
0.0748809
-0.00245506
0.0747939
-0.00347197
0.0746905
-0.00452493
0.0745781
-0.00562988
0.0744664
-0.00679175
0.0743695
-0.00803727
0.0743033
-0.0093543
0.0742939
-0.0108027
0.0743611
-0.012308
0.0745603
-0.0140359
0.074888
-0.0157063
0.0754907
-0.0178126
0.0762244
-0.0194833
0.0775102
-0.0220548
0.0787783
-0.0233878
0.0809514
-0.0261695
0.0829269
-0.0270079
-0.0286828
0.085575
0.0749809
-0.000468235
0.0749238
-0.00140779
0.0748303
-0.0023615
0.0747032
-0.00334487
0.0745472
-0.00436895
0.0743689
-0.00545159
0.0741779
-0.00660076
0.0739868
-0.00784611
0.0738137
-0.00918126
0.073682
-0.0106709
0.0736229
-0.0122489
0.0736828
-0.0140957
0.0738946
-0.0159181
0.0743826
-0.0183006
0.0750622
-0.0201628
0.0763993
-0.0233919
0.0776731
-0.0246616
0.0804164
-0.0289128
0.0824474
-0.029039
-0.0324427
0.0862074
0.0749746
-0.000442885
0.0748987
-0.00133189
0.0747734
-0.00223619
0.0746009
-0.00317231
0.0743847
-0.00415278
0.07413
-0.00519693
0.0738452
-0.00631593
0.0735406
-0.00754146
0.0732344
-0.00887511
0.0729459
-0.0103825
0.0727155
-0.0120184
0.0725759
-0.0139561
0.0726094
-0.0159516
0.0728791
-0.0185703
0.0734731
-0.0207569
0.074687
-0.0246058
0.076046
-0.0260206
0.0793088
-0.0321756
0.0812655
-0.0309957
-0.0383114
0.0871342
0.0749679
-0.000410784
0.0748717
-0.00123565
0.0747119
-0.00207641
0.0744897
-0.00295011
0.0742071
-0.00387023
0.0738673
-0.00485708
0.0734758
-0.00592449
0.07304
-0.00710559
0.0725748
-0.00840995
0.0720952
-0.00990282
0.0716415
-0.0115647
0.0712376
-0.0135523
0.0709961
-0.01571
0.070931
-0.0185053
0.0713349
-0.0211608
0.0721638
-0.0254346
0.0737938
-0.0276506
0.0771006
-0.0354824
0.0793869
-0.033282
-0.0474994
0.0885749
0.0749609
-0.000371674
0.0748435
-0.00111827
0.0746478
-0.0018807
0.0743735
-0.00267581
0.0740207
-0.00351745
0.0735896
-0.004426
0.0730823
-0.00541717
0.0725012
-0.00652451
0.0718554
-0.00776409
0.071153
-0.00920042
0.0704247
-0.0108365
0.0696889
-0.0128164
0.0690488
-0.0150699
0.0685185
-0.0179749
0.068474
-0.0211163
0.0687328
-0.0256934
0.0705583
-0.0294762
0.0729349
-0.037859
0.0773668
-0.037714
-0.0594141
0.0892815
0.0749539
-0.000325609
0.0748155
-0.000979834
0.0745839
-0.00164912
0.0742573
-0.00234924
0.0738336
-0.00309368
0.0733093
-0.00390172
0.0726822
-0.00479003
0.0719482
-0.00579056
0.0711084
-0.0069243
0.0701601
-0.00825207
0.0691182
-0.00979458
0.0679858
-0.011684
0.0668294
-0.0139135
0.0656669
-0.0168125
0.0647752
-0.0202246
0.0641608
-0.025079
0.0652274
-0.0305428
0.0666406
-0.0392721
0.0753178
-0.0463912
-0.067679
0.0835827
0.0749474
-0.000273031
0.0747891
-0.000821498
0.0745235
-0.00138356
0.0741473
-0.00197297
0.0736555
-0.00260194
0.0730412
-0.00328743
0.072297
-0.00404583
0.0714117
-0.00490527
0.0703768
-0.00588938
0.0691755
-0.00705073
0.0678038
-0.00842286
0.0662361
-0.0101164
0.0644937
-0.0121712
0.0625356
-0.0148544
0.0604851
-0.0181741
0.0583181
-0.022912
0.0566564
-0.0288811
0.0562132
-0.038829
0.0632144
-0.0533923
0.0615771
-0.0660418
0.0766002
-0.0181844
0.076875
-0.0183733
0.0771651
-0.0184379
0.0774674
-0.0183924
0.0777778
-0.0182451
0.0780928
-0.0180169
0.0784087
-0.0177151
0.0787253
-0.0173615
0.0790409
-0.0169622
-0.0165229
0.0793439
0.0773812
-0.0185229
0.0777341
-0.0187262
0.0780955
-0.0187993
0.0784594
-0.0187563
0.0788209
-0.0186066
0.0791763
-0.0183723
0.0795229
-0.0180617
0.0798603
-0.0176988
0.0801842
-0.017286
-0.0168422
0.0805034
0.0782434
-0.0189563
0.0786863
-0.019169
0.0791302
-0.0192432
0.0795667
-0.0191928
0.0799902
-0.0190301
0.0803966
-0.0187787
0.0807839
-0.0184491
0.0811524
-0.0180672
0.0815021
-0.0176358
-0.0171773
0.0818373
0.0791158
-0.019491
0.0796549
-0.0197081
0.0801866
-0.019775
0.0807
-0.0197062
0.0811884
-0.0195186
0.0816474
-0.0192376
0.0820766
-0.0188783
0.0824772
-0.0184678
0.0828513
-0.0180099
-0.0175295
0.0832035
0.0799933
-0.0201351
0.080636
-0.0203508
0.0812616
-0.0204006
0.0818556
-0.0203002
0.0824109
-0.0200738
0.0829224
-0.0197492
0.0833922
-0.0193482
0.0838221
-0.0188977
0.0842175
-0.0184053
-0.0178958
0.0845838
0.0808774
-0.0208995
0.0816335
-0.0211069
0.0823604
-0.0211275
0.0830393
-0.0209791
0.0836625
-0.020697
0.0842252
-0.0203118
0.0847327
-0.0198557
0.0851873
-0.0193524
0.0855993
-0.0188174
-0.0182703
0.0859739
0.0817701
-0.0217984
0.0826524
-0.0219892
0.0834896
-0.0219648
0.0842576
-0.0217471
0.084949
-0.0213884
0.0855599
-0.0209227
0.0861002
-0.020396
0.0865729
-0.0198251
0.0869946
-0.019239
-0.018645
0.0873693
0.0826733
-0.0228512
0.0836985
-0.0230144
0.0846567
-0.022923
0.0855178
-0.0226081
0.0862763
-0.0221469
0.0869305
-0.0215769
0.0874963
-0.0209618
0.0879777
-0.0203065
0.0883989
-0.0196601
-0.0190081
0.088762
0.0835894
-0.0240842
0.0847796
-0.0242046
0.0858709
-0.0240143
0.0868282
-0.0235654
0.0876507
-0.0229694
0.0883409
-0.0222671
0.0889214
-0.0215424
0.0893979
-0.020783
0.0898025
-0.0200647
-0.0193402
0.0901346
0.0845227
-0.0255347
0.0859063
-0.0255882
0.087144
-0.0252521
0.0881997
-0.024621
0.0890806
-0.0238504
0.0897954
-0.0229818
0.0903731
-0.0221201
0.0908208
-0.0212308
0.0911781
-0.020422
-0.0196027
0.0914405
0.0854818
-0.0272578
0.0870946
-0.027201
0.0884931
-0.0266506
0.0896479
-0.0257758
0.090577
-0.0247795
0.0912937
-0.0236986
0.0918317
-0.0226581
0.0921988
-0.0215979
0.0924404
-0.0206635
-0.0197112
0.0925488
0.0864828
-0.0293346
0.0883702
-0.0290884
0.0899461
-0.0282265
0.0911961
-0.0270258
0.092143
-0.0257264
0.0928008
-0.0243563
0.0932065
-0.0230638
0.0933697
-0.0217611
0.0933453
-0.0206391
-0.0194902
0.0931243
0.0875566
-0.0318851
0.0897797
-0.0313114
0.0915469
-0.0299938
0.0928519
-0.0283307
0.0937076
-0.0265821
0.094134
-0.0247827
0.0941812
-0.023111
0.0938749
-0.0214548
0.093293
-0.0200572
-0.0186288
0.0924316
0.0887718
-0.0350819
0.0913996
-0.0339392
0.0933061
-0.0319003
0.0944667
-0.0294913
0.0948987
-0.0270141
0.0946784
-0.0245624
0.0939055
-0.0223381
0.0926607
-0.0202101
0.0910674
-0.0184638
-0.0167036
0.0891422
0.0902727
-0.0391473
0.0932405
-0.036907
0.0949172
-0.033577
0.095294
-0.0298682
0.0945417
-0.0262617
0.0929062
-0.0229269
0.0905991
-0.020031
0.0878142
-0.0174252
0.0847257
-0.0153753
-0.0133752
0.0813973
0.0920601
-0.0440732
0.094725
-0.0395719
0.0949468
-0.0337987
0.0931766
-0.0280979
0.0900161
-0.0231013
0.0859939
-0.0189047
0.0814878
-0.0155248
0.0768084
-0.0127459
0.0721306
-0.0106974
-0.00882338
0.0675787
0.0930029
-0.0485012
0.0933222
-0.0398912
0.0896573
-0.0301339
0.0839196
-0.0223602
0.0772512
-0.016433
0.0704611
-0.0121146
0.0639866
-0.00905035
0.0580839
-0.00684313
0.0527702
-0.00538373
-0.00417018
0.048117
0.0890218
-0.0482414
0.0830053
-0.0338747
0.0728081
-0.0199367
0.0624917
-0.0120438
0.0531499
-0.0070912
0.0454107
-0.00437537
0.0391999
-0.00283949
0.0343168
-0.00196005
0.030393
-0.00145993
-0.00102714
0.0272499
0.0705825
-0.0352413
0.0552566
-0.0185488
0.0399305
-0.00461062
0.0296155
-0.0017287
0.0226648
-0.00014058
0.018298
-8.56388e-06
0.0154435
1.50576e-05
0.0134667
1.67176e-05
0.0119582
4.86308e-05
0.00010499
0.010826
0.0263359
0.00778711
0.00317649
0.00144779
0.00130721
0.00129865
0.00131371
0.00133042
0.00137906
0.00148405
0.0802096
-0.0455839
0.0810123
-0.0410751
0.0818348
-0.03627
0.0825615
-0.0316469
0.0830686
-0.0261799
0.0835758
-0.019896
0.0840617
-0.0152676
0.0841394
-0.0121598
0.0841025
-0.0101467
0.0843037
-0.0127443
0.0840143
-0.0195268
0.0832449
-0.0277853
0.0829351
-0.0419263
0.0810961
-0.0626729
0.0731498
-0.0812345
0.0581291
-0.0914623
0.0406774
-0.0933637
0.0263231
-0.0859141
0.0170497
-0.0702818
-0.0404555
0.081359
-0.0464394
0.0821473
-0.0418634
0.0829472
-0.0370699
0.083625
-0.0323248
0.0840671
-0.026622
0.084477
-0.0203058
0.0847761
-0.0155667
0.0846398
-0.0120235
0.0844426
-0.00994951
0.0843927
-0.0126943
0.0837797
-0.0189138
0.0828564
-0.026862
0.0820269
-0.0410967
0.0786482
-0.0592942
0.0693376
-0.0719239
0.054874
-0.0769987
0.0395428
-0.0780325
0.0270455
-0.0734167
0.0185828
-0.0618192
-0.0369489
0.0827177
-0.0473199
0.0835308
-0.0426765
0.0843444
-0.0378835
0.085008
-0.0329883
0.0854286
-0.0270427
0.0857605
-0.0206377
0.0858378
-0.015644
0.0854403
-0.0116261
0.0850169
-0.00952604
0.0845761
-0.0122536
0.0835352
-0.0178728
0.0823579
-0.0256847
0.0807687
-0.0395075
0.0759246
-0.0544502
0.0658224
-0.0618217
0.0522046
-0.0633809
0.0386101
-0.064438
0.0276165
-0.0624231
0.0200574
-0.0542601
-0.0336556
0.0841119
-0.0482283
0.0849586
-0.0435232
0.0857971
-0.038722
0.0864663
-0.0336575
0.0868905
-0.0274669
0.0871476
-0.0208948
0.0869932
-0.0154896
0.0863325
-0.0109654
0.0856249
-0.00881838
0.0847058
-0.0113346
0.0832092
-0.0163762
0.0816281
-0.0241036
0.0790456
-0.0369251
0.0728085
-0.048213
0.0621782
-0.0511914
0.0494358
-0.0506385
0.0374469
-0.0524491
0.0278772
-0.0528533
0.0212377
-0.0476207
-0.0306536
0.0855126
-0.0491571
0.0863885
-0.0443991
0.0872492
-0.0395826
0.0879272
-0.0343355
0.0883491
-0.0278888
0.0885015
-0.0210472
0.088095
-0.0150831
0.0871538
-0.0100242
0.0860859
-0.00775049
0.0846283
-0.00987694
0.0826431
-0.014391
0.0804786
-0.0219391
0.0767366
-0.0331831
0.0692329
-0.0407093
0.0583297
-0.0402883
0.0466083
-0.038917
0.0361998
-0.0420406
0.0279587
-0.0446122
0.0221662
-0.0418282
-0.0279419
0.0869105
-0.0500937
0.0878045
-0.0452931
0.0886733
-0.0404515
0.0893433
-0.0350055
0.0897252
-0.0282706
0.0897135
-0.0210354
0.0890135
-0.0143831
0.0877452
-0.00875584
0.0862272
-0.00623252
0.0841783
-0.00782803
0.0816461
-0.0118588
0.0787139
-0.0190069
0.0737133
-0.0281825
0.0651487
-0.0321448
0.0543043
-0.0294438
0.0437672
-0.0283799
0.0348942
-0.0331676
0.0278878
-0.0376058
0.0228764
-0.0368168
-0.0255103
0.088295
-0.0510195
0.0891833
-0.0461814
0.0900227
-0.0412909
0.0906317
-0.0356145
0.0908943
-0.0285332
0.0906293
-0.0207705
0.0895739
-0.0133278
0.0879082
-0.00709015
0.085849
-0.00417331
0.0831633
-0.00514228
0.0800045
-0.00870003
0.0761402
-0.0151425
0.0698849
-0.0219272
0.060564
-0.0228239
0.0501457
-0.0190255
0.0409541
-0.0191884
0.0335696
-0.0257831
0.0277041
-0.0317403
0.0234083
-0.032521
-0.023344
0.0896444
-0.0519019
0.0904714
-0.0470084
0.0911933
-0.0420128
0.0916273
-0.0360485
0.0916383
-0.0285441
0.0910046
-0.0201368
0.0895201
-0.0118433
0.0873813
-0.00495134
0.0847103
-0.00150231
0.0813598
-0.00179181
0.0774938
-0.00483401
0.0725945
-0.0102432
0.0652171
-0.0145498
0.0555385
-0.0131453
0.0459316
-0.00941857
0.0382233
-0.0114801
0.0322637
-0.0198236
0.0274423
-0.0269189
0.0237987
-0.0288773
-0.021427
0.090904
-0.0526712
0.0915436
-0.047648
0.0919713
-0.0424405
0.0920331
-0.0361103
0.0916091
-0.0281201
0.0904825
-0.0190102
0.088507
-0.00986781
0.0858459
-0.00229019
0.0825415
0.00180202
0.0785329
0.00221679
0.0739085
-0.000209553
0.0679753
-0.00431
0.0597494
-0.00632398
0.0501896
-0.00358543
0.0417679
-0.000996882
0.0356321
-0.00534434
0.0310096
-0.015201
0.0271321
-0.0230414
0.0240795
-0.0258247
-0.0197423
0.091937
-0.0531676
0.0921348
-0.0478458
0.0919687
-0.0422744
0.0913803
-0.035522
0.0903194
-0.0270591
0.0886095
-0.0173004
0.0861328
-0.00739105
0.0829669
0.00087569
0.0790836
0.00568528
0.0744751
0.00682529
0.0691045
0.00516106
0.0622719
0.00252264
0.0536093
0.00233856
0.0446902
0.00533369
0.0377732
0.00592016
0.0332333
-0.000804503
0.0298335
-0.0118012
0.0267981
-0.0200059
0.024278
-0.0233046
-0.0182731
0.0924335
-0.0530523
0.091754
-0.0471663
0.0905792
-0.0410995
0.0890391
-0.033982
0.0871975
-0.0252175
0.084912
-0.0150148
0.0820256
-0.00450469
0.0784674
0.00443389
0.0741515
0.0100012
0.0690587
0.0119181
0.0630433
0.0111765
0.0555897
0.00997629
0.0470097
0.0109186
0.0392508
0.0130926
0.0340703
0.0111007
0.031067
0.00219871
0.0287543
-0.00948847
0.02646
-0.0177117
0.0244174
-0.0212621
-0.0170027
0.0917872
-0.0517153
0.0896275
-0.0450066
0.0870155
-0.0384876
0.0843336
-0.0313001
0.0817398
-0.0226237
0.0790463
-0.0123213
0.0759633
-0.00142171
0.072235
0.0081622
0.0676975
0.0145387
0.0622858
0.0173297
0.0558225
0.0176398
0.0481616
0.0176372
0.040249
0.0188312
0.034098
0.0192435
0.0307536
0.0144451
0.0291554
0.00379692
0.0277819
-0.008115
0.0261331
-0.0160628
0.0245169
-0.0196458
-0.0159147
0.0890033
-0.0482869
0.0847668
-0.0407702
0.0805082
-0.0342289
0.076797
-0.0275889
0.0737478
-0.0195745
0.0709919
-0.00956543
0.0680143
0.00155588
0.0643867
0.0117899
0.0598554
0.0190699
0.0543165
0.0228687
0.0476949
0.0242614
0.040338
0.024994
0.033666
0.0255032
0.0294345
0.0234749
0.0278799
0.0159998
0.0275016
0.00417524
0.0269196
-0.00753299
0.0258289
-0.0149722
0.0245925
-0.0184094
-0.0149935
0.0827844
-0.0419292
0.0762808
-0.0342666
0.0706981
-0.0286462
0.066515
-0.0234057
0.0635596
-0.0166191
0.0611612
-0.00716707
0.0585871
0.00412994
0.0552793
0.0150977
0.0509339
0.0234153
0.045465
0.0283377
0.0390499
0.0306765
0.032548
0.031496
0.0275927
0.0304585
0.0254037
0.0256639
0.025462
0.0159414
0.0260905
0.00354679
0.026165
-0.00760745
0.0255561
-0.0143633
0.0246577
-0.017511
-0.014224
0.0720069
-0.0325388
0.0639708
-0.0262305
0.0581005
-0.0227758
0.0543482
-0.0196534
0.0520749
-0.0143458
0.0503418
-0.00543391
0.0483194
0.00615235
0.0454225
0.0179946
0.0413617
0.0274761
0.0361674
0.033532
0.0303718
0.036472
0.025236
0.0366318
0.0222935
0.033401
0.0220649
0.0258925
0.0234695
0.0145368
0.0248963
0.00212003
0.0255127
-0.00822386
0.0253211
-0.0141716
0.0247239
-0.0169139
-0.0135919
0.0566694
-0.0216295
0.0489696
-0.0185307
0.0442542
-0.0180604
0.0417367
-0.0171359
0.0404445
-0.0130537
0.0394082
-0.00439756
0.0378805
0.00768006
0.0353534
0.0205217
0.031624
0.0312054
0.0269329
0.0382231
0.0221722
0.0412327
0.0187828
0.0400212
0.0179138
0.03427
0.0193894
0.0244169
0.0218426
0.0120836
0.0238886
7.39868e-05
0.0249567
-0.00929195
0.0251293
-0.0143442
0.0248009
-0.0165854
-0.0130836
0.0388941
-0.0124066
0.0337307
-0.0133673
0.0311325
-0.0154622
0.0300462
-0.0160496
0.0295957
-0.0126032
0.0290353
-0.00383717
0.0278137
0.00890166
0.0255601
0.0227753
0.0222183
0.0345472
0.0182837
0.0421577
0.0149046
0.0446119
0.0134301
0.0414956
0.0144586
0.0332415
0.0172816
0.021594
0.0205093
0.00885582
0.0230388
-0.00245545
0.0244916
-0.0107448
0.0249856
-0.0148381
0.0248971
-0.016497
-0.0126857
0.0225205
-0.00767714
0.0207588
-0.0116056
0.0200909
-0.0147943
0.0200026
-0.0159613
0.0199956
-0.0125962
0.019616
-0.00345753
0.0185104
0.0100073
0.016469
0.0248167
0.0136177
0.0373985
0.0106793
0.0450961
0.00887688
0.0464143
0.00923755
0.0411349
0.0118122
0.0306668
0.0156135
0.0177927
0.0194019
0.00506746
0.0223231
-0.00537671
0.0241136
-0.0125353
0.0248944
-0.0156189
0.0250202
-0.0166227
-0.0123856
0.0105058
-0.00735695
0.0111022
-0.0122019
0.0114194
-0.0151115
0.0117087
-0.0162507
0.01177
-0.0126575
0.0113555
-0.00304297
0.0102638
0.0110989
0.0084505
0.02663
0.00622187
0.0396272
0.00443576
0.0468822
0.00419423
0.0466558
0.00609403
0.0392351
0.00979155
0.0269693
0.0142604
0.0133238
0.0184665
0.000861359
0.0217251
-0.0086353
0.0238214
-0.0146316
0.0248606
-0.0166582
0.0251768
-0.016939
-0.0121704
0.0033247
-0.00919761
0.00440421
-0.0132814
0.0047875
-0.0154948
0.00500224
-0.0164654
0.00491757
-0.0125728
0.0043843
-0.0025097
0.00330736
0.0121758
0.00179725
0.0281401
0.000302368
0.041122
-0.000333713
0.0475183
0.000761902
0.0455602
0.00378178
0.0362153
0.00820867
0.0225424
0.0131246
0.0084079
0.0176669
-0.00368099
0.021235
-0.0122034
0.0236144
-0.0170109
0.0248898
-0.0179336
0.0253719
-0.0174211
-0.012029
0.00033122
-0.00952883
0.000253939
-0.0132042
0.000221176
-0.0154621
0.000188537
-0.0164328
-3.08233e-05
-0.0123534
-0.000516538
-0.00202398
-0.00132393
0.0129832
-0.0022774
0.0290936
-0.00295598
0.0418006
-0.00273304
0.0472953
-0.00114238
0.0439696
0.00178748
0.0332854
0.00564034
0.0186895
0.00979708
0.00425116
0.0136408
-0.00752472
0.0167103
-0.0152729
0.0188025
-0.0191031
0.0199841
-0.0191152
0.0204653
-0.0179023
-0.0119653
-0.00103513
-0.0084937
-0.00190267
-0.0123366
-0.00227312
-0.0150916
-0.00248822
-0.0162177
-0.00280949
-0.0120322
-0.00335389
-0.00147958
-0.00408813
0.0137175
-0.00478974
0.0297952
-0.00503335
0.0420442
-0.00430127
0.0465632
-0.00228734
0.0419556
0.000914267
0.0300838
0.00493432
0.0146695
0.00925087
-6.53899e-05
0.0132721
-0.011546
0.0165246
-0.0185254
0.0187777
-0.0213562
0.0200836
-0.0204212
0.0206453
-0.0184639
-0.0119327
-0.00198332
-0.00651038
-0.0034762
-0.0108437
-0.00416121
-0.0144066
-0.00453091
-0.015848
-0.00492296
-0.0116401
-0.00546709
-0.000935445
-0.00609055
0.0143409
-0.00654288
0.0302475
-0.00642893
0.0419303
-0.00534955
0.0454838
-0.0031022
0.0397083
0.000232017
0.0267496
0.00434364
0.0105579
0.00879097
-0.00451272
0.0129778
-0.0157328
0.0164037
-0.0219513
0.018807
-0.0237595
0.0202236
-0.0218377
0.0208541
-0.0190944
-0.0119231
-0.00261383
-0.00389655
-0.00455596
-0.00890161
-0.00547889
-0.0134837
-0.00595238
-0.0153745
-0.00637032
-0.0112222
-0.00687326
-0.000432502
-0.00736869
0.0148363
-0.00760126
0.0304801
-0.00723107
0.0415601
-0.00596163
0.0442144
-0.00363321
0.0373799
-0.000265578
0.0233819
0.00389334
0.00639895
0.00844229
-0.00906167
0.0127737
-0.0200642
0.0163565
-0.0255341
0.0188949
-0.0262978
0.0204075
-0.0233503
0.021093
-0.0197799
-0.0119286
-0.00296959
-0.000926957
-0.00517986
-0.00669134
-0.00624706
-0.0124165
-0.00677043
-0.0148511
-0.00717275
-0.0108199
-0.00760674
1.48541e-06
-0.00797521
0.0152048
-0.00803756
0.0305425
-0.00751646
0.041039
-0.00618621
0.0428842
-0.00387948
0.0350731
-0.000541549
0.020044
0.00363391
0.00222349
0.00824523
-0.013673
0.0126846
-0.0245036
0.0163962
-0.0292457
0.0190479
-0.0289495
0.0206389
-0.0249413
0.021364
-0.0205051
-0.0119408
-0.00305707
0.00213011
-0.00535139
-0.00439702
-0.00646942
-0.0112985
-0.00699677
-0.0143238
-0.00735497
-0.0104617
-0.00770663
0.000353145
-0.00796292
0.0154611
-0.00791135
0.0304909
-0.00733079
0.0404584
-0.00602819
0.0415816
-0.00379618
0.0328411
-0.000511837
0.0167597
0.00363715
-0.0019255
0.00825473
-0.0182906
0.0127443
-0.0289932
0.0165402
-0.0330415
0.0192744
-0.0316838
0.020922
-0.0265889
0.0216693
-0.0212524
-0.0119502
-0.00285049
0.0049806
-0.00504265
-0.00220486
-0.00613428
-0.0102068
-0.00663735
-0.0138207
-0.00693931
-0.0101597
-0.00720739
0.000621223
-0.00737415
0.0156279
-0.00725985
0.0303766
-0.00668394
0.0398825
-0.0054521
0.0403497
-0.00330707
0.0306961
-7.84699e-05
0.0135311
0.00398942
-0.00599339
0.00853723
-0.0228384
0.0129946
-0.0334506
0.0168105
-0.0368574
0.0195848
-0.0344581
0.0212614
-0.0282655
0.0220108
-0.0220018
-0.0119467
-0.00228076
0.00726136
-0.00418875
-0.000296865
-0.00520623
-0.00918936
-0.00568681
-0.0133401
-0.00593934
-0.00990718
-0.00613393
0.000815822
-0.00623461
0.0157285
-0.00609443
0.0302364
-0.00555459
0.0393427
-0.0043965
0.0391916
-0.00232318
0.0286228
0.000816567
0.0103913
0.00477921
-0.00995602
0.00916476
-0.0272239
0.0134835
-0.0377693
0.017233
-0.0406069
0.019991
-0.0372161
0.0216621
-0.0299366
0.0223904
-0.0227301
-0.0119186
-0.00122933
0.00849068
-0.00267646
0.00115027
-0.00361531
-0.00825051
-0.00411816
-0.0128373
-0.00435829
-0.00966705
-0.0045006
0.000958133
-0.00455448
0.0157824
-0.00440664
0.0300886
-0.00390427
0.0388403
-0.00279469
0.038082
-0.000760533
0.0265886
0.00228977
0.00734102
0.00608544
-0.0137517
0.0102061
-0.0313445
0.0142606
-0.0418239
0.0178363
-0.0441825
0.0205064
-0.0398862
0.0221298
-0.03156
0.0228101
-0.0234104
-0.0118533
0.000497449
0.00799323
-0.000327649
0.00197537
-0.00124638
-0.00733178
-0.00187321
-0.0122104
-0.00218311
-0.00935716
-0.00231264
0.00108767
-0.00233508
0.0158049
-0.00218099
0.0299345
-0.00169693
0.0383562
-0.000599733
0.0369848
0.00142759
0.0245613
0.0043883
0.00438031
0.00795881
-0.0173222
0.0117122
-0.035098
0.0153725
-0.0454841
0.0186512
-0.0474613
0.0211492
-0.0423842
0.0226703
-0.0330811
0.0232744
-0.0240145
-0.0117345
0.00554962
0.00592874
-0.00348513
0.00541367
0.00211132
0.00389318
-0.00581129
0.00251331
-0.0108306
0.00172722
-0.00857107
0.00144731
0.00136759
0.00144397
0.0158082
0.00170448
0.029674
0.00244543
0.0376153
0.00408464
0.0353456
0.00693535
0.0217106
0.0109667
0.000348963
0.0155773
-0.0219328
0.0201389
-0.0396596
0.0244676
-0.0498128
0.0284043
-0.051398
0.0315035
-0.0454833
0.0333748
-0.0349525
0.0340605
-0.0247001
-0.0114302
0.0179501
0.00738211
-0.0194035
0.0165421
0.0035193
0.0138864
-0.00315559
0.0112031
-0.00814726
0.0094065
-0.00677447
0.00867853
0.00209556
0.00862827
0.0158585
0.00900182
0.0293004
0.0098968
0.0367203
0.0116406
0.0336019
0.014458
0.0188931
0.0181928
-0.00338583
0.0221549
-0.0258949
0.0256144
-0.043119
0.0285703
-0.0527688
0.0312734
-0.0541011
0.0335177
-0.0477276
0.0348755
-0.0363103
0.0352173
-0.025042
-0.0109337
0.0374581
0.0147375
-0.0448135
0.0325821
0.00839535
0.0277597
0.00166678
0.0230574
-0.00344493
0.019499
-0.00321608
0.017691
0.00390361
0.0172904
0.016259
0.0177321
0.0288588
0.0188268
0.0356256
0.0206996
0.0317291
0.0234387
0.016154
0.0268138
-0.00676091
0.0300552
-0.0291363
0.0323385
-0.0454023
0.0337395
-0.0541698
0.0349079
-0.0552695
0.0359962
-0.0488159
0.0366305
-0.0369445
0.0365002
-0.0249117
-0.0101895
0.0607124
0.0257431
-0.071718
0.0523336
0.0167741
0.0449827
0.00901771
0.0380186
0.00351918
0.032242
0.00256046
0.0286855
0.00746019
0.0274166
0.0175278
0.0277061
0.0285693
0.0289496
0.0343821
0.0309237
0.029755
0.0335085
0.0135692
0.0364124
-0.00966478
0.0388654
-0.0315893
0.0399761
-0.046513
0.0397858
-0.0539795
0.0392455
-0.0547291
0.0389326
-0.048503
0.0386387
-0.0366506
0.0379049
-0.024178
-0.00913754
0.0810899
0.0358064
-0.0911532
0.0718289
0.0260351
0.0631792
0.0176674
0.0547566
0.0119418
0.0471576
0.0101594
0.0416688
0.0129491
0.0390276
0.020169
0.0387636
0.0288333
0.0399633
0.0331823
0.0419518
0.0277665
0.044288
0.011233
0.0465804
-0.0119571
0.0481472
-0.0331561
0.0481173
-0.0464831
0.0464156
-0.0522778
0.0441385
-0.0524521
0.0422733
-0.0466378
0.0408797
-0.0352569
0.0394173
-0.0227156
-0.00771835
0.0947926
0.0426202
-0.101606
0.0871411
0.0336866
0.0791063
0.0257023
0.0707872
0.0202608
0.0626619
0.0182847
0.0559468
0.0196642
0.0519204
0.0241954
0.0507524
0.0300013
0.0516065
0.0323282
0.0534443
0.0259288
0.0554139
0.00926332
0.0569417
-0.0134849
0.0574984
-0.0337128
0.0563529
-0.0453376
0.0532895
-0.0492144
0.0493778
-0.0485404
0.0459215
-0.0431815
0.0433119
-0.0326473
0.0410136
-0.0204173
-0.00587725
0.102053
0.0462635
-0.105697
0.0969264
0.0388134
0.0907291
0.0318996
0.0838224
0.0271675
0.0766117
0.0254954
0.0699851
0.0262907
0.0652854
0.0288951
0.0632712
0.0320155
0.0635537
0.0320457
0.0650315
0.024451
0.066492
0.00780278
0.0671156
-0.0141085
0.0665457
-0.0331428
0.0643073
-0.0430992
0.06007
-0.0449771
0.0547252
-0.0431956
0.0497484
-0.0382047
0.0458744
-0.0287733
0.042661
-0.0172039
-0.00356798
0.104852
0.0477588
-0.106348
0.101974
0.0416919
0.0978544
0.0360191
0.0928817
0.0321403
0.0874315
0.0309456
0.0820482
0.031674
0.0777391
0.0332042
0.0754291
0.0343256
0.0752
0.0322748
0.0761882
0.0234627
0.0770223
0.00696868
0.0766601
-0.0137463
0.0749157
-0.0313984
0.0716447
-0.0398282
0.0664533
-0.0397857
0.0599458
-0.0366881
0.0536106
-0.0318695
0.0484929
-0.0236556
0.0443184
-0.0130294
-0.000755511
0.105153
0.0480836
-0.105477
0.103818
0.0430268
0.101415
0.0384215
0.0982483
0.0353074
0.0946795
0.0345144
0.0910482
0.0353053
0.0879382
0.0363142
0.0860411
0.0362227
0.0856357
0.0326802
0.086188
0.0229104
0.086386
0.00677073
0.0850782
-0.0124386
0.0822409
-0.0285611
0.0780796
-0.0356669
0.0721921
-0.0338982
0.064836
-0.029332
0.0573696
-0.0244032
0.0510874
-0.0173734
0.0459392
-0.00788116
0.00258255
0.104276
0.0478527
-0.104046
0.103837
0.0434667
0.102618
0.0396397
0.100832
0.0370941
0.0988157
0.0365302
0.0968399
0.0372811
0.0951893
0.0379648
0.0941742
0.0372378
0.0939782
0.0328762
0.0942883
0.0226003
0.0939814
0.00707765
0.0919197
-0.0103769
0.0882191
-0.0248605
0.0834057
-0.0308535
0.0771154
-0.0276079
0.0692438
-0.0214603
0.0609088
-0.0160682
0.0535817