x,y,z,U_0,U_1,U_2
0,0,0,0.3,-0.000566055,0
0,0.1,0,0.3,-0.000314475,0
0,0.2,0,0.3,-6.2895e-05,0
0,0.3,0,0.3,0,0
0,0.4,0,0.3,0,0
0,0.5,0,0.3,0,0
0,0.6,0,0.3,0,0
0,0.7,0,0.3,0,0
0,0.8,0,0.3,0,0
0,0.9,0,0.3,0,0
0,1,0,0.3,0,0
0,1.1,0,0.3,0,0
0,1.2,0,0.3,0,0
0,1.3,0,0.3,0,0
0,1.4,0,0.3,0,0
0,1.5,0,0.3,0,0
0,1.6,0,0.3,0,0
0,1.7,0,0.3,0,0
0,1.8,0,0.3,0,0
0,1.9,0,0.3,0,0
0,2,0,0.3,0,0
0,2.1,0,0.3,0,0
0,2.2,0,0.3,0,0
0,2.3,0,0.3,0,0
0,2.4,0,0.3,0,0
0,2.5,0,0.3,0,0
0,2.6,0,0.3,0,0
0,2.7,0,0.3,0,0
0,2.8,0,0.3,0,0
0,2.9,0,0.3,0,0
0,3,0,0.3,0,0
0,3.1,0,0.3,0,0
0,3.2,0,0.3,0,0
0,3.3,0,0.3,0,0
0,3.4,0,0.3,0,0
0,3.5,0,0.3,0,0
0,3.6,0,0.3,0,0
0,3.7,0,0.3,0,0
0,3.8,0,0.3,0,0
0,3.9,0,0.3,0,0
0,4,0,0.3,0,0
0,4.1,0,0.3,0,0
0,4.2,0,0.3,0,0
0,4.3,0,0.3,0,0
0,4.4,0,0.3,0,0
0,4.5,0,0.3,0,0
0,4.6,0,0.3,0,0
0,4.7,0,0.3,0,0
0,4.8,0,0.3,0,0
0,4.9,0,0.3,0,0
0,5,0,0.3,0,0
0,5.1,0,0.3,0,0
0,5.2,0,0.3,0,0
0,5.3,0,0.3,0,0
0,5.4,0,0.3,0,0
0,5.5,0,0.3,0,0
0,5.6,0,0.3,0,0
0,5.7,0,0.3,0,0
0,5.8,0,0.3,0,0
0,5.9,0,0.3,0,0
0,6,0,0.3,0,0
0,6.1,0,0.3,0,0
0,6.2,0,0.3,0,0
0,6.3,0,0.3,0,0
0,6.4,0,0.3,0,0
0,6.5,0,0.3,0,0
0,6.6,0,0.3,0,0
0,6.7,0,0.3,0,0
0,6.8,0,0.3,0,0
0,6.9,0,0.3,0,0
0,7,0,0.3,0,0
0,7.1,0,0.3,0,0
0,7.2,0,0.3,0,0
0,7.3,0,0.3,0,0
0,7.4,0,0.3,0,0
0,7.5,0,0.3,0,0
0,7.6,0,0.3,0,0
0,7.7,0,0.3,0,0
0,7.8,0,0.3,0,0
0,7.9,0,0.3,0,0
0,8,0,0.3,0,0
0,8.1,0,0.3,0,0
0,8.2,0,0.3,0,0
0,8.3,0,0.3,0,0
0,8.4,0,0.3,0,0
0,8.5,0,0.3,0,0
0,8.6,0,0.3,0,0
0,8.7,0,0.3,0,0
0,8.8,0,0.3,0,0
0,8.9,0,0.3,0,0
0,9,0,0.3,0,0
0,9.1,0,0.3,0,0
0,9.2,0,0.3,0,0
0,9.3,0,0.3,0,0
0,9.4,0,0.3,0,0
0,9.5,0,0.3,0,0
0,9.6,0,0.3,0,0
0,9.7,0,0.3,0,0
0,9.8,0,0.3,0,0
0,9.9,0,0.3,0,0
0,10,0,0.3,0,0
0,10.1,0,0.3,0,0
0,10.2,0,0.3,0,0
0,10.3,0,0.3,0,0
0,10.4,0,0.3,0,0
0,10.5,0,0.3,0,0
0,10.6,0,0.3,0,0
0,10.7,0,0.3,0,0
0,10.8,0,0.3,0,0
0,10.9,0,0.3,0,0
0,11,0,0.3,0,0
0,11.1,0,0.3,0,0
0,11.2,0,0.3,0,0
0,11.3,0,0.3,0,0
0,11.4,0,0.3,0,0
0,11.5,0,0.3,0,0
0,11.6,0,0.3,0,0
0,11.7,0,0.3,0,0
0,11.8,0,0.3,0,0
0,11.9,0,0.3,0,0
0,12,0,0.3,0,0
0,12.1,0,0.3,0,0
0,12.2,0,0.3,0,0
0,12.3,0,0.3,0,0
0,12.4,0,0.3,3.88729e-05,0
0,12.5,0,0.3,0.000149938,0
0,12.6,0,0.3,0.000261004,0
0,12.7,0,0.3,0.000372069,0
0.1,0,0,0.300001,-0.00124675,0
0.1,0.1,0,0.3,-0.000996293,0
0.1,0.2,0,0.300002,-0.000908688,0
0.1,0.3,0,0.300001,-0.000911177,0
0.1,0.4,0,0.300002,-0.000912647,0
0.1,0.5,0,0.300002,-0.000916274,0
0.1,0.6,0,0.300002,-0.000918789,0
0.1,0.7,0,0.300005,-0.000923433,0
0.1,0.8,0,0.300002,-0.00092744,0
0.1,0.9,0,0.300007,-0.00093237,0
0.1,1,0,0.300002,-0.000938912,0
0.1,1.1,0,0.300006,-0.000943125,0
0.1,1.2,0,0.300003,-0.000950724,0
0.1,1.3,0,0.300005,-0.000954743,0
0.1,1.4,0,0.300005,-0.000962356,0
0.1,1.5,0,0.300003,-0.000966693,0
0.1,1.6,0,0.300007,-0.000973984,0
0.1,1.7,0,0.300002,-0.000979048,0
0.1,1.8,0,0.300008,-0.000984962,0
0.1,1.9,0,0.300002,-0.000991016,0
0.1,2,0,0.300005,-0.000994477,0
0.1,2.1,0,0.300002,-0.000999488,0
0.1,2.2,0,0.300002,-0.00100154,0
0.1,2.3,0,0.300002,-0.00100431,0
0.1,2.4,0,0.300001,-0.00100527,0
0.1,2.5,0,0.3,-0.00100525,0
0.1,2.6,0,0.3,-0.00100442,0
0.1,2.7,0,0.299996,-0.00100136,0
0.1,2.8,0,0.299998,-0.000996248,0
0.1,2.9,0,0.299992,-0.000990988,0
0.1,3,0,0.299996,-0.000980761,0
0.1,3.1,0,0.299992,-0.000973653,0
0.1,3.2,0,0.299991,-0.000958328,0
0.1,3.3,0,0.299993,-0.000948536,0
0.1,3.4,0,0.299982,-0.00092762,0
0.1,3.5,0,0.299995,-0.00091224,0
0.1,3.6,0,0.299969,-0.00088799,0
0.1,3.7,0,0.299994,-0.00086028,0
0.1,3.8,0,0.29997,-0.000838003,0
0.1,3.9,0,0.299987,-0.000800869,0
0.1,4,0,0.299975,-0.000778478,0
0.1,4.1,0,0.299974,-0.000735063,0
0.1,4.2,0,0.299983,-0.000709694,0
0.1,4.3,0,0.299957,-0.000660311,0
0.1,4.4,0,0.299989,-0.000627002,0
0.1,4.5,0,0.299939,-0.000585517,0
0.1,4.6,0,0.299979,-0.000537598,0
0.1,4.7,0,0.299979,-0.000477089,0
0.1,4.8,0,0.299932,-0.000432827,0
0.1,4.9,0,0.299978,-0.00038804,0
0.1,5,0,0.299977,-0.00032214,0
0.1,5.1,0,0.299927,-0.000274442,0
0.1,5.2,0,0.299976,-0.00022747,0
0.1,5.3,0,0.299976,-0.000158869,0
0.1,5.4,0,0.299926,-0.000109469,0
0.1,5.5,0,0.299976,-6.23277e-05,0
0.1,5.6,0,0.299976,6.26262e-06,0
0.1,5.7,0,0.299928,5.52275e-05,0
0.1,5.8,0,0.299977,0.00010095,0
0.1,5.9,0,0.299978,0.000166789,0
0.1,6,0,0.299932,0.000233287,0
0.1,6.1,0,0.299973,0.000276798,0
0.1,6.2,0,0.299987,0.000291592,0
0.1,6.3,0,0.299952,0.000348205,0
0.1,6.4,0,0.299964,0.000402406,0
0.1,6.5,0,0.29999,0.000438695,0
0.1,6.6,0,0.299971,0.000469671,0
0.1,6.7,0,0.299959,0.000516501,0
0.1,6.8,0,0.299991,0.000559666,0
0.1,6.9,0,0.299985,0.000572466,0
0.1,7,0,0.299962,0.000610648,0
0.1,7.1,0,0.299984,0.000643991,0
0.1,7.2,0,0.299994,0.000656895,0
0.1,7.3,0,0.299979,0.000683151,0
0.1,7.4,0,0.299983,0.000708348,0
0.1,7.5,0,0.299996,0.000725646,0
0.1,7.6,0,0.29999,0.000736516,0
0.1,7.7,0,0.299985,0.000753998,0
0.1,7.8,0,0.299997,0.000768654,0
0.1,7.9,0,0.299996,0.000772408,0
0.1,8,0,0.299991,0.000782552,0
0.1,8.1,0,0.299996,0.000790147,0
0.1,8.2,0,0.299999,0.000793364,0
0.1,8.3,0,0.299998,0.000796328,0
0.1,8.4,0,0.299999,0.000798639,0
0.1,8.5,0,0.3,0.000799806,0
0.1,8.6,0,0.300001,0.000798741,0
0.1,8.7,0,0.300003,0.000796588,0
0.1,8.8,0,0.300001,0.000793712,0
0.1,8.9,0,0.300002,0.000792198,0
0.1,9,0,0.300006,0.000786345,0
0.1,9.1,0,0.300004,0.000780466,0
0.1,9.2,0,0.300002,0.000777582,0
0.1,9.3,0,0.300006,0.000770464,0
0.1,9.4,0,0.300006,0.00076236,0
0.1,9.5,0,0.300002,0.000755862,0
0.1,9.6,0,0.300005,0.000750945,0
0.1,9.7,0,0.30001,0.000741119,0
0.1,9.8,0,0.300004,0.000732484,0
0.1,9.9,0,0.300003,0.000729339,0
0.1,10,0,0.30001,0.000718592,0
0.1,10.1,0,0.300006,0.000709413,0
0.1,10.2,0,0.300002,0.000704667,0
0.1,10.3,0,0.300007,0.000696144,0
0.1,10.4,0,0.300008,0.000686445,0
0.1,10.5,0,0.300002,0.000678999,0
0.1,10.6,0,0.300004,0.000674465,0
0.1,10.7,0,0.300009,0.000664442,0
0.1,10.8,0,0.300003,0.000656938,0
0.1,10.9,0,0.300002,0.000654289,0
0.1,11,0,0.300007,0.000644873,0
0.1,11.1,0,0.300005,0.00063778,0
0.1,11.2,0,0.300002,0.000634052,0
0.1,11.3,0,0.300005,0.000627956,0
0.1,11.4,0,0.300006,0.00062105,0
0.1,11.5,0,0.300002,0.000616435,0
0.1,11.6,0,0.300003,0.000613764,0
0.1,11.7,0,0.300006,0.00060709,0
0.1,11.8,0,0.300002,0.00060374,0
0.1,11.9,0,0.300001,0.000602557,0
0.1,12,0,0.300003,0.000597249,0
0.1,12.1,0,0.300002,0.000594478,0
0.1,12.2,0,0.300001,0.0005934,0
0.1,12.3,0,0.300001,0.000590874,0
0.1,12.4,0,0.300001,0.000588517,0
0.1,12.5,0,0.3,0.000589691,0
0.1,12.6,0,0.3,0.000700115,0
0.1,12.7,0,0.300001,0.000809293,0
0.2,0,0,0.300002,-0.00192745,0
0.2,0.1,0,0.300002,-0.00181586,0
0.2,0.2,0,0.300004,-0.00181755,0
0.2,0.3,0,0.300004,-0.00182079,0
0.2,0.4,0,0.300006,-0.0018264,0
0.2,0.5,0,0.300006,-0.00183039,0
0.2,0.6,0,0.300008,-0.00183926,0
0.2,0.7,0,0.30001,-0.00184533,0
0.2,0.8,0,0.300011,-0.00185587,0
0.2,0.9,0,0.300014,-0.00186474,0
0.2,1,0,0.300012,-0.00187557,0
0.2,1.1,0,0.300014,-0.00188787,0
0.2,1.2,0,0.300013,-0.00189759,0
0.2,1.3,0,0.300014,-0.00191262,0
0.2,1.4,0,0.300014,-0.00192098,0
0.2,1.5,0,0.300013,-0.00193628,0
0.2,1.6,0,0.300015,-0.00194602,0
0.2,1.7,0,0.300013,-0.00195907,0
0.2,1.8,0,0.300015,-0.00196992,0
0.2,1.9,0,0.300011,-0.00197958,0
0.2,2,0,0.300011,-0.00199028,0
0.2,2.1,0,0.300009,-0.00199628,0
0.2,2.2,0,0.300006,-0.00200447,0
0.2,2.3,0,0.300005,-0.00200751,0
0.2,2.4,0,0.300002,-0.00201016,0
0.2,2.5,0,0.3,-0.00201081,0
0.2,2.6,0,0.299996,-0.00200682,0
0.2,2.7,0,0.299991,-0.00200273,0
0.2,2.8,0,0.299989,-0.00199259,0
0.2,2.9,0,0.299983,-0.00197995,0
0.2,3,0,0.299982,-0.00196563,0
0.2,3.1,0,0.299975,-0.00194102,0
0.2,3.2,0,0.299974,-0.00192415,0
0.2,3.3,0,0.299966,-0.00188717,0
0.2,3.4,0,0.299959,-0.00186115,0
0.2,3.5,0,0.299956,-0.00181594,0
0.2,3.6,0,0.299938,-0.00177598,0
0.2,3.7,0,0.299945,-0.00172634,0
0.2,3.8,0,0.299931,-0.00166744,0
0.2,3.9,0,0.299935,-0.0016178,0
0.2,4,0,0.299926,-0.00153801,0
0.2,4.1,0,0.299924,-0.00149026,0
0.2,4.2,0,0.299916,-0.00139636,0
0.2,4.3,0,0.299903,-0.00133343,0
0.2,4.4,0,0.299907,-0.00124531,0
0.2,4.5,0,0.299878,-0.00117103,0
0.2,4.6,0,0.299898,-0.00105898,0
0.2,4.7,0,0.299895,-0.000971776,0
0.2,4.8,0,0.299864,-0.000865654,0
0.2,4.9,0,0.299888,-0.000755631,0
0.2,5,0,0.299887,-0.000663297,0
0.2,5.1,0,0.299855,-0.000548884,0
0.2,5.2,0,0.299883,-0.000433139,0
0.2,5.3,0,0.299883,-0.000336988,0
0.2,5.4,0,0.299852,-0.000218937,0
0.2,5.5,0,0.299883,-0.000102329,0
0.2,5.6,0,0.299883,-6.27562e-06,0
0.2,5.7,0,0.299855,0.000110455,0
0.2,5.8,0,0.299887,0.000223259,0
0.2,5.9,0,0.299889,0.000322116,0
0.2,6,0,0.299865,0.000466575,0
0.2,6.1,0,0.299894,0.000528957,0
0.2,6.2,0,0.299899,0.000629653,0
0.2,6.3,0,0.299891,0.000716425,0
0.2,6.4,0,0.299903,0.000770626,0
0.2,6.5,0,0.299912,0.000870651,0
0.2,6.6,0,0.299919,0.000971644,0
0.2,6.7,0,0.299909,0.00102005,0
0.2,6.8,0,0.299926,0.00108727,0
0.2,6.9,0,0.299934,0.00116862,0
0.2,7,0,0.299923,0.0012232,0
0.2,7.1,0,0.299941,0.00126437,0
0.2,7.2,0,0.299949,0.00132539,0
0.2,7.3,0,0.299951,0.00137747,0
0.2,7.4,0,0.299955,0.00140267,0
0.2,7.5,0,0.299963,0.00144318,0
0.2,7.6,0,0.299971,0.00148498,0
0.2,7.7,0,0.299967,0.00150433,0
0.2,7.8,0,0.299976,0.00152487,0
0.2,7.9,0,0.299982,0.00154967,0
0.2,8,0,0.299982,0.00156612,0
0.2,8.1,0,0.299987,0.00157448,0
0.2,8.2,0,0.299992,0.00158512,0
0.2,8.3,0,0.299996,0.00159415,0
0.2,8.4,0,0.299997,0.00159647,0
0.2,8.5,0,0.3,0.00159621,0
0.2,8.6,0,0.300004,0.00159571,0
0.2,8.7,0,0.300006,0.00159375,0
0.2,8.8,0,0.300006,0.00158777,0
0.2,8.9,0,0.300009,0.00157905,0
0.2,9,0,0.300013,0.00157181,0
0.2,9.1,0,0.300011,0.00156441,0
0.2,9.2,0,0.300013,0.00155005,0
0.2,9.3,0,0.300016,0.00153669,0
0.2,9.4,0,0.300016,0.00152859,0
0.2,9.5,0,0.300015,0.00151252,0
0.2,9.6,0,0.300016,0.00149475,0
0.2,9.7,0,0.30002,0.00148353,0
0.2,9.8,0,0.300017,0.00146974,0
0.2,9.9,0,0.300018,0.00145036,0
0.2,10,0,0.300021,0.00143503,0
0.2,10.1,0,0.300018,0.00142445,0
0.2,10.2,0,0.300017,0.00140488,0
0.2,10.3,0,0.300018,0.00138635,0
0.2,10.4,0,0.300018,0.00137666,0
0.2,10.5,0,0.300016,0.00136025,0
0.2,10.6,0,0.300016,0.00134158,0
0.2,10.7,0,0.300019,0.00132963,0
0.2,10.8,0,0.300015,0.00131808,0
0.2,10.9,0,0.300014,0.00130116,0
0.2,11,0,0.300016,0.00128739,0
0.2,11.1,0,0.300014,0.00127964,0
0.2,11.2,0,0.300013,0.00126508,0
0.2,11.3,0,0.300012,0.00125097,0
0.2,11.4,0,0.300013,0.00124406,0
0.2,11.5,0,0.300011,0.00123415,0
0.2,11.6,0,0.30001,0.0012224,0
0.2,11.7,0,0.300011,0.00121435,0
0.2,11.8,0,0.300008,0.00120898,0
0.2,11.9,0,0.300007,0.00120032,0
0.2,12,0,0.300007,0.00119291,0
0.2,12.1,0,0.300006,0.00119003,0
0.2,12.2,0,0.300005,0.00118468,0
0.2,12.3,0,0.300003,0.00117937,0
0.2,12.4,0,0.300003,0.00117701,0
0.2,12.5,0,0.300002,0.00117579,0
0.2,12.6,0,0.300002,0.00117397,0
0.2,12.7,0,0.300002,0.00124652,0
0.3,0,0,0.300005,-0.00271941,0
0.3,0.1,0,0.300005,-0.00272186,0
0.3,0.2,0,0.300007,-0.002724,0
0.3,0.3,0,0.30001,-0.00273036,0
0.3,0.4,0,0.300012,-0.00273596,0
0.3,0.5,0,0.300015,-0.00274664,0
0.3,0.6,0,0.300017,-0.00275551,0
0.3,0.7,0,0.300021,-0.00276869,0
0.3,0.8,0,0.300022,-0.00278158,0
0.3,0.9,0,0.300028,-0.00279592,0
0.3,1,0,0.300026,-0.00281299,0
0.3,1.1,0,0.300029,-0.00282816,0
0.3,1.2,0,0.300028,-0.00284831,0
0.3,1.3,0,0.300029,-0.00286334,0
0.3,1.4,0,0.300029,-0.0028858,0
0.3,1.5,0,0.300029,-0.00290109,0
0.3,1.6,0,0.30003,-0.00292175,0
0.3,1.7,0,0.300027,-0.00293773,0
0.3,1.8,0,0.300029,-0.00295546,0
0.3,1.9,0,0.300024,-0.0029707,0
0.3,2,0,0.300023,-0.00298401,0
0.3,2.1,0,0.300018,-0.00299715,0
0.3,2.2,0,0.300015,-0.00300534,0
0.3,2.3,0,0.300009,-0.00301393,0
0.3,2.4,0,0.300005,-0.00301658,0
0.3,2.5,0,0.299998,-0.00301785,0
0.3,2.6,0,0.299993,-0.00301303,0
0.3,2.7,0,0.299983,-0.00300729,0
0.3,2.8,0,0.299977,-0.00299117,0
0.3,2.9,0,0.299968,-0.00297597,0
0.3,3,0,0.299959,-0.00294754,0
0.3,3.1,0,0.299952,-0.00292293,0
0.3,3.2,0,0.299938,-0.00287886,0
0.3,3.3,0,0.29993,-0.00284187,0
0.3,3.4,0,0.299912,-0.00278691,0
0.3,3.5,0,0.299907,-0.00273159,0
0.3,3.6,0,0.29988,-0.00266906,0
0.3,3.7,0,0.299882,-0.00259013,0
0.3,3.8,0,0.299863,-0.00251821,0
0.3,3.9,0,0.299856,-0.00241632,0
0.3,4,0,0.299847,-0.00233654,0
0.3,4.1,0,0.299831,-0.0022101,0
0.3,4.2,0,0.299823,-0.0021162,0
0.3,4.3,0,0.299798,-0.00198366,0
0.3,4.4,0,0.299801,-0.00187395,0
0.3,4.5,0,0.299764,-0.00175968,0
0.3,4.6,0,0.299783,-0.00160285,0
0.3,4.7,0,0.299774,-0.00144292,0
0.3,4.8,0,0.299735,-0.00130006,0
0.3,4.9,0,0.299762,-0.00115009,0
0.3,5,0,0.299757,-0.00097806,0
0.3,5.1,0,0.299718,-0.000823211,0
0.3,5.2,0,0.29975,-0.000666058,0
0.3,5.3,0,0.299748,-0.000486814,0
0.3,5.4,0,0.299713,-0.000326429,0
0.3,5.5,0,0.299748,-0.000168744,0
0.3,5.6,0,0.29975,1.00933e-05,0
0.3,5.7,0,0.299719,0.000169266,0
0.3,5.8,0,0.299757,0.000320864,0
0.3,5.9,0,0.299762,0.000498378,0
0.3,6,0,0.299739,0.000705026,0
0.3,6.1,0,0.299776,0.000825909,0
0.3,6.2,0,0.299781,0.000926605,0
0.3,6.3,0,0.299776,0.00105053,0
0.3,6.4,0,0.299802,0.00121415,0
0.3,6.5,0,0.29981,0.00131629,0
0.3,6.6,0,0.299818,0.00141728,0
0.3,6.7,0,0.299821,0.00155666,0
0.3,6.8,0,0.299845,0.00165575,0
0.3,6.9,0,0.299853,0.0017371,0
0.3,7,0,0.299851,0.00183907,0
0.3,7.1,0,0.299881,0.00192783,0
0.3,7.2,0,0.299889,0.00198885,0
0.3,7.3,0,0.299894,0.00205599,0
0.3,7.4,0,0.299913,0.00213078,0
0.3,7.5,0,0.299923,0.00217447,0
0.3,7.6,0,0.29993,0.00221627,0
0.3,7.7,0,0.299938,0.00226711,0
0.3,7.8,0,0.299952,0.0022993,0
0.3,7.9,0,0.299959,0.0023241,0
0.3,8,0,0.299965,0.002352,0
0.3,8.1,0,0.299978,0.00237098,0
0.3,8.2,0,0.299983,0.00238162,0
0.3,8.3,0,0.299988,0.0023921,0
0.3,8.4,0,0.299997,0.00239797,0
0.3,8.5,0,0.300002,0.00239784,0
0.3,8.6,0,0.300006,0.00239735,0
0.3,8.7,0,0.300013,0.00239126,0
0.3,8.8,0,0.300016,0.00238168,0
0.3,8.9,0,0.300019,0.00237295,0
0.3,9,0,0.300025,0.00235978,0
0.3,9.1,0,0.300027,0.00234148,0
0.3,9.2,0,0.300028,0.00232712,0
0.3,9.3,0,0.300031,0.00231097,0
0.3,9.4,0,0.300034,0.00228594,0
0.3,9.5,0,0.300034,0.00226692,0
0.3,9.6,0,0.300035,0.00224914,0
0.3,9.7,0,0.30004,0.00222208,0
0.3,9.8,0,0.300037,0.0021983,0
0.3,9.9,0,0.300037,0.00217892,0
0.3,10,0,0.300041,0.00215393,0
0.3,10.1,0,0.300037,0.00212616,0
0.3,10.2,0,0.300037,0.00210658,0
0.3,10.3,0,0.300037,0.0020856,0
0.3,10.4,0,0.300037,0.00205625,0
0.3,10.5,0,0.300035,0.00203572,0
0.3,10.6,0,0.300034,0.00201705,0
0.3,10.7,0,0.300037,0.0019905,0
0.3,10.8,0,0.300032,0.00196924,0
0.3,10.9,0,0.300031,0.00195232,0
0.3,11,0,0.300032,0.00193129,0
0.3,11.1,0,0.300028,0.00190937,0
0.3,11.2,0,0.300027,0.00189481,0
0.3,11.3,0,0.300026,0.00187966,0
0.3,11.4,0,0.300025,0.00185912,0
0.3,11.5,0,0.300022,0.001846,0
0.3,11.6,0,0.300021,0.00183424,0
0.3,11.7,0,0.300022,0.00181779,0
0.3,11.8,0,0.300017,0.00180696,0
0.3,11.9,0,0.300016,0.00179831,0
0.3,12,0,0.300015,0.00178767,0
0.3,12.1,0,0.300011,0.0017785,0
0.3,12.2,0,0.30001,0.00177316,0
0.3,12.3,0,0.300009,0.00176774,0
0.3,12.4,0,0.300006,0.00176118,0
0.3,12.5,0,0.300004,0.00175931,0
0.3,12.6,0,0.300004,0.00175749,0
0.3,12.7,0,0.300004,0.00175447,0
0.4,0,0,0.300009,-0.00362266,0
0.4,0.1,0,0.300008,-0.00362582,0
0.4,0.2,0,0.300013,-0.00362916,0
0.4,0.3,0,0.300016,-0.00363647,0
0.4,0.4,0,0.300023,-0.0036464,0
0.4,0.5,0,0.300026,-0.00365746,0
0.4,0.6,0,0.30003,-0.00367313,0
0.4,0.7,0,0.300037,-0.00368767,0
0.4,0.8,0,0.300037,-0.00370765,0
0.4,0.9,0,0.300047,-0.0037259,0
0.4,1,0,0.300043,-0.00374775,0
0.4,1.1,0,0.300051,-0.00377118,0
0.4,1.2,0,0.300048,-0.00379378,0
0.4,1.3,0,0.300052,-0.00382031,0
0.4,1.4,0,0.300052,-0.00384357,0
0.4,1.5,0,0.30005,-0.00387079,0
0.4,1.6,0,0.300053,-0.00389383,0
0.4,1.7,0,0.300046,-0.00391891,0
0.4,1.8,0,0.300051,-0.00394156,0
0.4,1.9,0,0.30004,-0.00396134,0
0.4,2,0,0.300039,-0.00398217,0
0.4,2.1,0,0.300032,-0.00399691,0
0.4,2.2,0,0.300025,-0.00401197,0
0.4,2.3,0,0.300018,-0.00402091,0
0.4,2.4,0,0.300006,-0.00402675,0
0.4,2.5,0,0.299999,-0.00402844,0
0.4,2.6,0,0.299987,-0.00402218,0
0.4,2.7,0,0.299971,-0.00401505,0
0.4,2.8,0,0.299963,-0.00399536,0
0.4,2.9,0,0.299941,-0.00397263,0
0.4,3,0,0.299933,-0.00394103,0
0.4,3.1,0,0.299909,-0.00389922,0
0.4,3.2,0,0.299895,-0.00385367,0
0.4,3.3,0,0.299876,-0.00379089,0
0.4,3.4,0,0.299849,-0.00373014,0
0.4,3.5,0,0.299842,-0.0036467,0
0.4,3.6,0,0.299796,-0.00356722,0
0.4,3.7,0,0.299805,-0.00346791,0
0.4,3.8,0,0.299757,-0.00335781,0
0.4,3.9,0,0.299759,-0.00324443,0
0.4,4,0,0.299722,-0.00310582,0
0.4,4.1,0,0.299705,-0.00297498,0
0.4,4.2,0,0.299692,-0.00281239,0
0.4,4.3,0,0.299649,-0.00266499,0
0.4,4.4,0,0.299666,-0.00249261,0
0.4,4.5,0,0.299597,-0.00235144,0
0.4,4.6,0,0.299625,-0.00212364,0
0.4,4.7,0,0.299614,-0.00194192,0
0.4,4.8,0,0.299547,-0.00173605,0
0.4,4.9,0,0.299589,-0.00151968,0
0.4,5,0,0.299583,-0.00132095,0
0.4,5.1,0,0.299517,-0.00109742,0
0.4,5.2,0,0.299569,-0.000870739,0
0.4,5.3,0,0.299567,-0.000663652,0
0.4,5.4,0,0.299508,-0.000431944,0
0.4,5.5,0,0.299568,-0.00020478,0
0.4,5.6,0,0.29957,1.78398e-06,0
0.4,5.7,0,0.299519,0.00023166,0
0.4,5.8,0,0.299584,0.000449529,0
0.4,5.9,0,0.29959,0.000646462,0
0.4,6,0,0.299555,0.000948642,0
0.4,6.1,0,0.299607,0.00107947,0
0.4,6.2,0,0.299639,0.0012582,0
0.4,6.3,0,0.299612,0.00143179,0
0.4,6.4,0,0.299638,0.00159541,0
0.4,6.5,0,0.299684,0.00176765,0
0.4,6.6,0,0.299683,0.00193393,0
0.4,6.7,0,0.299686,0.00207464,0
0.4,6.8,0,0.299735,0.00220394,0
0.4,6.9,0,0.299755,0.00235127,0
0.4,7,0,0.299746,0.00246589,0
0.4,7.1,0,0.299786,0.00256513,0
0.4,7.2,0,0.299821,0.00267738,0
0.4,7.3,0,0.29982,0.00276332,0
0.4,7.4,0,0.299839,0.0028381,0
0.4,7.5,0,0.299871,0.0029104,0
0.4,7.6,0,0.299883,0.00297656,0
0.4,7.7,0,0.299891,0.00302846,0
0.4,7.8,0,0.299916,0.00307085,0
0.4,7.9,0,0.299935,0.00311397,0
0.4,8,0,0.299941,0.00314422,0
0.4,8.1,0,0.299956,0.00316539,0
0.4,8.2,0,0.299974,0.00318514,0
0.4,8.3,0,0.299983,0.0031961,0
0.4,8.4,0,0.299992,0.00320196,0
0.4,8.5,0,0.300003,0.0032034,0
0.4,8.6,0,0.300014,0.00319897,0
0.4,8.7,0,0.300022,0.0031922,0
0.4,8.8,0,0.300025,0.00318164,0
0.4,8.9,0,0.300035,0.0031641,0
0.4,9,0,0.300044,0.00314683,0
0.4,9.1,0,0.300045,0.00312759,0
0.4,9.2,0,0.300048,0.00310261,0
0.4,9.3,0,0.300057,0.00307686,0
0.4,9.4,0,0.300059,0.00305183,0
0.4,9.5,0,0.300056,0.00302483,0
0.4,9.6,0,0.300062,0.00299168,0
0.4,9.7,0,0.300069,0.00296253,0
0.4,9.8,0,0.300062,0.00293468,0
0.4,9.9,0,0.300063,0.00289837,0
0.4,10,0,0.300071,0.00286707,0
0.4,10.1,0,0.300066,0.00283815,0
0.4,10.2,0,0.300062,0.00280448,0
0.4,10.3,0,0.300067,0.00277142,0
0.4,10.4,0,0.300066,0.00274206,0
0.4,10.5,0,0.300059,0.00271378,0
0.4,10.6,0,0.30006,0.00267951,0
0.4,10.7,0,0.300064,0.00265045,0
0.4,10.8,0,0.300056,0.00262591,0
0.4,10.9,0,0.300052,0.00259462,0
0.4,11,0,0.300056,0.00256791,0
0.4,11.1,0,0.300051,0.00254547,0
0.4,11.2,0,0.300045,0.00252099,0
0.4,11.3,0,0.300046,0.00249628,0
0.4,11.4,0,0.300045,0.00247574,0
0.4,11.5,0,0.300038,0.00245851,0
0.4,11.6,0,0.300036,0.00243669,0
0.4,11.7,0,0.300037,0.00241829,0
0.4,11.8,0,0.300031,0.00240614,0
0.4,11.9,0,0.300026,0.00239032,0
0.4,12,0,0.300026,0.0023763,0
0.4,12.1,0,0.300022,0.00236708,0
0.4,12.2,0,0.300017,0.00235859,0
0.4,12.3,0,0.300014,0.00234899,0
0.4,12.4,0,0.300012,0.00234243,0
0.4,12.5,0,0.300008,0.00234046,0
0.4,12.6,0,0.300006,0.00233677,0
0.4,12.7,0,0.300007,0.00233317,0
0.5,0,0,0.300013,-0.0045259,0
0.5,0.1,0,0.300016,-0.00452997,0
0.5,0.2,0,0.30002,-0.00453405,0
0.5,0.3,0,0.300027,-0.00454378,0
0.5,0.4,0,0.300034,-0.00455541,0
0.5,0.5,0,0.300041,-0.00457033,0
0.5,0.6,0,0.300048,-0.00458853,0
0.5,0.7,0,0.300055,-0.00460816,0
0.5,0.8,0,0.30006,-0.00463202,0
0.5,0.9,0,0.300066,-0.00465588,0
0.5,1,0,0.30007,-0.00468412,0
0.5,1.1,0,0.300074,-0.00471235,0
0.5,1.2,0,0.300077,-0.00474263,0
0.5,1.3,0,0.300079,-0.00477359,0
0.5,1.4,0,0.30008,-0.0048049,0
0.5,1.5,0,0.300079,-0.00483655,0
0.5,1.6,0,0.300078,-0.00486778,0
0.5,1.7,0,0.300075,-0.00489771,0
0.5,1.8,0,0.300072,-0.00492765,0
0.5,1.9,0,0.300065,-0.00495311,0
0.5,2,0,0.300058,-0.00497856,0
0.5,2.1,0,0.300049,-0.0049983,0
0.5,2.2,0,0.300038,-0.00501614,0
0.5,2.3,0,0.300026,-0.00502847,0
0.5,2.4,0,0.300012,-0.00503529,0
0.5,2.5,0,0.299996,-0.00503844,0
0.5,2.6,0,0.299978,-0.00503063,0
0.5,2.7,0,0.29996,-0.00502282,0
0.5,2.8,0,0.299937,-0.00499671,0
0.5,2.9,0,0.299915,-0.0049706,0
0.5,3,0,0.299889,-0.00492811,0
0.5,3.1,0,0.299863,-0.00488016,0
0.5,3.2,0,0.299835,-0.00481968,0
0.5,3.3,0,0.299806,-0.00474667,0
0.5,3.4,0,0.299776,-0.00466675,0
0.5,3.5,0,0.299744,-0.00456607,0
0.5,3.6,0,0.299712,-0.00446539,0
0.5,3.7,0,0.299678,-0.00433525,0
0.5,3.8,0,0.299645,-0.00420511,0
0.5,3.9,0,0.299611,-0.00405239,0
0.5,4,0,0.299578,-0.00389214,0
0.5,4.1,0,0.299545,-0.00371737,0
0.5,4.2,0,0.299513,-0.00352808,0
0.5,4.3,0,0.299483,-0.0033369,0
0.5,4.4,0,0.299457,-0.00314005,0
0.5,4.5,0,0.29943,-0.00294321,0
0.5,4.6,0,0.299403,-0.00268004,0
0.5,4.7,0,0.299379,-0.00242298,0
0.5,4.8,0,0.299358,-0.00217203,0
0.5,4.9,0,0.299342,-0.00190951,0
0.5,5,0,0.299328,-0.00164271,0
0.5,5.1,0,0.299316,-0.00137163,0
0.5,5.2,0,0.299309,-0.00109489,0
0.5,5.3,0,0.299305,-0.000816832,0
0.5,5.4,0,0.299303,-0.000537459,0
0.5,5.5,0,0.299306,-0.000258554,0
0.5,5.6,0,0.299311,1.86176e-05,0
0.5,5.7,0,0.299319,0.000294054,0
0.5,5.8,0,0.299331,0.000562775,0
0.5,5.9,0,0.299349,0.000862176,0
0.5,6,0,0.299371,0.00119226,0
0.5,6.1,0,0.299391,0.00139567,0
0.5,6.2,0,0.299411,0.00159909,0
0.5,6.3,0,0.299432,0.0018025,0
0.5,6.4,0,0.299458,0.00200566,0
0.5,6.5,0,0.299487,0.00220869,0
0.5,6.6,0,0.299516,0.00241172,0
0.5,6.7,0,0.299545,0.00260261,0
0.5,6.8,0,0.299577,0.00276518,0
0.5,6.9,0,0.299608,0.00292775,0
0.5,7,0,0.29964,0.00309032,0
0.5,7.1,0,0.29967,0.00321349,0
0.5,7.2,0,0.299701,0.00333459,0
0.5,7.3,0,0.299732,0.00345568,0
0.5,7.4,0,0.299761,0.00355339,0
0.5,7.5,0,0.299789,0.00363551,0
0.5,7.6,0,0.299817,0.00371763,0
0.5,7.7,0,0.299844,0.00379117,0
0.5,7.8,0,0.299868,0.003839,0
0.5,7.9,0,0.299891,0.00388684,0
0.5,8,0,0.299915,0.00393467,0
0.5,8.1,0,0.299935,0.00395694,0
0.5,8.2,0,0.299954,0.00397637,0
0.5,8.3,0,0.299973,0.00399581,0
0.5,8.4,0,0.299989,0.00400302,0
0.5,8.5,0,0.300004,0.00400024,0
0.5,8.6,0,0.300018,0.00399746,0
0.5,8.7,0,0.300032,0.00399142,0
0.5,8.8,0,0.300042,0.00397233,0
0.5,8.9,0,0.300053,0.00395324,0
0.5,9,0,0.300063,0.00393415,0
0.5,9.1,0,0.30007,0.00390566,0
0.5,9.2,0,0.300077,0.00387551,0
0.5,9.3,0,0.300083,0.00384537,0
0.5,9.4,0,0.300089,0.00381191,0
0.5,9.5,0,0.300092,0.00377516,0
0.5,9.6,0,0.300096,0.0037384,0
0.5,9.7,0,0.300099,0.00370119,0
0.5,9.8,0,0.3001,0.00366143,0
0.5,9.9,0,0.300101,0.00362166,0
0.5,10,0,0.300102,0.00358189,0
0.5,10.1,0,0.300101,0.00354197,0
0.5,10.2,0,0.300101,0.003502,0
0.5,10.3,0,0.3001,0.00346204,0
0.5,10.4,0,0.300098,0.00342297,0
0.5,10.5,0,0.300096,0.003385,0
0.5,10.6,0,0.300094,0.00334702,0
0.5,10.7,0,0.300091,0.00330941,0
0.5,10.8,0,0.300088,0.00327509,0
0.5,10.9,0,0.300085,0.00324076,0
0.5,11,0,0.300082,0.00320643,0
0.5,11.1,0,0.300078,0.00317574,0
0.5,11.2,0,0.300074,0.00314626,0
0.5,11.3,0,0.30007,0.00311678,0
0.5,11.4,0,0.300066,0.00308957,0
0.5,11.5,0,0.300061,0.00306578,0
0.5,11.6,0,0.300057,0.003042,0
0.5,11.7,0,0.300052,0.00301852,0
0.5,11.8,0,0.300047,0.00300101,0
0.5,11.9,0,0.300042,0.0029835,0
0.5,12,0,0.300037,0.00296599,0
0.5,12.1,0,0.300032,0.00295313,0
0.5,12.2,0,0.300027,0.00294228,0
0.5,12.3,0,0.300022,0.00293142,0
0.5,12.4,0,0.300018,0.00292305,0
0.5,12.5,0,0.300016,0.00291932,0
0.5,12.6,0,0.300013,0.00291559,0
0.5,12.7,0,0.300011,0.00291186,0
0.6,0,0,0.30002,-0.00542192,0
0.6,0.1,0,0.300018,-0.00542679,0
0.6,0.2,0,0.300029,-0.00543193,0
0.6,0.3,0,0.300038,-0.00544474,0
0.6,0.4,0,0.300049,-0.00545823,0
0.6,0.5,0,0.30006,-0.00547738,0
0.6,0.6,0,0.300068,-0.00549842,0
0.6,0.7,0,0.300081,-0.00552361,0
0.6,0.8,0,0.300085,-0.0055518,0
0.6,0.9,0,0.3001,-0.00558184,0
0.6,1,0,0.300099,-0.0056172,0
0.6,1.1,0,0.30011,-0.00565078,0
0.6,1.2,0,0.30011,-0.0056897,0
0.6,1.3,0,0.300115,-0.00572565,0
0.6,1.4,0,0.300116,-0.00576611,0
0.6,1.5,0,0.300114,-0.00580286,0
0.6,1.6,0,0.300116,-0.00584352,0
0.6,1.7,0,0.300107,-0.00587923,0
0.6,1.8,0,0.300109,-0.00591768,0
0.6,1.9,0,0.300093,-0.00595024,0
0.6,2,0,0.300087,-0.00598128,0
0.6,2.1,0,0.30007,-0.00600775,0
0.6,2.2,0,0.300058,-0.00602926,0
0.6,2.3,0,0.300039,-0.00604674,0
0.6,2.4,0,0.30002,-0.00605556,0
0.6,2.5,0,0.299997,-0.00606186,0
0.6,2.6,0,0.299974,-0.0060539,0
0.6,2.7,0,0.299942,-0.00604663,0
0.6,2.8,0,0.299914,-0.00601617,0
0.6,2.9,0,0.299877,-0.00598736,0
0.6,3,0,0.299845,-0.00593603,0
0.6,3.1,0,0.299806,-0.00588251,0
0.6,3.2,0,0.299764,-0.0058086,0
0.6,3.3,0,0.29973,-0.00572631,0
0.6,3.4,0,0.299672,-0.00562769,0
0.6,3.5,0,0.299647,-0.00551136,0
0.6,3.6,0,0.299569,-0.00538849,0
0.6,3.7,0,0.299552,-0.00522969,0
0.6,3.8,0,0.299479,-0.00507806,0
0.6,3.9,0,0.29945,-0.00488712,0
0.6,4,0,0.299393,-0.0047042,0
0.6,4.1,0,0.299344,-0.00448444,0
0.6,4.2,0,0.299315,-0.00426836,0
0.6,4.3,0,0.299238,-0.00402121,0
0.6,4.4,0,0.299239,-0.0037759,0
0.6,4.5,0,0.299145,-0.00355311,0
0.6,4.6,0,0.299155,-0.00322004,0
0.6,4.7,0,0.299121,-0.00291302,0
0.6,4.8,0,0.299036,-0.00261869,0
0.6,4.9,0,0.299069,-0.00230542,0
0.6,5,0,0.299048,-0.00196915,0
0.6,5.1,0,0.298971,-0.00164802,0
0.6,5.2,0,0.299022,-0.00132074,0
0.6,5.3,0,0.299016,-0.000970163,0
0.6,5.4,0,0.298952,-0.000636085,0
0.6,5.5,0,0.299017,-0.000309433,0
0.6,5.6,0,0.299026,3.97978e-05,0
0.6,5.7,0,0.298977,0.000371942,0
0.6,5.8,0,0.299054,0.000683497,0
0.6,5.9,0,0.299077,0.0010155,0
0.6,6,0,0.299057,0.00145955,0
0.6,6.1,0,0.299128,0.00167977,0
0.6,6.2,0,0.299166,0.0018889,0
0.6,6.3,0,0.299163,0.00218082,0
0.6,6.4,0,0.299216,0.0024558,0
0.6,6.5,0,0.299284,0.00270184,0
0.6,6.6,0,0.299301,0.0029315,0
0.6,6.7,0,0.299333,0.00316718,0
0.6,6.8,0,0.299415,0.00338198,0
0.6,6.9,0,0.299445,0.00355499,0
0.6,7,0,0.299465,0.00374635,0
0.6,7.1,0,0.299537,0.00390963,0
0.6,7.2,0,0.299585,0.00404661,0
0.6,7.3,0,0.299611,0.00418413,0
0.6,7.4,0,0.299658,0.00430644,0
0.6,7.5,0,0.299712,0.00441027,0
0.6,7.6,0,0.29974,0.00449706,0
0.6,7.7,0,0.299773,0.0045813,0
0.6,7.8,0,0.299823,0.00464816,0
0.6,7.9,0,0.29985,0.00469779,0
0.6,8,0,0.299877,0.00474598,0
0.6,8.1,0,0.299913,0.00477754,0
0.6,8.2,0,0.29994,0.0048015,0
0.6,8.3,0,0.299964,0.00481622,0
0.6,8.4,0,0.299989,0.00482288,0
0.6,8.5,0,0.300011,0.00482272,0
0.6,8.6,0,0.30003,0.00481496,0
0.6,8.7,0,0.30005,0.00480115,0
0.6,8.8,0,0.300065,0.00478016,0
0.6,8.9,0,0.300077,0.00475858,0
0.6,9,0,0.300096,0.00472776,0
0.6,9.1,0,0.300104,0.00469282,0
0.6,9.2,0,0.30011,0.00465997,0
0.6,9.3,0,0.300124,0.00461884,0
0.6,9.4,0,0.300131,0.00457495,0
0.6,9.5,0,0.300132,0.00453165,0
0.6,9.6,0,0.300139,0.00448826,0
0.6,9.7,0,0.300148,0.0044382,0
0.6,9.8,0,0.300142,0.00438951,0
0.6,9.9,0,0.300143,0.00434617,0
0.6,10,0,0.300152,0.00429303,0
0.6,10.1,0,0.300147,0.00424308,0
0.6,10.2,0,0.300142,0.00419815,0
0.6,10.3,0,0.300146,0.00414815,0
0.6,10.4,0,0.300144,0.00409812,0
0.6,10.5,0,0.300135,0.00405228,0
0.6,10.6,0,0.300135,0.00400919,0
0.6,10.7,0,0.300136,0.00396032,0
0.6,10.8,0,0.300125,0.003918,0
0.6,10.9,0,0.30012,0.00388083,0
0.6,11,0,0.300121,0.00383621,0
0.6,11.1,0,0.300112,0.00379785,0
0.6,11.2,0,0.300103,0.00376436,0
0.6,11.3,0,0.300102,0.00372838,0
0.6,11.4,0,0.300096,0.00369377,0
0.6,11.5,0,0.300085,0.00366497,0
0.6,11.6,0,0.300081,0.00363838,0
0.6,11.7,0,0.300078,0.00360791,0
0.6,11.8,0,0.300067,0.00358668,0
0.6,11.9,0,0.30006,0.00356787,0
0.6,12,0,0.300055,0.00354488,0
0.6,12.1,0,0.300047,0.00352899,0
0.6,12.2,0,0.300038,0.00351686,0
0.6,12.3,0,0.300032,0.00350337,0
0.6,12.4,0,0.300025,0.00349236,0
0.6,12.5,0,0.300017,0.00348819,0
0.6,12.6,0,0.300015,0.00348391,0
0.6,12.7,0,0.300016,0.00347857,0
0.7,0,0,0.300027,-0.00631793,0
0.7,0.1,0,0.30003,-0.0063238,0
0.7,0.2,0,0.30004,-0.00633023,0
0.7,0.3,0,0.300052,-0.00634404,0
0.7,0.4,0,0.300068,-0.00636253,0
0.7,0.5,0,0.30008,-0.00638211,0
0.7,0.6,0,0.300095,-0.00641067,0
0.7,0.7,0,0.300108,-0.0064374,0
0.7,0.8,0,0.300119,-0.00647341,0
0.7,0.9,0,0.300133,-0.00650781,0
0.7,1,0,0.300138,-0.00654848,0
0.7,1.1,0,0.300148,-0.00659127,0
0.7,1.2,0,0.300151,-0.00663295,0
0.7,1.3,0,0.300156,-0.00668186,0
0.7,1.4,0,0.300158,-0.00672324,0
0.7,1.5,0,0.300157,-0.00677365,0
0.7,1.6,0,0.300157,-0.00681705,0
0.7,1.7,0,0.300148,-0.00686343,0
0.7,1.8,0,0.300146,-0.00690771,0
0.7,1.9,0,0.30013,-0.00694578,0
0.7,2,0,0.300117,-0.00698614,0
0.7,2.1,0,0.3001,-0.00701468,0
0.7,2.2,0,0.300076,-0.00704551,0
0.7,2.3,0,0.300057,-0.00706351,0
0.7,2.4,0,0.300025,-0.007078,0
0.7,2.5,0,0.3,-0.00708533,0
0.7,2.6,0,0.299962,-0.00707777,0
0.7,2.7,0,0.299924,-0.00707044,0
0.7,2.8,0,0.299884,-0.00703721,0
0.7,2.9,0,0.299834,-0.00700308,0
0.7,3,0,0.299793,-0.00694875,0
0.7,3.1,0,0.299734,-0.00688038,0
0.7,3.2,0,0.29969,-0.0068051,0
0.7,3.3,0,0.299623,-0.00669834,0
0.7,3.4,0,0.299566,-0.00659466,0
0.7,3.5,0,0.299504,-0.00645017,0
0.7,3.6,0,0.299427,-0.00631159,0
0.7,3.7,0,0.299378,-0.00613142,0
0.7,3.8,0,0.299299,-0.00594275,0
0.7,3.9,0,0.299249,-0.0057393,0
0.7,4,0,0.299173,-0.00549741,0
0.7,4.1,0,0.299122,-0.00527315,0
0.7,4.2,0,0.29905,-0.0049858,0
0.7,4.3,0,0.298984,-0.00472416,0
0.7,4.4,0,0.298939,-0.00442969,0
0.7,4.5,0,0.29886,-0.00416301,0
0.7,4.6,0,0.298832,-0.00376883,0
0.7,4.7,0,0.298789,-0.00342739,0
0.7,4.8,0,0.298713,-0.00306535,0
0.7,4.9,0,0.298713,-0.00268313,0
0.7,5,0,0.298687,-0.00231789,0
0.7,5.1,0,0.298627,-0.00192441,0
0.7,5.2,0,0.298648,-0.00152296,0
0.7,5.3,0,0.298641,-0.00114214,0
0.7,5.4,0,0.2986,-0.000734711,0
0.7,5.5,0,0.298644,-0.000332265,0
0.7,5.6,0,0.298654,4.69805e-05,0
0.7,5.7,0,0.298635,0.00044983,0
0.7,5.8,0,0.298697,0.000834948,0
0.7,5.9,0,0.298727,0.00121704,0
0.7,6,0,0.298744,0.00172684,0
0.7,6.1,0,0.298807,0.00197657,0
0.7,6.2,0,0.298854,0.00228619,0
0.7,6.3,0,0.298885,0.00259044,0
0.7,6.4,0,0.298939,0.00286541,0
0.7,6.5,0,0.299005,0.00317156,0
0.7,6.6,0,0.299071,0.00347853,0
0.7,6.7,0,0.299105,0.00371609,0
0.7,6.8,0,0.29918,0.00394903,0
0.7,6.9,0,0.299251,0.00419262,0
0.7,7,0,0.29929,0.00440383,0
0.7,7.1,0,0.299361,0.004572,0
0.7,7.2,0,0.29943,0.00475128,0
0.7,7.3,0,0.299487,0.00491956,0
0.7,7.4,0,0.299535,0.00504187,0
0.7,7.5,0,0.299598,0.0051607,0
0.7,7.6,0,0.29966,0.00528008,0
0.7,7.7,0,0.299696,0.00536667,0
0.7,7.8,0,0.299748,0.00543373,0
0.7,7.9,0,0.299801,0.00550095,0
0.7,8,0,0.299839,0.00555732,0
0.7,8.1,0,0.299877,0.00558766,0
0.7,8.2,0,0.299919,0.00561209,0
0.7,8.3,0,0.299958,0.00563425,0
0.7,8.4,0,0.299982,0.0056409,0
0.7,8.5,0,0.300014,0.00563332,0
0.7,8.6,0,0.300046,0.00562464,0
0.7,8.7,0,0.300068,0.00561126,0
0.7,8.8,0,0.300086,0.00558406,0
0.7,8.9,0,0.300109,0.00555135,0
0.7,9,0,0.300129,0.00551962,0