/*--------------------------------*- C++ -*----------------------------------*\
| =========                 |                                                 |
| \\      /  F ield         | OpenFOAM: The Open Source CFD Toolbox           |
|  \\    /   O peration     | Version:  v1806                                 |
|   \\  /    A nd           | Web:      www.OpenFOAM.com                      |
|    \\/     M anipulation  |                                                 |
\*---------------------------------------------------------------------------*/
FoamFile
{
    version     2.0;
    format      ascii;
    class       volVectorField;
    location    "3";
    object      U;
}
// * * * * * * * * * * * * * * * * * * * * * * * * * * * * * * * * * * * * * //

dimensions      [0 1 -1 0 0 0 0];


internalField   nonuniform List<vector> 
4400
(
(1.75651 1.81616 0)
(1.97758 1.57986 0)
(2.01088 1.32626 0)
(1.98503 1.21833 0)
(2.00476 1.10809 0)
(1.97124 1.06539 0)
(2.10339 1.05121 0)
(1.93124 1.11178 0)
(2.13425 1.0841 0)
(1.95037 1.22304 0)
(2.07321 1.21445 0)
(1.91042 1.35575 0)
(2.03132 1.35036 0)
(1.90091 1.54997 0)
(1.96232 1.52892 0)
(1.84799 1.75704 0)
(1.88956 1.72887 0)
(1.8141 1.97839 0)
(1.83753 1.97198 0)
(1.75821 2.24098 0)
(2.14591 0.391341 0)
(2.05957 0.40085 0)
(2.02103 0.407719 0)
(2.10471 0.517089 0)
(2.17915 0.620353 0)
(2.1467 0.766792 0)
(2.32919 0.814169 0)
(2.05296 0.99021 0)
(2.33067 0.954412 0)
(2.11829 1.17731 0)
(2.20165 1.1489 0)
(2.07327 1.33656 0)
(2.18166 1.30815 0)
(2.08803 1.55277 0)
(2.11096 1.50998 0)
(2.03082 1.75562 0)
(2.05505 1.7167 0)
(2.02773 1.97978 0)
(2.04317 1.9723 0)
(1.99423 2.24866 0)
(1.71685 0.65736 0)
(1.93214 0.78513 0)
(2.12714 0.893265 0)
(2.22088 1.01728 0)
(2.26404 0.971558 0)
(2.17674 1.08503 0)
(2.38422 0.967458 0)
(2.05267 1.16413 0)
(2.38424 1.01254 0)
(2.21703 1.24351 0)
(2.24675 1.15167 0)
(2.19708 1.34617 0)
(2.29445 1.28651 0)
(2.25689 1.52767 0)
(2.23473 1.46973 0)
(2.19674 1.70403 0)
(2.21257 1.6626 0)
(2.24377 1.92193 0)
(2.2436 1.91299 0)
(2.22709 2.17882 0)
(2.41343 0.275409 0)
(2.39629 0.370431 0)
(2.3192 0.361444 0)
(2.30036 0.449911 0)
(2.31731 0.411829 0)
(2.2917 0.647454 0)
(2.49313 0.549142 0)
(2.19029 0.85391 0)
(2.53861 0.74847 0)
(2.37881 1.01884 0)
(2.35345 0.946786 0)
(2.3786 1.17123 0)
(2.43501 1.14239 0)
(2.42919 1.35025 0)
(2.36406 1.31638 0)
(2.36779 1.5264 0)
(2.37818 1.51308 0)
(2.45803 1.74573 0)
(2.43062 1.73645 0)
(2.45012 1.97459 0)
(2.12785 0.336218 0)
(2.16944 0.429342 0)
(2.29027 0.510393 0)
(2.37064 0.682294 0)
(2.45876 0.643356 0)
(2.42689 0.861235 0)
(2.56842 0.692331 0)
(2.37718 0.927492 0)
(2.57916 0.803852 0)
(2.48666 0.958431 0)
(2.44118 0.899885 0)
(2.52854 1.03973 0)
(2.5252 1.03448 0)
(2.54084 1.13087 0)
(2.47626 1.14035 0)
(2.5276 1.27573 0)
(2.53406 1.30231 0)
(2.62534 1.4566 0)
(2.57398 1.44957 0)
(2.64425 1.63561 0)
(2.59184 0.169039 0)
(2.61441 0.23201 0)
(2.58646 0.253063 0)
(2.52784 0.299793 0)
(2.53437 0.280105 0)
(2.48816 0.409941 0)
(2.54827 0.341712 0)
(2.48538 0.527724 0)
(2.59335 0.495445 0)
(2.52721 0.600927 0)
(2.54099 0.646717 0)
(2.62627 0.720586 0)
(2.57634 0.777614 0)
(2.60933 0.801016 0)
(2.59077 0.889476 0)
(2.65942 0.940634 0)
(2.65143 1.01021 0)
(2.71716 1.07028 0)
(2.67711 1.09309 0)
(2.79846 1.2151 0)
(2.39198 0.18124 0)
(2.38857 0.223417 0)
(2.44667 0.286296 0)
(2.5026 0.340443 0)
(2.59003 0.396814 0)
(2.58817 0.429757 0)
(2.65821 0.468262 0)
(2.65543 0.482013 0)
(2.64395 0.522697 0)
(2.6682 0.509842 0)
(2.67178 0.59838 0)
(2.68442 0.559335 0)
(2.6427 0.646751 0)
(2.69523 0.619525 0)
(2.70545 0.727463 0)
(2.72972 0.69509 0)
(2.71637 0.779288 0)
(2.76555 0.773401 0)
(2.7711 0.832478 0)
(2.89496 0.875368 0)
(2.68922 0.121777 0)
(2.71672 0.164383 0)
(2.69428 0.20532 0)
(2.66683 0.220336 0)
(2.63101 0.27331 0)
(2.62046 0.262829 0)
(2.61845 0.35498 0)
(2.6269 0.317688 0)
(2.62465 0.419395 0)
(2.67744 0.402221 0)
(2.67062 0.486842 0)
(2.67694 0.455952 0)
(2.70415 0.562861 0)
(2.7365 0.54871 0)
(2.74106 0.626652 0)
(2.74007 0.603042 0)
(2.76839 0.689672 0)
(2.80961 0.683372 0)
(2.83369 0.74507 0)
(2.91421 0.743387 0)
(2.57298 0.147373 0)
(2.56823 0.190994 0)
(2.59633 0.234334 0)
(2.64701 0.28033 0)
(2.67489 0.329756 0)
(2.72465 0.364207 0)
(2.72469 0.425782 0)
(2.74711 0.426836 0)
(2.74842 0.512642 0)
(2.76433 0.504155 0)
(2.74211 0.554311 0)
(2.76717 0.579744 0)
(2.79913 0.628434 0)
(2.77617 0.639298 0)
(2.78837 0.673273 0)
(2.80595 0.71208 0)
(2.8472 0.758187 0)
(2.85097 0.774622 0)
(2.86808 0.809648 0)
(2.9099 0.826057 0)
(2.79413 0.137602 0)
(2.80612 0.187354 0)
(2.79712 0.2293 0)
(2.77547 0.277865 0)
(2.75739 0.30604 0)
(2.75762 0.362591 0)
(2.73868 0.373651 0)
(2.76963 0.445881 0)
(2.76813 0.45553 0)
(2.76924 0.516179 0)
(2.79377 0.538558 0)
(2.81472 0.616917 0)
(2.81749 0.607763 0)
(2.81092 0.678658 0)
(2.85922 0.696055 0)
(2.87923 0.767991 0)
(2.88464 0.766966 0)
(2.88882 0.8195 0)
(2.91872 0.840837 0)
(2.9405 0.892171 0)
(2.75574 0.111492 0)
(2.75592 0.144911 0)
(2.7749 0.179894 0)
(2.79554 0.216749 0)
(2.8262 0.250009 0)
(2.83137 0.296244 0)
(2.85696 0.315449 0)
(2.85789 0.381411 0)
(2.86074 0.370106 0)
(2.87133 0.448686 0)
(2.88989 0.444453 0)
(2.876 0.502326 0)
(2.8798 0.496528 0)
(2.90494 0.57246 0)
(2.92303 0.5713 0)
(2.9193 0.612168 0)
(2.92202 0.612235 0)
(2.95847 0.67006 0)
(2.98132 0.67422 0)
(2.99427 0.717572 0)
(2.88097 0.0743375 0)
(2.88442 0.0990542 0)
(2.87678 0.12569 0)
(2.86817 0.145227 0)
(2.86121 0.170021 0)
(2.85465 0.181777 0)
(2.86653 0.209492 0)
(2.85537 0.215629 0)
(2.87773 0.239768 0)
(2.88261 0.261225 0)
(2.88797 0.264723 0)
(2.89417 0.282234 0)
(2.9225 0.308479 0)
(2.93359 0.315624 0)
(2.919 0.323258 0)
(2.94044 0.332407 0)
(2.9678 0.359469 0)
(2.98648 0.360382 0)
(2.99067 0.359598 0)
(3.02137 0.367028 0)
(2.85364 0.0486027 0)
(2.85615 0.0642099 0)
(2.86536 0.078499 0)
(2.87915 0.0932428 0)
(2.88664 0.110636 0)
(2.90148 0.121905 0)
(2.9015 0.144302 0)
(2.91033 0.142174 0)
(2.91978 0.180086 0)
(2.91217 0.157184 0)
(2.91931 0.196257 0)
(2.93522 0.183191 0)
(2.93594 0.208509 0)
(2.92948 0.174765 0)
(2.94537 0.210931 0)
(2.97309 0.193534 0)
(2.96761 0.206755 0)
(2.96223 0.17065 0)
(2.98682 0.190624 0)
(3.01601 0.16117 0)
(2.91803 0.0589803 0)
(2.91903 0.0785489 0)
(2.9174 0.0963188 0)
(2.91357 0.115421 0)
(2.91223 0.129374 0)
(2.91344 0.148428 0)
(2.90955 0.157835 0)
(2.92383 0.17947 0)
(2.91151 0.186956 0)
(2.92686 0.198516 0)
(2.93297 0.224647 0)
(2.93032 0.219512 0)
(2.92583 0.238912 0)
(2.94158 0.243762 0)
(2.95973 0.265986 0)
(2.94751 0.249763 0)
(2.94388 0.254585 0)
(2.96461 0.256075 0)
(2.98143 0.268736 0)
(2.97815 0.239034 0)
(2.92516 0.056469 0)
(2.92704 0.0761177 0)
(2.93098 0.0965367 0)
(2.93462 0.116664 0)
(2.94006 0.136595 0)
(2.93963 0.158608 0)
(2.94722 0.175061 0)
(2.94357 0.201572 0)
(2.94587 0.20566 0)
(2.9567 0.246091 0)
(2.94527 0.237812 0)
(2.95198 0.271394 0)
(2.96084 0.279503 0)
(2.96339 0.310084 0)
(2.9521 0.304112 0)
(2.95096 0.332157 0)
(2.9731 0.342408 0)
(2.97822 0.366752 0)
(2.96697 0.358762 0)
(2.96452 0.374931 0)
(2.97071 0.0436938 0)
(2.96977 0.0581067 0)
(2.96806 0.0728055 0)
(2.96762 0.0857763 0)
(2.96656 0.100001 0)
(2.96736 0.110431 0)
(2.96993 0.12567 0)
(2.96664 0.133555 0)
(2.97894 0.150623 0)
(2.96851 0.16095 0)
(2.9753 0.165387 0)
(2.98583 0.194991 0)
(2.98234 0.187265 0)
(2.97922 0.208058 0)
(2.98733 0.211969 0)
(2.99862 0.242054 0)
(2.99103 0.239453 0)
(2.98557 0.255692 0)
(2.99269 0.260525 0)
(3.00126 0.290983 0)
(2.97739 0.0180012 0)
(2.97907 0.0241335 0)
(2.98151 0.0292965 0)
(2.98424 0.0353086 0)
(2.98595 0.0408556 0)
(2.98926 0.0459355 0)
(2.98789 0.0524381 0)
(2.99352 0.0547556 0)
(2.99116 0.0650506 0)
(2.99024 0.0573481 0)
(3.00355 0.0788471 0)
(2.98979 0.0649797 0)
(2.99188 0.0743188 0)
(3.00619 0.076767 0)
(3.00903 0.0817553 0)
(2.9991 0.0695129 0)
(2.99984 0.075383 0)
(3.01567 0.0803686 0)
(3.01759 0.0842411 0)
(3.01619 0.0795843 0)
(2.98728 0.0142922 0)
(2.9873 0.0190807 0)
(2.98688 0.02369 0)
(2.98596 0.028228 0)
(2.98603 0.0317663 0)
(2.98521 0.0365669 0)
(2.98557 0.0383083 0)
(2.9869 0.0436544 0)
(2.98293 0.0424855 0)
(2.99296 0.0488296 0)
(2.98434 0.0495854 0)
(2.98411 0.0420996 0)
(2.99895 0.0603873 0)
(2.99166 0.0478543 0)
(2.97917 0.0475087 0)
(2.99133 0.0421516 0)
(3.01133 0.0548241 0)
(3.0008 0.0386007 0)
(2.99106 0.0336323 0)
(2.99748 0.0223223 0)
(2.99289 0.0146059 0)
(2.99308 0.0195831 0)
(2.99337 0.0247506 0)
(2.9937 0.029356 0)
(2.99403 0.0342423 0)
(2.99391 0.0386322 0)
(2.99501 0.0429262 0)
(2.99308 0.0475804 0)
(2.99619 0.0504686 0)
(2.99404 0.0579614 0)
(2.99005 0.0537352 0)
(3.00133 0.0683745 0)
(2.99476 0.0639331 0)
(2.9848 0.0650096 0)
(2.99509 0.0723816 0)
(3.00459 0.0819353 0)
(2.99085 0.0746563 0)
(2.98064 0.0712256 0)
(2.99246 0.0772238 0)
(2.99689 0.0804432 0)
(3.00245 0.00428218 0)
(3.00246 0.00551362 0)
(3.00242 0.00663838 0)
(3.00242 0.00787308 0)
(3.00228 0.00912769 0)
(3.00245 0.010198 0)
(3.00204 0.0118299 0)
(3.00255 0.0124901 0)
(3.00243 0.0148777 0)
(3.00093 0.0141049 0)
(3.00496 0.0181574 0)
(3.00113 0.0181154 0)
(2.99853 0.0164754 0)
(3.00612 0.0230063 0)
(3.00685 0.0225332 0)
(2.99757 0.0213828 0)
(2.99636 0.0213889 0)
(3.00608 0.0297339 0)
(3.00539 0.0298311 0)
(3.00071 0.030876 0)
(1.1151 -1.19544 0)
(1.15066 -1.06127 0)
(1.06193 -0.89814 0)
(1.04119 -0.751668 0)
(1.00291 -0.605697 0)
(0.978026 -0.466197 0)
(0.957165 -0.330188 0)
(0.941753 -0.197281 0)
(0.931417 -0.066402 0)
(0.926016 0.0630705 0)
(0.925435 0.191978 0)
(0.929662 0.321378 0)
(0.93876 0.451955 0)
(0.952506 0.584691 0)
(0.972904 0.71954 0)
(0.993094 0.859963 0)
(1.03415 0.999876 0)
(1.04587 1.15481 0)
(1.1358 1.294 0)
(1.10019 1.46647 0)
(1.82628 -0.231107 0)
(1.72097 -0.203287 0)
(1.63841 -0.177902 0)
(1.56556 -0.144284 0)
(1.50782 -0.108661 0)
(1.46163 -0.0700053 0)
(1.42607 -0.0292827 0)
(1.40001 0.0130398 0)
(1.38265 0.0565056 0)
(1.37346 0.100752 0)
(1.37209 0.145328 0)
(1.37842 0.189792 0)
(1.39255 0.233751 0)
(1.41476 0.276801 0)
(1.44541 0.318588 0)
(1.48576 0.358632 0)
(1.53499 0.3965 0)
(1.59902 0.432457 0)
(1.66891 0.459082 0)
(1.76425 0.510367 0)
(1.72981 -0.304733 0)
(1.75085 -0.271225 0)
(1.76613 -0.233527 0)
(1.77813 -0.19348 0)
(1.78695 -0.150878 0)
(1.79372 -0.106497 0)
(1.79909 -0.0607067 0)
(1.80355 -0.0138617 0)
(1.80748 0.0337609 0)
(1.81113 0.0818817 0)
(1.81466 0.130239 0)
(1.81814 0.178614 0)
(1.82159 0.226779 0)
(1.82493 0.274494 0)
(1.82804 0.321486 0)
(1.83064 0.367451 0)
(1.83264 0.412121 0)
(1.83292 0.454505 0)
(1.83204 0.49686 0)
(1.83183 0.529385 0)
(2.25135 -0.0851323 0)
(2.22585 -0.0666667 0)
(2.20234 -0.048796 0)
(2.18159 -0.0310648 0)
(2.16399 -0.0134366 0)
(2.1495 0.00421487 0)
(2.13803 0.0219127 0)
(2.12948 0.0396401 0)
(2.12375 0.0573712 0)
(2.12077 0.0750686 0)
(2.1205 0.0926864 0)
(2.12289 0.110169 0)
(2.12794 0.127459 0)
(2.13564 0.144506 0)
(2.14601 0.161264 0)
(2.15908 0.177698 0)
(2.17488 0.193774 0)
(2.19362 0.209607 0)
(2.2155 0.224887 0)
(2.24277 0.241192 0)
(2.15902 -0.132228 0)
(2.17054 -0.113529 0)
(2.18131 -0.0939602 0)
(2.19088 -0.0736575 0)
(2.19916 -0.0527148 0)
(2.20622 -0.0312469 0)
(2.21218 -0.00935782 0)
(2.21717 0.0128675 0)
(2.22129 0.0353384 0)
(2.22461 0.0579575 0)
(2.22718 0.080644 0)
(2.22904 0.103317 0)
(2.23019 0.125895 0)
(2.23062 0.148294 0)
(2.23029 0.170428 0)
(2.22916 0.192209 0)
(2.22714 0.213547 0)
(2.22412 0.234338 0)
(2.21983 0.254585 0)
(2.21245 0.2738 0)
(2.51399 -0.0424558 0)
(2.50376 -0.0314322 0)
(2.4941 -0.0207531 0)
(2.48541 -0.0103653 0)
(2.47789 -0.000221928 0)
(2.47159 0.00972653 0)
(2.46652 0.019516 0)
(2.46267 0.0291691 0)
(2.46 0.0387102 0)
(2.45849 0.0481613 0)
(2.45812 0.0575387 0)
(2.45887 0.0668579 0)
(2.46073 0.0761344 0)
(2.4637 0.0853847 0)
(2.46777 0.0946267 0)
(2.47294 0.10388 0)
(2.47926 0.113169 0)
(2.48683 0.122546 0)
(2.49622 0.132046 0)
(2.50968 0.141462 0)
(2.40947 -0.0617204 0)
(2.41547 -0.0519614 0)
(2.42132 -0.0418703 0)
(2.42677 -0.031481 0)
(2.43169 -0.0208333 0)
(2.43604 -0.00996998 0)
(2.43981 0.0010679 0)
(2.44301 0.0122416 0)
(2.44568 0.0235126 0)
(2.44782 0.0348439 0)
(2.44946 0.0461998 0)
(2.45062 0.0575449 0)
(2.45128 0.0688444 0)
(2.45147 0.0800631 0)
(2.45116 0.0911662 0)
(2.45035 0.10212 0)
(2.44898 0.112892 0)
(2.4469 0.123431 0)
(2.44356 0.133636 0)
(2.43728 0.143667 0)
(2.64878 -0.0322028 0)
(2.64422 -0.0243184 0)
(2.63984 -0.0166376 0)
(2.6358 -0.00914365 0)
(2.63223 -0.0018155 0)
(2.62918 0.00537034 0)
(2.62667 0.0124357 0)
(2.62472 0.0194002 0)
(2.62333 0.0262832 0)
(2.62248 0.033103 0)
(2.62218 0.0398767 0)
(2.62242 0.046621 0)
(2.6232 0.0533523 0)
(2.62451 0.0600871 0)
(2.62636 0.0668422 0)
(2.62877 0.0736334 0)
(2.63179 0.0804758 0)
(2.63559 0.0874035 0)
(2.64068 0.0944917 0)
(2.64831 0.101572 0)
(2.58219 -0.0482418 0)
(2.58483 -0.0400932 0)
(2.58748 -0.0317782 0)
(2.59004 -0.0233102 0)
(2.59243 -0.0147064 0)
(2.59459 -0.00598651 0)
(2.59651 0.00282946 0)
(2.59818 0.0117217 0)
(2.59959 0.0206704 0)
(2.60075 0.0296562 0)
(2.60166 0.0386602 0)
(2.60232 0.0476636 0)
(2.60273 0.0566478 0)
(2.6029 0.0655943 0)
(2.60281 0.0744848 0)
(2.60246 0.0833019 0)
(2.60179 0.092027 0)
(2.60063 0.100625 0)
(2.5986 0.10904 0)
(2.59493 0.117409 0)
(2.77115 -0.0457388 0)
(2.76943 -0.0369752 0)
(2.76774 -0.0283197 0)
(2.76616 -0.0197655 0)
(2.76474 -0.0113033 0)
(2.76352 -0.00292212 0)
(2.76252 0.0053898 0)
(2.76175 0.0136441 0)
(2.76122 0.0218525 0)
(2.76093 0.0300262 0)
(2.76089 0.0381764 0)
(2.76108 0.0463138 0)
(2.76153 0.0544494 0)
(2.76222 0.0625936 0)
(2.76316 0.0707567 0)
(2.76437 0.0789475 0)
(2.7659 0.0871758 0)
(2.76787 0.0954737 0)
(2.77054 0.103902 0)
(2.77444 0.112301 0)
(2.75898 -0.0365569 0)
(2.75982 -0.0302045 0)
(2.76073 -0.0237781 0)
(2.76165 -0.017283 0)
(2.76256 -0.0107265 0)
(2.76342 -0.00411711 0)
(2.76422 0.00253578 0)
(2.76495 0.00922252 0)
(2.7656 0.0159333 0)
(2.76617 0.0226582 0)
(2.76666 0.0293873 0)
(2.76705 0.0361109 0)
(2.76737 0.0428189 0)
(2.76759 0.0495013 0)
(2.76771 0.0561477 0)
(2.76772 0.0627491 0)
(2.76758 0.0692968 0)
(2.76718 0.0757653 0)
(2.76636 0.0820945 0)
(2.76481 0.0883851 0)
(2.87168 -0.0249325 0)
(2.87119 -0.0202157 0)
(2.87068 -0.015544 0)
(2.87019 -0.0109163 0)
(2.86974 -0.00633014 0)
(2.86935 -0.00178196 0)
(2.86903 0.00273228 0)
(2.86879 0.00721699 0)
(2.86862 0.0116768 0)
(2.86855 0.0161164 0)
(2.86856 0.0205405 0)
(2.86865 0.0249539 0)
(2.86884 0.0293613 0)
(2.8691 0.0337675 0)
(2.86946 0.0381777 0)
(2.86992 0.0425966 0)
(2.8705 0.0470289 0)
(2.87126 0.0514882 0)
(2.87231 0.0560088 0)
(2.87381 0.0605236 0)
(2.85429 -0.0136617 0)
(2.85441 -0.0109724 0)
(2.85459 -0.00825531 0)
(2.85481 -0.00551191 0)
(2.85504 -0.00274464 0)
(2.85528 4.33948e-05 0)
(2.85552 0.00284861 0)
(2.85574 0.00566713 0)
(2.85596 0.00849491 0)
(2.85617 0.0113278 0)
(2.85635 0.0141617 0)
(2.85652 0.0169925 0)
(2.85667 0.0198159 0)
(2.8568 0.0226283 0)
(2.8569 0.0254258 0)
(2.85697 0.0282047 0)
(2.85699 0.0309604 0)
(2.85692 0.0336824 0)
(2.8567 0.0363581 0)
(2.85623 0.0390405 0)
(2.91243 -0.0206663 0)
(2.91238 -0.0170179 0)
(2.91231 -0.013382 0)
(2.91225 -0.0097586 0)
(2.91218 -0.0061475 0)
(2.91213 -0.00254775 0)
(2.9121 0.00104185 0)
(2.91209 0.0046228 0)
(2.91211 0.00819674 0)
(2.91215 0.0117655 0)
(2.91223 0.0153308 0)
(2.91233 0.0188946 0)
(2.91246 0.0224589 0)
(2.91264 0.0260259 0)
(2.91284 0.0295972 0)
(2.9131 0.0331745 0)
(2.91341 0.0367606 0)
(2.91381 0.0403674 0)
(2.91434 0.04401 0)
(2.91503 0.047625 0)
(2.9249 -0.0199054 0)
(2.92486 -0.0164823 0)
(2.92485 -0.0130527 0)
(2.92486 -0.00961704 0)
(2.92488 -0.00617613 0)
(2.92492 -0.0027311 0)
(2.92497 0.000716709 0)
(2.92503 0.00416574 0)
(2.92509 0.00761431 0)
(2.92516 0.0110606 0)
(2.92523 0.0145028 0)
(2.9253 0.0179388 0)
(2.92538 0.0213666 0)
(2.92545 0.0247837 0)
(2.92553 0.0281877 0)
(2.92561 0.0315765 0)
(2.92567 0.034948 0)
(2.92571 0.0382932 0)
(2.92571 0.0415956 0)
(2.92564 0.0448957 0)
(2.97049 -0.0154626 0)
(2.97052 -0.0127893 0)
(2.97054 -0.0101183 0)
(2.97055 -0.00745014 0)
(2.97056 -0.0047848 0)
(2.97056 -0.00212229 0)
(2.97056 0.000537615 0)
(2.97056 0.0031952 0)
(2.97057 0.00585086 0)
(2.97057 0.00850503 0)
(2.97057 0.0111582 0)
(2.97057 0.0138107 0)
(2.97057 0.0164631 0)
(2.97057 0.0191157 0)
(2.97056 0.0217691 0)
(2.97055 0.024424 0)
(2.97055 0.0270803 0)
(2.97054 0.0297394 0)
(2.97055 0.0324062 0)
(2.97058 0.0350625 0)
(2.97597 -0.00521271 0)
(2.97592 -0.00418308 0)
(2.97588 -0.00315262 0)
(2.97586 -0.00212128 0)
(2.97586 -0.00108905 0)
(2.97587 -5.60429e-05 0)
(2.97589 0.000977535 0)
(2.97592 0.00201146 0)
(2.97596 0.00304548 0)
(2.97601 0.00407937 0)
(2.97607 0.00511289 0)
(2.97615 0.00614585 0)
(2.97623 0.00717816 0)
(2.97632 0.00820988 0)
(2.97642 0.00924117 0)
(2.97652 0.0102719 0)
(2.97663 0.0113016 0)
(2.97674 0.0123295 0)
(2.97686 0.0133574 0)
(2.97698 0.0143997 0)
(2.98698 -0.00507348 0)
(2.987 -0.00418886 0)
(2.98703 -0.00330343 0)
(2.98704 -0.00241777 0)
(2.98706 -0.00153235 0)
(2.98706 -0.000647602 0)
(2.98707 0.000236104 0)
(2.98708 0.00111842 0)
(2.98708 0.00199904 0)
(2.98708 0.00287769 0)
(2.98708 0.0037541 0)
(2.98708 0.00462805 0)
(2.98708 0.00549941 0)
(2.98708 0.00636806 0)
(2.98708 0.00723381 0)
(2.98709 0.0080964 0)
(2.9871 0.00895623 0)
(2.98711 0.00981522 0)
(2.98713 0.0106744 0)
(2.98715 0.0115245 0)
(2.99297 -0.00483075 0)
(2.99295 -0.00396009 0)
(2.99293 -0.00308978 0)
(2.99291 -0.00221974 0)
(2.99289 -0.00134988 0)
(2.99288 -0.000480175 0)
(2.99287 0.000389381 0)
(2.99286 0.00125877 0)
(2.99285 0.00212794 0)
(2.99284 0.00299683 0)
(2.99284 0.00386534 0)
(2.99284 0.00473339 0)
(2.99284 0.0056008 0)
(2.99284 0.00646737 0)
(2.99284 0.00733286 0)
(2.99285 0.00819728 0)
(2.99286 0.0090606 0)
(2.99287 0.00992111 0)
(2.99288 0.010776 0)
(2.99289 0.0116335 0)
(3.00213 -0.00151948 0)
(3.00215 -0.00125791 0)
(3.00216 -0.000995973 0)
(3.00218 -0.000733738 0)
(3.00219 -0.000471288 0)
(3.00221 -0.000208684 0)
(3.00222 5.40164e-05 0)
(3.00223 0.000316762 0)
(3.00225 0.000579506 0)
(3.00226 0.0008422 0)
(3.00227 0.00110479 0)
(3.00228 0.00136721 0)
(3.0023 0.0016294 0)
(3.00231 0.00189125 0)
(3.00232 0.00215271 0)
(3.00233 0.00241361 0)
(3.00235 0.00267362 0)
(3.00236 0.00293281 0)
(3.00238 0.00319264 0)
(3.00239 0.003452 0)
(1.76904 -0.859034 0)
(1.75814 -0.870974 0)
(1.74972 -0.88563 0)
(1.74546 -0.904886 0)
(1.74569 -0.928689 0)
(1.75081 -0.957455 0)
(1.76077 -0.991328 0)
(1.77516 -1.03037 0)
(1.79311 -1.07447 0)
(1.81331 -1.12336 0)
(1.83392 -1.17635 0)
(1.85243 -1.23216 0)
(1.86549 -1.28867 0)
(1.86868 -1.34307 0)
(1.85646 -1.39223 0)
(1.82224 -1.43319 0)
(1.75892 -1.46267 0)
(1.65983 -1.47406 0)
(1.51987 -1.44941 0)
(1.33678 -1.35749 0)
(2.04881 -0.511876 0)
(2.02944 -0.486885 0)
(2.0073 -0.461334 0)
(1.98173 -0.43509 0)
(1.95326 -0.408765 0)
(1.92255 -0.382747 0)
(1.89069 -0.357596 0)
(1.85921 -0.333901 0)
(1.83012 -0.312304 0)
(1.80585 -0.293472 0)
(1.78917 -0.278056 0)
(1.78284 -0.266538 0)
(1.78904 -0.259082 0)
(1.80863 -0.255629 0)
(1.84024 -0.25578 0)
(1.87925 -0.258571 0)
(1.91702 -0.262196 0)
(1.94127 -0.263897 0)
(1.9383 -0.260684 0)
(1.89907 -0.250929 0)
(2.11812 -0.728868 0)
(2.12002 -0.721117 0)
(2.1213 -0.714406 0)
(2.12075 -0.706149 0)
(2.11773 -0.696609 0)
(2.11137 -0.685264 0)
(2.10082 -0.671817 0)
(2.08526 -0.655964 0)
(2.06397 -0.637465 0)
(2.03646 -0.61615 0)
(2.00256 -0.592014 0)
(1.9626 -0.565379 0)
(1.91753 -0.53681 0)
(1.8692 -0.507045 0)
(1.82048 -0.476907 0)
(1.77532 -0.44716 0)
(1.73839 -0.418326 0)
(1.71422 -0.390459 0)
(1.70571 -0.362984 0)
(1.71242 -0.334781 0)
(2.19826 -0.360832 0)
(2.18903 -0.345619 0)
(2.18123 -0.331556 0)
(2.17543 -0.318274 0)
(2.1721 -0.305717 0)
(2.17174 -0.293912 0)
(2.17476 -0.2828 0)
(2.18143 -0.272271 0)
(2.19182 -0.262145 0)
(2.20572 -0.252186 0)
(2.22261 -0.242108 0)
(2.24157 -0.231571 0)
(2.26132 -0.220222 0)
(2.28017 -0.207721 0)
(2.29615 -0.193788 0)
(2.30718 -0.178265 0)
(2.31138 -0.161184 0)
(2.30746 -0.142808 0)
(2.29514 -0.123625 0)
(2.27558 -0.104233 0)
(2.37969 -0.475089 0)
(2.37342 -0.460067 0)
(2.36553 -0.445301 0)
(2.35563 -0.429638 0)
(2.34357 -0.413225 0)
(2.32928 -0.396102 0)
(2.31277 -0.378369 0)
(2.29414 -0.360151 0)
(2.27369 -0.341603 0)
(2.25186 -0.3229 0)
(2.22928 -0.304224 0)
(2.20682 -0.285755 0)
(2.18548 -0.267644 0)
(2.16645 -0.25 0)
(2.15093 -0.232862 0)
(2.13998 -0.216184 0)
(2.13436 -0.199823 0)
(2.13426 -0.183545 0)
(2.1392 -0.167049 0)
(2.148 -0.150025 0)
(2.4367 -0.233209 0)
(2.43835 -0.225335 0)
(2.4416 -0.217378 0)
(2.44637 -0.209717 0)
(2.45266 -0.202158 0)
(2.46041 -0.194611 0)
(2.46949 -0.18699 0)
(2.47967 -0.179202 0)
(2.49063 -0.171146 0)
(2.50196 -0.162724 0)
(2.51315 -0.153846 0)
(2.52361 -0.144439 0)
(2.53273 -0.134461 0)
(2.53989 -0.123906 0)
(2.54452 -0.112816 0)
(2.54622 -0.101282 0)
(2.54478 -0.0894444 0)
(2.54029 -0.0774743 0)
(2.53315 -0.065554 0)
(2.52409 -0.0538444 0)
(2.53762 -0.246391 0)
(2.52994 -0.237289 0)
(2.52124 -0.227802 0)
(2.51159 -0.218062 0)
(2.50106 -0.208219 0)
(2.48975 -0.19832 0)
(2.47783 -0.188419 0)
(2.4655 -0.178578 0)
(2.45306 -0.168852 0)
(2.44083 -0.15929 0)
(2.4292 -0.149929 0)
(2.41858 -0.14079 0)
(2.4094 -0.131873 0)
(2.40204 -0.123155 0)
(2.39683 -0.114588 0)
(2.39397 -0.106103 0)
(2.39347 -0.0976101 0)
(2.3952 -0.0890118 0)
(2.39878 -0.0802121 0)
(2.40373 -0.0711319 0)
(2.58853 -0.183262 0)
(2.59259 -0.177085 0)
(2.59736 -0.170923 0)
(2.60282 -0.164651 0)
(2.60889 -0.158258 0)
(2.61545 -0.151723 0)
(2.62235 -0.145009 0)
(2.62941 -0.138085 0)
(2.6364 -0.130926 0)
(2.64311 -0.123513 0)
(2.64926 -0.115839 0)
(2.65463 -0.10791 0)
(2.65896 -0.0997442 0)
(2.66207 -0.0913772 0)
(2.66382 -0.0828589 0)
(2.66413 -0.0742513 0)
(2.66306 -0.0656242 0)
(2.66072 -0.0570488 0)
(2.65736 -0.0485895 0)
(2.65327 -0.0402969 0)
(2.6589 -0.206343 0)
(2.65333 -0.197635 0)
(2.64723 -0.189086 0)
(2.64071 -0.180595 0)
(2.63386 -0.172159 0)
(2.62678 -0.163811 0)
(2.61959 -0.155573 0)
(2.61243 -0.147458 0)
(2.60546 -0.139477 0)
(2.59885 -0.131633 0)
(2.59279 -0.123921 0)
(2.58744 -0.11633 0)
(2.58296 -0.108839 0)
(2.57948 -0.101419 0)
(2.57707 -0.0940348 0)
(2.57575 -0.0866451 0)
(2.57549 -0.0792069 0)
(2.57619 -0.0716788 0)
(2.57767 -0.0640247 0)
(2.57974 -0.0562176 0)
(2.73373 -0.218664 0)
(2.73634 -0.211015 0)
(2.73937 -0.203227 0)
(2.74274 -0.195382 0)
(2.74637 -0.187421 0)
(2.75018 -0.17932 0)
(2.75408 -0.171073 0)
(2.75797 -0.162674 0)
(2.76174 -0.154123 0)
(2.76527 -0.145423 0)
(2.76846 -0.136583 0)
(2.77121 -0.127619 0)
(2.77343 -0.118551 0)
(2.77506 -0.109404 0)
(2.77606 -0.10021 0)
(2.77643 -0.0910002 0)
(2.7762 -0.0818074 0)
(2.77546 -0.0726622 0)
(2.77429 -0.0635906 0)
(2.77281 -0.0546121 0)
(2.80308 -0.162555 0)
(2.79986 -0.155771 0)
(2.79644 -0.149005 0)
(2.79284 -0.142264 0)
(2.78911 -0.135601 0)
(2.78531 -0.129022 0)
(2.7815 -0.12253 0)
(2.77774 -0.116126 0)
(2.77412 -0.10981 0)
(2.77071 -0.103578 0)
(2.76759 -0.0974219 0)
(2.76481 -0.0913296 0)
(2.76244 -0.0852867 0)
(2.76053 -0.0792759 0)
(2.75909 -0.0732781 0)
(2.75812 -0.0672733 0)
(2.75761 -0.0612423 0)
(2.7575 -0.0551676 0)
(2.75775 -0.0490347 0)
(2.75826 -0.0428331 0)
(2.85135 -0.115765 0)
(2.85269 -0.111897 0)
(2.85416 -0.107967 0)
(2.85577 -0.103944 0)
(2.85749 -0.0998267 0)
(2.85929 -0.0956161 0)
(2.86113 -0.0913104 0)
(2.86297 -0.086909 0)
(2.86476 -0.0824147 0)
(2.86646 -0.0778325 0)
(2.86801 -0.0731702 0)
(2.86939 -0.0684378 0)
(2.87055 -0.0636473 0)
(2.87147 -0.0588127 0)
(2.87213 -0.0539489 0)
(2.87255 -0.0490712 0)
(2.87272 -0.0441943 0)
(2.87269 -0.0393319 0)
(2.87247 -0.0344953 0)
(2.87212 -0.0296935 0)
(2.87678 -0.0684927 0)
(2.87533 -0.0653829 0)
(2.87379 -0.0623476 0)
(2.87216 -0.0593631 0)
(2.87046 -0.0564177 0)
(2.86872 -0.0535166 0)
(2.86697 -0.0506637 0)
(2.86523 -0.0478598 0)
(2.86354 -0.0451034 0)
(2.86193 -0.0423918 0)
(2.86042 -0.0397209 0)
(2.85904 -0.0370851 0)
(2.85783 -0.0344772 0)
(2.85678 -0.0318894 0)
(2.85593 -0.029313 0)
(2.85526 -0.0267396 0)
(2.85477 -0.0241606 0)
(2.85445 -0.0215688 0)
(2.85428 -0.0189578 0)
(2.85423 -0.0163231 0)
(2.90378 -0.0904943 0)
(2.90411 -0.0873751 0)
(2.90454 -0.0841732 0)
(2.90506 -0.0809469 0)
(2.90565 -0.0776857 0)
(2.90629 -0.0743789 0)
(2.90698 -0.0710246 0)
(2.90768 -0.0676231 0)
(2.90839 -0.0641752 0)
(2.90908 -0.0606827 0)
(2.90973 -0.0571485 0)
(2.91034 -0.0535768 0)
(2.91088 -0.0499724 0)
(2.91134 -0.0463411 0)
(2.91172 -0.0426891 0)
(2.91202 -0.0390226 0)
(2.91223 -0.0353477 0)
(2.91237 -0.0316702 0)
(2.91244 -0.0279949 0)
(2.91245 -0.0243259 0)
(2.93456 -0.0892628 0)
(2.93399 -0.0856942 0)
(2.93338 -0.0821447 0)
(2.93274 -0.0785845 0)
(2.93209 -0.0750324 0)
(2.93142 -0.0714948 0)
(2.93074 -0.0679721 0)
(2.93006 -0.0644656 0)
(2.92939 -0.0609761 0)
(2.92874 -0.0575037 0)
(2.92812 -0.0540476 0)
(2.92754 -0.0506065 0)
(2.92701 -0.0471784 0)
(2.92654 -0.0437608 0)
(2.92612 -0.040351 0)
(2.92578 -0.0369461 0)
(2.92549 -0.0335431 0)
(2.92527 -0.0301396 0)
(2.9251 -0.0267332 0)
(2.92498 -0.0233222 0)
(2.96625 -0.067319 0)
(2.96649 -0.0648665 0)
(2.96673 -0.0623983 0)
(2.96699 -0.0599169 0)
(2.96726 -0.0574172 0)
(2.96754 -0.0548998 0)
(2.96783 -0.0523652 0)
(2.96812 -0.0498126 0)
(2.96842 -0.0472421 0)
(2.9687 -0.0446543 0)
(2.96898 -0.0420499 0)
(2.96924 -0.0394302 0)
(2.96948 -0.0367966 0)
(2.9697 -0.0341509 0)
(2.96989 -0.0314952 0)
(2.97005 -0.0288316 0)
(2.97019 -0.0261621 0)
(2.9703 -0.0234888 0)
(2.97038 -0.0208134 0)
(2.97044 -0.0181376 0)
(2.98075 -0.0266181 0)
(2.98045 -0.0254731 0)
(2.98015 -0.0243401 0)
(2.97985 -0.0232177 0)
(2.97954 -0.022103 0)
(2.97922 -0.0209957 0)
(2.97891 -0.019897 0)
(2.97859 -0.0188071 0)
(2.97828 -0.017726 0)
(2.97798 -0.0166533 0)
(2.9777 -0.0155887 0)
(2.97742 -0.0145316 0)
(2.97717 -0.0134814 0)
(2.97694 -0.0124372 0)
(2.97673 -0.0113979 0)
(2.97654 -0.0103626 0)
(2.97638 -0.00933028 0)
(2.97624 -0.00829991 0)
(2.97613 -0.00727065 0)
(2.97604 -0.00624177 0)
(2.9855 -0.0214243 0)
(2.98555 -0.0207016 0)
(2.98561 -0.0199668 0)
(2.98568 -0.019222 0)
(2.98575 -0.0184675 0)
(2.98584 -0.0177019 0)
(2.98593 -0.0169247 0)
(2.98602 -0.016136 0)
(2.98612 -0.015336 0)
(2.98622 -0.014525 0)
(2.98631 -0.0137033 0)
(2.98641 -0.0128715 0)
(2.9865 -0.0120305 0)
(2.98659 -0.0111809 0)
(2.98667 -0.0103236 0)
(2.98674 -0.00945974 0)
(2.9868 -0.00859016 0)
(2.98686 -0.00771585 0)
(2.98691 -0.00683774 0)
(2.98695 -0.00595668 0)
(2.99392 -0.0225945 0)
(2.99388 -0.0216869 0)
(2.99384 -0.0207838 0)
(2.99379 -0.0198796 0)
(2.99374 -0.0189762 0)
(2.99369 -0.0180749 0)
(2.99364 -0.0171757 0)
(2.99358 -0.0162788 0)
(2.99353 -0.0153843 0)
(2.99347 -0.0144925 0)
(2.99341 -0.0136034 0)
(2.99336 -0.012717 0)
(2.9933 -0.0118333 0)
(2.99325 -0.0109519 0)
(2.9932 -0.0100729 0)
(2.99315 -0.00919579 0)
(2.99311 -0.00832043 0)
(2.99307 -0.00744651 0)
(2.99303 -0.00657376 0)
(2.993 -0.00570191 0)
(3.00186 -0.00651127 0)
(3.00186 -0.00627588 0)
(3.00186 -0.0060389 0)
(3.00186 -0.00580138 0)
(3.00186 -0.00556204 0)
(3.00187 -0.00532081 0)
(3.00188 -0.00507785 0)
(3.0019 -0.0048332 0)
(3.00191 -0.00458685 0)
(3.00193 -0.0043388 0)
(3.00195 -0.0040891 0)
(3.00197 -0.00383779 0)
(3.00199 -0.00358493 0)
(3.00201 -0.0033306 0)
(3.00203 -0.00307491 0)
(3.00205 -0.00281798 0)
(3.00206 -0.00255994 0)
(3.00208 -0.00230094 0)
(3.0021 -0.0020411 0)
(3.00212 -0.00178058 0)
(0.255158 -1.05888 0)
(0.291339 -0.89855 0)
(0.206634 -0.767227 0)
(0.184459 -0.645097 0)
(0.153418 -0.541746 0)
(0.131777 -0.450477 0)
(0.113364 -0.370676 0)
(0.0977501 -0.300406 0)
(0.0840316 -0.238585 0)
(0.0716216 -0.184454 0)
(0.0601135 -0.137563 0)
(0.0492328 -0.0976371 0)
(0.0388162 -0.06451 0)
(0.0288053 -0.0380606 0)
(0.0192542 -0.0181489 0)
(0.0103552 -0.00452413 0)
(0.00250311 0.00315492 0)
(-0.00362756 0.00559761 0)
(-0.00682076 0.0040651 0)
(-0.00506083 0.00124273 0)
(0.682966 -0.916291 0)
(0.611826 -0.798553 0)
(0.530339 -0.739587 0)
(0.471078 -0.654146 0)
(0.418861 -0.579042 0)
(0.374432 -0.503685 0)
(0.334901 -0.432467 0)
(0.298991 -0.365298 0)
(0.265496 -0.302905 0)
(0.233544 -0.24564 0)
(0.202506 -0.193804 0)
(0.171963 -0.147678 0)
(0.141707 -0.107539 0)
(0.111763 -0.0736427 0)
(0.082426 -0.0461902 0)
(0.0543348 -0.0252715 0)
(0.028614 -0.0107937 0)
(0.00708808 -0.00239639 0)
(-0.00720472 0.000768529 0)
(-0.00927207 0.000594436 0)
(0.838731 -0.720992 0)
(0.781272 -0.662114 0)
(0.725139 -0.603647 0)
(0.672042 -0.54571 0)
(0.621498 -0.487408 0)
(0.573337 -0.430826 0)
(0.527018 -0.375862 0)
(0.481993 -0.323068 0)
(0.437626 -0.272808 0)
(0.393297 -0.225496 0)
(0.348475 -0.181543 0)
(0.302781 -0.141378 0)
(0.256055 -0.105454 0)
(0.208442 -0.0742333 0)
(0.160489 -0.0481638 0)
(0.113282 -0.0276193 0)
(0.0686642 -0.0128138 0)
(0.0295947 -0.00365561 0)
(0.000814857 0.000431903 0)
(-0.00994913 0.000657717 0)
(0.972605 -0.561707 0)
(0.918468 -0.523732 0)
(0.86357 -0.483954 0)
(0.811158 -0.441812 0)
(0.760364 -0.398834 0)
(0.710658 -0.355704 0)
(0.661522 -0.313225 0)
(0.612393 -0.2719 0)
(0.562689 -0.232139 0)
(0.511803 -0.19427 0)
(0.459144 -0.158599 0)
(0.404218 -0.125453 0)
(0.346739 -0.0952125 0)
(0.286775 -0.0683303 0)
(0.224932 -0.0453144 0)
(0.16259 -0.0266781 0)
(0.102228 -0.0128413 0)
(0.0479448 -0.00398252 0)
(0.00639024 0.000126583 0)
(-0.0115964 0.000526386 0)
(1.07728 -0.480361 0)
(1.0299 -0.440528 0)
(0.98169 -0.400708 0)
(0.931797 -0.361054 0)
(0.880786 -0.322112 0)
(0.82889 -0.284408 0)
(0.776166 -0.248317 0)
(0.72251 -0.214127 0)
(0.667633 -0.182011 0)
(0.611072 -0.152042 0)
(0.55222 -0.124239 0)
(0.490411 -0.0986102 0)
(0.425067 -0.0752287 0)
(0.355931 -0.0542825 0)
(0.283368 -0.0361052 0)
(0.20875 -0.0211513 0)
(0.134939 -0.00990268 0)
(0.0669909 -0.00269654 0)
(0.0133063 0.00051725 0)
(-0.0123551 0.000583301 0)
(1.19343 -0.419272 0)
(1.14698 -0.38095 0)
(1.09715 -0.341242 0)
(1.04455 -0.301796 0)
(0.989385 -0.263319 0)
(0.931981 -0.226526 0)
(0.872676 -0.192055 0)
(0.81177 -0.160395 0)
(0.749425 -0.131847 0)
(0.685578 -0.106507 0)
(0.619872 -0.0842711 0)
(0.551654 -0.0648899 0)
(0.480094 -0.0480597 0)
(0.404458 -0.0335369 0)
(0.324555 -0.0212416 0)
(0.241331 -0.0113095 0)
(0.157639 -0.00404926 0)
(0.0792276 0.000232221 0)
(0.0161927 0.00149359 0)
(-0.0145657 0.000696586 0)
(1.31484 -0.410608 0)
(1.27129 -0.367393 0)
(1.22238 -0.323573 0)
(1.16787 -0.279875 0)