x,y,z,U_0,U_1,U_2
0,0,0,0.3,-0.000650989,0
0,0.1,0,0.3,-0.000390593,0
0,0.2,0,0.3,-0.000130198,0
0,0.3,0,0.3,0,0
0,0.4,0,0.3,0,0
0,0.5,0,0.3,-2.99593e-19,0
0,0.6,0,0.3,0,0
0,0.7,0,0.3,0,0
0,0.8,0,0.3,0,0
0,0.9,0,0.3,0,0
0,1,0,0.3,0,0
0,1.1,0,0.3,0,0
0,1.2,0,0.3,0,0
0,1.3,0,0.3,0,0
0,1.4,0,0.3,0,0
0,1.5,0,0.3,0,0
0,1.6,0,0.3,0,0
0,1.7,0,0.3,0,0
0,1.8,0,0.3,0,0
0,1.9,0,0.3,0,0
0,2,0,0.3,0,0
0,2.1,0,0.3,0,0
0,2.2,0,0.3,0,0
0,2.3,0,0.3,0,0
0,2.4,0,0.3,0,0
0,2.5,0,0.3,0,0
0,2.6,0,0.3,0,0
0,2.7,0,0.3,0,0
0,2.8,0,0.3,0,0
0,2.9,0,0.3,0,0
0,3,0,0.3,0,0
0,3.1,0,0.3,0,0
0,3.2,0,0.3,0,0
0,3.3,0,0.3,0,0
0,3.4,0,0.3,0,0
0,3.5,0,0.3,0,0
0,3.6,0,0.3,0,0
0,3.7,0,0.3,0,0
0,3.8,0,0.3,0,0
0,3.9,0,0.3,0,0
0,4,0,0.3,0,0
0,4.1,0,0.3,0,0
0,4.2,0,0.3,0,0
0,4.3,0,0.3,0,0
0,4.4,0,0.3,0,0
0,4.5,0,0.3,0,0
0,4.6,0,0.3,0,0
0,4.7,0,0.3,0,0
0,4.8,0,0.3,0,0
0,4.9,0,0.3,0,0
0,5,0,0.3,-1.00016e-19,0
0,5.1,0,0.3,0,0
0,5.2,0,0.3,0,0
0,5.3,0,0.3,0,0
0,5.4,0,0.3,-6.69575e-20,0
0,5.5,0,0.3,0,0
0,5.6,0,0.3,0,0
0,5.7,0,0.3,0,0
0,5.8,0,0.3,-3.38614e-20,0
0,5.9,0,0.3,0,0
0,6,0,0.3,0,0
0,6.1,0,0.3,0,0
0,6.2,0,0.3,-4.31391e-22,0
0,6.3,0,0.3,0,0
0,6.4,0,0.3,1.61867e-20,0
0,6.5,0,0.3,0,0
0,6.6,0,0.3,0,0
0,6.7,0,0.3,0,0
0,6.8,0,0.3,0,0
0,6.9,0,0.3,0,0
0,7,0,0.3,0,0
0,7.1,0,0.3,0,0
0,7.2,0,0.3,0,0
0,7.3,0,0.3,0,0
0,7.4,0,0.3,0,0
0,7.5,0,0.3,0,0
0,7.6,0,0.3,0,0
0,7.7,0,0.3,0,0
0,7.8,0,0.3,0,0
0,7.9,0,0.3,0,0
0,8,0,0.3,0,0
0,8.1,0,0.3,0,0
0,8.2,0,0.3,0,0
0,8.3,0,0.3,0,0
0,8.4,0,0.3,0,0
0,8.5,0,0.3,0,0
0,8.6,0,0.3,0,0
0,8.7,0,0.3,0,0
0,8.8,0,0.3,0,0
0,8.9,0,0.3,0,0
0,9,0,0.3,0,0
0,9.1,0,0.3,0,0
0,9.2,0,0.3,0,0
0,9.3,0,0.3,0,0
0,9.4,0,0.3,0,0
0,9.5,0,0.3,0,0
0,9.6,0,0.3,0,0
0,9.7,0,0.3,0,0
0,9.8,0,0.3,0,0
0,9.9,0,0.3,0,0
0,10,0,0.3,0,0
0,10.1,0,0.3,0,0
0,10.2,0,0.3,0,0
0,10.3,0,0.3,0,0
0,10.4,0,0.3,0,0
0,10.5,0,0.3,0,0
0,10.6,0,0.3,0,0
0,10.7,0,0.3,0,0
0,10.8,0,0.3,0,0
0,10.9,0,0.3,0,0
0,11,0,0.3,0,0
0,11.1,0,0.3,0,0
0,11.2,0,0.3,0,0
0,11.3,0,0.3,0,0
0,11.4,0,0.3,0,0
0,11.5,0,0.3,0,0
0,11.6,0,0.3,0,0
0,11.7,0,0.3,0,0
0,11.8,0,0.3,0,0
0,11.9,0,0.3,0,0
0,12,0,0.3,0,0
0,12.1,0,0.3,0,0
0,12.2,0,0.3,0,0
0,12.3,0,0.3,0,0
0,12.4,0,0.3,0,0
0,12.5,0,0.3,0.00018212,0
0,12.6,0,0.3,0.000396378,0
0,12.7,0,0.3,0.000610637,0
0.1,0,0,0.299999,-0.0011098,0
0.1,0.1,0,0.299999,-0.000843058,0
0.1,0.2,0,0.299999,-0.000597668,0
0.1,0.3,0,0.299999,-0.000595568,0
0.1,0.4,0,0.299999,-0.000594796,0
0.1,0.5,0,0.299996,-0.000599664,0
0.1,0.6,0,0.299999,-0.000590209,0
0.1,0.7,0,0.299998,-0.00059068,0
0.1,0.8,0,0.299998,-0.000584556,0
0.1,0.9,0,0.299998,-0.000583404,0
0.1,1,0,0.299992,-0.000588274,0
0.1,1.1,0,0.299998,-0.00057448,0
0.1,1.2,0,0.299997,-0.000575002,0
0.1,1.3,0,0.299997,-0.000565134,0
0.1,1.4,0,0.299997,-0.000563516,0
0.1,1.5,0,0.299989,-0.000569147,0
0.1,1.6,0,0.299997,-0.000550596,0
0.1,1.7,0,0.299996,-0.000551191,0
0.1,1.8,0,0.299997,-0.000537871,0
0.1,1.9,0,0.299998,-0.000535796,0
0.1,2,0,0.299985,-0.000541829,0
0.1,2.1,0,0.299999,-0.0005192,0
0.1,2.2,0,0.299997,-0.000519773,0
0.1,2.3,0,0.299999,-0.000503237,0
0.1,2.4,0,0.300001,-0.000500827,0
0.1,2.5,0,0.29998,-0.000505791,0
0.1,2.6,0,0.300004,-0.000480653,0
0.1,2.7,0,0.300002,-0.000481026,0
0.1,2.8,0,0.300006,-0.00046115,0
0.1,2.9,0,0.300009,-0.000458569,0
0.1,3,0,0.299976,-0.000460692,0
0.1,3.1,0,0.300014,-0.000434402,0
0.1,3.2,0,0.30001,-0.000434439,0
0.1,3.3,0,0.300015,-0.000410662,0
0.1,3.4,0,0.30002,-0.000407984,0
0.1,3.5,0,0.29997,-0.000406672,0
0.1,3.6,0,0.300025,-0.000379211,0
0.1,3.7,0,0.300019,-0.000378939,0
0.1,3.8,0,0.300023,-0.000350976,0
0.1,3.9,0,0.300029,-0.00034814,0
0.1,4,0,0.299965,-0.000344339,0
0.1,4.1,0,0.300031,-0.000315019,0
0.1,4.2,0,0.300024,-0.000314546,0
0.1,4.3,0,0.300024,-0.000283256,0
0.1,4.4,0,0.30003,-0.000280252,0
0.1,4.5,0,0.299962,-0.000274474,0
0.1,4.6,0,0.300028,-0.000244342,0
0.1,4.7,0,0.300021,-0.000243613,0
0.1,4.8,0,0.300018,-0.000210628,0
0.1,4.9,0,0.300024,-0.000207692,0
0.1,5,0,0.299961,-0.000200193,0
0.1,5.1,0,0.30002,-0.000173822,0
0.1,5.2,0,0.299961,-0.000166486,0
0.1,5.3,0,0.300017,-0.000143007,0
0.1,5.4,0,0.299961,-0.000134022,0
0.1,5.5,0,0.300015,-0.000112025,0
0.1,5.6,0,0.299961,-0.000101066,0
0.1,5.7,0,0.300013,-8.09996e-05,0
0.1,5.8,0,0.299961,-6.77769e-05,0
0.1,5.9,0,0.300012,-4.99182e-05,0
0.1,6,0,0.299961,-3.43166e-05,0
0.1,6.1,0,0.300012,-1.87859e-05,0
0.1,6.2,0,0.299961,-8.63472e-07,0
0.1,6.3,0,0.300013,1.23741e-05,0
0.1,6.4,0,0.299961,3.23994e-05,0
0.1,6.5,0,0.300016,4.35502e-05,0
0.1,6.6,0,0.299961,6.53139e-05,0
0.1,6.7,0,0.300018,7.47667e-05,0
0.1,6.8,0,0.299961,9.77323e-05,0
0.1,6.9,0,0.300021,0.000105844,0
0.1,7,0,0.299961,0.000132672,0
0.1,7.1,0,0.300024,0.000142359,0
0.1,7.2,0,0.300024,0.000142359,0
0.1,7.3,0,0.299977,0.000175932,0
0.1,7.4,0,0.300028,0.000183734,0
0.1,7.5,0,0.300028,0.000183734,0
0.1,7.6,0,0.299994,0.000219732,0
0.1,7.7,0,0.300029,0.000224049,0
0.1,7.8,0,0.300021,0.000228264,0
0.1,7.9,0,0.30001,0.000260728,0
0.1,8,0,0.300028,0.000262619,0
0.1,8.1,0,0.300005,0.00027418,0
0.1,8.2,0,0.300021,0.00029855,0
0.1,8.3,0,0.300024,0.000298803,0
0.1,8.4,0,0.299991,0.000317341,0
0.1,8.5,0,0.300019,0.000332267,0
0.1,8.6,0,0.300019,0.000332267,0
0.1,8.7,0,0.29998,0.000357504,0
0.1,8.8,0,0.300012,0.000362976,0
0.1,8.9,0,0.300012,0.000362976,0
0.1,9,0,0.299978,0.000392202,0
0.1,9.1,0,0.300007,0.000391104,0
0.1,9.2,0,0.300007,0.000391104,0
0.1,9.3,0,0.299986,0.000418704,0
0.1,9.4,0,0.300003,0.000416891,0
0.1,9.5,0,0.300003,0.000416891,0
0.1,9.6,0,0.299991,0.00044206,0
0.1,9.7,0,0.3,0.000440508,0
0.1,9.8,0,0.299996,0.000445805,0
0.1,9.9,0,0.299995,0.000462793,0
0.1,10,0,0.299999,0.000462027,0
0.1,10.1,0,0.299992,0.000472185,0
0.1,10.2,0,0.299998,0.000481431,0
0.1,10.3,0,0.299998,0.000481431,0
0.1,10.4,0,0.29999,0.000495041,0
0.1,10.5,0,0.299998,0.000498662,0
0.1,10.6,0,0.299998,0.000498662,0
0.1,10.7,0,0.299989,0.000514247,0
0.1,10.8,0,0.299998,0.000513667,0
0.1,10.9,0,0.299998,0.000513667,0
0.1,11,0,0.299992,0.000527466,0
0.1,11.1,0,0.299998,0.000526422,0
0.1,11.2,0,0.299998,0.000526422,0
0.1,11.3,0,0.299995,0.000537391,0
0.1,11.4,0,0.299999,0.000536938,0
0.1,11.5,0,0.299998,0.000537403,0
0.1,11.6,0,0.299997,0.000545452,0
0.1,11.7,0,0.299999,0.000545267,0
0.1,11.8,0,0.299998,0.000547214,0
0.1,11.9,0,0.299999,0.000551532,0
0.1,12,0,0.299999,0.000551462,0
0.1,12.1,0,0.299998,0.00055407,0
0.1,12.2,0,0.3,0.00055556,0
0.1,12.3,0,0.3,0.00055556,0
0.1,12.4,0,0.299999,0.000558237,0
0.1,12.5,0,0.3,0.000604027,0
0.1,12.6,0,0.3,0.000818286,0
0.1,12.7,0,0.299999,0.00103489,0
0.2,0,0,0.299998,-0.00156862,0
0.2,0.1,0,0.299999,-0.00129679,0
0.2,0.2,0,0.299997,-0.00120019,0
0.2,0.3,0,0.299997,-0.00119809,0
0.2,0.4,0,0.299998,-0.00119056,0
0.2,0.5,0,0.299992,-0.00119933,0
0.2,0.6,0,0.299997,-0.00118231,0
0.2,0.7,0,0.299993,-0.0011856,0
0.2,0.8,0,0.299992,-0.00117948,0
0.2,0.9,0,0.299995,-0.00116778,0
0.2,1,0,0.299985,-0.00117655,0
0.2,1.1,0,0.299994,-0.00115172,0
0.2,1.2,0,0.299988,-0.0011547,0
0.2,1.3,0,0.299987,-0.00114484,0
0.2,1.4,0,0.299993,-0.00112816,0
0.2,1.5,0,0.299977,-0.00113829,0
0.2,1.6,0,0.299993,-0.0011049,0
0.2,1.7,0,0.299983,-0.00110774,0
0.2,1.8,0,0.299983,-0.00109442,0
0.2,1.9,0,0.299993,-0.0010728,0
0.2,2,0,0.29997,-0.00108366,0
0.2,2.1,0,0.299995,-0.00104293,0
0.2,2.2,0,0.29998,-0.0010447,0
0.2,2.3,0,0.299982,-0.00102817,0
0.2,2.4,0,0.299999,-0.00100265,0
0.2,2.5,0,0.299961,-0.00101158,0
0.2,2.6,0,0.300004,-0.000966334,0
0.2,2.7,0,0.29998,-0.000965405,0
0.2,2.8,0,0.299984,-0.000945529,0
0.2,2.9,0,0.300011,-0.000917562,0
0.2,3,0,0.299951,-0.000921384,0
0.2,3.1,0,0.300021,-0.000874062,0
0.2,3.2,0,0.299983,-0.000869205,0
0.2,3.3,0,0.299988,-0.000845428,0
0.2,3.4,0,0.30003,-0.000815705,0
0.2,3.5,0,0.29994,-0.000813344,0
0.2,3.6,0,0.300039,-0.000763914,0
0.2,3.7,0,0.299987,-0.000755437,0
0.2,3.8,0,0.29999,-0.000727473,0
0.2,3.9,0,0.300045,-0.000695521,0
0.2,4,0,0.299931,-0.000688678,0
0.2,4.1,0,0.300048,-0.000635901,0
0.2,4.2,0,0.299988,-0.000624841,0
0.2,4.3,0,0.299987,-0.00059355,0
0.2,4.4,0,0.300047,-0.000559348,0
0.2,4.5,0,0.299925,-0.000548948,0
0.2,4.6,0,0.300042,-0.000494711,0
0.2,4.7,0,0.299983,-0.000480665,0
0.2,4.8,0,0.299979,-0.00044768,0
0.2,4.9,0,0.300035,-0.000413883,0
0.2,5,0,0.299922,-0.000400385,0
0.2,5.1,0,0.300041,-0.000347644,0
0.2,5.2,0,0.299922,-0.000332972,0
0.2,5.3,0,0.300035,-0.000286013,0
0.2,5.4,0,0.299922,-0.000268044,0
0.2,5.5,0,0.300029,-0.000224051,0
0.2,5.6,0,0.299922,-0.000202133,0
0.2,5.7,0,0.300026,-0.000161999,0
0.2,5.8,0,0.299921,-0.000135554,0
0.2,5.9,0,0.300024,-9.98364e-05,0
0.2,6,0,0.299921,-6.86332e-05,0
0.2,6.1,0,0.300024,-3.75717e-05,0
0.2,6.2,0,0.299921,-1.72694e-06,0
0.2,6.3,0,0.300027,2.47482e-05,0
0.2,6.4,0,0.299921,6.47987e-05,0
0.2,6.5,0,0.300031,8.71004e-05,0
0.2,6.6,0,0.299921,0.000130628,0
0.2,6.7,0,0.300036,0.000149533,0
0.2,6.8,0,0.299922,0.000195465,0
0.2,6.9,0,0.300042,0.000211688,0
0.2,7,0,0.299922,0.000265344,0
0.2,7.1,0,0.300022,0.000280639,0
0.2,7.2,0,0.300007,0.000305212,0
0.2,7.3,0,0.299939,0.000349442,0
0.2,7.4,0,0.300044,0.000365584,0
0.2,7.5,0,0.299997,0.0003962,0
0.2,7.6,0,0.299957,0.000435579,0
0.2,7.7,0,0.300059,0.000448098,0
0.2,7.8,0,0.299985,0.000484352,0
0.2,7.9,0,0.299974,0.000516815,0
0.2,8,0,0.300056,0.000525237,0
0.2,8.1,0,0.299972,0.00056818,0
0.2,8.2,0,0.299988,0.00059255,0
0.2,8.3,0,0.300047,0.000598412,0
0.2,8.4,0,0.299961,0.000646771,0
0.2,8.5,0,0.299997,0.00066222,0
0.2,8.6,0,0.300025,0.000672421,0
0.2,8.7,0,0.299952,0.00071974,0
0.2,8.8,0,0.300002,0.000725523,0
0.2,8.9,0,0.300006,0.000740611,0
0.2,9,0,0.299953,0.000784497,0
0.2,9.1,0,0.300003,0.000782616,0
0.2,9.2,0,0.299993,0.000803163,0
0.2,9.3,0,0.299964,0.000838246,0
0.2,9.4,0,0.300004,0.00083406,0
0.2,9.5,0,0.299984,0.000860154,0
0.2,9.6,0,0.299972,0.000886036,0
0.2,9.7,0,0.3,0.000881017,0
0.2,9.8,0,0.299979,0.000911472,0
0.2,9.9,0,0.299978,0.00092846,0
0.2,10,0,0.299997,0.000924053,0
0.2,10.1,0,0.299977,0.000956919,0
0.2,10.2,0,0.299983,0.000966078,0
0.2,10.3,0,0.299994,0.000964956,0
0.2,10.4,0,0.299977,0.000996363,0
0.2,10.5,0,0.299987,0.000999284,0
0.2,10.6,0,0.299992,0.00100311,0
0.2,10.7,0,0.299978,0.00102983,0
0.2,10.8,0,0.299991,0.00102829,0
0.2,10.9,0,0.299991,0.00103544,0
0.2,11,0,0.299982,0.00105513,0
0.2,11.1,0,0.299994,0.00105317,0
0.2,11.2,0,0.299992,0.00106203,0
0.2,11.3,0,0.299987,0.00107508,0
0.2,11.4,0,0.299997,0.0010739,0
0.2,11.5,0,0.299992,0.00108317,0
0.2,11.6,0,0.299991,0.00109122,0
0.2,11.7,0,0.299997,0.00109053,0
0.2,11.8,0,0.299993,0.00109921,0
0.2,11.9,0,0.299994,0.00110353,0
0.2,12,0,0.299998,0.00110292,0
0.2,12.1,0,0.299995,0.00111049,0
0.2,12.2,0,0.299997,0.00111189,0
0.2,12.3,0,0.299999,0.00111177,0
0.2,12.4,0,0.299997,0.0011173,0
0.2,12.5,0,0.299999,0.00111617,0
0.2,12.6,0,0.3,0.00124118,0
0.2,12.7,0,0.299998,0.00145915,0
0.3,0,0,0.299997,-0.00202744,0
0.3,0.1,0,0.299997,-0.00180063,0
0.3,0.2,0,0.299995,-0.00180271,0
0.3,0.3,0,0.299995,-0.00180061,0
0.3,0.4,0,0.299993,-0.00179255,0
0.3,0.5,0,0.299988,-0.00179899,0
0.3,0.6,0,0.299992,-0.00178339,0
0.3,0.7,0,0.299987,-0.00178052,0
0.3,0.8,0,0.299986,-0.0017744,0
0.3,0.9,0,0.299987,-0.00175951,0
0.3,1,0,0.299977,-0.00176482,0
0.3,1.1,0,0.299985,-0.00174156,0
0.3,1.2,0,0.299978,-0.0017344,0
0.3,1.3,0,0.299978,-0.00172454,0
0.3,1.4,0,0.299979,-0.00170216,0
0.3,1.5,0,0.299966,-0.00170744,0
0.3,1.6,0,0.299978,-0.00167583,0
0.3,1.7,0,0.29997,-0.00166428,0
0.3,1.8,0,0.29997,-0.00165096,0
0.3,1.9,0,0.299974,-0.00162085,0
0.3,2,0,0.299954,-0.00162549,0
0.3,2.1,0,0.299975,-0.00158647,0
0.3,2.2,0,0.299963,-0.00156963,0
0.3,2.3,0,0.299965,-0.0015531,0
0.3,2.4,0,0.299973,-0.00151567,0
0.3,2.5,0,0.299941,-0.00151737,0
0.3,2.6,0,0.299977,-0.00147324,0
0.3,2.7,0,0.299958,-0.00144978,0
0.3,2.8,0,0.299962,-0.00142991,0
0.3,2.9,0,0.299977,-0.001386,0
0.3,3,0,0.299927,-0.00138208,0
0.3,3.1,0,0.299984,-0.00133486,0
0.3,3.2,0,0.299956,-0.00130397,0
0.3,3.3,0,0.299961,-0.00128019,0
0.3,3.4,0,0.299986,-0.00123041,0
0.3,3.5,0,0.29991,-0.00122002,0
0.3,3.6,0,0.299992,-0.00116977,0
0.3,3.7,0,0.299954,-0.00113193,0
0.3,3.8,0,0.299958,-0.00110397,0
0.3,3.9,0,0.299992,-0.00104837,0
0.3,4,0,0.299896,-0.00103302,0
0.3,4.1,0,0.299994,-0.000978823,0
0.3,4.2,0,0.299951,-0.000935135,0
0.3,4.3,0,0.299951,-0.000903845,0
0.3,4.4,0,0.299989,-0.000842835,0
0.3,4.5,0,0.299887,-0.000823423,0
0.3,4.6,0,0.299985,-0.000766998,0
0.3,4.7,0,0.299944,-0.000717717,0
0.3,4.8,0,0.299941,-0.000684732,0
0.3,4.9,0,0.299978,-0.000622884,0
0.3,5,0,0.299883,-0.000600578,0
0.3,5.1,0,0.299972,-0.000535741,0
0.3,5.2,0,0.299883,-0.000499457,0
0.3,5.3,0,0.299967,-0.000439891,0
0.3,5.4,0,0.299883,-0.000402067,0
0.3,5.5,0,0.299963,-0.000344354,0
0.3,5.6,0,0.299882,-0.000303199,0
0.3,5.7,0,0.29996,-0.000248132,0
0.3,5.8,0,0.299882,-0.000203331,0
0.3,5.9,0,0.299959,-0.000151448,0
0.3,6,0,0.299882,-0.00010295,0
0.3,6.1,0,0.299959,-5.45639e-05,0
0.3,6.2,0,0.299882,-2.59042e-06,0
0.3,6.3,0,0.299961,4.22131e-05,0
0.3,6.4,0,0.299882,9.71981e-05,0
0.3,6.5,0,0.299964,0.00013861,0
0.3,6.6,0,0.299882,0.000195942,0
0.3,6.7,0,0.299968,0.000234435,0
0.3,6.8,0,0.299882,0.000293197,0
0.3,6.9,0,0.299973,0.000331569,0
0.3,7,0,0.299883,0.000398016,0
0.3,7.1,0,0.299978,0.00041577,0
0.3,7.2,0,0.299969,0.000478722,0
0.3,7.3,0,0.2999,0.000522953,0
0.3,7.4,0,0.299985,0.000549236,0
0.3,7.5,0,0.29996,0.000612047,0
0.3,7.6,0,0.299919,0.000651425,0
0.3,7.7,0,0.299989,0.000682082,0
0.3,7.8,0,0.299949,0.000740439,0
0.3,7.9,0,0.299938,0.000772903,0
0.3,8,0,0.29999,0.00080799,0
0.3,8.1,0,0.299939,0.00086218,0
0.3,8.2,0,0.299954,0.00088655,0
0.3,8.3,0,0.299989,0.000925567,0
0.3,8.4,0,0.29993,0.000976202,0
0.3,8.5,0,0.299967,0.000991651,0
0.3,8.6,0,0.299986,0.00103398,0
0.3,8.7,0,0.299925,0.00108198,0
0.3,8.8,0,0.299974,0.00108776,0
0.3,8.9,0,0.299982,0.00113291,0
0.3,9,0,0.299928,0.00117679,0
0.3,9.1,0,0.299974,0.0011794,0
0.3,9.2,0,0.299971,0.0012227,0
0.3,9.3,0,0.299942,0.00125779,0
0.3,9.4,0,0.299973,0.00126429,0
0.3,9.5,0,0.299965,0.00130413,0
0.3,9.6,0,0.299952,0.00133001,0
0.3,9.7,0,0.299972,0.00134043,0
0.3,9.8,0,0.299962,0.00137714,0
0.3,9.9,0,0.299961,0.00139413,0
0.3,10,0,0.299974,0.0014081,0
0.3,10.1,0,0.299962,0.00144165,0
0.3,10.2,0,0.299968,0.00145081,0
0.3,10.3,0,0.299976,0.00146758,0
0.3,10.4,0,0.299964,0.00149769,0
0.3,10.5,0,0.299974,0.00150061,0
0.3,10.6,0,0.299979,0.00151912,0
0.3,10.7,0,0.299967,0.00154541,0
0.3,10.8,0,0.29998,0.00154387,0
0.3,10.9,0,0.299982,0.0015631,0
0.3,11,0,0.299973,0.00158279,0
0.3,11.1,0,0.299983,0.0015835,0
0.3,11.2,0,0.299984,0.00159972,0
0.3,11.3,0,0.299979,0.00161277,0
0.3,11.4,0,0.299987,0.00161577,0
0.3,11.5,0,0.299986,0.00162894,0
0.3,11.6,0,0.299984,0.00163699,0
0.3,11.7,0,0.29999,0.00164098,0
0.3,11.8,0,0.299988,0.0016512,0
0.3,11.9,0,0.299989,0.00165552,0
0.3,12,0,0.299993,0.00165938,0
0.3,12.1,0,0.299992,0.00166691,0
0.3,12.2,0,0.299994,0.00166831,0
0.3,12.3,0,0.299996,0.0016711,0
0.3,12.4,0,0.299995,0.00167637,0
0.3,12.5,0,0.299997,0.00167524,0
0.3,12.6,0,0.299999,0.00167627,0
0.3,12.7,0,0.299997,0.00188341,0
0.4,0,0,0.299996,-0.00248625,0
0.4,0.1,0,0.299995,-0.0024095,0
0.4,0.2,0,0.299993,-0.00240777,0
0.4,0.3,0,0.299992,-0.00240508,0
0.4,0.4,0,0.299989,-0.00239994,0
0.4,0.5,0,0.299985,-0.00239866,0
0.4,0.6,0,0.299983,-0.00238776,0
0.4,0.7,0,0.29998,-0.00237922,0
0.4,0.8,0,0.299978,-0.00237126,0
0.4,0.9,0,0.299975,-0.0023593,0
0.4,1,0,0.29997,-0.0023531,0
0.4,1.1,0,0.29997,-0.00233506,0
0.4,1.2,0,0.299967,-0.00231962,0
0.4,1.3,0,0.299965,-0.00230649,0
0.4,1.4,0,0.299961,-0.00228749,0
0.4,1.5,0,0.299954,-0.00227659,0
0.4,1.6,0,0.299956,-0.00225093,0
0.4,1.7,0,0.299953,-0.00222825,0
0.4,1.8,0,0.299952,-0.00220992,0
0.4,1.9,0,0.299948,-0.00218343,0
0.4,2,0,0.299939,-0.00216732,0
0.4,2.1,0,0.299944,-0.00213403,0
0.4,2.2,0,0.29994,-0.00210362,0
0.4,2.3,0,0.299939,-0.00208001,0
0.4,2.4,0,0.299935,-0.00204556,0
0.4,2.5,0,0.299922,-0.00202316,0
0.4,2.6,0,0.299931,-0.00198276,0
0.4,2.7,0,0.299927,-0.00194422,0
0.4,2.8,0,0.299927,-0.00191514,0
0.4,2.9,0,0.299922,-0.0018725,0
0.4,3,0,0.299902,-0.00184277,0
0.4,3.1,0,0.299918,-0.00179592,0
0.4,3.2,0,0.299913,-0.00174925,0
0.4,3.3,0,0.299914,-0.00171444,0
0.4,3.4,0,0.299909,-0.00166387,0
0.4,3.5,0,0.299881,-0.00162669,0
0.4,3.6,0,0.299905,-0.00157373,0
0.4,3.7,0,0.2999,-0.00151942,0
0.4,3.8,0,0.2999,-0.00147895,0
0.4,3.9,0,0.299896,-0.00142106,0
0.4,4,0,0.299862,-0.00137736,0
0.4,4.1,0,0.299892,-0.00131844,0
0.4,4.2,0,0.299889,-0.00125716,0
0.4,4.3,0,0.299887,-0.00121183,0
0.4,4.4,0,0.299885,-0.00114735,0
0.4,4.5,0,0.29985,-0.0010979,0
0.4,4.6,0,0.299881,-0.00103418,0
0.4,4.7,0,0.29988,-0.000966822,0
0.4,4.8,0,0.299877,-0.000918784,0
0.4,4.9,0,0.299877,-0.000852437,0
0.4,5,0,0.299845,-0.00080077,0
0.4,5.1,0,0.299874,-0.000728598,0
0.4,5.2,0,0.299844,-0.000665943,0
0.4,5.3,0,0.299872,-0.000597392,0
0.4,5.4,0,0.299843,-0.000536089,0
0.4,5.5,0,0.29987,-0.000467418,0
0.4,5.6,0,0.299843,-0.000404266,0
0.4,5.7,0,0.299869,-0.000335976,0
0.4,5.8,0,0.299843,-0.000271108,0
0.4,5.9,0,0.299868,-0.000203623,0
0.4,6,0,0.299843,-0.000137266,0
0.4,6.1,0,0.299868,-7.09581e-05,0
0.4,6.2,0,0.299843,-3.45389e-06,0
0.4,6.3,0,0.299869,6.13749e-05,0
0.4,6.4,0,0.299843,0.000129597,0
0.4,6.5,0,0.29987,0.000192773,0
0.4,6.6,0,0.299843,0.000261256,0
0.4,6.7,0,0.299872,0.000322714,0
0.4,6.8,0,0.299843,0.000390929,0
0.4,6.9,0,0.299873,0.00045613,0
0.4,7,0,0.299844,0.000530688,0
0.4,7.1,0,0.299876,0.000579594,0
0.4,7.2,0,0.299877,0.000644076,0
0.4,7.3,0,0.299862,0.000696463,0
0.4,7.4,0,0.299881,0.000754859,0
0.4,7.5,0,0.299882,0.000821706,0
0.4,7.6,0,0.299882,0.000867272,0
0.4,7.7,0,0.299886,0.000929967,0
0.4,7.8,0,0.299889,0.000993505,0
0.4,7.9,0,0.29989,0.0010356,0
0.4,8,0,0.299893,0.00109546,0
0.4,8.1,0,0.299897,0.00115532,0
0.4,8.2,0,0.299897,0.00119425,0
0.4,8.3,0,0.299901,0.00125019,0
0.4,8.4,0,0.2999,0.00130563,0
0.4,8.5,0,0.299905,0.00134159,0
0.4,8.6,0,0.299909,0.00139338,0
0.4,8.7,0,0.299897,0.00144421,0
0.4,8.8,0,0.299912,0.001477,0
0.4,8.9,0,0.299917,0.00152446,0
0.4,9,0,0.299904,0.00156909,0
0.4,9.1,0,0.29992,0.00160013,0
0.4,9.2,0,0.299924,0.00164315,0
0.4,9.3,0,0.29992,0.00167733,0
0.4,9.4,0,0.299928,0.00171092,0
0.4,9.5,0,0.299932,0.0017495,0
0.4,9.6,0,0.299932,0.00177531,0
0.4,9.7,0,0.299935,0.00180956,0
0.4,9.8,0,0.299939,0.00184381,0
0.4,9.9,0,0.299939,0.00186637,0
0.4,10,0,0.299943,0.00189647,0
0.4,10.1,0,0.299946,0.00192658,0
0.4,10.2,0,0.299947,0.00194601,0
0.4,10.3,0,0.29995,0.00197221,0
0.4,10.4,0,0.29995,0.00199901,0
0.4,10.5,0,0.299954,0.00201484,0
0.4,10.6,0,0.299957,0.00203736,0
0.4,10.7,0,0.299955,0.002061,0
0.4,10.8,0,0.299961,0.00207345,0
0.4,10.9,0,0.299964,0.00209253,0
0.4,11,0,0.299963,0.00211045,0
0.4,11.1,0,0.299968,0.00212243,0
0.4,11.2,0,0.299971,0.00213826,0
0.4,11.3,0,0.299971,0.00215045,0
0.4,11.4,0,0.299974,0.00216228,0
0.4,11.5,0,0.299977,0.00217504,0
0.4,11.6,0,0.299978,0.00218364,0
0.4,11.7,0,0.29998,0.00219347,0
0.4,11.8,0,0.299983,0.00220331,0
0.4,11.9,0,0.299984,0.00220934,0
0.4,12,0,0.299986,0.00221633,0
0.4,12.1,0,0.299989,0.00222332,0
0.4,12.2,0,0.29999,0.00222685,0
0.4,12.3,0,0.299992,0.00223103,0
0.4,12.4,0,0.299994,0.00223544,0
0.4,12.5,0,0.299995,0.00223629,0
0.4,12.6,0,0.299996,0.00223768,0
0.4,12.7,0,0.299996,0.00230766,0
0.5,0,0,0.299993,-0.00301988,0
0.5,0.1,0,0.299993,-0.00301933,0
0.5,0.2,0,0.299991,-0.0030176,0
0.5,0.3,0,0.299987,-0.00301341,0
0.5,0.4,0,0.299984,-0.00300827,0
0.5,0.5,0,0.299977,-0.00300048,0
0.5,0.6,0,0.299975,-0.00299309,0
0.5,0.7,0,0.299972,-0.00298455,0
0.5,0.8,0,0.299967,-0.00297201,0
0.5,0.9,0,0.299963,-0.00296004,0
0.5,1,0,0.299956,-0.00294301,0
0.5,1.1,0,0.299955,-0.00292953,0
0.5,1.2,0,0.299952,-0.00291409,0
0.5,1.3,0,0.299947,-0.00289283,0
0.5,1.4,0,0.299943,-0.00287383,0
0.5,1.5,0,0.299933,-0.00284671,0
0.5,1.6,0,0.299934,-0.00282707,0
0.5,1.7,0,0.299931,-0.00280439,0
0.5,1.8,0,0.299925,-0.00277357,0
0.5,1.9,0,0.299922,-0.00274709,0
0.5,2,0,0.29991,-0.00270949,0
0.5,2.1,0,0.299912,-0.0026827,0
0.5,2.2,0,0.299908,-0.00265229,0
0.5,2.3,0,0.299901,-0.00261104,0
0.5,2.4,0,0.299897,-0.00257659,0
0.5,2.5,0,0.299886,-0.00252895,0
0.5,2.6,0,0.299885,-0.00249342,0
0.5,2.7,0,0.299881,-0.00245488,0
0.5,2.8,0,0.299872,-0.00240277,0
0.5,2.9,0,0.299867,-0.00236013,0
0.5,3,0,0.299859,-0.00230353,0
0.5,3.1,0,0.299852,-0.00225808,0
0.5,3.2,0,0.299848,-0.00221142,0
0.5,3.3,0,0.299837,-0.00214896,0
0.5,3.4,0,0.299832,-0.00209839,0
0.5,3.5,0,0.29983,-0.00203367,0
0.5,3.6,0,0.299817,-0.0019787,0
0.5,3.7,0,0.299813,-0.00192439,0
0.5,3.8,0,0.299804,-0.00185261,0
0.5,3.9,0,0.2998,-0.00179473,0
0.5,4,0,0.299804,-0.00172203,0
0.5,4.1,0,0.29979,-0.00165897,0
0.5,4.2,0,0.299787,-0.00159769,0
0.5,4.3,0,0.299783,-0.0015172,0
0.5,4.4,0,0.299781,-0.00145273,0
0.5,4.5,0,0.299786,-0.00137252,0
0.5,4.6,0,0.299777,-0.00130211,0
0.5,4.7,0,0.299776,-0.00123475,0
0.5,4.8,0,0.299776,-0.00114703,0
0.5,4.9,0,0.299775,-0.00108068,0
0.5,5,0,0.299776,-0.00100102,0
0.5,5.1,0,0.299775,-0.000919927,0
0.5,5.2,0,0.299773,-0.000832415,0
0.5,5.3,0,0.299776,-0.000755178,0
0.5,5.4,0,0.299771,-0.00067005,0
0.5,5.5,0,0.299777,-0.000590689,0
0.5,5.6,0,0.29977,-0.00050527,0
0.5,5.7,0,0.299778,-0.000423946,0
0.5,5.8,0,0.299769,-0.000338858,0
0.5,5.9,0,0.299778,-0.000255843,0
0.5,6,0,0.299769,-0.000171609,0
0.5,6.1,0,0.299778,-8.73005e-05,0
0.5,6.2,0,0.299769,-4.38992e-06,0
0.5,6.3,0,0.299777,8.06752e-05,0
0.5,6.4,0,0.29977,0.000161911,0
0.5,6.5,0,0.299776,0.000247146,0
0.5,6.6,0,0.299771,0.000326525,0
0.5,6.7,0,0.299775,0.00041128,0
0.5,6.8,0,0.299772,0.00048871,0
0.5,6.9,0,0.299774,0.000577883,0
0.5,7,0,0.299775,0.000663513,0
0.5,7.1,0,0.299774,0.000740948,0
0.5,7.2,0,0.299775,0.00080543,0
0.5,7.3,0,0.299778,0.000885745,0
0.5,7.4,0,0.299776,0.000961454,0
0.5,7.5,0,0.299778,0.0010283,0
0.5,7.6,0,0.299781,0.00111455,0
0.5,7.7,0,0.299784,0.00117898,0
0.5,7.8,0,0.299787,0.00124251,0
0.5,7.9,0,0.299792,0.00132427,0
0.5,8,0,0.299796,0.00138413,0
0.5,8.1,0,0.2998,0.00144399,0
0.5,8.2,0,0.299809,0.00152016,0
0.5,8.3,0,0.299813,0.0015761,0
0.5,8.4,0,0.299819,0.00163229,0
0.5,8.5,0,0.299828,0.00170233,0
0.5,8.6,0,0.299833,0.00175413,0
0.5,8.7,0,0.29984,0.0018059,0
0.5,8.8,0,0.299848,0.00186995,0
0.5,8.9,0,0.299852,0.00191742,0
0.5,9,0,0.299858,0.00196589,0
0.5,9.1,0,0.299866,0.00202228,0
0.5,9.2,0,0.299871,0.0020653,0
0.5,9.3,0,0.299877,0.00211476,0
0.5,9.4,0,0.299884,0.00215894,0
0.5,9.5,0,0.299887,0.00219752,0
0.5,9.6,0,0.299895,0.00224579,0
0.5,9.7,0,0.299898,0.00228004,0
0.5,9.8,0,0.299902,0.00231429,0
0.5,9.9,0,0.299908,0.00235602,0
0.5,10,0,0.299911,0.00238612,0
0.5,10.1,0,0.299915,0.00241623,0
0.5,10.2,0,0.29992,0.00245184,0
0.5,10.3,0,0.299923,0.00247803,0
0.5,10.4,0,0.299925,0.00250346,0
0.5,10.5,0,0.299931,0.00253421,0
0.5,10.6,0,0.299934,0.00255673,0
0.5,10.7,0,0.299934,0.0025781,0
0.5,10.8,0,0.299942,0.00260409,0
0.5,10.9,0,0.299945,0.00262316,0
0.5,11,0,0.299946,0.00264293,0
0.5,11.1,0,0.299952,0.00266235,0
0.5,11.2,0,0.299955,0.00267818,0
0.5,11.3,0,0.299958,0.00269619,0
0.5,11.4,0,0.299962,0.00270975,0
0.5,11.5,0,0.299964,0.00272251,0
0.5,11.6,0,0.299968,0.00273705,0
0.5,11.7,0,0.299971,0.00274688,0
0.5,11.8,0,0.299973,0.00275671,0
0.5,11.9,0,0.299977,0.00276719,0
0.5,12,0,0.299979,0.00277417,0
0.5,12.1,0,0.299982,0.0027812,0
0.5,12.2,0,0.299986,0.00278765,0
0.5,12.3,0,0.299988,0.00279183,0
0.5,12.4,0,0.29999,0.0027964,0
0.5,12.5,0,0.299993,0.00279859,0
0.5,12.6,0,0.299994,0.00279999,0
0.5,12.7,0,0.299995,0.00280184,0
0.6,0,0,0.29999,-0.00362833,0
0.6,0.1,0,0.299992,-0.00363012,0
0.6,0.2,0,0.299988,-0.00362629,0
0.6,0.3,0,0.299982,-0.00362148,0
0.6,0.4,0,0.299979,-0.00361753,0
0.6,0.5,0,0.299967,-0.00360447,0
0.6,0.6,0,0.299967,-0.00359936,0
0.6,0.7,0,0.299959,-0.00358631,0
0.6,0.8,0,0.299953,-0.00357194,0
0.6,0.9,0,0.299952,-0.00356174,0
0.6,1,0,0.299935,-0.00353456,0
0.6,1.1,0,0.299941,-0.00352497,0
0.6,1.2,0,0.29993,-0.00350168,0
0.6,1.3,0,0.299924,-0.00347717,0
0.6,1.4,0,0.299925,-0.00346117,0
0.6,1.5,0,0.299901,-0.00341781,0
0.6,1.6,0,0.299912,-0.00340425,0
0.6,1.7,0,0.2999,-0.00336996,0
0.6,1.8,0,0.299893,-0.00333416,0
0.6,1.9,0,0.299896,-0.00331181,0
0.6,2,0,0.299868,-0.00325201,0
0.6,2.1,0,0.299881,-0.00323248,0
0.6,2.2,0,0.299867,-0.0031873,0
0.6,2.3,0,0.299857,-0.00313901,0
0.6,2.4,0,0.299859,-0.00310875,0
0.6,2.5,0,0.299833,-0.00303474,0
0.6,2.6,0,0.299839,-0.00300522,0
0.6,2.7,0,0.299828,-0.0029502,0
0.6,2.8,0,0.299815,-0.00288889,0
0.6,2.9,0,0.299812,-0.0028489,0
0.6,3,0,0.299796,-0.00276435,0
0.6,3.1,0,0.299787,-0.00272135,0
0.6,3.2,0,0.299781,-0.00265782,0
0.6,3.3,0,0.299766,-0.00258428,0
0.6,3.4,0,0.299755,-0.00253397,0
0.6,3.5,0,0.299759,-0.00244097,0
0.6,3.6,0,0.29973,-0.0023847,0
0.6,3.7,0,0.299732,-0.00231312,0
0.6,3.8,0,0.29972,-0.0022288,0
0.6,3.9,0,0.299704,-0.00216936,0
0.6,4,0,0.299724,-0.00206703,0
0.6,4.1,0,0.299688,-0.00200042,0
0.6,4.2,0,0.299695,-0.00192074,0
0.6,4.3,0,0.29969,-0.00182616,0
0.6,4.4,0,0.299676,-0.00175896,0
0.6,4.5,0,0.299696,-0.00164729,0
0.6,4.6,0,0.299673,-0.00157078,0
0.6,4.7,0,0.299678,-0.00148457,0
0.6,4.8,0,0.299679,-0.00138016,0
0.6,4.9,0,0.299674,-0.00130762,0
0.6,5,0,0.299677,-0.00120131,0
0.6,5.1,0,0.299677,-0.00110973,0
0.6,5.2,0,0.299671,-0.000998873,0
0.6,5.3,0,0.299681,-0.000913248,0
0.6,5.4,0,0.299666,-0.000803951,0
0.6,5.5,0,0.299684,-0.000714168,0
0.6,5.6,0,0.299663,-0.00060621,0
0.6,5.7,0,0.299686,-0.000512042,0
0.6,5.8,0,0.299661,-0.000406582,0
0.6,5.9,0,0.299687,-0.000308108,0
0.6,6,0,0.299661,-0.000205979,0
0.6,6.1,0,0.299687,-0.000103591,0
0.6,6.2,0,0.299661,-5.3985e-06,0
0.6,6.3,0,0.299685,0.000100114,0
0.6,6.4,0,0.299663,0.000194139,0
0.6,6.5,0,0.299682,0.000301729,0
0.6,6.6,0,0.299666,0.00039175,0
0.6,6.7,0,0.299678,0.000500132,0
0.6,6.8,0,0.29967,0.00058654,0
0.6,6.9,0,0.299675,0.000696828,0
0.6,7,0,0.299676,0.00079649,0
0.6,7.1,0,0.299671,0.000899832,0
0.6,7.2,0,0.299674,0.000966683,0
0.6,7.3,0,0.299684,0.00105963,0
0.6,7.4,0,0.299672,0.00116902,0
0.6,7.5,0,0.29968,0.00123928,0
0.6,7.6,0,0.299693,0.00133075,0
0.6,7.7,0,0.299681,0.00142911,0
0.6,7.8,0,0.299696,0.00149664,0
0.6,7.9,0,0.299706,0.00158776,0
0.6,8,0,0.299698,0.00167401,0
0.6,8.1,0,0.299719,0.00173772,0
0.6,8.2,0,0.299726,0.00182917,0
0.6,8.3,0,0.299725,0.00190328,0
0.6,8.4,0,0.299746,0.0019618,0
0.6,8.5,0,0.299752,0.00205414,0
0.6,8.6,0,0.299756,0.00211622,0
0.6,8.7,0,0.299771,0.00216789,0
0.6,8.8,0,0.299783,0.00226175,0
0.6,8.9,0,0.299788,0.00231177,0
0.6,9,0,0.299794,0.00235769,0
0.6,9.1,0,0.299813,0.00244585,0
0.6,9.2,0,0.299816,0.00248779,0
0.6,9.3,0,0.299818,0.00253377,0
0.6,9.4,0,0.299839,0.00260836,0
0.6,9.5,0,0.299839,0.00264422,0
0.6,9.6,0,0.299842,0.00269095,0
0.6,9.7,0,0.299861,0.00275187,0
0.6,9.8,0,0.299857,0.00278187,0
0.6,9.9,0,0.299865,0.00282913,0
0.6,10,0,0.29988,0.00287705,0
0.6,10.1,0,0.299873,0.00290207,0
0.6,10.2,0,0.299887,0.0029487,0
0.6,10.3,0,0.299897,0.00298506,0
0.6,10.4,0,0.299888,0.0030063,0
0.6,10.5,0,0.299906,0.00305053,0
0.6,10.6,0,0.299912,0.00307722,0
0.6,10.7,0,0.299902,0.00309587,0
0.6,10.8,0,0.299924,0.00313578,0
0.6,10.9,0,0.299926,0.00315475,0
0.6,11,0,0.299919,0.00317334,0
0.6,11.1,0,0.299937,0.00320327,0
0.6,11.2,0,0.299938,0.00321909,0
0.6,11.3,0,0.299937,0.00323707,0
0.6,11.4,0,0.299949,0.00325816,0
0.6,11.5,0,0.299949,0.00327139,0
0.6,11.6,0,0.299952,0.00328698,0
0.6,11.7,0,0.299961,0.0033012,0
0.6,11.8,0,0.299961,0.00331213,0
0.6,11.9,0,0.299966,0.00332401,0
0.6,12,0,0.299972,0.00333291,0
0.6,12.1,0,0.299973,0.00334149,0
0.6,12.2,0,0.29998,0.00334879,0
0.6,12.3,0,0.299984,0.00335352,0
0.6,12.4,0,0.299986,0.00335952,0
0.6,12.5,0,0.299992,0.00336176,0
0.6,12.6,0,0.299993,0.00336317,0
0.6,12.7,0,0.299992,0.00336594,0
0.7,0,0,0.299986,-0.00423678,0
0.7,0.1,0,0.299989,-0.00423927,0
0.7,0.2,0,0.299982,-0.00423357,0
0.7,0.3,0,0.299976,-0.00422877,0
0.7,0.4,0,0.29997,-0.00422311,0
0.7,0.5,0,0.299956,-0.00420846,0
0.7,0.6,0,0.299957,-0.00420403,0
0.7,0.7,0,0.299943,-0.00418507,0
0.7,0.8,0,0.299937,-0.00417069,0
0.7,0.9,0,0.299934,-0.00415633,0
0.7,1,0,0.299914,-0.00412611,0
0.7,1.1,0,0.299922,-0.00411769,0
0.7,1.2,0,0.299904,-0.00408402,0
0.7,1.3,0,0.299897,-0.00405951,0
0.7,1.4,0,0.299897,-0.00403715,0
0.7,1.5,0,0.29987,-0.00398892,0
0.7,1.6,0,0.299884,-0.00397717,0
0.7,1.7,0,0.299863,-0.00392778,0
0.7,1.8,0,0.299856,-0.00389199,0
0.7,1.9,0,0.299858,-0.00386099,0
0.7,2,0,0.299826,-0.00379453,0
0.7,2.1,0,0.299841,-0.00377718,0
0.7,2.2,0,0.299819,-0.00371247,0
0.7,2.3,0,0.29981,-0.00366418,0
0.7,2.4,0,0.299811,-0.00362245,0
0.7,2.5,0,0.29978,-0.00354053,0
0.7,2.6,0,0.299789,-0.00351281,0
0.7,2.7,0,0.29977,-0.00343455,0
0.7,2.8,0,0.299757,-0.00337324,0
0.7,2.9,0,0.299752,-0.00331811,0
0.7,3,0,0.299733,-0.00322517,0
0.7,3.1,0,0.299723,-0.0031829,0
0.7,3.2,0,0.299714,-0.00309297,0
0.7,3.3,0,0.299699,-0.00301944,0
0.7,3.4,0,0.299682,-0.00294975,0
0.7,3.5,0,0.299687,-0.00284826,0
0.7,3.6,0,0.299654,-0.0027916,0
0.7,3.7,0,0.299657,-0.00269035,0
0.7,3.8,0,0.299645,-0.00260602,0
0.7,3.9,0,0.299619,-0.00252325,0
0.7,4,0,0.299644,-0.00241203,0
0.7,4.1,0,0.299601,-0.00234436,0
0.7,4.2,0,0.29961,-0.00223151,0
0.7,4.3,0,0.299605,-0.00213693,0
0.7,4.4,0,0.299582,-0.00204317,0
0.7,4.5,0,0.299607,-0.00192207,0
0.7,4.6,0,0.299579,-0.00184373,0
0.7,4.7,0,0.299583,-0.00172182,0
0.7,4.8,0,0.299584,-0.00161741,0
0.7,4.9,0,0.299574,-0.00151591,0
0.7,5,0,0.299578,-0.00140161,0
0.7,5.1,0,0.299577,-0.00129632,0
0.7,5.2,0,0.299568,-0.00116533,0
0.7,5.3,0,0.299581,-0.00106737,0
0.7,5.4,0,0.299561,-0.000937852,0
0.7,5.5,0,0.299584,-0.000834618,0
0.7,5.6,0,0.299556,-0.000707151,0
0.7,5.7,0,0.299587,-0.000598256,0
0.7,5.8,0,0.299553,-0.000474305,0
0.7,5.9,0,0.299588,-0.000359763,0
0.7,6,0,0.299552,-0.000240348,0
0.7,6.1,0,0.299588,-0.000120581,0
0.7,6.2,0,0.299553,-6.40708e-06,0
0.7,6.3,0,0.299585,0.000117638,0
0.7,6.4,0,0.299556,0.000226366,0
0.7,6.5,0,0.299582,0.000353384,0
0.7,6.6,0,0.299561,0.000456976,0
0.7,6.7,0,0.299578,0.000585322,0
0.7,6.8,0,0.299568,0.000684369,0
0.7,6.9,0,0.299575,0.000814002,0
0.7,7,0,0.299578,0.000929467,0
0.7,7.1,0,0.299573,0.00103485,0
0.7,7.2,0,0.29958,0.00114057,0
0.7,7.3,0,0.29959,0.00123352,0
0.7,7.4,0,0.299575,0.00135354,0
0.7,7.5,0,0.299592,0.00145548,0
0.7,7.6,0,0.299605,0.00154696,0
0.7,7.7,0,0.299585,0.0016644,0
0.7,7.8,0,0.299613,0.0017531,0
0.7,7.9,0,0.299623,0.00184422,0
0.7,8,0,0.299609,0.00195813,0
0.7,8.1,0,0.299641,0.00203202,0
0.7,8.2,0,0.299648,0.00212347,0