/*--------------------------------*- C++ -*----------------------------------*\
| =========                 |                                                 |
| \\      /  F ield         | OpenFOAM: The Open Source CFD Toolbox           |
|  \\    /   O peration     | Version:  v1806                                 |
|   \\  /    A nd           | Web:      www.OpenFOAM.com                      |
|    \\/     M anipulation  |                                                 |
\*---------------------------------------------------------------------------*/
FoamFile
{
    version     2.0;
    format      ascii;
    class       surfaceScalarField;
    location    "11";
    object      phi;
}
// * * * * * * * * * * * * * * * * * * * * * * * * * * * * * * * * * * * * * //

dimensions      [0 3 -1 0 0 0 0];
oriented        oriented;


internalField   nonuniform List<scalar> 
4680
(
1.04949
-0.0103168
1.05115
0.0232616
1.05178
0.0037321
1.04472
-0.0623702
1.04554
-0.0362313
1.05548
0.0486143
1.05676
0.0236406
1.04784
-0.110561
1.04019
-0.13624
1.04666
-0.0302068
1.05746
-0.00233989
1.05344
-0.115464
1.04265
-0.235408
1.03753
-0.271955
1.03557
-0.27335
1.03456
-0.34649
1.02345
-0.488999
0.997228
-0.631813
0.953396
-0.799901
-0.992367
0.890349
1.04852
-0.00883336
1.05095
0.0208276
1.05188
0.00280126
1.04515
-0.0556367
1.04709
-0.0381762
1.05421
0.0414934
1.05589
0.0219661
1.04826
-0.102932
1.03869
-0.126673
1.04427
-0.0357862
1.05236
-0.0104255
1.04906
-0.112164
1.04045
-0.226796
1.03106
-0.262574
1.02318
-0.265462
1.01823
-0.341542
0.998505
-0.469276
0.963553
-0.596861
0.915126
-0.751474
-0.92322
0.845979
1.04804
-0.00687666
1.0519
0.0169704
1.05201
0.00269465
1.0473
-0.0509337
1.04771
-0.0385798
1.0515
0.0377036
1.05453
0.0189321
1.04722
-0.0956212
1.03829
-0.117746
1.04225
-0.0397433
1.04742
-0.015592
1.0455
-0.110243
1.03668
-0.217978
1.02409
-0.249986
1.0154
-0.256776
1.00968
-0.335822
0.990661
-0.450253
0.963958
-0.570158
0.926039
-0.713555
-0.865133
0.867952
1.04923
-0.00610412
1.05295
0.013252
1.05131
0.00432636
1.04774
-0.0473559
1.04693
-0.0377768
1.04971
0.0349298
1.05293
0.0157056
1.04584
-0.0885312
1.03755
-0.109457
1.04064
-0.0428279
1.04464
-0.0195882
1.04338
-0.108987
1.03275
-0.207349
1.01747
-0.234706
1.0086
-0.247908
1.0013
-0.328518
0.977634
-0.426588
0.942751
-0.535275
0.893273
-0.664077
-0.795744
0.823884
1.05035
-0.00644929
1.05233
0.0112673
1.05042
0.00624051
1.04828
-0.045218
1.04551
-0.035012
1.048
0.0324456
1.05245
0.0112496
1.04504
-0.0811223
1.0379
-0.102311
1.04021
-0.0451367
1.04176
-0.02114
1.04016
-0.107388
1.02713
-0.194318
1.01244
-0.220013
1.00445
-0.23992
0.991382
-0.315451
0.965294
-0.4005
0.940587
-0.510568
0.900332
-0.623822
-0.729178
0.833767
1.05102
-0.00746943
1.0513
0.0109852
1.04975
0.0077888
1.04758
-0.0430449
1.04439
-0.0318194
1.04915
0.0276858
1.05154
0.00886104
1.04395
-0.073535
1.03975
-0.0981156
1.03769
-0.0430681
1.03757
-0.0210252
1.03759
-0.107411
1.02299
-0.179713
1.0088
-0.205822
0.997709
-0.228832
0.982319
-0.300061
0.959934
-0.378116
0.930832
-0.481465
0.879729
-0.57272
-0.66829
0.818841
1.05073
-0.00820099
1.04941
0.0123027
1.04987
0.0073286
1.04728
-0.0404493
1.0447
-0.0292364
1.05016
0.0222189
1.05057
0.00844916
1.04507
-0.0680315
1.03851
-0.0915571
1.03301
-0.0375698
1.03638
-0.0243896
1.03431
-0.105343
1.01737
-0.162776
1.0061
-0.194545
0.993135
-0.21587
0.974238
-0.281164
0.947915
-0.351793
0.921102
-0.454652
0.879858
-0.531476
-0.609838
0.821406
1.04894
-0.00713623
1.04926
0.0119796
1.05161
0.00498067
1.04657
-0.0354121
1.04583
-0.028498
1.05079
0.0172567
1.04903
0.0102147
1.04388
-0.0628845
1.03634
-0.0840165
1.03245
-0.0336847
1.03456
-0.0264907
1.02913
-0.0999197
1.01594
-0.14958
1.00447
-0.183078
0.983826
-0.195227
0.966565
-0.263903
0.946688
-0.331916
0.91893
-0.426894
0.86532
-0.477867
-0.555005
0.810487
1.04783
-0.00496242
1.05143
0.0083741
1.05273
0.00367869
1.04629
-0.0289653
1.04654
-0.0287493
1.0483
0.0154976
1.04735
0.01116
1.04414
-0.0596719
1.03491
-0.0747916
1.03228
-0.0310502
1.03478
-0.0289933
1.0262
-0.0913336
1.01116
-0.134547
0.999346
-0.17126
0.980931
-0.176813
0.965026
-0.247997
0.935408
-0.302298
0.905293
-0.396779
0.866546
-0.43912
-0.524155
0.835696
1.04892
-0.00388016
1.05296
0.00433678
1.05168
0.00495036
1.04647
-0.0237483
1.0451
-0.0273786
1.04595
0.0146461
1.0487
0.00840996
1.04355
-0.0545216
1.03413
-0.0653711
1.03355
-0.0304749
1.031
-0.0264449
1.02141
-0.0817422
1.0112
-0.124332
0.997042
-0.157105
0.972708
-0.152478
0.958502
-0.233792
0.932828
-0.276624
0.90255
-0.366501
0.856286
-0.392855
-0.489042
0.821172
1.05044
-0.0043205
1.05083
0.00394313
1.04986
0.00592558
1.04788
-0.0217708
1.04386
-0.0233552
1.04632
0.0121848
1.05059
0.00414129
1.04143
-0.0453683
1.03324
-0.0571738
1.0324
-0.0296361
1.02801
-0.0220516
1.02184
-0.0755725
1.00843
-0.110929
0.98889
-0.137563
0.972077
-0.135666
0.959457
-0.221172
0.918155
-0.235322
0.888741
-0.337086
0.85813
-0.362245
-0.471787
0.840876
1.04966
-0.00398125
1.0483
0.00530739
1.05113
0.00309541
1.049
-0.0196473
1.0435
-0.0178528
1.04748
0.00820253
1.04885
0.00276968
1.03917
-0.0356869
1.03476
-0.0527637
1.03151
-0.0263856
1.02487
-0.0154096
1.01966
-0.0703666
1.00711
-0.0983758
0.988243
-0.118694
0.966899
-0.114323
0.950212
-0.204484
0.915658
-0.200769
0.889849
-0.311277
0.845302
-0.317698
-0.444387
0.817902
1.04869
-0.00267051
1.04975
0.00424827
1.05228
0.000564714
1.04735
-0.0147187
1.04413
-0.0146326
1.04721
0.00512489
1.04692
0.00305426
1.04038
-0.0291472
1.03375
-0.0461255
1.02903
-0.0216748
1.0284
-0.0147784
1.01816
-0.060126
0.997826
-0.0780394
0.985999
-0.106867
0.971623
-0.099946
0.946705
-0.179567
0.905601
-0.159665
0.88634
-0.292016
0.842982
-0.274339
-0.420718
0.819312
1.04953
-0.0021984
1.05086
0.00291643
1.05035
0.00107194
1.04718
-0.0115425
1.04564
-0.0130952
1.04499
0.00577102
1.04664
0.00140357
1.04266
-0.0251659
1.03227
-0.0357347
1.02604
-0.0154485
1.02763
-0.0163676
1.01729
-0.0497774
1.00005
-0.0608024
0.982325
-0.0891435
0.959132
-0.0767521
0.940937
-0.161372
0.91431
-0.133039
0.888537
-0.266243
0.827066
-0.212868
-0.405078
0.811427
1.04976
-0.00195454
1.05001
0.00266115
1.05022
0.000859688
1.04793
-0.0092501
1.04495
-0.0101091
1.04535
0.00537062
1.04757
-0.000816996
1.0397
-0.0172987
1.03194
-0.0279729
1.02954
-0.0130527
1.02556
-0.0123896
1.01009
-0.0343063
1.00063
-0.0513393
0.986726
-0.07524
0.957554
-0.0475808
0.929797
-0.133615
0.899656
-0.102897
0.883868
-0.250455
0.834275
-0.163276
-0.411003
0.8402
1.04943
-0.00138779
1.05004
0.00205046
1.05091
-3.0524e-06
1.04745
-0.00579825
1.04449
-0.00714626
1.04576
0.00410671
1.04706
-0.00212595
1.03944
-0.00967051
1.03265
-0.0211837
1.02667
-0.00707089
1.02548
-0.0112068
1.01402
-0.0228452
0.99749
-0.0348074
0.975896
-0.0536466
0.962635
-0.0343193
0.938696
-0.109676
0.891424
-0.0556254
0.857576
-0.216607
0.81631
-0.122009
-0.449136
0.854442
1.04954
-0.000927367
1.05024
0.00135161
1.05053
-0.000291169
1.04725
-0.00252074
1.04518
-0.00508033
1.04558
0.00370921
1.0462
-0.00274517
1.03953
-0.00300391
1.03338
-0.0150261
1.02602
0.000289333
1.02432
-0.00950909
1.01248
-0.0110118
0.998725
-0.021048
0.976703
-0.0316251
0.957085
-0.0147011
0.928975
-0.0815657
0.89477
-0.0214204
0.868271
-0.190108
0.8045
-0.0582381
-0.48296
0.838325
1.04949
-0.000414413
1.05015
0.000686824
1.05069
-0.000832219
1.04736
0.000812924
1.04477
-0.00249373
1.04546
0.00302617
1.04683
-0.00412335
1.03911
0.00471525
1.03245
-0.00836579
1.02628
0.00646116
1.02545
-0.00867411
1.01032
0.00411998
0.997834
-0.00856614
0.976103
-0.00989402
0.959846
0.00155523
0.922386
-0.0441057
0.893092
0.00787426
0.846516
-0.143533
0.8016
-0.0133213
-0.573014
0.891654
1.04952
6.26265e-05
1.05022
-9.12247e-06
1.05057
-0.0011844
1.04725
0.00413109
1.04507
-0.000306929
1.04551
0.00258098
1.04646
-0.00507353
1.03897
0.0122063
1.03334
-0.00273381
1.02574
0.0140591
1.02482
-0.00774871
1.01065
0.0182863
0.999146
0.00293618
0.973859
0.0153937
0.958446
0.016968
0.921174
-0.00683343
0.893805
0.0352426
0.830848
-0.080575
0.765814
0.0517119
-0.692268
0.885069
1.04947
0.000596667
1.05022
-0.000765666
1.05061
-0.00157554
1.04735
0.00739032
1.04477
0.00227559
1.04571
0.00164071
1.04648
-0.00584343
1.03941
0.0192786
1.03244
0.00423951
1.02692
0.0195768
1.0242
-0.00503158
1.0122
0.0302893
0.996873
0.0182623
0.976974
0.0352924
0.95688
0.0370615
0.920491
0.0295558
0.889211
0.0665224
0.814181
-0.00554465
0.802663
0.06323
0.943469
-0.833074
0.878008
-0.100107
0.868507
-0.10297
0.859533
-0.104759
0.8508
-0.10638
0.841897
-0.107725
0.832651
-0.108899
0.823065
-0.110009
0.813169
-0.111062
0.802982
-0.112066
-0.113116
0.792801
0.843678
-0.0978066
0.838233
-0.0975252
0.831629
-0.0981546
0.824002
-0.0987536
0.81589
-0.0996124
0.807674
-0.100683
0.799388
-0.101722
0.79098
-0.102654
0.782413
-0.103499
-0.104104
0.773401
0.855811
-0.0856651
0.846106
-0.087821
0.837174
-0.0892221
0.829053
-0.0906333
0.821076
-0.0916351
0.812717
-0.0923235
0.80393
-0.0929353
0.794795
-0.093519
0.785379
-0.0940832
-0.0947243
0.775999
0.820262
-0.0820438
0.814027
-0.0815858
0.807128
-0.0823232
0.799549
-0.0830544
0.791693
-0.0837786
0.783829
-0.0844594
0.775992
-0.0850989
0.76815
-0.0856763
0.76027
-0.0862042
-0.0865277
0.752074
0.827538
-0.0758154
0.82167
-0.075718
0.814979
-0.0756315
0.807738
-0.075814
0.800176
-0.0762162
0.79239
-0.0766734
0.784418
-0.0771268
0.776262
-0.0775206
0.767931
-0.0778727
-0.0782927
0.759696
0.808322
-0.0652961
0.799459
-0.0668554
0.791964
-0.0681369
0.785267
-0.0691165
0.778713
-0.0696626
0.772097
-0.0700574
0.765388
-0.0704169
0.758629
-0.0707618
0.751876
-0.07112
-0.0713109
0.744894
0.819693
-0.0635828
0.816107
-0.0632689
0.811083
-0.0631133
0.805052
-0.0630859
0.798685
-0.0632949
0.792191
-0.0635636
0.785633
-0.0638589
0.779
-0.0641285
0.772261
-0.0643811
-0.0646994
0.765649
0.803809
-0.0569047
0.797217
-0.0566764
0.791464
-0.0573603
0.786198
-0.0578205
0.781055
-0.0581512
0.77592
-0.0584295
0.77076
-0.0586988
0.765572
-0.0589399
0.760366
-0.0591756
-0.0592464
0.754913
0.830308
-0.0515167
0.826348
-0.0527162
0.822011
-0.0530232
0.817439
-0.0532481
0.812688
-0.0534003
0.807762
-0.0535042
0.802662
-0.053598
0.797387
-0.0536649
0.791939
-0.0537277
-0.053852
0.786544
0.819137
-0.0494809
0.815446
-0.0490258
0.811698
-0.0492749
0.807911
-0.049461
0.804119
-0.0496086
0.800328
-0.0497134
0.796518
-0.0497874
0.792662
-0.0498097
0.788735
-0.0498004
-0.0496289
0.784512
0.836656
-0.0452616
0.833634
-0.0460033
0.830352
-0.0459928
0.826835
-0.0459442
0.823082
-0.0458561
0.819085
-0.0457165
0.814833
-0.0455346
0.810324
-0.0453014
0.805562
-0.0450381
-0.0448158
0.800749
0.816041
-0.0434002
0.812823
-0.0427854
0.809554
-0.0427242
0.806185
-0.0425754
0.802705
-0.042376
0.799126
-0.0421368
0.795457
-0.041866
0.791707
-0.0415511
0.787869
-0.0412002
-0.0407137
0.783767
0.815244
-0.0393318
0.811915
-0.0394571
0.808247
-0.039056
0.804309
-0.0386375
0.800143
-0.0382097
0.795772
-0.0377662
0.791211
-0.0373045
0.786476
-0.0368164
0.781584
-0.0363076
-0.0358513
0.776721
0.81035
-0.0382557
0.80831
-0.037417
0.806207
-0.0369524
0.80397
-0.036401
0.801574
-0.0358136
0.799018
-0.0352096
0.796301
-0.0345878
0.793429
-0.0339441
0.790395
-0.0332745
-0.032496
0.78704
0.837806
-0.0358616
0.835967
-0.0355778
0.83376
-0.0347449
0.831248
-0.0338897
0.828482
-0.0330471
0.825492
-0.0322196
0.82229
-0.0313857
0.818886
-0.0305399
0.815278
-0.0296671
-0.0288502
0.811632
0.856323
-0.0377427
0.856811
-0.0360657
0.856765
-0.0346992
0.856204
-0.0333289
0.855178
-0.0320203
0.853728
-0.0307695
0.85189
-0.0295483
0.849689
-0.0283383
0.84714
-0.027118
-0.0258184
0.844108
0.837085
-0.036503
0.836071
-0.0350517
0.834502
-0.03313
0.832563
-0.03139
0.830372
-0.0298297
0.827999
-0.0283959
0.825466
-0.0270153
0.822785
-0.0256574
0.819956
-0.0242894
-0.0229702
0.817108
0.892249
-0.0370982
0.890324
-0.0331267
0.887105
-0.0299113
0.883323
-0.0276081
0.879122
-0.0256281
0.874793
-0.0240672
0.870253
-0.0224757
0.865633
-0.0210367
0.86093
-0.0195865
-0.0180748
0.856034
0.883566
-0.0355959
0.881789
-0.0313492
0.878841
-0.0269634
0.87626
-0.0250269
0.872774
-0.0221424
0.870219
-0.0215117
0.866552
-0.0188091
0.864571
-0.0190554
0.861268
-0.0162835
-0.0177694
0.860962
0.907873
0.876524
0.84956
0.824534
0.802391
0.780879
0.76207
0.743015
0.726731
0.708962
0.774059
-0.199952
0.754244
-0.202049
0.733675
-0.203796
0.712267
-0.204857
0.690056
-0.205436
0.667055
-0.205222
0.643399
-0.204588
0.619128
-0.202979
0.59447
-0.201195
0.569431
-0.198145
0.544323
-0.195357
0.519071
-0.190687
0.49413
-0.187042
0.469359
-0.180412
0.445282
-0.176071
0.422025
-0.166929
0.399574
-0.162276
0.37976
-0.149378
0.360562
-0.146046
-0.127114
0.75735
-0.183901
0.74087
-0.185569
0.723759
-0.186686
0.706162
-0.187259
0.688211
-0.187486
0.669955
-0.186966
0.651552
-0.186184
0.633053
-0.18448
0.614616
-0.182758
0.596253
-0.179782
0.578084
-0.177188
0.560163
-0.172767
0.542638
-0.169516
0.525608
-0.163382
0.509336
-0.159798
0.493797
-0.15139
0.479329
-0.147808
0.466417
-0.136466
0.453886
-0.133515
-0.118207
0.758869
-0.166771
0.740921
-0.167621
0.722568
-0.168332
0.703769
-0.16846
0.684606
-0.168322
0.665137
-0.167498
0.645517
-0.166564
0.625785
-0.164748
0.606077
-0.16305
0.586424
-0.160129
0.566981
-0.157746
0.547878
-0.153664
0.529193
-0.150831
0.511291
-0.14548
0.49403
-0.142537
0.478163
-0.135523
0.463364
-0.133009
0.450641
-0.123743
0.439498
-0.122372
-0.110443
0.737811
-0.152508
0.723672
-0.153482
0.709438
-0.154099
0.695255
-0.154277
0.681237
-0.154303
0.667418
-0.153679
0.653838
-0.152984
0.640477
-0.151386
0.627376
-0.149949
0.614508
-0.147261
0.601945
-0.145183
0.589601
-0.14132
0.577541
-0.138772
0.565673
-0.133612
0.553945
-0.130809
0.542623
-0.124201
0.53114
-0.121526
0.520572
-0.113175
0.509526
-0.111326
-0.101134
0.744701
-0.137513
0.729117
-0.137898
0.713348
-0.138329
0.697389
-0.138319
0.681308
-0.138222
0.665175
-0.137546
0.649098
-0.136907
0.633182
-0.135471
0.617509
-0.134276
0.602191
-0.131943
0.587199
-0.130191
0.572686
-0.126806
0.558577
-0.124663
0.545159
-0.120194
0.532412
-0.118061
0.520693
-0.112483
0.509991
-0.110824
0.500777
-0.103961
0.492404
-0.102952
-0.0941121
0.733053
-0.125673
0.721604
-0.126448
0.710267
-0.126992
0.699109
-0.127161
0.688172
-0.127286
0.677447
-0.126821
0.666925
-0.126385
0.656566
-0.125112
0.646347
-0.124057
0.636236
-0.121832
0.626205
-0.120161
0.616266
-0.116867
0.606306
-0.114703
0.596446
-0.110334
0.586353
-0.107969
0.576376
-0.102506
0.565856
-0.100304
0.555722
-0.0938268
0.54526
-0.0924911
-0.0851819
0.753509
-0.113532
0.740766
-0.113705
0.727727
-0.113954
0.714369
-0.113803
0.7007
-0.113617
0.68679
-0.112911
0.672697
-0.112292
0.658553
-0.110967
0.644406
-0.10991
0.630431
-0.107857
0.616665
-0.106394
0.603365
-0.103568
0.590552
-0.10189
0.578542
-0.0983238
0.567329
-0.0967564
0.557281
-0.092457
0.548143
-0.0911662
0.540087
-0.0857715
0.532494
-0.0848973
-0.0780296
0.745609
-0.104228
0.736513
-0.104609
0.727354
-0.104795
0.71818
-0.104629
0.709013
-0.10445
0.699859
-0.103757
0.690693
-0.103126
0.681514
-0.101788
0.672286
-0.100682
0.663043
-0.0986146
0.653709
-0.09706
0.644338
-0.0941965
0.63474
-0.0922924
0.625003
-0.0885866
0.614733
-0.0864861
0.604287
-0.0820109
0.593359
-0.0802386
0.58285
-0.0752624
0.572205
-0.0742524
-0.0689504
0.77647
-0.0941541
0.765653
-0.0937911
0.754313
-0.0934545
0.74243
-0.092747
0.729997
-0.0920161
0.717092
-0.0908518
0.703758
-0.0897925
0.690154
-0.0881837
0.676333
-0.0868616
0.662528
-0.0848097
0.648799
-0.083331
0.635481
-0.0808779
0.622641
-0.0794524
0.610742
-0.0766879
0.599742
-0.0754858
0.589889
-0.0721583
0.58071
-0.0710597
0.572405
-0.0669571
0.564337
-0.0661843
-0.0610294
0.777081
-0.0867234
0.769512
-0.0862217
0.761552
-0.0854944
0.753241
-0.084436
0.744571
-0.0833457
0.735566
-0.0818476
0.726198
-0.0804239
0.716509
-0.0784952
0.706463
-0.0768151
0.696147
-0.0744941
0.68549
-0.0726741
0.674593
-0.0699807
0.663245
-0.0681046
0.651579
-0.0650214
0.639423
-0.06333
0.627366
-0.0601009
0.615226
-0.0589197
0.603783
-0.0555143
0.592531
-0.0549324
-0.0514513
0.791562
-0.0775362
0.781518
-0.0761782
0.77085
-0.0748259
0.759602
-0.0731886
0.747801
-0.0715445
0.735572
-0.0696187
0.722972
-0.0678238
0.710186
-0.0657089
0.697258
-0.0638871
0.684411
-0.0616474
0.671659
-0.0599225
0.659314
-0.0576352
0.647393
-0.0561838
0.636267
-0.0538955
0.62566
-0.0527234
0.615755
-0.0501957
0.606083
-0.0492479
0.596992
-0.0464225
0.587882
-0.045823
-0.0424981
0.776533
-0.0703024
0.769185
-0.06883
0.76153
-0.0671706
0.75364
-0.0652987
0.74551
-0.0634146
0.737181
-0.0612894
0.728587
-0.0592305
0.719769
-0.056891
0.710637
-0.0547548
0.701268
-0.0522786
0.691526
-0.05018
0.681499
-0.0476085
0.670952
-0.0456364
0.660088
-0.043032
0.648795
-0.0414303
0.637585
-0.038986
0.626258
-0.0379203
0.615401
-0.0355661
0.60463
-0.0350519
-0.0328146
0.767742
-0.0613235
0.758338
-0.059426
0.748735
-0.0575671
0.739012
-0.055576
0.729182
-0.0535848
0.719361
-0.0514681
0.709552
-0.0494219
0.699885
-0.0472233
0.690289
-0.0451589
0.680892
-0.0428823
0.671569
-0.0408567
0.662499
-0.0385382
0.653513
-0.0366505
0.644827
-0.034346
0.636079
-0.0326821
0.627441
-0.0303485
0.618521
-0.029
0.609675
-0.0267206
0.600538
-0.0259147
-0.0235762
0.780942
-0.0552256
0.774482
-0.0529659
0.76747
-0.0505551
0.759974
-0.0480796
0.751977
-0.045588
0.743558
-0.0430495
0.734679
-0.0405429
0.725465
-0.0380095
0.715865
-0.0355586
0.706064
-0.0330814
0.69596
-0.0307525
0.685767
-0.0283445
0.675282
-0.0261663
0.66477
-0.0238336
0.653959
-0.0218715
0.643249
-0.0196383
0.632384
-0.0181351
0.621809
-0.0161451
0.611203
-0.0153089
-0.0135027
0.804582
-0.0481752
0.796801
-0.0451853
0.788429
-0.0421823
0.779487
-0.0391376
0.769942
-0.0360435
0.759912
-0.0330195
0.749383
-0.0300142
0.738499
-0.0271253
0.727237
-0.0242965
0.715788
-0.021632
0.704076
-0.0190412
0.692342
-0.0166096
0.68045
-0.0142744
0.66871
-0.0120945
0.656899
-0.0100602
0.645378
-0.00811687
0.63375
-0.00650777
0.622505
-0.00489914
0.611156
-0.00396029
-0.00263412
0.838202
-0.0422691
0.831491
-0.0384746
0.823785
-0.0344766
0.815147
-0.0304997
0.805567
-0.0264633
0.795159
-0.0226115
0.78394
-0.0187954
0.772141
-0.0153264
0.75976
-0.0119153
0.747039
-0.00891093
0.73379
-0.00579204
0.720308
-0.00312802
0.706367
-0.000333285
0.692334
0.00193888
0.677844
0.00442969
0.663552
0.00617577
0.649005
0.00803866
0.635026
0.00908033
0.620979
0.0100866
0.0103657
0.811559
-0.03672
0.805211
-0.0321266
0.797969
-0.0272344
0.789787
-0.0223178
0.780687
-0.0173635
0.770951
-0.0128751
0.760646
-0.008491
0.750081
-0.00476157
0.739188
-0.00102182
0.728274
0.00200285
0.717165
0.00531695
0.705922
0.00811485
0.694207
0.0113819
0.682246
0.0138996
0.669726
0.0169504
0.656994
0.0189069
0.643647
0.0213861
0.630448
0.0222794
0.616829
0.023706
0.023447
0.847757
-0.028443
0.838583
-0.0229523
0.828398
-0.0170493
0.816996
-0.0109162
0.804366
-0.00473286
0.790808
0.000682869
0.776426
0.00589026
0.761886
0.00977871
0.747589
0.0132753
0.733675
0.0159172
0.720033
0.0189588
0.706642
0.0215052
0.693061
0.024963
0.679361
0.0276004
0.664917
0.0313945
0.650428
0.0333952
0.635038
0.0367765
0.620117
0.0372002
0.604505
0.0393184
0.0379663
0.858571
-0.0260517
0.852597
-0.0169783
0.843225
-0.00767668
0.831068
0.0012399
0.817542
0.00879339
0.802856
0.015369
0.787886
0.0208603
0.773056
0.0246083
0.758602
0.0277294
0.74495
0.0295694
0.731716
0.0321925
0.71903
0.0341914
0.705642
0.0383514
0.692263
0.0409796
0.67727
0.0463869
0.66193
0.048735
0.644657
0.05405
0.627119
0.0547382
0.608258
0.0581789
0.0563269
0.69704
-0.01413
0.685272
-0.00521058
0.675706
0.00188975
0.666933
0.010013
0.657056
0.0186706
0.646572
0.0258523
0.63663
0.0308033
0.628169
0.0330692
0.621891
0.0340065
0.618173
0.0332882
0.616411
0.033954
0.616672
0.0339309
0.616875
0.0381482
0.617288
0.0405664
0.615395
0.0482798
0.612254
0.0518758
0.606321
0.0599831
0.598361
0.0626988
0.588536
0.0680037
0.0684756
0.0163491
-0.0304791
0.0291918
-0.0180533
0.0396129
-0.00853136
0.0480156
0.00161033
0.056011
0.0106752
0.0635992
0.0182641
0.0711005
0.0233019
0.0787086
0.0254611
0.0867121
0.0260031
0.0950248
0.0249754
0.103602
0.0253771
0.112147
0.0253858
0.120265
0.0300303
0.127872
0.0329592
0.134192
0.0419598
0.139598
0.0464695
0.143426
0.0561556
0.146032
0.060092
0.147511
0.0665247
0.0688524
-0.00242037
-0.0280587
0.000564714
-0.0210384
0.00527116
-0.0132378
0.0107607
-0.00387924
0.0166974
0.00473858
0.0235743
0.0113871
0.0315572
0.0153191
0.0405921
0.0164262
0.0505648
0.0160304
0.0611357
0.0144046
0.0721846
0.0143282
0.0832944
0.014276
0.0941238
0.0192008
0.104474
0.022609
0.113575
0.0328588
0.121705
0.0383396
0.12812
0.0497409
0.132997
0.0552145
0.136687
0.0628353
0.0675272
-0.00884295
-0.0192158
-0.0128421
-0.0170393
-0.0142499
-0.01183
-0.0134518
-0.00467738
-0.0101353
0.00142207
-0.00453166
0.00578353
0.00282752
0.00795989
0.0116849
0.00756875
0.0218814
0.00583392
0.0330019
0.00328407
0.0449098
0.00242032
0.0570757
0.00211008
0.0693894
0.00688716
0.0813947
0.0106036
0.0925692
0.0216844
0.102894
0.0280146
0.111655
0.0409804
0.118771
0.0480985
0.124716
0.0568903
0.0643679
-0.00937609
-0.00983968
-0.0173843
-0.00903103
-0.0228414
-0.00637289
-0.025017
-0.00250177
-0.0243902
0.00079525
-0.0212471
0.00264041
-0.0156512
0.002364
-0.0080102
-7.22454e-05
0.00126593
-0.00344221
0.0117698
-0.00721984
0.0233475
-0.00915729
0.0354397
-0.00998217
0.0480715
-0.00574464
0.0606394
-0.00196428
0.0729641
0.00935972
0.0846517
0.016327
0.0952196
0.0304125
0.104193
0.039125
0.112187
0.0488962
0.0594199
-0.00977721
-6.24754e-05
-0.0190879
0.000279641
-0.0261785
0.000717743
-0.0302799
0.00159956
-0.0315155
0.00203086
-0.0299457
0.0010707
-0.0258653
-0.00171645
-0.0196756
-0.00626192
-0.011642
-0.0114758
-0.0022421
-0.0166198
0.00823963
-0.019639
0.0194435
-0.0211861
0.031472
-0.0177732
0.0437151
-0.0142073
0.0562297
-0.00315487
0.0683663
0.00419041
0.0800149
0.0187638
0.0902449
0.028895
0.0998385
0.0393026
0.0528429
-0.00863455
0.00857207
-0.0173378
0.00898288
-0.0245599
0.00793981
-0.0293242
0.00636387
-0.0316709
0.00437762
-0.0314237
0.000823504
-0.0288055
-0.00433468
-0.02399
-0.0110774
-0.0173016
-0.0181643
-0.00927236
-0.0246489
-0.00013866
-0.0287727
0.00975075
-0.0310755
0.0205096
-0.0285321
0.0316113
-0.025309
0.0435115
-0.015055
0.0552011
-0.00749928
0.0671096
0.00685537
0.0778715
0.0181332
0.0884618
0.0287122
0.0449149
-0.00649204
0.0150641
-0.0131291
0.0156199
-0.0193074
0.0141181
-0.0238576
0.0109141
-0.0265845
0.00710457
-0.0272563
0.00149524
-0.025602
-0.00598898
-0.021919
-0.0147603
-0.0164496
-0.0236337
-0.00969189
-0.0314066
-0.00191382
-0.0365508
0.00638817
-0.0393775
0.0155336
-0.0376775
0.0249897
-0.0347651
0.0355255
-0.0255908
0.0460535
-0.0180273
0.0573999
-0.00449104
0.0679501
0.00758293
0.0788447
0.0178177
0.0360426
-0.00458409
0.0196482
-0.00739705
0.0184329
-0.0108407
0.0175617
-0.0143273
0.0144007
-0.0169427
0.00971993
-0.0178944
0.00244694
-0.0171427
-0.00674073
-0.0144577
-0.0174453
-0.010075
-0.0280164
-0.00448999
-0.0369916
0.00191178
-0.0429525
0.00869516
-0.0461608
0.0161707
-0.0451531
0.0238076
-0.042402
0.032584
-0.0343672
0.0414239
-0.0268672
0.0515594
-0.0146265
0.0612288
-0.00208648
0.071719
0.0073275
0.0267461
0.00134033
0.0183079
0.0024631
0.0173101
0.00139183
0.018633
-0.000922888
0.0167154
-0.00305366
0.0118507
-0.00442172
0.003815
-0.00415993
-0.00700252
-0.00221472
-0.0193905
0.00110479
-0.0313359
0.00536459
-0.0412514
0.0103498
-0.0479377
0.0156553
-0.0514664
0.0214767
-0.0509745
0.0273738
-0.048299
0.034304
-0.0412974
0.0413123
-0.0338754
0.0498005
-0.0231147
0.0581786
-0.0104646
0.0676498
-0.0021437
0.0176015
0.00656748
0.0117404
0.0120897
0.0117879
0.0157123
0.0150103
0.0157538
0.016674
0.0145568
0.0130477
0.013807
0.0045649
0.0136571
-0.00685269
0.0145262
-0.0202597
0.0165163
-0.0333259
0.0193329
-0.0440681
0.0227169
-0.0513218
0.0263723
-0.0551218
0.0304522
-0.0550544
0.0346416
-0.0524884
0.0397858
-0.0464416
0.0450827
-0.0391723
0.0518423
-0.0298744
0.0587812
-0.0174035
0.0668808
-0.0102433
0.00911515
0.19395
0.0528643
-0.235074
0.163845
0.0418924
0.143571
0.0352849
0.131484
0.0287603
0.12477
0.0197619
0.120459
0.00887638
0.117976
-0.00436991
0.116748
-0.0190318
0.116134
-0.0327123
0.115932
-0.043866
0.116232
-0.0516211
0.11696
-0.05585
0.118633
-0.0567269
0.121078
-0.0549339
0.125948
-0.0513112
0.132111
-0.0453362
0.14174
-0.0395033
0.152945
-0.0286078
0.166672
-0.0239709
-0.0074052
0.471341
0.0783441
-0.496821
0.442326
0.070908
0.414489
0.0631215
0.389421
0.0538281
0.366438
0.0427451
0.345489
0.0298253
0.32554
0.0155794
0.305312
0.00119638
0.285555
-0.0129554
0.266396
-0.0247075
0.248344
-0.0335682
0.231576
-0.0390824
0.216934
-0.0420853
0.204785
-0.0427843
0.196321
-0.0428473
0.191028
-0.0400433
0.190027
-0.038502
0.192501
-0.0310823
0.197915
-0.0293849
-0.0170185
0.554486
0.0934165
-0.569559
0.538275
0.0871196
0.521734
0.0796618
0.504589
0.0709732
0.486429
0.0609052
0.466824
0.049431
0.445695
0.0367076
0.423293
0.0235984
0.399285
0.0110531
0.374394
0.000183727
0.350011
-0.00918563
0.326741
-0.0158121
0.305625
-0.0209699
0.286779
-0.0239381
0.270785
-0.0268536
0.257484
-0.0267417
0.247469
-0.0284869
0.241316
-0.0249297
0.23797
-0.0260389
-0.0187567
0.590034
0.100767
-0.597384
0.581437
0.0957163
0.571498
0.0896008
0.560018
0.0824526
0.546689
0.0742349
0.531223
0.064897
0.51338
0.0545506
0.493139
0.0438389
0.470903
0.0332888
0.4475
0.0235871
0.423451
0.0148634
0.399727
0.00791214
0.377132
0.00162465
0.355903
-0.00270897
0.336494
-0.00744472
0.319021
-0.00926836
0.303426
-0.0128918
0.291003
-0.0125072
0.280398
-0.0154335
-0.0133917
0.595235
0.105398
-0.599866
0.58991
0.101041
0.583312
0.0961987
0.575258
0.0905069
0.565537
0.0839561
0.553868
0.0765658
0.53998
0.0684384
0.523887
0.0599324
0.50581
0.0513656
0.486107
0.0432901
0.465406
0.035564
0.444255
0.0290634
0.423071
0.0228088
0.402304
0.0180582
0.382271
0.0125879
0.363632
0.00937085
0.346028
0.00471226
0.330958
0.00256249
0.316694
-0.00116943
-0.00358097
0.589431
0.1085
-0.592533
0.585446
0.105025
0.580488
0.101157
0.574309
0.0966865
0.566655
0.0916096
0.557301
0.0859202
0.546064
0.0796756
0.532893
0.0731031
0.517885
0.0663737
0.501301
0.0598744
0.483522
0.0533422
0.464983
0.0476024
0.446045
0.0417467
0.427231
0.0368722
0.408724
0.0310957
0.39131
0.0267842
0.374314
0.0217083
0.359194
0.0176832
0.344106
0.0139187
0.00830674
0.575806
0.111059
-0.578365
0.572576
0.108255
0.56859
0.105142
0.563683
0.101594
0.557634
0.0976577
0.550274
0.0932802
0.54146
0.0884905
0.53115
0.0834129
0.519362
0.0781613
0.506272
0.0729645
0.492027
0.067587
0.47696
0.0626694
0.461166
0.0575408
0.44508
0.0529583
0.428542
0.0476333
0.412378
0.0429489
0.395923
0.0381628
0.380769
0.0328378
0.365352
0.0293354
0.0211075
0.564774
0.114027
-0.567741
0.561255
0.111774
0.55716
0.109237
0.552329
0.106425
0.546592
0.103395
0.539829
0.100043
0.531894
0.0964263
0.522742
0.0925647
0.512334
0.0885692
0.500812
0.0844869
0.488197
0.0802014
0.474807
0.0760596
0.460659
0.0716889
0.446311
0.0673066
0.431582
0.0623618
0.417338
0.0571933
0.402813
0.0526877
0.389325
0.046325
0.375456
0.0432045
0.033451
0.551062
0.117673
-0.554708
0.547163
0.115673
0.542809
0.113592
0.537982
0.111252
0.532571
0.108806
0.526495
0.106119
0.519622
0.103299
0.51193
0.100257
0.503335
0.0971644
0.493959
0.0938629
0.483727
0.0904325
0.472905
0.0868819
0.461348
0.0832459
0.449476
0.0791783
0.436848
0.0749904
0.424121
0.0699202
0.410609
0.0661996
0.397611
0.0593231
0.384164
0.0566517
0.0453786
0.544396
0.122421
-0.549145
0.539279
0.12079
0.533864
0.119006
0.528054
0.117062
0.521767
0.115093
0.514975
0.112911
0.50758
0.110695
0.499583
0.108253
0.490897
0.105851
0.481633
0.103127
0.47165
0.100415
0.461195
0.097337
0.450117
0.0943242
0.438902
0.0903925
0.427195
0.086698
0.415692
0.081423
0.403852
0.0780401
0.392677
0.0704976
0.381384
0.067945
0.0560032
0.533764
0.128002
-0.539345
0.528069
0.126485
0.522114
0.124962
0.515957
0.123218
0.50957
0.121481
0.502939
0.119541
0.495974
0.11766
0.488685
0.115542
0.48098
0.113556
0.472949
0.111159
0.464422
0.108942
0.455611
0.106148
0.446286
0.103649
0.436774
0.099904
0.426554
0.0969185
0.416148
0.0918282
0.405037
0.0891515
0.394202
0.0813324
0.383089
0.0790579
0.0661453
0.531382
0.134715
-0.538095
0.524326
0.133541
0.517087
0.132201
0.509603
0.130702
0.501856
0.129229
0.493871
0.127526
0.485602
0.125929
0.47709
0.124054
0.468266
0.12238
0.459224
0.120201
0.449819
0.118347
0.440275
0.115692
0.430392
0.113532
0.420502
0.109795
0.410234
0.107186
0.400184
0.101879
0.3901
0.0992347
0.380736
0.0906968
0.371658
0.0881356
0.0748606
0.52333
0.142061
-0.530676
0.515903
0.140968
0.508262
0.139843
0.500514
0.13845
0.492682
0.137061
0.484784
0.135423
0.476788
0.133925
0.468728
0.132114
0.460532
0.130575
0.452236
0.128497
0.443691
0.126892
0.435069
0.124315
0.426166
0.122435
0.417243
0.118718
0.407891
0.116538
0.398647
0.111123
0.389096
0.108786
0.379947
0.0998452
0.37062
0.0974625
0.0835025
0.523837
0.150453
-0.532229
0.515045
0.14976
0.506053
0.148835
0.496819
0.147684
0.487365
0.146515
0.477728
0.14506
0.467925
0.143728
0.458035
0.142004
0.448055
0.140555
0.438072
0.13848
0.427996
0.136968
0.417988
0.134322
0.407853
0.132571
0.397818
0.128752
0.387678
0.126678
0.377985
0.120815
0.36866
0.118112
0.36025
0.108255
0.352401
0.105312
0.0908275
0.517312
0.159165
-0.526023
0.508462
0.158609
0.499341
0.157955
0.490088
0.156937
0.480764
0.155838
0.471396
0.154428
0.461975
0.153149
0.45251
0.151469
0.442967
0.150098
0.433397
0.148051
0.423778
0.146587
0.414231
0.143869
0.404637
0.142165
0.395206
0.138182
0.385756
0.136128
0.376838
0.129734
0.367993
0.126957
0.35983
0.116418
0.351437
0.113704
0.0986446
0.519549
0.168905
-0.52929
0.509293
0.168866
0.498741
0.168507
0.487837
0.167842
0.47664
0.167035
0.465244
0.165824
0.453756
0.164637
0.442234
0.162991
0.430698
0.161634
0.419184
0.159566
0.407681
0.15809
0.396285
0.155264
0.38491
0.15354
0.373802
0.149291
0.362892
0.147038
0.35265
0.139976
0.342976
0.136631
0.334292
0.125102
0.326249
0.121747
0.105307
0.51427
0.178745
-0.52411
0.504259
0.178877
0.493913
0.178852
0.483329
0.178426
0.472523
0.177841
0.46149
0.176857
0.45029
0.175837
0.438988
0.174293