/*--------------------------------*- C++ -*----------------------------------*\
| =========                 |                                                 |
| \\      /  F ield         | OpenFOAM: The Open Source CFD Toolbox           |
|  \\    /   O peration     | Version:  v1806                                 |
|   \\  /    A nd           | Web:      www.OpenFOAM.com                      |
|    \\/     M anipulation  |                                                 |
\*---------------------------------------------------------------------------*/
FoamFile
{
    version     2.0;
    format      ascii;
    class       surfaceScalarField;
    location    "390";
    object      phi;
}
// * * * * * * * * * * * * * * * * * * * * * * * * * * * * * * * * * * * * * //

dimensions      [0 3 -1 0 0 0 0];
oriented        oriented;


internalField   nonuniform List<scalar> 
8600
(
0.086525
-0.0667612
-0.079214
0.0594502
0.0771921
-0.0735955
0.0829284
0.0631185
-0.0757009
0.0897746
0.0511371
-0.0777685
0.0897499
0.0424516
-0.0799583
0.0886437
0.0362441
-0.0818898
0.0880973
0.0316648
-0.0833456
0.0879249
0.0282272
-0.0843702
0.0878077
0.025652
-0.0850794
0.0876547
0.0237355
-0.0855633
0.0874798
0.0223068
-0.0858764
0.0873051
0.0212264
-0.0860569
0.0871373
0.0203902
-0.0861376
0.0869737
0.0197294
-0.086147
0.0868079
0.0192019
-0.0861065
0.086634
0.0187835
-0.0860301
0.0864485
0.0184594
-0.0859258
0.0862499
0.0182205
-0.0857981
0.086037
0.01806
-0.0856489
0.0858095
-0.0854915
0.085587
0.0285111
-0.0632594
-0.032013
0.0235004
-0.0685848
0.0214352
-0.0736358
0.0217781
-0.0781114
0.0225592
-0.0807394
0.0229678
-0.0822984
0.0229405
-0.0833182
0.0226209
-0.0840506
0.0221235
-0.084582
0.0215191
-0.0849588
0.0208656
-0.085223
0.0202164
-0.0854077
0.0196132
-0.0855344
0.019081
-0.0856148
0.01863
-0.0856555
0.0182616
-0.0856617
0.0179736
-0.0856378
0.0177626
-0.0855871
0.0176246
-0.0855109
-0.0854148
0.0292012
-0.0686642
-0.0237964
0.0329839
-0.0723674
0.0345165
-0.0751684
0.0333395
-0.0769344
0.031018
-0.0784179
0.0284945
-0.0797749
0.0261792
-0.081003
0.0241892
-0.0820606
0.02254
-0.0829328
0.0212129
-0.0836318
0.0201686
-0.0841786
0.0193552
-0.0845943
0.0187203
-0.0848995
0.0182203
-0.0851148
0.0178243
-0.0852595
0.0175127
-0.0853501
0.0172744
-0.0853995
0.0171032
-0.0854159
0.016995
-0.0854026
-0.0853606
0.0155596
-0.0712119
-0.0130119
0.0162413
-0.0730491
0.0160282
-0.0749553
0.0160359
-0.0769422
0.0164712
-0.0788531
0.0170786
-0.0803823
0.017583
-0.0815074
0.0178975
-0.0823751
0.0180232
-0.0830585
0.0179905
-0.0835991
0.0178379
-0.084026
0.017607
-0.0843634
0.0173382
-0.0846307
0.0170651
-0.0848417
0.016812
-0.0850064
0.0165939
-0.085132
0.016419
-0.0852246
0.0162915
-0.0852885
0.016213
-0.0853241
-0.0853265
0.0135274
-0.0745068
-0.0102325
0.0162919
-0.0758136
0.0184663
-0.0771296
0.0197937
-0.0782696
0.0201606
-0.07922
0.0198992
-0.0801209
0.019355
-0.0809632
0.0187124
-0.0817324
0.018072
-0.0824181
0.0174875
-0.0830146
0.0169838
-0.0835223
0.0165659
-0.0839455
0.0162267
-0.0842915
0.0159542
-0.0845692
0.0157369
-0.0847891
0.0155663
-0.0849614
0.0154374
-0.0850957
0.0153479
-0.085199
0.0152968
-0.0852731
-0.0853099
0.00912399
-0.0763108
-0.00732006
0.0103699
-0.0770596
0.0111441
-0.0779037
0.0117049
-0.0788305
0.0122728
-0.0797879
0.0128604
-0.0807085
0.0134176
-0.0815204
0.0138833
-0.0821981
0.0142326
-0.0827673
0.0144646
-0.0832467
0.0145926
-0.0836502
0.0146365
-0.0839894
0.0146199
-0.0842748
0.0145658
-0.0845152
0.0144945
-0.0847177
0.0144216
-0.0848885
0.0143582
-0.0850323
0.0143121
-0.0851528
0.0142878
-0.0852488
-0.0853082
0.00762024
-0.0783046
-0.00562643
0.00943233
-0.0788717
0.0110102
-0.0794816
0.0122715
-0.0800918
0.0131503
-0.0806667
0.0136503
-0.0812086
0.01387
-0.08174
0.0139199
-0.082248
0.0138742
-0.0827217
0.0137818
-0.0831543
0.0136736
-0.0835421
0.0135682
-0.083884
0.0134745
-0.0841811
0.0133955
-0.0844362
0.0133313
-0.0846535
0.0132811
-0.0848383
0.0132446
-0.0849958
0.0132222
-0.0851304
0.0132151
-0.0852417
-0.0853164
0.00588158
-0.079546
-0.00464016
0.00690603
-0.0798961
0.00774125
-0.0803168
0.00843368
-0.0807842
0.0090516
-0.0812847
0.00963498
-0.081792
0.0101746
-0.0822797
0.0106524
-0.0827258
0.0110546
-0.0831239
0.0113769
-0.0834765
0.0116224
-0.0837876
0.0117995
-0.0840611
0.0119199
-0.0843014
0.0119964
-0.0845127
0.0120418
-0.0846989
0.0120673
-0.0848638
0.0120819
-0.0850105
0.0120926
-0.0851411
0.0121045
-0.0852537
-0.0853333
0.00481532
-0.0808364
-0.00352487
0.00603635
-0.0811171
0.00714049
-0.081421
0.00810188
-0.0817456
0.00889086
-0.0820736
0.0094957
-0.0823968
0.00993172
-0.0827157
0.0102364
-0.0830305
0.0104468
-0.0833344
0.0105922
-0.0836219
0.0106941
-0.0838894
0.0107675
-0.0841345
0.0108224
-0.0843564
0.0108652
-0.0845554
0.0108993
-0.084733
0.010927
-0.0848915
0.0109499
-0.0850334
0.0109696
-0.0851608
0.0109882
-0.0852722
-0.0853533
0.00398238
-0.0817221
-0.0030967
0.00476428
-0.081899
0.00546293
-0.0821196
0.00608433
-0.082367
0.00664564
-0.0826349
0.00716331
-0.0829145
0.00764132
-0.0831937
0.00807355
-0.0834627
0.00845374
-0.0837145
0.0087787
-0.0839469
0.00904883
-0.0841595
0.00926741
-0.0843531
0.00943985
-0.0845288
0.00957281
-0.0846884
0.00967333
-0.0848336
0.00974811
-0.0849663
0.009803
-0.0850883
0.00984291
-0.0852007
0.00987219
-0.0853015
-0.0853768
0.00322598
-0.0825958
-0.00235227
0.00406888
-0.0827419
0.00484849
-0.0828992
0.00555358
-0.0830721
0.00617231
-0.0832537
0.00669627
-0.0834384
0.00712653
-0.083624
0.00747334
-0.0838095
0.00775144
-0.0839926
0.00797489
-0.0841704
0.00815549
-0.0843401
0.00830253
-0.0845001
0.00842299
-0.0846493
0.00852186
-0.0847873
0.00860261
-0.0849143
0.00866769
-0.0850313
0.0087189
-0.0851395
0.00875782
-0.0852397
0.00878652
-0.0853302
-0.0853991
0.00274284
-0.083234
-0.0021047
0.00332536
-0.0833244
0.00386583
-0.0834397
0.00436385
-0.0835701
0.00482235
-0.0837122
0.00524635
-0.0838624
0.00563841
-0.084016
0.00599708
-0.0841682
0.00631961
-0.0843152
0.00660403
-0.0844548
0.0068499
-0.084586
0.00705831
-0.0847085
0.00723159
-0.0848226
0.0073729
-0.0849286
0.00748583
-0.0850273
0.00757399
-0.0851195
0.00764073
-0.0852062
0.00768904
-0.085288
0.00772199
-0.0853631
-0.0854215
0.00219575
-0.0838328
-0.00159686
0.00277881
-0.0839075
0.00332624
-0.0839871
0.00383177
-0.0840756
0.00429021
-0.0841706
0.00469698
-0.0842692
0.0050507
-0.0843698
0.00535383
-0.0844713
0.00561155
-0.0845729
0.0058299
-0.0846731
0.00601461
-0.0847707
0.00617061
-0.0848645
0.00630192
-0.0849539
0.00641167
-0.0850383
0.00650222
-0.0851178
0.00657532
-0.0851926
0.00663228
-0.0852632
0.00667426
-0.0853299
0.00670292
-0.0853918
-0.0854406
0.00186274
-0.0842818
-0.0014138
0.00228037
-0.0843251
0.00267466
-0.0843814
0.00304465
-0.0844456
0.00338988
-0.0845158
0.00371133
-0.0845906
0.00400972
-0.0846682
0.00428465
-0.0847462
0.00453486
-0.0848231
0.00475923
-0.0848975
0.00495723
-0.0849687
0.00512905
-0.0850364
0.00527555
-0.0851004
0.00539812
-0.0851609
0.00549844
-0.0852181
0.00557828
-0.0852724
0.00563936
-0.0853243
0.0056833
-0.0853739
0.00571201
-0.0854205
-0.0854581
0.00145205
-0.0846804
-0.00105342
0.00184196
-0.084715
0.00221164
-0.0847511
0.00255725
-0.0847912
0.00287622
-0.0848348
0.00316613
-0.0848806
0.00342565
-0.0849277
0.00365507
-0.0849757
0.00385604
-0.0850241
0.00403096
-0.0850724
0.00418238
-0.0851201
0.0043127
-0.0851667
0.00442399
-0.0852117
0.00451798
-0.0852549
0.004596
-0.0852961
0.0046591
-0.0853355
0.00470805
-0.0853732
0.00474354
-0.0854094
0.00476662
-0.0854436
-0.0854718
0.00118881
-0.0849736
-0.000895574
0.00146437
-0.0849906
0.00172679
-0.0850135
0.00197543
-0.0850399
0.00220942
-0.0850688
0.00242856
-0.0850997
0.00263286
-0.085132
0.00282202
-0.0851648
0.00299543
-0.0851975
0.00315241
-0.0852294
0.00329254
-0.0852603
0.00341571
-0.0852898
0.00352215
-0.0853181
0.00361238
-0.0853451
0.00368711
-0.0853709
0.00374713
-0.0853956
0.00379325
-0.0854193
0.00382622
-0.0854423
0.00384703
-0.0854644
-0.0854831
0.000863134
-0.0852124
-0.000624393
0.00109733
-0.0852248
0.00132075
-0.0852369
0.00153116
-0.0852503
0.00172722
-0.0852648
0.00190768
-0.0852802
0.00207164
-0.0852959
0.00221888
-0.0853121
0.00234983
-0.0853284
0.00246536
-0.0853449
0.00256655
-0.0853614
0.00265448
-0.0853778
0.00273014
-0.0853938
0.00279438
-0.0854093
0.00284789
-0.0854244
0.00289121
-0.0854389
0.00292474
-0.0854529
0.00294879
-0.0854664
0.00296386
-0.0854795
-0.0854908
0.000630955
-0.0853687
-0.000474643
0.000778245
-0.0853721
0.000919369
-0.0853781
0.00105398
-0.0853849
0.00118139
-0.0853922
0.00130127
-0.0854
0.00141349
-0.0854082
0.00151784
-0.0854164
0.001614
-0.0854246
0.00170159
-0.0854325
0.00178033
-0.0854402
0.00185005
-0.0854475
0.00191075
-0.0854545
0.00196255
-0.0854611
0.00200571
-0.0854675
0.00204053
-0.0854737
0.00206733
-0.0854797
0.0020864
-0.0854855
0.00209809
-0.0854912
-0.0854963
0.000351434
-0.0854694
-0.000250746
0.000451807
-0.0854725
0.00054767
-0.0854739
0.000637885
-0.0854751
0.000721971
-0.0854763
0.000799456
-0.0854775
0.00086996
-0.0854787
0.000933348
-0.0854798
0.000989762
-0.085481
0.00103955
-0.0854823
0.00108316
-0.0854838
0.00112107
-0.0854854
0.00115371
-0.0854871
0.00118146
-0.0854889
0.0012046
-0.0854907
0.00122334
-0.0854924
0.00123785
-0.0854942
0.00124823
-0.0854959
0.00125458
-0.0854975
-0.0854991
0.000129009
-9.8392e-05
0.000156538
0.000182621
0.000207511
0.000231176
0.000253645
0.00027498
0.000295189
0.000314201
0.000331887
0.000348095
0.000362689
0.000375567
0.000386673
0.000395993
0.000403547
0.000409376
0.000413525
0.000416018
-0.0512803
-0.00800747
0.0592877
-0.0437751
-0.00750516
-0.0366245
-0.0071506
-0.029745
-0.00687953
-0.0230788
-0.00666621
-0.0165792
-0.00649957
-0.0102049
-0.00637434
-0.003917
-0.00628786
0.00232171
-0.00623871
0.00854802
-0.00622631
0.0147987
-0.00625066
0.021111
-0.0063123
0.0275232
-0.00641225
0.0340753
-0.00655209
0.0408095
-0.00673416
0.0477714
-0.00696194
0.0550125
-0.00724112
0.062595
-0.00758244
0.0706049
-0.00800992
-0.00860906
-0.017044
-0.00989761
0.0189341
-0.0148135
-0.00973562
-0.0123807
-0.00958338
-0.00981322
-0.00944706
-0.00714944
-0.00932999
-0.00441494
-0.00923407
-0.00162898
-0.0091603
0.00119229
-0.00910912
0.00403434
-0.00908076
0.00688337
-0.00907534
0.00972575
-0.00909305
0.0125476
-0.00913419
0.0153346
-0.0091992
0.0180712
-0.00928872
0.0207407
-0.0094036
0.0233236
-0.0095449
0.0257962
-0.00971374
0.0281251
-0.00991127
0.030254
-0.0101389
-0.010368
-0.0090696
-0.011252
0.010424
-0.00761161
-0.0111936
-0.0060506
-0.0111444
-0.00439351
-0.0111041
-0.00265094
-0.0110726
-0.00083559
-0.0110494
0.00103875
-0.0110346
0.00295782
-0.0110282
0.00490713
-0.0110301
0.00687207
-0.0110403
0.00883782
-0.0110588
0.0107891
-0.0110855
0.0127102
-0.0111202
0.0145842
-0.0111627
0.0163933
-0.0112127
0.0181182
-0.0112698
0.0197384
-0.0113339
0.0212322
-0.011405
0.0225769
-0.0114837
-0.0115875
-0.00462314
-0.0121182
0.00548934
-0.00372593
-0.0120908
-0.00280424
-0.0120661
-0.00186377
-0.0120446
-0.000909351
-0.012027
5.49128e-05
-0.0120137
0.00102546
-0.0120052
0.0019991
-0.0120018
0.00297292
-0.0120039
0.00394419
-0.0120116
0.00491039
-0.012025
0.00586914
-0.0120443
0.0068183
-0.0120694
0.00775591
-0.0121003
0.00868023
-0.012137
0.00958967
-0.0121793
0.0104826
-0.0122269
0.0113571
-0.0122795
0.0122104
-0.0123369
-0.012389
-0.00223331
-0.0127529
0.00286806
-0.00158412
-0.01274
-0.000920601
-0.0127296
-0.000243519
-0.0127217
0.000445755
-0.0127162
0.00114528
-0.0127132
0.00185265
-0.0127126
0.00256503
-0.0127142
0.00327926
-0.0127181
0.00399193
-0.0127242
0.00469942
-0.0127325
0.00539796
-0.0127428
0.00608372
-0.0127552
0.00675283
-0.0127695
0.00740146
-0.0127857
0.00802588
-0.0128037
0.0086226
-0.0128236
0.00918845
-0.0128454
0.00972051
-0.012869
-0.012901
-0.00196744
-0.0132242
0.00243869
-0.00148899
-0.0132185
-0.00100469
-0.0132139
-0.000515832
-0.0132106
-2.35423e-05
-0.0132085
0.000471167
-0.0132079
0.000967417
-0.0132088
0.00146446
-0.0132112
0.00196164
-0.0132153
0.00245844
-0.013221
0.0029544
-0.0132284
0.00344917
-0.0132376
0.00394242
-0.0132484
0.00443391
-0.0132609
0.0049234
-0.0132751
0.00541067
-0.013291
0.00589541
-0.0133083
0.00637724
-0.0133272
0.0068557
-0.0133475
-0.0133653
-0.000843695
-0.013579
0.00119855
-0.000487052
-0.0135751
-0.000128812
-0.0135721
0.000230736
-0.0135701
0.0005912
-0.013569
0.000952086
-0.0135688
0.00131281
-0.0135695
0.00167268
-0.0135711
0.00203095
-0.0135736
0.00238681
-0.0135769
0.00273938
-0.013581
0.00308776
-0.013586
0.00343104
-0.0135917
0.00376831
-0.0135982
0.00409866
-0.0136055
0.00442126
-0.0136136
0.00473533
-0.0136224
0.0050402
-0.0136321
0.00533525
-0.0136425
-0.0136565
-0.00109302
-0.0138729
0.0013869
-0.000796508
-0.0138716
-0.00049779
-0.0138709
-0.000197253
-0.0138706
0.00010474
-0.013871
0.000407858
-0.0138719
0.0007118
-0.0138735
0.0010163
-0.0138756
0.00132112
-0.0138784
0.00162606
-0.0138818
0.00193093
-0.0138859
0.00223557
-0.0138906
0.00253982
-0.0138959
0.00284354
-0.0139019
0.00314657
-0.0139085
0.00344876
-0.0139158
0.00374991
-0.0139236
0.00404976
-0.0139319
0.00434806
-0.0139408
-0.0139486
-0.000495866
-0.0140964
0.000719359
-0.000272504
-0.014095
-4.93796e-05
-0.014094
0.000173382
-0.0140934
0.000395635
-0.0140932
0.00061721
-0.0140935
0.000837918
-0.0140942
0.00105755
-0.0140953
0.00127588
-0.0140967
0.00149267
-0.0140986
0.00170766
-0.0141009
0.0019206
-0.0141035
0.00213124
-0.0141066
0.00233932
-0.01411
0.00254459
-0.0141138
0.00274684
-0.014118
0.00294585
-0.0141226
0.00314147
-0.0141275
0.00333356
-0.0141329
-0.0141399
-0.00070805
-0.0142933
0.000904964
-0.000509982
-0.014293
-0.000310919
-0.014293
-0.000111015
-0.0142933
8.95804e-05
-0.0142938
0.000290727
-0.0142947
0.000492291
-0.0142957
0.000694148
-0.0142971
0.000896178
-0.0142988
0.00109827
-0.0143007
0.00130032
-0.0143029
0.00150222
-0.0143054
0.00170387
-0.0143082
0.00190516
-0.0143113
0.00210599
-0.0143146
0.00230625
-0.0143183
0.0025058
-0.0143221
0.0027045
-0.0143262
0.0029022
-0.0143306
-0.0143344
-0.000371269
-0.0144439
0.00052186
-0.000220987
-0.0144433
-7.10702e-05
-0.014443
7.84216e-05
-0.0144428
0.000227424
-0.0144428
0.000375866
-0.0144431
0.000523675
-0.0144435
0.000670773
-0.0144442
0.000817077
-0.0144451
0.000962503
-0.0144461
0.00110697
-0.0144474
0.00125038
-0.0144488
0.00139266
-0.0144505
0.00153372
-0.0144524
0.00167349
-0.0144544
0.0018119
-0.0144567
0.00194888
-0.0144591
0.00208441
-0.0144618
0.00221842
-0.0144646
-0.0144683
-0.000493584
-0.0145794
0.000629106
-0.000357513
-0.0145794
-0.000220966
-0.0145795
-8.40183e-05
-0.0145797
5.3259e-05
-0.0145801
0.000190795
-0.0145806
0.000328519
-0.0145813
0.000466365
-0.0145821
0.000604266
-0.014583
0.000742156
-0.014584
0.000879971
-0.0145852
0.00101765
-0.0145865
0.00115512
-0.014588
0.00129232
-0.0145896
0.00142918
-0.0145913
0.00156563
-0.0145931
0.00170159
-0.0145951
0.00183698
-0.0145971
0.00197171
-0.0145993
-0.0146013
-0.000291715
-0.014683
0.000395267
-0.000188389
-0.0146827
-8.53186e-05
-0.0146826
1.74643e-05
-0.0146825
0.000119928
-0.0146826
0.000222039
-0.0146827
0.000323765
-0.014683
0.000425071
-0.0146834
0.000525922
-0.0146838
0.000626284
-0.0146844
0.000726123
-0.014685
0.000825403
-0.0146858
0.000924094
-0.0146867
0.00102216
-0.0146876
0.00111958
-0.0146887
0.00121632
-0.0146899
0.00131237
-0.0146911
0.0014077
-0.0146925
0.0015023
-0.0146939
-0.0146958
-0.000347017
-0.0147753
0.000439337
-0.000254424
-0.0147753
-0.000161597
-0.0147754
-6.85753e-05
-0.0147756
2.46022e-05
-0.0147758
0.000117897
-0.014776
0.000211269
-0.0147764
0.000304682
-0.0147768
0.000398095
-0.0147772
0.000491471
-0.0147778
0.000584771
-0.0147783
0.000677955
-0.014779
0.000770985
-0.0147797
0.00086382
-0.0147805
0.000956419
-0.0147813
0.00104874
-0.0147822
0.00114074
-0.0147831
0.00123236
-0.0147841
0.00132357
-0.0147852
-0.0147861
-0.000216624
-0.0148445
0.000285795
-0.00014759
-0.0148444
-7.87111e-05
-0.0148443
-1.0003e-05
-0.0148443
5.85171e-05
-0.0148443
0.000126833
-0.0148444
0.000194927
-0.0148445
0.000262782
-0.0148446
0.000330384
-0.0148448
0.000397714
-0.0148451
0.000464759
-0.0148454
0.000531501
-0.0148457
0.000597928
-0.0148461
0.000664024
-0.0148466
0.000729778
-0.014847
0.000795176
-0.0148476
0.000860211
-0.0148481
0.000924874
-0.0148488
0.000989159
-0.0148494
-0.0148503
-0.000229952
-0.0149036
0.000289121
-0.000170644
-0.0149037
-0.000111217
-0.0149037
-5.16939e-05
-0.0149038
7.90493e-06
-0.0149039
6.75577e-05
-0.014904
0.000127243
-0.0149042
0.000186938
-0.0149043
0.000246622
-0.0149045
0.000306273
-0.0149047
0.000365867
-0.014905
0.000425383
-0.0149052
0.000484798
-0.0149055
0.000544089
-0.0149058
0.000603231
-0.0149062
0.000662201
-0.0149065
0.000720975
-0.0149069
0.000779523
-0.0149073
0.000837822
-0.0149077
-0.0149081
-0.000138078
-0.014945
0.000179435
-9.68003e-05
-0.0149449
-5.56089e-05
-0.0149449
-1.45127e-05
-0.0149449
2.64802e-05
-0.0149449
6.73617e-05
-0.0149449
0.000108124
-0.0149449
0.00014876
-0.014945
0.000189261
-0.014945
0.000229622
-0.0149451
0.000269834
-0.0149452
0.000309892
-0.0149453
0.00034979
-0.0149454
0.000389522
-0.0149456
0.000429083
-0.0149457
0.000468469
-0.0149459
0.000507675
-0.0149461
0.000546701
-0.0149463
0.000585544
-0.0149466
-0.0149469
-0.000126667
-0.0149766
0.000158251
-9.50115e-05
-0.0149766
-6.32944e-05
-0.0149766
-3.15262e-05
-0.0149766
2.82669e-07
-0.0149767
3.21215e-05
-0.0149767
6.39796e-05
-0.0149768
9.58462e-05
-0.0149768
0.00012771
-0.0149769
0.000159561
-0.0149769
0.000191386
-0.014977
0.000223176
-0.0149771
0.000254919
-0.0149772
0.000286602
-0.0149773
0.000318216
-0.0149774
0.000349746
-0.0149775
0.000381182
-0.0149776
0.00041251
-0.0149777
0.000443718
-0.0149778
-0.0149778
-5.58977e-05
-0.0149933
7.26502e-05
-3.91928e-05
-0.0149933
-2.25381e-05
-0.0149933
-5.93667e-06
-0.0149933
1.06088e-05
-0.0149932
2.70959e-05
-0.0149932
4.35219e-05
-0.0149932
5.98846e-05
-0.0149932
7.61817e-05
-0.0149932
9.24113e-05
-0.0149932
0.000108571
-0.0149932
0.00012466
-0.0149932
0.000140676
-0.0149932
0.000156617
-0.0149932
0.000172483
-0.0149932
0.000188271
-0.0149932
0.000203981
-0.0149933
0.000219612
-0.0149933
0.00023516
-0.0149933
-0.0149934
-3.00436e-05
3.67091e-05
-2.33456e-05
-1.6621e-05
-9.87153e-06
-3.10063e-06
3.68825e-06
1.04915e-05
1.73055e-05
2.41263e-05
3.09501e-05
3.77727e-05
4.45902e-05
5.13982e-05
5.81927e-05
6.49693e-05
7.17241e-05
7.84532e-05
8.51525e-05
9.1819e-05
-0.0439774
-0.0123216
0.0136916
0.0426074
-0.0454797
-0.0122516
0.0137539
-0.0471509
-0.0121705
0.0138417
-0.0489895
-0.0120945
0.0139331
-0.0509868
-0.0120241
0.0140213
-0.0531253
-0.0119594
0.0140978
-0.0553772
-0.0118998
0.0141517
-0.0577039
-0.0118433
0.01417
-0.0600544
-0.0117868
0.0141373
-0.0623654
-0.0117255
0.0140364
-0.0645604
-0.011653
0.013848
-0.0665504
-0.0115612
0.0135511
-0.0682336
-0.01144
0.0131232
-0.0694958
-0.0112776
0.0125398
-0.0702094
-0.0110607
0.0117743
-0.0702305
-0.0107747
0.0107958
-0.0693923
-0.0104047
0.0095665
-0.0674929
-0.00993544
0.00803603
-0.0642711
-0.0093505
0.00612872
-0.00863476
0.00365144
-0.0195914
-0.0125584
0.0198282
-0.0193882
-0.0124548
-0.0192124
-0.0123463
-0.0190777
-0.0122292
-0.0189971
-0.0121046
-0.0189829
-0.0119736
-0.0190449
-0.0118378
-0.0191893
-0.0116989
-0.0194173
-0.0115588
-0.0197236
-0.0114192
-0.0200947
-0.0112818
-0.0205082
-0.0111477
-0.020931
-0.0110171
-0.0213191
-0.0108895
-0.0216165
-0.0107633
-0.0217551
-0.0106361
-0.021655
-0.0105048
-0.0212246
-0.0103659
-0.0203582
-0.0102169
-0.0100588
-0.0251858
-0.0127415
0.0253689
-0.0249456
-0.012695
-0.0246474
-0.0126445
-0.0242852
-0.0125913
-0.0238546
-0.0125353
-0.0233524
-0.0124758
-0.0227778
-0.0124124
-0.0221319
-0.0123448
-0.021418
-0.0122727
-0.0206414
-0.0121958
-0.019809
-0.0121142
-0.0189284
-0.0120284
-0.0180067
-0.0119388
-0.0170496
-0.0118465
-0.0160602
-0.0117527
-0.0150374
-0.0116589
-0.0139753
-0.0115668
-0.0128629
-0.0114783
-0.0116845
-0.0113952
-0.0113194
-0.0132162
-0.0129126
0.0133873
-0.0130487
-0.0128625
-0.0128813
-0.0128119
-0.0127105
-0.0127621
-0.0125324
-0.0127134
-0.0123422
-0.012666
-0.0121346
-0.0126201
-0.0119036
-0.0125758
-0.011643
-0.0125333
-0.0113464
-0.0124925
-0.0110073
-0.0124533
-0.01062
-0.0124156
-0.0101796
-0.0123793
-0.00968213
-0.012344
-0.00912525
-0.0123096
-0.0085083
-0.0122759
-0.00783241
-0.0122427
-0.00710056
-0.0122102
-0.00631748
-0.0121783
-0.0121475
-0.0129338
-0.0132941
0.0133153
-0.0125304
-0.013266
-0.0121044
-0.0132378
-0.0116574
-0.0132091
-0.0111911
-0.0131797
-0.0107073
-0.0131498
-0.0102079
-0.0131194
-0.00969507
-0.0130886
-0.00917068
-0.0130577
-0.00863649
-0.0130266
-0.008094
-0.0129958
-0.0075443
-0.0129653
-0.00698804
-0.0129355
-0.00642535
-0.0129067
-0.00585586
-0.0128791
-0.00527874
-0.012853
-0.00469282
-0.0128287
-0.00409668
-0.0128063
-0.00348886
-0.0127861
-0.0127683
-0.00884546
-0.013511
0.00906234
-0.00862127
-0.0134901
-0.0083902
-0.0134689
-0.00815084
-0.0134484
-0.00790178
-0.0134288
-0.00764162
-0.01341
-0.00736904
-0.013392
-0.00708281
-0.0133749
-0.00678188
-0.0133586
-0.00646536
-0.0133432
-0.00613263
-0.0133285
-0.00578329
-0.0133147
-0.00541725
-0.0133016
-0.00503473
-0.0132892
-0.00463622
-0.0132776
-0.0042225
-0.0132667
-0.0037946
-0.0132566
-0.00335374
-0.0132472
-0.00290128
-0.0132386
-0.0132309
-0.00750999
-0.0138009
0.0077999
-0.00721409
-0.013786
-0.00691102
-0.013772
-0.00660151
-0.013758
-0.00628624
-0.0137441
-0.00596592
-0.0137303
-0.00564123
-0.0137167
-0.00531278
-0.0137033
-0.00498113
-0.0136902
-0.00464678
-0.0136775
-0.00431009
-0.0136652
-0.00397138
-0.0136534
-0.00363085
-0.0136421
-0.00328861
-0.0136315
-0.00294469
-0.0136215
-0.00259909
-0.0136123
-0.00225174
-0.0136039
-0.00190257
-0.0135963
-0.00155152
-0.0135897
-0.0135839
-0.00605311
-0.0139933
0.00624548
-0.00585537
-0.0139838
-0.00565328
-0.0139741
-0.00544651
-0.0139647
-0.00523473
-0.0139558
-0.00501766
-0.0139474
-0.00479502
-0.0139393
-0.00456661
-0.0139317
-0.00433228
-0.0139246
-0.00409194
-0.0139179
-0.00384557
-0.0139116
-0.00359323
-0.0139057
-0.00333504
-0.0139003
-0.00307118
-0.0138953
-0.00280193
-0.0138908
-0.00252758
-0.0138867
-0.0022485
-0.013883
-0.00196508
-0.0138798
-0.00167773
-0.013877
-0.0138747
-0.00487482
-0.014198
0.00507948
-0.00466844
-0.0141902
-0.00445948
-0.014183
-0.00424821
-0.014176
-0.00403488
-0.0141692
-0.00381975
-0.0141625
-0.00360305
-0.014156
-0.00338501
-0.0141498
-0.00316585
-0.0141437
-0.00294575
-0.014138
-0.00272488
-0.0141324
-0.00250337
-0.0141272
-0.00228134
-0.0141223
-0.0020589
-0.0141178
-0.00183612
-0.0141136
-0.00161307
-0.0141097
-0.00138981
-0.0141062
-0.0011664
-0.0141032
-0.000942894
-0.0141005
-0.0140982
-0.00425497
-0.0143491
0.00440612
-0.00410069
-0.0143445
-0.00394404
-0.0143397
-0.00378493
-0.0143351
-0.00362333
-0.0143308
-0.00345916
-0.0143267
-0.00329241
-0.0143228
-0.00312304
-0.0143191
-0.00295105
-0.0143157
-0.00277647
-0.0143125
-0.00259932
-0.0143096
-0.00241967
-0.0143069
-0.00223759
-0.0143044
-0.00205318
-0.0143022
-0.00186654
-0.0143002
-0.00167782
-0.0142984
-0.00148715
-0.0142969
-0.00129468
-0.0142956
-0.00110056
-0.0142946
-0.0142938
-0.00336785
-0.0144934
0.00351218
-0.00322295
-0.0144893
-0.00307698
-0.0144856
-0.00293003
-0.0144821
-0.00278222
-0.0144786
-0.00263365
-0.0144752
-0.00248443
-0.014472
-0.00233465
-0.0144689
-0.00218441
-0.014466
-0.0020338
-0.0144632
-0.00188289
-0.0144605
-0.00173177
-0.014458
-0.00158048
-0.0144557
-0.00142911
-0.0144536
-0.0012777
-0.0144516
-0.00112631
-0.0144498
-0.000974979
-0.0144482
-0.000823764
-0.0144469
-0.000672708
-0.0144457
-0.0144447
-0.00301707
-0.0146063
0.0031299
-0.00290247
-0.014604
-0.00278655
-0.0146016
-0.00266932
-0.0145993
-0.00255077
-0.0145971
-0.0024309
-0.0145951
-0.00230973
-0.0145932
-0.00218725
-0.0145914
-0.00206349
-0.0145897
-0.00193848
-0.0145882
-0.00181224
-0.0145867
-0.00168482
-0.0145854
-0.00155625
-0.0145843
-0.00142659
-0.0145832
-0.00129589
-0.0145823
-0.00116422
-0.0145815
-0.00103163
-0.0145808
-0.000898202
-0.0145803
-0.000764003
-0.0145799
-0.0145796
-0.00236211
-0.0147073
0.00246312
-0.00226089
-0.0147052
-0.00215913
-0.0147033
-0.00205691
-0.0147015
-0.00195428
-0.0146998
-0.00185127
-0.0146981
-0.00174795
-0.0146965
-0.00164436
-0.014695
-0.00154055
-0.0146935
-0.00143656
-0.0146922
-0.00133244
-0.0146909
-0.00122822
-0.0146897
-0.00112395
-0.0146885
-0.00101965
-0.0146875
-0.000915373
-0.0146866
-0.000811138
-0.0146857
-0.00070698
-0.014685
-0.000602929
-0.0146843
-0.000499015
-0.0146838
-0.0146833
-0.0020976
-0.0147876
0.00217795
-0.00201623
-0.0147865
-0.00193413
-0.0147854
-0.00185129
-0.0147843
-0.00176773
-0.0147833
-0.00168345
-0.0147824
-0.00159847
-0.0147815
-0.00151281
-0.0147806
-0.00142647
-0.0147799
-0.00133947
-0.0147791
-0.00125185
-0.0147785
-0.00116361
-0.0147779
-0.00107479
-0.0147774
-0.000985419
-0.0147769
-0.00089552
-0.0147765
-0.000805129
-0.0147761
-0.000714279
-0.0147758
-0.000623006
-0.0147756
-0.000531346
-0.0147754
-0.0147753
-0.00160118
-0.0148556
0.0016691
-0.00153314
-0.0148546
-0.00146484
-0.0148537
-0.00139628
-0.0148529
-0.0013275
-0.0148521
-0.00125853
-0.0148513
-0.00118939
-0.0148506
-0.00112011
-0.0148499
-0.00105071
-0.0148493
-0.000981214
-0.0148486
-0.00091165
-0.0148481
-0.000842037
-0.0148475
-0.000772396
-0.014847
-0.00070275
-0.0148465
-0.000633116
-0.0148461
-0.000563515
-0.0148457
-0.000493964
-0.0148454
-0.000424483
-0.0148451
-0.000355087
-0.0148448
-0.0148446
-0.00136277
-0.0149083
0.0014155
-0.00130947
-0.0149079
-0.00125575
-0.0149074
-0.00120163
-0.014907
-0.0011471
-0.0149066
-0.00109219
-0.0149063
-0.00103689
-0.0149059
-0.000981224
-0.0149056
-0.000925194
-0.0149053
-0.000868814
-0.014905
-0.000812098
-0.0149048
-0.000755059
-0.0149045
-0.000697714
-0.0149043
-0.000640076
-0.0149042
-0.000582164
-0.014904
-0.000523995
-0.0149039
-0.000465587
-0.0149038
-0.000406958
-0.0149037
-0.00034813
-0.0149037
-0.0149036
-0.000967114
-0.0149492
0.00100798
-0.000926213
-0.0149488
-0.000885179
-0.0149485
-0.000844024
-0.0149482
-0.000802763
-0.0149479
-0.000761408
-0.0149476
-0.000719973
-0.0149473
-0.000678471
-0.0149471
-0.000636914
-0.0149468
-0.000595315
-0.0149466
-0.000553685
-0.0149464
-0.000512037
-0.0149462
-0.000470381
-0.014946
-0.000428728
-0.0149458
-0.000387089
-0.0149457
-0.000345473
-0.0149455
-0.00030389
-0.0149454
-0.00026235
-0.0149453
-0.000220862
-0.0149452
-0.0149451
-0.000732991
-0.0149775
0.000761339
-0.000704343
-0.0149774
-0.000675486
-0.0149773
-0.000646425
-0.0149772
-0.000617165
-0.0149771
-0.000587709
-0.0149771
-0.000558063
-0.014977
-0.000528232
-0.0149769
-0.000498221
-0.0149769
-0.000468036
-0.0149768
-0.000437684
-0.0149768
-0.000407171
-0.0149767
-0.000376505
-0.0149767
-0.000345694
-0.0149766
-0.000314746
-0.0149766
-0.000283668
-0.0149766
-0.000252471
-0.0149766
-0.000221162
-0.0149766
-0.000189752
-0.0149766
-0.0149766
-0.000394934
-0.0149944
0.000411839
-0.000378053
-0.0149943
-0.00036113
-0.0149943
-0.000344173
-0.0149942
-0.000327187
-0.0149941
-0.000310179
-0.0149941
-0.000293155
-0.014994
-0.00027612
-0.014994
-0.000259081
-0.0149939
-0.000242041
-0.0149938
-0.000225007
-0.0149938
-0.000207982
-0.0149937
-0.000190972
-0.0149937
-0.000173981
-0.0149936
-0.000157013
-0.0149936
-0.000140072
-0.0149935
-0.000123161
-0.0149935
-0.000106285
-0.0149934
-8.94473e-05
-0.0149934
-0.0149934
-0.000154377
0.000159973
-0.000148688
-0.000142941
-0.000137136
-0.000131271
-0.000125347
-0.000119364
-0.000113321
-0.000107221
-0.000101064
-9.48502e-05
-8.85824e-05
-8.22617e-05
-7.58899e-05
-6.9469e-05
-6.30011e-05
-5.64885e-05
-4.99337e-05
-4.33392e-05
-0.011087
-0.00375046
0.0148374
-0.0083641
-0.00272285
-0.00631759
-0.00204651
-0.00474592
-0.00157167
-0.00352454
-0.00122138
-0.00257032
-0.000954224
-0.00182488
-0.000745439
-0.00124573
-0.000579152
-0.00080093
-0.000444799
-0.000465809
-0.000335121
-0.000220814
-0.000244995
-5.00729e-05
-0.000170741
5.96435e-05
-0.000109716
0.00011973
-6.00864e-05
0.000140588
-2.08583e-05
0.000131317
9.27127e-06
0.000100514
3.0803e-05
5.94938e-05
4.102e-05
2.06593e-05
3.88345e-05
2.06593e-05
-0.0136715
-0.00559519
0.0155163
-0.0117557
-0.00463868
-0.00992981
-0.0038724
-0.00826128
-0.00324021
-0.00677332
-0.00270933
-0.00546939
-0.00225815
-0.00434338
-0.00187146
-0.00338447
-0.00153806
-0.00257968
-0.00124959
-0.00191514
-0.000999656
-0.00137681
-0.000783332
-0.000950765
-0.000596783
-0.000623421
-0.00043706
-0.000381533
-0.000301974
-0.000212353
-0.000190038
-0.000102649
-0.000100433
-3.87408e-05
-3.31054e-05
-8.6932e-06
1.09724e-05
2.22253e-07
2.99191e-05
2.08815e-05
-0.0124291
-0.00677819
0.0136121
-0.0111076
-0.00596011
-0.00975511
-0.00522494
-0.00843409
-0.00456122
-0.0071835
-0.00395992
-0.00602685
-0.00341481
-0.00497736
-0.00292094
-0.00404122
-0.0024742
-0.00321972
-0.00207109
-0.00251066
-0.00170871
-0.00190938
-0.00138461
-0.00140941
-0.00109676
-0.00100296
-0.00084351
-0.000681326
-0.000623608
-0.000435175
-0.000436189
-0.000254772
-0.000280836
-0.000130251
-0.000157627
-5.20883e-05
-6.71901e-05
-1.13127e-05
-1.08565e-05
9.56881e-06
-0.0109338
-0.00769829
0.0118539
-0.00993097
-0.00696294
-0.00889087
-0.00626504
-0.00784951
-0.00560259
-0.0068343
-0.00497512
-0.00586604
-0.00438307
-0.00495996
-0.00382702
-0.00412667
-0.00330749
-0.00337289
-0.00282487
-0.00270216
-0.00237945
-0.00211534
-0.00197143
-0.00161119
-0.00160091
-0.00118671
-0.00126799
-0.000837567
-0.00097275
-0.000558421
-0.000715335
-0.00034327
-0.000495987
-0.000185799
-0.000315097
-7.97519e-05
-0.000173237
-1.94175e-05
-7.11909e-05
-9.84871e-06
-0.00999229
-0.00851399
0.010808
-0.00912361
-0.00783163
-0.00822848
-0.00716017
-0.00732929
-0.00650178
-0.00644498
-0.00585943
-0.00559141
-0.00523664
-0.00478149
-0.00463695
-0.00402528
-0.00406369
-0.00333026
-0.00351989
-0.0027015
-0.00300822
-0.00214193
-0.002531
-0.00165262
-0.00209021
-0.00123307
-0.00168755
-0.000881416
-0.0013244
-0.0005948
-0.00100195
-0.000369589
-0.000721198
-0.000201691
-0.000482996
-8.68348e-05
-0.000288093
-2.08797e-05
-0.000137146
-3.07284e-05
-0.00946742
-0.00927389
0.0102273
-0.00866875
-0.0086303
-0.00784882
-0.00798009
-0.00702402
-0.00732659
-0.00620915
-0.0066743
-0.00541744
-0.00602835
-0.00466028
-0.0053941