/*--------------------------------*- C++ -*----------------------------------*\
| =========                 |                                                 |
| \\      /  F ield         | OpenFOAM: The Open Source CFD Toolbox           |
|  \\    /   O peration     | Version:  v1806                                 |
|   \\  /    A nd           | Web:      www.OpenFOAM.com                      |
|    \\/     M anipulation  |                                                 |
\*---------------------------------------------------------------------------*/
FoamFile
{
    version     2.0;
    format      ascii;
    class       volScalarField;
    location    "160";
    object      p;
}
// * * * * * * * * * * * * * * * * * * * * * * * * * * * * * * * * * * * * * //

dimensions      [0 2 -2 0 0 0 0];


internalField   nonuniform List<scalar> 
2400
(
2.91426e-05
3.04173e-05
3.20446e-05
3.49312e-05
3.84749e-05
4.35578e-05
4.91433e-05
5.64022e-05
6.39686e-05
7.30823e-05
8.18535e-05
9.14677e-05
9.95676e-05
0.000106394
0.000108967
0.000106956
9.79091e-05
8.06034e-05
5.44088e-05
2.0325e-05
8.7177e-05
9.10037e-05
9.56872e-05
0.000104322
0.000114653
0.000129877
0.000146305
0.000168055
0.000190246
0.000217598
0.00024365
0.000272807
0.000296633
0.000317432
0.00032569
0.000320737
0.000293801
0.00024236
0.00016444
6.30431e-05
0.000144627
0.000150945
0.000158644
0.000172962
0.000190012
0.000215324
0.000242463
0.000278701
0.000315429
0.000361298
0.000404649
0.000453953
0.000493809
0.000530019
0.000544656
0.000538282
0.000494084
0.00040933
0.00027907
0.000108396
0.000201086
0.000209854
0.00022052
0.000240507
0.000264207
0.00029961
0.000337342
0.000388231
0.000439434
0.000504346
0.000565073
0.000635805
0.000692262
0.000746216
0.00076818
0.000763295
0.000702654
0.000585606
0.000401251
0.000156938
0.000256178
0.00026733
0.000280903
0.000306535
0.000336786
0.000382284
0.000430455
0.000496197
0.00056177
0.000646445
0.000724695
0.00081863
0.000892374
0.000967432
0.000998036
0.000999154
0.000922851
0.000775562
0.000534192
0.00021024
0.000309544
0.000322953
0.000339384
0.000370604
0.000407309
0.000462853
0.000521302
0.000602073
0.000681943
0.000787199
0.000883212
0.00100251
0.00109447
0.00119508
0.00123594
0.00124956
0.00115829
0.000984779
0.000681734
0.000270481
0.000360833
0.000376303
0.000395566
0.000432269
0.000475354
0.000540801
0.000609403
0.000705287
0.000799466
0.000926094
0.00104029
0.00118737
0.00129881
0.00143038
0.00148351
0.00151853
0.00141278
0.00122036
0.000848256
0.000340744
0.000409715
0.000426956
0.000449072
0.000491083
0.000540515
0.000615588
0.000694286
0.000805197
0.000913834
0.00106246
0.00119553
0.00137282
0.00150552
0.00167414
0.00174231
0.00181009
0.0016903
0.00149128
0.0010388
0.000425965
0.000455876
0.000474491
0.000499541
0.000546595
0.000602402
0.000686642
0.000775483
0.000901075
0.00102452
0.00119542
0.00134846
0.00155808
0.00171457
0.00192657
0.00201386
0.00212798
0.00199527
0.00180841
0.00125907
0.000535023
0.000499019
0.000518497
0.000546631
0.000598359
0.00066064
0.000753369
0.000852527
0.000992115
0.00113095
0.0013239
0.00149851
0.00174192
0.0019258
0.00218708
0.00229967
0.00247506
0.00233294
0.00218393
0.00151546
0.000683923
0.000538861
0.000558585
0.000590024
0.000645937
0.000714866
0.000815158
0.000924955
0.00107744
0.00123255
0.00144663
0.00164498
0.00192261
0.00213884
0.00245409
0.00260123
0.00285276
0.00270994
0.00263057
0.00181624
0.000898403
0.00057513
0.000594401
0.000629425
0.00068891
0.000764722
0.000871395
0.000992296
0.00115611
0.00132867
0.00156213
0.00178704
0.00209793
0.00235302
0.00272487
0.00291985
0.00326065
0.00313459
0.00316061
0.00217423
0.00121507
0.000607562
0.000625641
0.00066456
0.000726891
0.000809848
0.000921489
0.00105407
0.00122719
0.0014186
0.00166881
0.0019237
0.0022652
0.00256728
0.0029955
0.00325634
0.0036958
0.00361684
0.00378416
0.00261186
0.00168261
0.000635892
0.000652072
0.000695174
0.000759544
0.000849866
0.000964896
0.00110975
0.00128974
0.00150158
0.00176497
0.00205377
0.00242138
0.00278016
0.00326096
0.0036109
0.00415212
0.0041676
0.00450613
0.00316594
0.0023684
0.000659843
0.000673542
0.000721031
0.000786585
0.000884377
0.00100115
0.00115878
0.00134295
0.00157666
0.00184896
0.00217574
0.00256318
0.00298961
0.00351539
0.00398318
0.0046206
0.0047981
0.00532378
0.00388666
0.00334845
0.000679123
0.00069
0.000741887
0.000807802
0.00091291
0.00102991
0.0012005
0.0013861
0.00164288
0.00191916
0.00228778
0.00268714
0.00319239
0.0037524
0.00437204
0.00509216
0.00552231
0.00622185
0.00484823
0.00463954
0.000693427
0.000701478
0.000757506
0.000823055
0.000934915
0.00105097
0.001234
0.00141876
0.00169864
0.00197439
0.00238767
0.00278913
0.00338518
0.00396222
0.00477268
0.00555938
0.006366
0.00718299
0.00620714
0.00623539
0.000702404
0.000708078
0.000767703
0.000832285
0.000949911
0.00106426
0.00125836
0.00144071
0.00174186
0.00201387
0.00247091
0.00286681
0.00356027
0.00413216
0.00517991
0.00598972
0.00736826
0.00821531
0.00822734
0.00824566
0.000705813
0.000709843
0.00077239
0.000835451
0.000957859
0.00106988
0.00127346
0.00145197
0.00177192
0.00203712
0.00253477
0.00291916
0.00370803
0.00426049
0.00555864
0.00635128
0.00848106
0.00936961
0.0108494
0.0106323
0.000702793
0.000707669
0.000770271
0.000832508
0.000956046
0.00106824
0.00127498
0.00145412
0.00178184
0.00204906
0.00256463
0.00295206
0.00379225
0.00435124
0.00584312
0.00662561
0.00964314
0.0104171
0.0159526
0.00369874
-4.6491e-06
-1.1e-05
-1.6403e-05
-2.10858e-05
-2.5625e-05
-3.01964e-05
-3.47354e-05
-3.91607e-05
-4.33871e-05
-4.74543e-05
-4.9239e-06
-2.06244e-05
-3.53581e-05
-4.94948e-05
-6.35033e-05
-7.74973e-05
-9.13888e-05
-0.000105092
-0.000118543
-0.000131815
-6.49311e-06
-3.35814e-05
-5.91539e-05
-8.3616e-05
-0.000107745
-0.000131756
-0.000155519
-0.000178882
-0.00020172
-0.000224063
-8.68009e-06
-4.77325e-05
-8.45865e-05
-0.000119833
-0.000154606
-0.000189218
-0.000223477
-0.000257157
-0.000290094
-0.000322297
-1.11075e-05
-6.33484e-05
-0.000112753
-0.000160076
-0.000206781
-0.000253257
-0.000299234
-0.000344398
-0.000388529
-0.000431599
-1.35198e-05
-8.0686e-05
-0.000144474
-0.000205711
-0.000266135
-0.000326198
-0.000385549
-0.000443781
-0.000500609
-0.000555962
-1.5394e-05
-9.99207e-05
-0.000180754
-0.000258586
-0.00033531
-0.000411416
-0.000486475
-0.000559985
-0.000631579
-0.000701132
-1.59597e-05
-0.000121425
-0.000223213
-0.0003215
-0.000418157
-0.000513703
-0.000607661
-0.000699428
-0.000788544
-0.000874815
-1.4633e-05
-0.000146776
-0.000275302
-0.000399388
-0.000520877
-0.000640424
-0.000757534
-0.000871485
-0.000981695
-0.00108789
-1.1946e-05
-0.000180621
-0.000344452
-0.000501363
-0.000653928
-0.000803341
-0.00094909
-0.00109023
-0.00122599
-0.00135602
-1.09741e-05
-0.000232945
-0.000444624
-0.00064323
-0.000834453
-0.00102101
-0.00120227
-0.00137677
-0.00154345
-0.00170188
-2.0239e-05
-0.000322412
-0.0005996
-0.000850664
-0.00108944
-0.00132195
-0.0015471
-0.00176233
-0.00196609
-0.00215798
-6.02614e-05
-0.000483503
-0.000849461
-0.00116498
-0.00146117
-0.00175005
-0.0020291
-0.00229357
-0.00254115
-0.00277158
-0.000169908
-0.00077371
-0.00125747
-0.00164946
-0.00201279
-0.00236919
-0.00271315
-0.00303611
-0.00333455
-0.00360845
-0.000409144
-0.00127518
-0.00191639
-0.00240239
-0.00284594
-0.0032824
-0.00370159
-0.00408995
-0.00444317
-0.00476252
-0.000891214
-0.00210737
-0.00294418
-0.00354876
-0.00410039
-0.004646
-0.00516496
-0.00563572
-0.00605229
-0.00641685
-0.00199985
-0.00362102
-0.00458913
-0.0052339
-0.00584273
-0.00647178
-0.00707824
-0.007626
-0.00810695
-0.00852493
-0.00446084
-0.00691603
-0.00822228
-0.00894246
-0.009577
-0.0102324
-0.0108488
-0.0113757
-0.0118025
-0.0121369
-0.00530453
-0.00809325
-0.00960339
-0.0106806
-0.0117677
-0.0128511
-0.0138201
-0.0146311
-0.01529
-0.0158189
-0.0206097
-0.0215697
-0.0197687
-0.0186105
-0.01835
-0.0184649
-0.018668
-0.0189056
-0.0191827
-0.0194228
-5.70555e-05
-7.37966e-05
-8.73591e-05
-9.69325e-05
-0.000102159
-0.000103824
-0.000102217
-9.82919e-05
-9.23063e-05
-8.50226e-05
-7.64996e-05
-6.73335e-05
-5.75e-05
-4.76661e-05
-3.76193e-05
-2.83548e-05
-1.90208e-05
-1.14053e-05
-3.54747e-06
5.80204e-07
-0.000168109
-0.000220118
-0.000260897
-0.000289644
-0.000305516
-0.000310581
-0.000305867
-0.000294381
-0.000276922
-0.000255967
-0.000231558
-0.000205614
-0.000177738
-0.00014979
-0.000121204
-9.43516e-05
-6.79428e-05
-4.56182e-05
-2.42445e-05
-1.02316e-05
-0.000285208
-0.000372806
-0.00044132
-0.000489099
-0.000515149
-0.00052272
-0.000514113
-0.000494199
-0.000464763
-0.000429584
-0.000389022
-0.000345783
-0.000299567
-0.000252914
-0.000205533
-0.000160605
-0.000117119
-7.96278e-05
-4.40895e-05
-1.73912e-05
-0.000411061
-0.000536446
-0.000633626
-0.000700223
-0.000735377
-0.000743818
-0.000729599
-0.000699567
-0.000656792
-0.000606157
-0.000548534
-0.000487086
-0.000421852
-0.000355688
-0.00028895
-0.000225278
-0.000164402
-0.000111346
-6.16999e-05
-2.32057e-05
-0.000550485
-0.000716405
-0.000843242
-0.000927947
-0.000970282
-0.00097702
-0.000954579
-0.000912068
-0.000854078
-0.000786506
-0.000710748
-0.000630145
-0.00054508
-0.000458461
-0.000371531
-0.000288214
-0.000209476
-0.000140632
-7.75448e-05
-2.85616e-05
-0.000708775
-0.000918878
-0.00107638
-0.00117783
-0.0012244
-0.00122576
-0.00119151
-0.00113343
-0.00105785
-0.000971596
-0.000876462
-0.000775655
-0.000669732
-0.000561456
-0.000453101
-0.000348906
-0.000251579
-0.000166754
-9.10241e-05
-3.29731e-05
-0.00089288
-0.00115165
-0.00134056
-0.00145635
-0.00150274
-0.00149361
-0.00144275
-0.00136513
-0.00126905
-0.00116214
-0.00104631
-0.000924226
-0.000796242
-0.000664828
-0.000533321
-0.000406557
-0.000289512
-0.000188395
-0.000100994
-3.59247e-05
-0.001112
-0.00142462
-0.00164496
-0.00177096
-0.00181071
-0.00178408
-0.00171032
-0.00160818
-0.00148817
-0.00135854
-0.00122081
-0.00107655
-0.000925213
-0.000768888
-0.000611843
-0.000460194
-0.000321663
-0.000203735
-0.000105939
-3.68188e-05
-0.00137863
-0.00175061
-0.00200086
-0.00213031
-0.00215412
-0.0021005
-0.0019957
-0.00186294
-0.00171515
-0.00156086
-0.00140044
-0.0012335
-0.00105757
-0.00087427
-0.000688407
-0.000508675
-0.000345853
-0.00021028
-0.000103691
-3.47687e-05
-0.00171004
-0.00214636
-0.00242218
-0.00254435
-0.00253904
-0.00244575
-0.0022995
-0.00212872
-0.00194907
-0.00176867
-0.00158566
-0.00139631
-0.00119477
-0.000982095
-0.000762932
-0.000550713
-0.000359176
-0.000204626
-9.10794e-05
-2.84564e-05
-0.00213017
-0.00263382
-0.00292607
-0.00302446
-0.00297167
-0.00282194
-0.00262101
-0.00240336
-0.00218773
-0.00198087
-0.00177703
-0.00156694
-0.00133934
-0.00109436
-0.000835671
-0.000584806
-0.000357763
-0.000182175
-6.3524e-05
-1.6002e-05
-0.00267215
-0.00324159
-0.00353338
-0.00358339
-0.003458
-0.00322979
-0.00295749
-0.00268252
-0.00242719
-0.00219535
-0.00197514
-0.00174836
-0.00149557
-0.00121485
-0.0009081
-0.000609341
-0.000336418
-0.000136561
-1.43876e-05
5.26644e-06
-0.003382
-0.0040066
-0.00426897
-0.00423511
-0.00400339
-0.00366796
-0.00330305
-0.00295856
-0.00266106
-0.00240894
-0.0021809
-0.00194493
-0.00167017
-0.00135017
-0.00098464
-0.000624587
-0.000289719
-5.95016e-05
6.58441e-05
3.942e-05
-0.00432289
-0.00497537
-0.00516126
-0.00499426
-0.00461173
-0.00413183
-0.00364719
-0.00321891
-0.00287884
-0.00261639
-0.00239571
-0.00216326
-0.00187286
-0.00151
-0.00107353
-0.000635026
-0.000217123
5.47786e-05
0.000187289
9.20924e-05
-0.00558542
-0.00620893
-0.00624435
-0.00587707
-0.00528509
-0.00461206
-0.003973
-0.00344458
-0.00306442
-0.00280815
-0.00261872
-0.00241102
-0.00211693
-0.00170763
-0.00118561
-0.00064752
-0.000124735
0.000203806
0.000352945
0.000168439
-0.00731309
-0.00779071
-0.00756227
-0.00690008
-0.00602082
-0.00509096
-0.00425342
-0.00360639
-0.00319304
-0.00296732
-0.00284093
-0.0026865
-0.0024089
-0.00195831
-0.00134159
-0.000680014
-3.17458e-05
0.000374715
0.000551229
0.000269174
-0.00956736
-0.00974978
-0.00912881
-0.0080618
-0.00679496
-0.00553112
-0.0044484
-0.00366346
-0.00322251
-0.00305581
-0.00303146
-0.00295781
-0.00273501
-0.00225262
-0.00154888
-0.000758593
2.69089e-05
0.000530344
0.00076687
0.000387933
-0.0128161
-0.0121739
-0.010986
-0.00939542
-0.00762755
-0.00594415
-0.0045718
-0.00363243
-0.0031569
-0.00304543
-0.00313633
-0.00319529
-0.00301719
-0.00253423
-0.00177797
-0.000885166
7.203e-06
0.000610131
0.000906809
0.000497005
-0.016774
-0.0146504
-0.012669
-0.0104773
-0.00828753
-0.00625822
-0.00463687
-0.00354853
-0.00301767
-0.00293866
-0.00309059
-0.00322132
-0.00312199
-0.00268294
-0.00193871
-0.00101496
-8.8881e-05
0.000567664
0.000910029
0.00054482
-0.0185393
-0.0165903
-0.0142734
-0.0114302
-0.00892583
-0.00668971
-0.00493135
-0.00371958
-0.00306688
-0.00285807
-0.00291646
-0.00300382
-0.00292133
-0.00254027
-0.00188003
-0.00104232
-0.000208362
0.000402781
0.000730918
0.000464666
-0.021882
-0.0162623
-0.0142159
-0.0113573
-0.00906047
-0.00688805
-0.00519058
-0.00394452
-0.00318853
-0.00282212
-0.00271888
-0.00269143
-0.00256989
-0.0022251
-0.0016626
-0.00095616
-0.000265377
0.000236513
0.000518956
0.000370468
-0.0208917
-0.0162878
-0.0142365
-0.0113559
-0.00912583
-0.00699497
-0.00533387
-0.00407813
-0.003273
-0.00282391
-0.00263281
-0.00253951
-0.00238904
-0.00205674
-0.00153962
-0.000900882
-0.000284547
0.000158911
0.000410083
0.00031261
-0.0203433
-0.0162632
-0.0142312
-0.0113548
-0.00918725
-0.00711467
-0.00549791
-0.0042526
-0.0033792
-0.00283727
-0.00254463
-0.00237232
-0.0021828
-0.00186019
-0.00139086
-0.00082893
-0.000297588
7.82087e-05
0.000289332
0.000242004
-0.019956
-0.0162066
-0.0141751
-0.0113297
-0.00923593
-0.00723628
-0.00567156
-0.00442506
-0.00349699
-0.00285544
-0.0024511
-0.00218945
-0.0019537
-0.00163836
-0.00121992
-0.000742681
-0.000305565
-5.54309e-06
0.000160411
0.00016432
-0.0196815
-0.0161265
-0.0140908
-0.0112907
-0.00927382
-0.00735687
-0.00584925
-0.00460605
-0.00362099
-0.00287536
-0.00235222
-0.00199337
-0.00170537
-0.00139532
-0.00103034
-0.000644285
-0.000308936
-9.11218e-05
2.62219e-05
8.18456e-05
-0.0195552
-0.0160542
-0.0140019
-0.0112421
-0.00930256
-0.00747499
-0.00602579
-0.00478882
-0.00374559
-0.00289407
-0.00224828
-0.00178717
-0.00144231
-0.00113586
-0.000826108
-0.000536148
-0.000308113
-0.000176993
-0.000110389
-3.677e-06
-0.0195915
-0.0159997
-0.0139156
-0.0111881
-0.0093242
-0.00758814
-0.00621523
-0.00496583
-0.00386446
-0.00290805
-0.00213935
-0.00157405
-0.0011696
-0.000865512
-0.000611891
-0.000421138
-0.000303731
-0.000261686
-0.000246473
-9.03004e-05
-0.0197779
-0.0159535
-0.0138325
-0.0111313
-0.00933904
-0.00769209
-0.00637253
-0.0051289
-0.00397121
-0.00291379
-0.00202555
-0.00135743
-0.000892754
-0.000590316
-0.00039284
-0.000302422
-0.000296561
-0.000343774
-0.000379097
-0.000176112
-0.0201214
-0.0159014
-0.0137376
-0.0110794
-0.00934724
-0.0077838
-0.0065119
-0.00527148
-0.0040601
-0.00290806
-0.00190706
-0.0011407
-0.000617334
-0.000316388
-0.000174214
-0.00018325
-0.000287529
-0.000422091
-0.000505366
-0.000259049
-0.0206679
-0.0158743
-0.0136345
-0.0110334
-0.00934972
-0.00786351
-0.00662935
-0.00538871
-0.00412654
-0.00288816
-0.00178418
-0.000926874
-0.000348784
-4.95731e-05
3.8648e-05
-6.70208e-05
-0.000278242
-0.000496621
-0.00062234
-0.00033606
-0.0203362
-0.0159886
-0.0134632
-0.0109868
-0.00935016
-0.00797819
-0.00678439
-0.00553639
-0.00419511
-0.0028287
-0.0015732
-0.000580323
7.8957e-05
0.000374348
0.0003753
0.000116138
-0.000265483
-0.000615408
-0.000799337
-0.000451231
-0.0186701
-0.0152471
-0.0129643
-0.0107769
-0.00923737
-0.00797503
-0.00681497
-0.00555176
-0.00413801
-0.00266167
-0.0012749
-0.000162415
0.000571524
0.000861256
0.000754498
0.000320578
-0.000249573
-0.000738314
-0.000980381
-0.000575718
-0.0168423
-0.0143101
-0.0122831
-0.0104126
-0.00898915
-0.00780221
-0.00665764
-0.00538606
-0.00394626
-0.00243623
-0.0010072
0.000144762
0.000903596
0.00117181
0.000995676
0.00044623
-0.000247217
-0.0008208
-0.00108386
-0.000650927
-0.0144054
-0.0128934
-0.0113381
-0.0098278
-0.00856173
-0.00745075
-0.00633226
-0.00508162
-0.00367046
-0.00219905
-0.000804563
0.000319244
0.00106103
0.00130199
0.00108866
0.000486456
-0.000258686
-0.000861735
-0.00110953
-0.00067552
-0.0120618
-0.0113247
-0.0102306
-0.00905713
-0.00796923
-0.00694827
-0.00588857
-0.00470078
-0.00336747
-0.00199029
-0.000685222
0.000363186
0.00105669
0.00127164
0.00105232
0.000455193
-0.000275113
-0.000859902
-0.00106745
-0.000655558
-0.0100175
-0.0098054
-0.00908734
-0.00819578
-0.0072832
-0.00636879
-0.00538828
-0.00429388
-0.00307414
-0.00182622
-0.000644235
0.000303507
0.000935582
0.00112807
0.000927958
0.000379595
-0.00028491
-0.00081664
-0.000972526
-0.000600949
-0.00831208
-0.00843251
-0.00799985
-0.00733163
-0.0065751
-0.0057699
-0.00488416
-0.00389819
-0.00281202
-0.00170278
-0.000658429
0.000183387
0.000747648
0.000924297
0.000761433
0.000288335
-0.000279215
-0.000737744
-0.000841903
-0.00052351
-0.0069123
-0.00722743
-0.00700338
-0.00650993
-0.0058872
-0.00518712
-0.00439914
-0.00352427
-0.00256701
-0.00160001
-0.00068851
4.23557e-05
0.000541451
0.000707185
0.000589512
0.00020244
-0.000255937
-0.000634558
-0.000694495
-0.000434835
-0.00575969
-0.00617912
-0.00610249
-0.00574562
-0.00523688
-0.0046348
-0.00394243
-0.00317501
-0.00233988
-0.00150499
-0.000717728
-8.85767e-05
0.000350575
0.000507168
0.000434508
0.000132255
-0.000220046
-0.000521801
-0.000548206
-0.00034536
-0.00480254
-0.00526664
-0.00529062
-0.00504022
-0.00462838
-0.00411602
-0.00351434
-0.00284736
-0.00212425
-0.00140794
-0.000732142
-0.000193419
0.000191338
0.000339093
0.000305927
7.9259e-05
-0.000179645
-0.000413228
-0.000416655
-0.000263678
-0.00400081
-0.00446996
-0.00455864
-0.00439024
-0.00406032
-0.00362886
-0.00311138
-0.00253686
-0.00191506
-0.00130383
-0.00072653
-0.000267244
6.85496e-05
0.000206867
0.0002048
4.07457e-05
-0.000141596
-0.000318097
-0.000307373
-0.000194976
-0.00332332
-0.00377165
-0.00389759
-0.00379084
-0.0035295
-0.00317011
-0.00272986
-0.00223984
-0.00170933
-0.00119107
-0.0007006
-0.000310985
-1.95571e-05
0.000108127
0.000128193
1.34087e-05
-0.000109613
-0.000240329
-0.000222095
-0.000140872
-0.00274515
-0.00315626
-0.00329885
-0.00323693
-0.00303238
-0.00273663
-0.00236669
-0.00195361
-0.00150551
-0.00106989
-0.000656438
-0.000328368
-7.76328e-05
3.81293e-05
7.21921e-05
-5.37107e-06
-8.46027e-05
-0.000179784
-0.000158569
-0.000100352
-0.00224603
-0.00260995
-0.00275402
-0.00272328
-0.00256533
-0.00232548
-0.00201926
-0.00167619
-0.00130279
-0.000941215
-0.000596769
-0.000323695
-0.000110781
-8.17557e-06
3.30318e-05
-1.74309e-05
-6.56942e-05
-0.00013392
-0.000112526
-7.10166e-05
-0.0018093
-0.00212036
-0.00225502
-0.00224458
-0.00212462
-0.00193376
-0.00168529
-0.00140603
-0.00110079
-0.00080617
-0.000524276
-0.000301022
-0.000123738
-3.54281e-05
7.42488e-06
-2.40315e-05
-5.12924e-05
-9.9433e-05
-7.95111e-05
-5.01563e-05
-0.00142121
-0.0016765
-0.0017941
-0.00179553
-0.00170646
-0.00155864
-0.00136267
-0.00114185
-0.000899323
-0.000665887
-0.000441451
-0.00026399
-0.000120697
-4.76579e-05
-7.42327e-06
-2.61067e-05
-3.98237e-05
-7.32196e-05
-5.57951e-05
-3.53749e-05
-0.00107035
-0.00126867
-0.00136396
-0.00137088
-0.00130701
-0.00119729
-0.00104939
-0.000882509
-0.000698253
-0.00052143
-0.000350546
-0.000215813
-0.000105354
-4.83607e-05
-1.39634e-05
-2.45177e-05
-3.00557e-05
-5.25682e-05
-3.83515e-05
-2.47545e-05
-0.000747212
-0.000888379
-0.000957965
-0.000965716
-0.000922649
-0.000847048
-0.00074357
-0.000626933
-0.000497417
-0.000373646
-0.000253448
-0.000159169
-8.08442e-05
-4.05917e-05
-1.44425e-05
-2.02549e-05
-2.14598e-05
-3.54606e-05
-2.46104e-05
-1.63478e-05
-0.000443096
-0.00052794
-0.000570062
-0.000575618
-0.000550139
-0.00050561
-0.000443716
-0.000374375
-0.000296899
-0.000223327
-0.000151778
-9.62251e-05
-4.95502e-05
-2.66348e-05
-1.07389e-05
-1.40926e-05
-1.41731e-05
-2.12679e-05
-1.35697e-05
-7.96332e-06
-0.000151273
-0.000178435
-0.000192188
-0.000193845
-0.000184528
-0.000169277
-0.000147915
-0.000124296
-9.79212e-05
-7.28929e-05
-4.88846e-05
-3.06402e-05
-1.51157e-05
-8.53443e-06
-4.08043e-06
-5.55582e-06
-6.53502e-06
-8.55467e-06
-5.64352e-06
-5.3102e-07
-0.0229581
-0.024676
-0.0242105
-0.0241638
-0.0243804
-0.0244511
-0.0243035
-0.024009
-0.0236596
-0.0232232
-0.0146959
-0.0179275
-0.0191657
-0.0198355
-0.0204032
-0.0207999
-0.0209567
-0.0209022
-0.0206888
-0.0203505
-0.00995801
-0.0131894
-0.0147773
-0.0156199
-0.01632
-0.0169416
-0.0173957
-0.0176468
-0.0177088
-0.0176119
-0.00666899
-0.00934614
-0.0107559
-0.0115715
-0.0122883
-0.0129726
-0.0135435
-0.0139548
-0.0142117
-0.0143372
-0.00447959
-0.00662164
-0.00781046
-0.0085566
-0.00923709
-0.00990195
-0.0104881
-0.0109572
-0.0113111
-0.0115641
-0.00305885
-0.00476799
-0.00576888
-0.00643255
-0.0070461
-0.00765038
-0.00819878
-0.00866183
-0.00903931
-0.00934071
-0.00212398
-0.00348252
-0.00432356
-0.00490604
-0.00544704
-0.00598149
-0.00647564
-0.00690677
-0.00727332
-0.00758177
-0.00150207
-0.00257698
-0.0032811
-0.00378873
-0.00426113
-0.00472776
-0.00516469
-0.00555443
-0.00589481
-0.00618999
-0.0010855
-0.00193124
-0.0025171
-0.00295633
-0.00336577
-0.0037694
-0.00415066
-0.00449634
-0.00480413
-0.00507656
-0.000804863
-0.00146661
-0.00195035
-0.00232717
-0.0026794
-0.00302566
-0.00335475
-0.00365696
-0.00393014
-0.00417567
-0.000614463
-0.00112985
-0.00152608
-0.00184624
-0.00214668
-0.00244122
-0.00272243
-0.0029833
-0.00322197
-0.00343913
-0.000482752
-0.000882561
-0.00120452
-0.00147367
-0.00172746
-0.00197569
-0.0022135
-0.00243592
-0.0026414
-0.00283021
-0.000388013
-0.000696941
-0.000956351
-0.00117999
-0.00139194
-0.00159889
-0.00179766
-0.00198481
-0.00215907
-0.00232049
-0.000315916
-0.000553404
-0.00076028
-0.000943474
-0.00111798
-0.00128814
-0.00145191
-0.00160695
-0.00175223
-0.00188769
-0.00025729
-0.000438279
-0.000600866
-0.000748106
-0.000889012
-0.00102631
-0.00115869
-0.00128455
-0.00140309
-0.00151419
-0.000206346
-0.00034202
-0.000466907
-0.000582031
-0.000692647
-0.000800404
-0.000904451
-0.00100372
-0.00109759
-0.00118594
-0.000159461
-0.000257946
-0.000350265
-0.000436499
-0.000519611
-0.00060056
-0.000678807
-0.000753652
-0.000824636
-0.000891679
-0.000114656
-0.000181328
-0.000244724
-0.000304618
-0.000362509
-0.000418885
-0.000473416
-0.000525678
-0.000575348
-0.000622394
-7.20181e-05
-0.00011031
-0.00014688
-0.000181668
-0.00021543
-0.000248387
-0.00028032
-0.00031098
-0.000340202
-0.000368099
-2.97992e-05
-4.53901e-05
-5.89515e-05
-7.08226e-05
-8.21879e-05
-9.33572e-05
-0.000104168
-0.000114431
-0.00012393
-0.000132593
0.000646353
0.000650324
0.000713777
0.000766274
0.000889755
0.000988476
0.00119693
0.00135573
0.00168974
0.00192799
0.00246245
0.00280911
0.00369432
0.00418944
0.00577742
0.00647094
0.00976191
0.0104868
0.0180444
0.00694684
0.000628715
0.000632092
0.000694186
0.000746022
0.000866015
0.000963248
0.00116586
0.00132284
0.00164694
0.00188356
0.00239976
0.00274619
0.00359066
0.0040894
0.00555557
0.0062554
0.00900452
0.00965171
0.0132682
0.00728774
0.000608683
0.000611773
0.00067222
0.000722977
0.000839194
0.000934377
0.0011304
0.0012848
0.00159729
0.00183149
0.0023254
0.0026712
0.00346482
0.00396784
0.00528541
0.00599361
0.00814433
0.00878398
0.00990952
0.0080756
0.000586319
0.000589574
0.000647681
0.000697518
0.000808971
0.000902433
0.00109003
0.00124247
0.00154004
0.00177305
0.00223847
0.00258604
0.00331658
0.00382797
0.00497324
0.00569725
0.00727187
0.00795798
0.00774381
0.00780768
0.000561791
0.000565476
0.000620705
0.000669659
0.00077554
0.000867383
0.00104507
0.00119572
0.00147579
0.00170797
0.00214038
0.00249025
0.00315015
0.00366984
0.00463675
0.00537334
0.00646087
0.00722913
0.0062202
0.00680713
0.000535231
0.000539494
0.000591441
0.000639432
0.00073911
0.000829216
0.000995864
0.00114451
0.00140521
0.00163614
0.00203266
0.00238378
0.00297005
0.00349466
0.00429247
0.00503036
0.0057376
0.00656572
0.00507704
0.00564211
0.00050676
0.000511675
0.000560021
0.000606902
0.000699872
0.000787987
0.000942738
0.00108888
0.00132893
0.00155764
0.00191682
0.00226699
0.00278046
0.00330411
0.00395092
0.0046792
0.00509716
0.00592517
0.00418173
0.00454277
0.000476505
0.000482075
0.000526583
0.000572148
0.000658028
0.000743767
0.000886032
0.00102892
0.00124762
0.00147261
0.00179431
0.0021403
0.0025848
0.00310019
0.00361652
0.00432357
0.00452252
0.00529755
0.00346891
0.00358548
0.000444592
0.000450755
0.000491275
0.000535255
0.000613796
0.000696646
0.000826101
0.000964728
0.00116191
0.00138123
0.0016664
0.00200426
0.00238508
0.00288512
0.00329063
0.00396347
0.00400057
0.00468993
0.00289816
0.00278781
0.000411147
0.000417784
0.000454251
0.00049632
0.000567399
0.000646731
0.000763293
0.00089646
0.0010724
0.00128377
0.00153404
0.00185957
0.00218259
0.00266033
0.00297319
0.00360019
0.00352344
0.0041124
0.00243749
0.00214275
0.000376294
0.000383246
0.000415664
0.000455455
0.000519054
0.000594151
0.000697935
0.000824292
0.000979579
0.00118056
0.00139792
0.00170695
0.00197817
0.0024271
0.0026638
0.00323637
0.00308565
0.00357129
0.00205966
0.00163056
0.000340161
0.000347232
0.000375669
0.000412782
0.000468975
0.00053906
0.00063033
0.000748454
0.000883876
0.00107198
0.00125863
0.00154713
0.00177237
0.00218685
0.00236205
0.00287473
0.00268221
0.00306892
0.00174251
0.00122904
0.000302878
0.000309852
0.000334421
0.000368441
0.000417366
0.000481638
0.000560755
0.000669211
0.000785673
0.000958487
0.00111665
0.0013809
0.00156562
0.00194093
0.00206746
0.0025174
0.00230806
0.002605
0.00146924
0.000917824
0.000264575
0.000271224
0.000292071
0.000322584
0.000364425
0.000422089
0.000489472
0.000586865
0.000685322
0.00084054
0.000972407
0.00120902
0.0013582
0.00169058
0.00177937
0.0021657
0.00195828
0.00217752
0.00122765
0.000678847
0.000225386
0.000231482
0.00024877
0.00027538
0.00031034
0.000360638
0.00041673
0.000501742
0.000583144
0.000718644
0.000826262
0.00103224
0.00115035
0.00143677
0.00149698
0.00182023
0.00162825
0.00178335
0.00100897
0.000496259
0.000185444
0.000190773
0.000204666
0.000227008
0.000255294
0.000297532
0.000342765
0.000414198
0.00047944
0.000593312
0.000678545
0.000851258
0.000942182
0.00118025
0.00121933
0.00148094
0.00131379
0.00141845
0.000806847
0.000356488
0.000144884
0.000149256
0.000159907
0.000177663
0.000199471
0.000233041
0.000267811
0.00032462
0.000374503
0.000465086
0.000529563
0.000666757
0.000733776
0.000921572
0.00094544
0.0011472
0.00101117
0.00107814
0.00061651
0.000248149
0.000103841
0.000107096
0.000114642
0.000127553
0.000143058
0.000167459
0.000192117
0.000233438
0.000268664
0.000334564
0.000379675
0.000479443
0.000525305
0.000661174
0.000674504
0.000818002
0.000717306
0.000757262
0.00043448
0.000161768
6.24516e-05
6.44636e-05
6.90077e-05
7.68721e-05
8.62239e-05
0.000101058
0.000115899
0.000141025
0.000162221
0.000202268
0.000229213
0.000289847
0.000316957
0.000399228
0.00040589
0.000491786
0.000429813
0.000450359
0.000258476
8.99469e-05
2.08498e-05
2.15323e-05
2.30888e-05
2.57382e-05
2.89518e-05
3.3919e-05
3.90286e-05
4.74018e-05
5.48056e-05
6.81058e-05
7.75481e-05
9.75768e-05
0.000107415
0.00013446
0.000137339
0.000165106
0.000144956
0.000150282
8.62571e-05
2.79336e-05
0.00069783
0.000701452
0.000768437
0.000824007
0.000954652
0.00105769
0.00127653
0.00144082
0.00178949
0.00203245
0.00258712
0.00293497
0.00385433
0.00433855
0.00600049
0.00667697
0.0102544
0.0110705
0.0218511
0.0186039
0.000695016
0.000698714
0.000766089
0.000820487
0.000952128
0.00105359
0.00127428
0.00143603
0.00178822
0.00202722
0.00258906
0.00293057
0.00386444
0.00433934
0.00604427
0.00670235
0.0104574
0.0113772
0.0231149
0.0233431
0.000691716
0.000695737
0.000762895
0.000816892
0.000948441
0.00104951
0.00127027
0.00143143
0.00178423
0.00202248
0.00258659
0.00292687
0.00386781
0.00434091
0.00607143
0.00672906
0.0105977
0.0116382
0.02393
0.0265763
0.000688034
0.000692249
0.000759238
0.000812793
0.000944176
0.00104476
0.00126544
0.00142588
0.00177899
0.0020163
0.00258201
0.00292085
0.00386718
0.00433795
0.00608655
0.00674149
0.0106917
0.0118161
0.0244704
0.0286136
0.000683957
0.000688244
0.000755111
0.000808157
0.000939343
0.00103927
0.0012598
0.00141928
0.0017725
0.00200854
0.00257527
0.00291229
0.00386209
0.00433019
0.00608966
0.00674141
0.0107368
0.0119027
0.024728
0.029541
0.000679475
0.000683752
0.000750477
0.000803021
0.000933889
0.00103313
0.00125327
0.00141175
0.00176464
0.00199936
0.00256615
0.00290144
0.00385217
0.00431807
0.00608029
0.00672906
0.0107309
0.0118949
0.0246994
0.0293913
0.000674588
0.000678776
0.000745339
0.000797391
0.00092781
0.00102632
0.00124585
0.00140329
0.00175538
0.00198879
0.00255463
0.00288831
0.00383745
0.00430161
0.00605844
0.00670405
0.010674
0.0117934
0.0243864
0.0281635
0.000669305
0.000673302
0.000739724
0.000791245
0.000921143
0.00101881
0.00123758
0.00139383
0.00174482
0.00197671
0.00254087
0.00287273
0.00381821
0.00428051
0.00602464
0.00666611
0.0105681
0.0116031
0.0237886
0.0258139
0.00066363
0.000667345
0.000733612
0.000784612
0.000913856
0.00101066
0.00122842
0.00138346
0.00173287
0.00196325
0.00252472
0.0028549
0.00379418
0.00425521
0.0059785
0.00661668
0.010414
0.0113359
0.02289
0.0222233
0.000657499
0.000661079
0.000726763
0.000777771
0.000905599
0.0010023
0.0012178
0.0013729
0.00171859
0.00194965
0.00250456
0.002837
0.00376255
0.00422957
0.00591516
0.00656313
0.0102044
0.0110232
0.0215421
0.0171694
)
;

boundaryField
{
    inlet
    {
        type            zeroGradient;
    }
    outlet
    {
        type            fixedValue;
        value           uniform 0;
    }
    upAndBottom
    {
        type            empty;
    }
    obstacle
    {
        type            zeroGradient;
    }
}


// ************************************************************************* //
