/*--------------------------------*- C++ -*----------------------------------*\
| =========                 |                                                 |
| \\      /  F ield         | OpenFOAM: The Open Source CFD Toolbox           |
|  \\    /   O peration     | Version:  v1806                                 |
|   \\  /    A nd           | Web:      www.OpenFOAM.com                      |
|    \\/     M anipulation  |                                                 |
\*---------------------------------------------------------------------------*/
FoamFile
{
    version     2.0;
    format      ascii;
    class       volVectorField;
    location    "90";
    object      U;
}
// * * * * * * * * * * * * * * * * * * * * * * * * * * * * * * * * * * * * * //

dimensions      [0 1 -1 0 0 0 0];


internalField   nonuniform List<vector> 
4400
(
(0.264674 0.293444 0)
(0.306328 0.191418 0)
(0.32083 0.15021 0)
(0.327241 0.123127 0)
(0.330114 0.104491 0)
(0.331077 0.0916694 0)
(0.330752 0.0822742 0)
(0.32961 0.0748801 0)
(0.327967 0.0688421 0)
(0.326015 0.0638404 0)
(0.323872 0.059659 0)
(0.321614 0.0561375 0)
(0.31929 0.0531598 0)
(0.316936 0.0506429 0)
(0.314572 0.0485261 0)
(0.31221 0.0467639 0)
(0.309856 0.0453238 0)
(0.307511 0.0441846 0)
(0.305215 0.0433037 0)
(0.303223 0.0425934 0)
(0.26819 0.172983 0)
(0.286307 0.131761 0)
(0.300917 0.117764 0)
(0.312976 0.107898 0)
(0.319546 0.0973086 0)
(0.322585 0.0874919 0)
(0.323788 0.0792821 0)
(0.32389 0.0725096 0)
(0.323235 0.0668668 0)
(0.32206 0.0621271 0)
(0.32054 0.0581253 0)
(0.318795 0.0547339 0)
(0.316904 0.0518554 0)
(0.314923 0.0494171 0)
(0.312888 0.0473648 0)
(0.310821 0.0456578 0)
(0.308736 0.0442657 0)
(0.306645 0.0431667 0)
(0.304584 0.0423317 0)
(0.30277 0.041672 0)
(0.234093 0.134879 0)
(0.267112 0.12569 0)
(0.288947 0.114828 0)
(0.302411 0.102906 0)
(0.310448 0.0918851 0)
(0.315106 0.082736 0)
(0.317638 0.0753681 0)
(0.318757 0.0693103 0)
(0.318905 0.0642052 0)
(0.318385 0.0598527 0)
(0.317409 0.0561293 0)
(0.316125 0.0529424 0)
(0.314632 0.050219 0)
(0.312999 0.0479015 0)
(0.311275 0.0459456 0)
(0.309491 0.0443172 0)
(0.307668 0.0429902 0)
(0.305821 0.0419469 0)
(0.303987 0.0411597 0)
(0.302374 0.0405552 0)
(0.247542 0.0975873 0)
(0.27029 0.0963023 0)
(0.285007 0.0916238 0)
(0.296117 0.0866154 0)
(0.304186 0.0812544 0)
(0.30945 0.075661 0)
(0.312619 0.0702557 0)
(0.314344 0.0653201 0)
(0.315058 0.0609323 0)
(0.315049 0.0570772 0)
(0.314526 0.0537128 0)
(0.31364 0.0507925 0)
(0.312501 0.0482716 0)
(0.311187 0.0461114 0)
(0.309752 0.0442798 0)
(0.308234 0.0427508 0)
(0.306659 0.0415044 0)
(0.305046 0.0405268 0)
(0.303434 0.0397953 0)
(0.302011 0.0392463 0)
(0.246881 0.0772712 0)
(0.26523 0.0817847 0)
(0.280402 0.0818057 0)
(0.291715 0.078845 0)
(0.299647 0.0744506 0)
(0.305013 0.0697116 0)
(0.308504 0.0651776 0)
(0.310623 0.0610292 0)
(0.311735 0.0572889 0)
(0.312106 0.0539411 0)
(0.311939 0.0509668 0)
(0.311382 0.0483459 0)
(0.310546 0.0460568 0)
(0.309512 0.0440781 0)
(0.308337 0.0423901 0)
(0.307063 0.0409758 0)
(0.30572 0.0398214 0)
(0.304328 0.0389175 0)
(0.302927 0.0382447 0)
(0.301687 0.0377526 0)
(0.257161 0.0610006 0)
(0.270555 0.0662428 0)
(0.281485 0.067803 0)
(0.290163 0.0670912 0)
(0.296912 0.0651243 0)
(0.301904 0.062449 0)
(0.305374 0.0594231 0)
(0.307628 0.0563199 0)
(0.308951 0.0533182 0)
(0.309571 0.0505141 0)
(0.309663 0.0479524 0)
(0.309365 0.0456505 0)
(0.30878 0.043611 0)
(0.307986 0.0418295 0)
(0.307042 0.0402983 0)
(0.305988 0.0390092 0)
(0.304857 0.0379547 0)
(0.30367 0.0371295 0)
(0.302467 0.0365188 0)
(0.301397 0.0360827 0)
(0.262332 0.0498289 0)
(0.272073 0.0555882 0)
(0.281261 0.0585128 0)
(0.289052 0.0591388 0)
(0.295172 0.0582095 0)
(0.299746 0.0563744 0)
(0.303025 0.0540985 0)
(0.30526 0.0516682 0)
(0.306669 0.049246 0)
(0.307433 0.0469231 0)
(0.307703 0.0447526 0)
(0.307599 0.0427652 0)
(0.307214 0.0409781 0)
(0.30662 0.0393991 0)
(0.305874 0.0380305 0)
(0.305015 0.0368717 0)
(0.304074 0.0359211 0)
(0.303076 0.0351774 0)
(0.302055 0.0346295 0)
(0.301144 0.0342477 0)
(0.269372 0.0409248 0)
(0.276726 0.0462529 0)
(0.283603 0.0494144 0)
(0.289571 0.0507523 0)
(0.294514 0.050796 0)
(0.298425 0.0499735 0)
(0.301367 0.0485965 0)
(0.303461 0.0469021 0)
(0.304849 0.0450663 0)
(0.30567 0.0432114 0)
(0.306046 0.0414172 0)
(0.306077 0.0397346 0)
(0.305845 0.0381948 0)
(0.305414 0.0368167 0)
(0.304835 0.035611 0)
(0.304145 0.0345835 0)
(0.303374 0.0337377 0)
(0.302545 0.0330757 0)
(0.30169 0.0325903 0)
(0.300924 0.0322597 0)
(0.274412 0.034094 0)
(0.2798 0.0390277 0)
(0.285197 0.0423216 0)
(0.290127 0.044101 0)
(0.294312 0.0446823 0)
(0.297673 0.0444001 0)
(0.30025 0.043543 0)
(0.302133 0.0423357 0)
(0.30343 0.0409411 0)
(0.304244 0.0394728 0)
(0.304668 0.0380097 0)
(0.304787 0.0366058 0)
(0.304667 0.0352984 0)
(0.304364 0.0341125 0)
(0.303923 0.0330646 0)
(0.303378 0.0321654 0)
(0.302755 0.0314223 0)
(0.302076 0.0308402 0)
(0.301371 0.0304153 0)
(0.300735 0.0301326 0)
(0.27945 0.0284922 0)
(0.283527 0.032866 0)
(0.287605 0.0359828 0)
(0.291373 0.0378953 0)
(0.29466 0.0388176 0)
(0.297393 0.0389844 0)
(0.29956 0.0386017 0)
(0.301193 0.0378425 0)
(0.302353 0.0368475 0)
(0.303113 0.0357266 0)
(0.303543 0.0345614 0)
(0.30371 0.0334112 0)
(0.303667 0.0323183 0)
(0.303463 0.0313122 0)
(0.303134 0.0304136 0)
(0.30271 0.0296369 0)
(0.302215 0.0289922 0)
(0.301668 0.0284865 0)
(0.301094 0.0281192 0)
(0.300575 0.0278802 0)
(0.283473 0.0239165 0)
(0.286476 0.0277847 0)
(0.289579 0.0306823 0)
(0.292537 0.0326139 0)
(0.295173 0.0337064 0)
(0.297398 0.0341241 0)
(0.299187 0.0340308 0)
(0.30056 0.0335731 0)
(0.301559 0.0328731 0)
(0.302235 0.032028 0)
(0.30264 0.0311124 0)
(0.302824 0.0301828 0)
(0.302831 0.0292814 0)
(0.302699 0.0284391 0)
(0.302458 0.0276786 0)
(0.302135 0.0270162 0)
(0.301748 0.0264639 0)
(0.301316 0.0260302 0)
(0.300858 0.0257164 0)
(0.300441 0.025517 0)
(0.287126 0.0200371 0)
(0.28936 0.0233931 0)
(0.291671 0.025995 0)
(0.293889 0.0278275 0)
(0.295896 0.0289731 0)
(0.297625 0.0295475 0)
(0.299046 0.0296701 0)
(0.300161 0.0294531 0)
(0.30099 0.0289955 0)
(0.301566 0.0283812 0)
(0.301925 0.0276783 0)
(0.302106 0.0269401 0)
(0.302141 0.0262078 0)
(0.30206 0.0255125 0)
(0.301888 0.0248776 0)
(0.301646 0.0243201 0)
(0.301351 0.0238532 0)
(0.301016 0.0234858 0)
(0.300659 0.0232214 0)
(0.300331 0.0230571 0)
(0.290139 0.0167247 0)
(0.291752 0.0196104 0)
(0.293448 0.0219075 0)
(0.295107 0.0235919 0)
(0.29663 0.0247133 0)
(0.297958 0.0253511 0)
(0.299061 0.0255947 0)
(0.299938 0.0255332 0)
(0.3006 0.0252483 0)
(0.301068 0.0248107 0)
(0.30137 0.0242791 0)
(0.301532 0.0237012 0)
(0.301579 0.0231146 0)
(0.301533 0.0225487 0)
(0.301414 0.0220259 0)
(0.301237 0.0215634 0)
(0.301017 0.0211742 0)
(0.300765 0.0208675 0)
(0.300493 0.0206476 0)
(0.300241 0.0205143 0)
(0.292743 0.0138216 0)
(0.293891 0.0162589 0)
(0.295101 0.0182378 0)
(0.296288 0.0197318 0)
(0.297388 0.0207719 0)
(0.298359 0.021414 0)
(0.299177 0.0217236 0)
(0.299837 0.0217679 0)
(0.300342 0.0216114 0)
(0.300706 0.021312 0)
(0.300946 0.0209194 0)
(0.301081 0.0204753 0)
(0.301128 0.0200132 0)
(0.301104 0.01956 0)
(0.301024 0.0191366 0)
(0.300899 0.0187591 0)
(0.300741 0.0184398 0)
(0.300557 0.0181879 0)
(0.300357 0.0180082 0)
(0.30017 0.0179018 0)
(0.294875 0.011247 0)
(0.295654 0.0132646 0)
(0.296484 0.0149284 0)
(0.297307 0.0162124 0)
(0.298078 0.0171352 0)
(0.298763 0.0177352 0)
(0.299344 0.0180599 0)
(0.299817 0.0181608 0)
(0.300182 0.0180885 0)
(0.300449 0.0178897 0)
(0.300628 0.0176052 0)
(0.300732 0.01727 0)
(0.300772 0.0169127 0)
(0.300762 0.0165566 0)
(0.30071 0.0162203 0)
(0.300625 0.0159183 0)
(0.300516 0.0156617 0)
(0.300387 0.0154589 0)
(0.300247 0.015315 0)
(0.300114 0.0152319 0)
(0.296626 0.00891234 0)
(0.297129 0.0105317 0)
(0.297666 0.0118831 0)
(0.298198 0.012943 0)
(0.298698 0.0137225 0)
(0.299146 0.0142482 0)
(0.29953 0.0145543 0)
(0.299844 0.0146788 0)
(0.30009 0.01466 0)
(0.300271 0.0145342 0)
(0.300394 0.0143339 0)
(0.300467 0.0140872 0)
(0.300497 0.0138179 0)
(0.300493 0.0135455 0)
(0.300462 0.0132855 0)
(0.300408 0.0130504 0)
(0.300337 0.01285 0)
(0.300253 0.0126913 0)
(0.30016 0.0125791 0)
(0.300071 0.0125161 0)
(0.297989 0.00676302 0)
(0.298282 0.00800338 0)
(0.298597 0.00904829 0)
(0.298911 0.00987738 0)
(0.299208 0.0104972 0)
(0.299475 0.0109255 0)
(0.299704 0.0111863 0)
(0.299893 0.0113069 0)
(0.300041 0.0113155 0)
(0.300151 0.0112392 0)
(0.300226 0.0111026 0)
(0.300271 0.0109275 0)
(0.300291 0.0107321 0)
(0.30029 0.0105318 0)
(0.300272 0.0103389 0)
(0.300241 0.0101636 0)
(0.300199 0.0100135 0)
(0.300149 0.00989449 0)
(0.300094 0.00981087 0)
(0.30004 0.00976509 0)
(0.299 0.00474312 0)
(0.299145 0.00561976 0)
(0.2993 0.00636298 0)
(0.299455 0.00695702 0)
(0.299602 0.00740593 0)
(0.299734 0.00772128 0)
(0.299848 0.00791892 0)
(0.299943 0.00801721 0)
(0.300017 0.00803536 0)
(0.300072 0.00799202 0)
(0.30011 0.00790444 0)
(0.300134 0.00778794 0)
(0.300144 0.00765568 0)
(0.300144 0.00751862 0)
(0.300135 0.00738576 0)
(0.30012 0.00726436 0)
(0.300099 0.00716016 0)
(0.300074 0.00707749 0)
(0.300047 0.00701965 0)
(0.300019 0.00698878 0)
(0.299659 0.00281344 0)
(0.299705 0.0033368 0)
(0.299758 0.00378135 0)
(0.299811 0.00413812 0)
(0.299862 0.00440949 0)
(0.299908 0.00460194 0)
(0.299947 0.00472446 0)
(0.29998 0.00478765 0)
(0.300005 0.00480272 0)
(0.300025 0.00478064 0)
(0.300038 0.00473164 0)
(0.300046 0.00466484 0)
(0.300049 0.00458811 0)
(0.300049 0.00450807 0)
(0.300046 0.00443012 0)
(0.300041 0.00435869 0)
(0.300034 0.00429726 0)
(0.300025 0.0042485 0)
(0.300016 0.0042145 0)
(0.300006 0.00419673 0)
(0.299983 0.00094025 0)
(0.299985 0.00110856 0)
(0.299988 0.00125555 0)
(0.299991 0.00137426 0)
(0.299993 0.00146482 0)
(0.299995 0.00152927 0)
(0.299997 0.00157053 0)
(0.299999 0.00159208 0)
(0.3 0.0015976 0)
(0.300001 0.00159071 0)
(0.300002 0.0015748 0)
(0.300002 0.00155289 0)
(0.300003 0.00152762 0)
(0.300003 0.00150118 0)
(0.300002 0.0014754 0)
(0.300002 0.00145174 0)
(0.300002 0.00143138 0)
(0.300001 0.00141522 0)
(0.300001 0.00140397 0)
(0.3 0.00139816 0)
(0.0741173 -0.0799323 0)
(0.057374 -0.0616208 0)
(0.0471279 -0.0449583 0)
(0.0404762 -0.0299358 0)
(0.036038 -0.0159621 0)
(0.0331062 -0.0026656 0)
(0.0312916 0.0101861 0)
(0.0303712 0.0227864 0)
(0.0302176 0.0353139 0)
(0.0307638 0.0479377 0)
(0.0319848 0.0608232 0)
(0.0338888 0.0741385 0)
(0.036513 0.0880612 0)
(0.0399245 0.102785 0)
(0.0442261 0.118526 0)
(0.0495739 0.135527 0)
(0.0562273 0.154087 0)
(0.064713 0.174676 0)
(0.0764154 0.197901 0)
(0.0961356 0.222554 0)
(0.124245 -0.0502238 0)
(0.116881 -0.0403154 0)
(0.110714 -0.029345 0)
(0.105746 -0.0178205 0)
(0.101921 -0.00598419 0)
(0.0991752 0.00604677 0)
(0.0974467 0.0182057 0)
(0.0966871 0.0304537 0)
(0.0968665 0.042767 0)
(0.0979763 0.0551311 0)
(0.10003 0.0675359 0)
(0.103065 0.0799703 0)
(0.107147 0.0924191 0)
(0.112371 0.104859 0)
(0.118875 0.117253 0)
(0.126849 0.129541 0)
(0.136566 0.141631 0)
(0.148441 0.153511 0)
(0.163175 0.165436 0)
(0.182082 0.176106 0)
(0.164153 -0.0240002 0)
(0.160662 -0.0172472 0)
(0.157676 -0.00996941 0)
(0.155245 -0.00225629 0)
(0.153395 0.0058059 0)
(0.152142 0.0141429 0)
(0.151498 0.0226905 0)
(0.15147 0.0313917 0)
(0.152063 0.0401951 0)
(0.153282 0.0490526 0)
(0.155131 0.0579173 0)
(0.157615 0.0667414 0)
(0.160737 0.0754736 0)
(0.1645 0.0840563 0)
(0.168904 0.0924217 0)
(0.17395 0.100486 0)
(0.179641 0.108149 0)
(0.185995 0.115313 0)
(0.193104 0.12186 0)
(0.201277 0.127204 0)
(0.189701 -0.0121013 0)
(0.187988 -0.00701365 0)
(0.186561 -0.00168494 0)
(0.185458 0.00385252 0)
(0.184707 0.00956307 0)
(0.184333 0.0154098 0)
(0.184353 0.0213557 0)
(0.184784 0.0273635 0)
(0.185637 0.0333957 0)
(0.186922 0.0394147 0)
(0.188649 0.0453821 0)
(0.190825 0.0512592 0)
(0.193455 0.0570062 0)
(0.196544 0.0625822 0)
(0.200095 0.0679449 0)
(0.204113 0.07305 0)
(0.208602 0.0778542 0)
(0.213569 0.0823266 0)
(0.219041 0.0864328 0)
(0.225084 0.0899413 0)
(0.212973 -0.0053538 0)
(0.212063 -0.00135973 0)
(0.211348 0.00275667 0)
(0.210844 0.00697982 0)
(0.210566 0.0112916 0)
(0.210524 0.0156718 0)
(0.210729 0.0200991 0)
(0.211186 0.0245506 0)
(0.211902 0.0290026 0)
(0.212878 0.0334304 0)
(0.214113 0.0378086 0)
(0.215606 0.042111 0)
(0.217351 0.0463102 0)
(0.21934 0.0503783 0)
(0.221563 0.0542862 0)
(0.224008 0.0580035 0)
(0.226657 0.0614992 0)
(0.229495 0.0647441 0)
(0.232509 0.0677067 0)
(0.235692 0.0703106 0)
(0.22928 -0.00228818 0)
(0.228843 0.000829951 0)
(0.228546 0.00400915 0)
(0.228397 0.00723898 0)
(0.228404 0.0105079 0)
(0.228575 0.0138032 0)
(0.228914 0.0171116 0)
(0.229426 0.0204191 0)
(0.230115 0.023711 0)
(0.23098 0.0269725 0)
(0.232024 0.0301886 0)
(0.233243 0.0333442 0)
(0.234636 0.0364242 0)
(0.236198 0.0394142 0)
(0.237922 0.0422999 0)
(0.239803 0.0450679 0)
(0.24183 0.0477059 0)
(0.243995 0.0502063 0)
(0.246288 0.0525625 0)
(0.248701 0.0547311 0)
(0.243602 -0.000348043 0)
(0.243365 0.00217061 0)
(0.243226 0.00472064 0)
(0.24319 0.00729507 0)
(0.243259 0.00988633 0)
(0.243436 0.0124862 0)
(0.243724 0.0150862 0)
(0.244124 0.017677 0)
(0.244637 0.0202494 0)
(0.245261 0.0227936 0)
(0.245996 0.0252999 0)
(0.24684 0.0277584 0)
(0.247788 0.030159 0)
(0.248838 0.0324922 0)
(0.249985 0.0347482 0)
(0.251222 0.0369176 0)
(0.252544 0.0389918 0)
(0.253944 0.0409631 0)
(0.255417 0.0428251 0)
(0.256958 0.0445609 0)
(0.254384 0.000377323 0)
(0.254286 0.00240276 0)
(0.254261 0.00444414 0)
(0.25431 0.00649659 0)
(0.254435 0.00855495 0)
(0.254638 0.0106138 0)
(0.25492 0.0126676 0)
(0.255282 0.0147106 0)
(0.255723 0.0167369 0)
(0.256243 0.0187406 0)
(0.256841 0.0207159 0)
(0.257515 0.022657 0)
(0.258264 0.0245583 0)
(0.259085 0.0264144 0)
(0.259974 0.0282201 0)
(0.260928 0.0299706 0)
(0.261943 0.0316614 0)
(0.263014 0.0332898 0)
(0.264137 0.0348537 0)
(0.265308 0.0363383 0)
(0.263694 0.000877173 0)
(0.263646 0.00254631 0)
(0.263649 0.00422305 0)
(0.263705 0.00590391 0)
(0.263813 0.00758527 0)
(0.263975 0.00926335 0)
(0.264192 0.0109343 0)
(0.264462 0.0125941 0)
(0.264787 0.0142388 0)
(0.265165 0.0158643 0)
(0.265595 0.0174666 0)
(0.266076 0.0190416 0)
(0.266608 0.0205856 0)
(0.267187 0.0220946 0)
(0.267812 0.0235651 0)
(0.268481 0.0249934 0)
(0.269192 0.0263765 0)
(0.269941 0.0277117 0)
(0.270728 0.0289973 0)
(0.27155 0.030226 0)
(0.27106 0.000953613 0)
(0.271052 0.00232509 0)
(0.271083 0.00370018 0)
(0.271152 0.00507641 0)
(0.27126 0.00645124 0)
(0.271407 0.00782209 0)
(0.271594 0.00918632 0)
(0.27182 0.0105413 0)
(0.272085 0.0118843 0)
(0.272388 0.0132127 0)
(0.272729 0.0145239 0)
(0.273107 0.0158153 0)
(0.27352 0.0170845 0)
(0.273969 0.0183291 0)
(0.27445 0.0195467 0)
(0.274963 0.0207351 0)
(0.275505 0.0218924 0)
(0.276076 0.0230172 0)
(0.276672 0.0241085 0)
(0.277293 0.0251597 0)
(0.277361 0.00100484 0)
(0.277363 0.00214673 0)
(0.277392 0.00328976 0)
(0.277448 0.00443211 0)
(0.277532 0.00557191 0)
(0.277644 0.00670727 0)
(0.277783 0.00783627 0)
(0.277951 0.008957 0)
(0.278145 0.0100675 0)
(0.278366 0.0111659 0)
(0.278614 0.0122503 0)
(0.278888 0.0133188 0)
(0.279186 0.0143696 0)
(0.279509 0.015401 0)
(0.279856 0.0164113 0)
(0.280225 0.0173989 0)
(0.280616 0.0183623 0)
(0.281027 0.0193004 0)
(0.281458 0.0202124 0)
(0.281908 0.0210945 0)
(0.282479 0.00091052 0)
(0.282491 0.00185658 0)
(0.282523 0.00280281 0)
(0.282575 0.00374789 0)
(0.282647 0.00469045 0)
(0.282739 0.00562915 0)
(0.282851 0.00656262 0)
(0.282983 0.00748948 0)
(0.283135 0.00840839 0)
(0.283306 0.009318 0)
(0.283496 0.010217 0)
(0.283704 0.011104 0)
(0.283931 0.0119779 0)
(0.284175 0.0128374 0)
(0.284436 0.0136813 0)
(0.284713 0.0145085 0)
(0.285005 0.0153179 0)
(0.285312 0.0161088 0)
(0.285633 0.0168807 0)
(0.285967 0.0176301 0)
(0.286808 0.000830292 0)
(0.286819 0.00161572 0)
(0.286844 0.00240062 0)
(0.286883 0.003184 0)
(0.286936 0.00396485 0)
(0.287003 0.00474213 0)
(0.287084 0.00551483 0)
(0.287179 0.00628193 0)
(0.287288 0.00704241 0)
(0.28741 0.00779527 0)
(0.287546 0.00853953 0)
(0.287695 0.00927422 0)
(0.287856 0.00999841 0)
(0.28803 0.0107112 0)
(0.288216 0.0114116 0)
(0.288413 0.012099 0)
(0.288621 0.0127723 0)
(0.28884 0.0134312 0)
(0.289069 0.0140753 0)
(0.289308 0.0147021 0)
(0.290337 0.000704689 0)
(0.290349 0.00134939 0)
(0.29037 0.00199343 0)
(0.290401 0.00263606 0)
(0.290442 0.00327654 0)
(0.290493 0.00391411 0)
(0.290554 0.00454802 0)
(0.290624 0.00517752 0)
(0.290704 0.00580186 0)
(0.290794 0.00642031 0)
(0.290893 0.00703216 0)
(0.291 0.00763668 0)
(0.291117 0.0082332 0)
(0.291242 0.00882105 0)
(0.291375 0.00939956 0)
(0.291516 0.00996811 0)
(0.291665 0.0105261 0)
(0.291821 0.0110731 0)
(0.291984 0.011609 0)
(0.292154 0.0121317 0)
(0.293252 0.00059614 0)
(0.293261 0.00111901 0)
(0.293276 0.00164112 0)
(0.293297 0.0021619 0)
(0.293325 0.00268077 0)
(0.29336 0.00319718 0)
(0.293401 0.00371055 0)
(0.293448 0.00422033 0)
(0.293502 0.00472596 0)
(0.293562 0.00522688 0)
(0.293628 0.00572256 0)
(0.293701 0.00621246 0)
(0.293779 0.00669608 0)
(0.293863 0.0071729 0)
(0.293952 0.00764245 0)
(0.294047 0.00810423 0)
(0.294147 0.00855781 0)
(0.294252 0.00900291 0)
(0.294362 0.0094394 0)
(0.294476 0.00986576 0)
(0.29557 0.000476724 0)
(0.295577 0.000889419 0)
(0.295587 0.00130145 0)
(0.295602 0.00171239 0)
(0.295621 0.00212182 0)
(0.295644 0.00252934 0)
(0.295672 0.00293453 0)
(0.295703 0.00333696 0)
(0.295739 0.00373625 0)
(0.295778 0.00413197 0)
(0.295822 0.00452375 0)
(0.295869 0.00491118 0)
(0.29592 0.00529389 0)
(0.295974 0.00567151 0)
(0.296032 0.00604368 0)
(0.296094 0.00641003 0)
(0.296158 0.00677024 0)
(0.296226 0.00712412 0)
(0.296296 0.0074716 0)
(0.29637 0.00781142 0)
(0.297381 0.000369436 0)
(0.297384 0.000682064 0)
(0.29739 0.000994109 0)
(0.297399 0.00130527 0)
(0.29741 0.00161524 0)
(0.297423 0.00192373 0)
(0.297439 0.00223043 0)
(0.297457 0.00253504 0)
(0.297478 0.00283728 0)
(0.2975 0.00313685 0)
(0.297525 0.00343348 0)
(0.297552 0.00372687 0)
(0.297581 0.00401676 0)
(0.297613 0.00430288 0)
(0.297646 0.00458497 0)
(0.297681 0.00486278 0)
(0.297718 0.00513605 0)
(0.297757 0.00540468 0)
(0.297798 0.00566867 0)
(0.29784 0.00592696 0)
(0.298698 0.000260684 0)
(0.2987 0.000479526 0)
(0.298703 0.000697949 0)
(0.298708 0.00091575 0)
(0.298713 0.00113273 0)
(0.29872 0.00134868 0)
(0.298728 0.0015634 0)
(0.298737 0.00177669 0)
(0.298748 0.00198836 0)
(0.298759 0.00219821 0)
(0.298772 0.00240604 0)
(0.298785 0.00261168 0)
(0.2988 0.00281494 0)
(0.298815 0.00301563 0)
(0.298831 0.00321359 0)
(0.298849 0.00340862 0)
(0.298867 0.00360055 0)
(0.298886 0.00378933 0)
(0.298906 0.00397497 0)
(0.298927 0.00415656 0)
(0.299575 0.000157582 0)
(0.299576 0.000287303 0)
(0.299577 0.000416757 0)
(0.299578 0.000545824 0)
(0.29958 0.000674386 0)
(0.299582 0.000802324 0)
(0.299584 0.00092952 0)
(0.299587 0.00105586 0)
(0.29959 0.00118122 0)
(0.299594 0.0013055 0)
(0.299597 0.00142857 0)
(0.299601 0.00155034 0)
(0.299606 0.00167069 0)
(0.29961 0.00178952 0)
(0.299615 0.00190674 0)
(0.29962 0.00202222 0)
(0.299625 0.00213587 0)
(0.29963 0.00224766 0)
(0.299635 0.00235768 0)
(0.299641 0.00246549 0)
(0.299983 5.29294e-05 0)
(0.299983 9.60855e-05 0)
(0.299983 0.000139159 0)
(0.299983 0.000182113 0)
(0.299984 0.000224911 0)
(0.299984 0.000267518 0)
(0.299984 0.000309898 0)
(0.299984 0.000352017 0)
(0.299984 0.000393842 0)
(0.299984 0.000435339 0)
(0.299984 0.00047648 0)
(0.299984 0.000517236 0)
(0.299985 0.000557581 0)
(0.299985 0.000597494 0)
(0.299985 0.000636952 0)
(0.299985 0.000675934 0)
(0.299985 0.000714432 0)
(0.299985 0.000752537 0)
(0.299985 0.000790401 0)
(0.299984 0.000827303 0)
(0.225084 -0.120781 0)
(0.221292 -0.120572 0)
(0.21766 -0.12032 0)
(0.214174 -0.120109 0)
(0.210837 -0.119967 0)
(0.207651 -0.119915 0)
(0.204605 -0.119968 0)
(0.201666 -0.120134 0)
(0.198779 -0.120404 0)
(0.195853 -0.120753 0)
(0.19276 -0.121136 0)
(0.189321 -0.121478 0)
(0.185301 -0.121675 0)
(0.1804 -0.121583 0)
(0.174241 -0.12101 0)
(0.166359 -0.119713 0)
(0.156184 -0.117417 0)
(0.143038 -0.113742 0)
(0.126076 -0.107735 0)
(0.103876 -0.0971222 0)
(0.227657 -0.0961417 0)
(0.223869 -0.0949806 0)
(0.219989 -0.0937213 0)
(0.216023 -0.0923687 0)
(0.211976 -0.0909459 0)
(0.20785 -0.0894765 0)
(0.20365 -0.0879836 0)
(0.199376 -0.0864892 0)
(0.195028 -0.0850124 0)
(0.190603 -0.0835664 0)
(0.186089 -0.082155 0)
(0.181467 -0.0807677 0)
(0.176701 -0.0793738 0)
(0.171738 -0.0779153 0)
(0.166502 -0.0762985 0)
(0.160896 -0.0743875 0)
(0.1548 -0.0719945 0)
(0.148076 -0.0688476 0)
(0.140616 -0.0645131 0)
(0.132486 -0.0584051 0)
(0.235057 -0.0835792 0)
(0.232318 -0.082406 0)
(0.229525 -0.0810942 0)
(0.226675 -0.0796561 0)
(0.223762 -0.0780831 0)
(0.220776 -0.0763666 0)
(0.217709 -0.0744996 0)
(0.214549 -0.0724748 0)
(0.211286 -0.0702845 0)
(0.207908 -0.0679204 0)
(0.204407 -0.0653727 0)
(0.200776 -0.0626296 0)
(0.197011 -0.0596756 0)
(0.193113 -0.0564905 0)
(0.18909 -0.0530465 0)
(0.184956 -0.0493065 0)
(0.180736 -0.04522 0)
(0.176466 -0.0407204 0)
(0.172204 -0.035727 0)
(0.168048 -0.0301656 0)
(0.23953 -0.0667453 0)
(0.237029 -0.0654 0)
(0.234507 -0.0639637 0)
(0.231965 -0.0624279 0)
(0.229407 -0.0607879 0)
(0.226833 -0.0590388 0)
(0.224248 -0.057174 0)
(0.221654 -0.0551856 0)
(0.219053 -0.0530641 0)
(0.216449 -0.0507985 0)
(0.213845 -0.0483761 0)
(0.211243 -0.0457828 0)
(0.208648 -0.0430031 0)
(0.206066 -0.0400202 0)
(0.203506 -0.0368169 0)
(0.200979 -0.0333755 0)
(0.198503 -0.0296789 0)
(0.196101 -0.0257114 0)
(0.193805 -0.0214608 0)
(0.191656 -0.0169224 0)
(0.247647 -0.0565322 0)
(0.245798 -0.0550903 0)
(0.24393 -0.0535434 0)
(0.242047 -0.051899 0)
(0.24015 -0.050153 0)
(0.238243 -0.0483012 0)
(0.236329 -0.0463404 0)
(0.234413 -0.0442672 0)
(0.232498 -0.0420783 0)
(0.230591 -0.0397697 0)
(0.228699 -0.0373377 0)
(0.226829 -0.0347779 0)
(0.22499 -0.0320861 0)
(0.223192 -0.0292576 0)
(0.221448 -0.0262881 0)
(0.219771 -0.0231733 0)
(0.218177 -0.0199097 0)
(0.21668 -0.0164949 0)
(0.215301 -0.0129286 0)
(0.214059 -0.0092131 0)
(0.25373 -0.0461238 0)
(0.252208 -0.0447527 0)
(0.250692 -0.0433067 0)
(0.249185 -0.0417844 0)
(0.24769 -0.0401825 0)
(0.246209 -0.0384987 0)
(0.244746 -0.0367305 0)
(0.243305 -0.0348757 0)
(0.241891 -0.0329319 0)
(0.240509 -0.0308971 0)
(0.239164 -0.0287693 0)
(0.237861 -0.0265468 0)
(0.236607 -0.0242284 0)
(0.235408 -0.0218132 0)
(0.234272 -0.019301 0)
(0.233208 -0.0166923 0)
(0.232224 -0.0139884 0)
(0.231329 -0.0111918 0)
(0.230533 -0.00830609 0)
(0.229846 -0.0053361 0)
(0.260854 -0.0388716 0)
(0.259723 -0.0375534 0)
(0.258599 -0.0361678 0)
(0.257483 -0.03472 0)
(0.256379 -0.0332087 0)
(0.25529 -0.0316326 0)
(0.254219 -0.0299912 0)
(0.253169 -0.0282841 0)
(0.252145 -0.026511 0)
(0.251151 -0.0246719 0)
(0.250191 -0.0227669 0)
(0.249269 -0.0207962 0)
(0.248392 -0.0187606 0)
(0.247563 -0.016661 0)
(0.246789 -0.0144987 0)
(0.246075 -0.0122756 0)
(0.245426 -0.00999391 0)
(0.244849 -0.00765648 0)
(0.244349 -0.0052668 0)
(0.243931 -0.00282904 0)
(0.266694 -0.032275 0)
(0.265804 -0.0310834 0)
(0.264928 -0.0298428 0)
(0.264066 -0.0285546 0)
(0.263222 -0.027218 0)
(0.262398 -0.0258325 0)
(0.261595 -0.024398 0)
(0.260818 -0.0229146 0)
(0.260068 -0.0213826 0)
(0.259349 -0.0198025 0)
(0.258663 -0.0181747 0)
(0.258015 -0.0165004 0)
(0.257406 -0.0147805 0)
(0.256841 -0.0130166 0)
(0.256322 -0.0112103 0)
(0.255854 -0.00936368 0)
(0.25544 -0.00747919 0)
(0.255082 -0.00555955 0)
(0.254785 -0.00360786 0)
(0.254551 -0.00162762 0)
(0.272485 -0.0272883 0)
(0.271824 -0.0262051 0)
(0.271176 -0.0250812 0)
(0.27054 -0.0239204 0)
(0.269919 -0.0227224 0)
(0.269315 -0.0214871 0)
(0.268729 -0.0202149 0)
(0.268164 -0.0189065 0)
(0.267622 -0.0175625 0)
(0.267105 -0.0161836 0)
(0.266614 -0.014771 0)
(0.266153 -0.0133257 0)
(0.265724 -0.011849 0)
(0.265329 -0.0103423 0)
(0.26497 -0.00880741 0)
(0.264649 -0.00724608 0)
(0.264369 -0.00566041 0)
(0.264131 -0.00405266 0)
(0.263938 -0.00242531 0)
(0.263792 -0.000781071 0)
(0.277373 -0.0229035 0)
(0.276867 -0.0219482 0)
(0.276372 -0.020963 0)
(0.27589 -0.0199498 0)
(0.275423 -0.0189084 0)
(0.274971 -0.017839 0)
(0.274537 -0.0167421 0)
(0.27412 -0.0156184 0)
(0.273724 -0.0144686 0)
(0.273349 -0.0132933 0)
(0.272998 -0.0120937 0)
(0.27267 -0.0108707 0)
(0.272369 -0.00962542 0)
(0.272095 -0.00835926 0)
(0.271849 -0.00707361 0)
(0.271635 -0.00577002 0)
(0.271451 -0.00445018 0)
(0.271301 -0.0031159 0)
(0.271185 -0.00176911 0)
(0.271104 -0.000411883 0)
(0.281875 -0.0193813 0)
(0.281503 -0.018539 0)
(0.281141 -0.0176728 0)
(0.280789 -0.0167848 0)
(0.280448 -0.0158754 0)
(0.280119 -0.0149446 0)
(0.279804 -0.0139931 0)
(0.279503 -0.0130215 0)
(0.279218 -0.0120305 0)
(0.278949 -0.011021 0)
(0.278698 -0.00999371 0)
(0.278465 -0.00894968 0)
(0.278252 -0.0078899 0)
(0.278059 -0.00681549 0)
(0.277888 -0.00572763 0)
(0.277739 -0.00462761 0)
(0.277614 -0.00351678 0)
(0.277512 -0.00239657 0)
(0.277436 -0.0012685 0)
(0.277385 -0.000134143 0)
(0.285696 -0.0162821 0)
(0.285418 -0.0155537 0)
(0.285149 -0.0148074 0)
(0.284888 -0.0140445 0)
(0.284637 -0.0132654 0)
(0.284397 -0.0124701 0)
(0.284167 -0.0116593 0)
(0.283949 -0.0108335 0)
(0.283743 -0.00999327 0)
(0.28355 -0.00913938 0)
(0.283371 -0.0082725 0)
(0.283207 -0.00739343 0)
(0.283057 -0.006503 0)
(0.282924 -0.00560211 0)
(0.282807 -0.00469171 0)
(0.282706 -0.00377281 0)
(0.282624 -0.00284646 0)
(0.282559 -0.00191378 0)
(0.282514 -0.000975919 0)
(0.282487 -3.40725e-05 0)
(0.289065 -0.0136617 0)
(0.288867 -0.0130359 0)
(0.288675 -0.0123959 0)
(0.288489 -0.0117432 0)
(0.288311 -0.011078 0)
(0.28814 -0.0104005 0)
(0.287977 -0.0097111 0)
(0.287823 -0.00901042 0)
(0.287678 -0.00829898 0)
(0.287543 -0.00757734 0)
(0.287417 -0.00684613 0)
(0.287302 -0.006106 0)
(0.287198 -0.00535764 0)
(0.287106 -0.00460178 0)
(0.287025 -0.0038392 0)
(0.286956 -0.0030707 0)
(0.2869 -0.00229711 0)
(0.286857 -0.0015193 0)
(0.286827 -0.00073818 0)
(0.286811 4.5335e-05 0)
(0.291891 -0.0113157 0)
(0.29175 -0.0107885 0)
(0.291614 -0.0102506 0)
(0.291482 -0.00970305 0)
(0.291357 -0.00914596 0)
(0.291237 -0.00857958 0)
(0.291123 -0.00800428 0)
(0.291016 -0.0074205 0)
(0.290915 -0.00682868 0)
(0.290821 -0.00622927 0)
(0.290735 -0.00562278 0)
(0.290656 -0.00500973 0)
(0.290586 -0.00439066 0)
(0.290523 -0.00376615 0)
(0.290469 -0.0031368 0)
(0.290424 -0.00250323 0)
(0.290388 -0.00186608 0)
(0.290361 -0.00122602 0)
(0.290344 -0.000583737 0)
(0.290336 6.00713e-05 0)
(0.294282 -0.00924075 0)
(0.294188 -0.00880427 0)
(0.294097 -0.00835946 0)
(0.294009 -0.00790734 0)
(0.293925 -0.00744797 0)
(0.293845 -0.00698155 0)
(0.293769 -0.0065084 0)
(0.293698 -0.00602888 0)
(0.293631 -0.00554334 0)
(0.293569 -0.00505216 0)
(0.293512 -0.00455575 0)
(0.29346 -0.00405452 0)
(0.293413 -0.0035489 0)
(0.293372 -0.00303936 0)
(0.293336 -0.00252635 0)
(0.293307 -0.00201038 0)
(0.293284 -0.00149193 0)
(0.293266 -0.000971518 0)
(0.293255 -0.000449677 0)
(0.293251 7.30572e-05 0)
(0.296217 -0.00733444 0)
(0.296156 -0.00698454 0)
(0.296098 -0.00662847 0)
(0.296042 -0.006267 0)
(0.295988 -0.00590016 0)
(0.295937 -0.00552809 0)
(0.295889 -0.00515105 0)
(0.295844 -0.00476931 0)
(0.295801 -0.00438315 0)
(0.295762 -0.00399287 0)
(0.295726 -0.00359876 0)
(0.295694 -0.00320115 0)
(0.295664 -0.00280037 0)
(0.295639 -0.00239676 0)
(0.295617 -0.00199067 0)
(0.295599 -0.00158248 0)
(0.295586 -0.00117255 0)
(0.295576 -0.000761265 0)
(0.29557 -0.000349026 0)
(0.295568 6.3772e-05 0)
(0.29775 -0.00557776 0)
(0.297715 -0.0053096 0)
(0.297682 -0.00503686 0)
(0.29765 -0.00476024 0)
(0.297619 -0.00447975 0)
(0.29759 -0.00419547 0)
(0.297562 -0.0039076 0)
(0.297536 -0.00361635 0)
(0.297512 -0.00332194 0)
(0.29749 -0.00302459 0)
(0.297469 -0.00272452 0)
(0.297451 -0.00242197 0)
(0.297434 -0.00211719 0)
(0.29742 -0.00181043 0)
(0.297407 -0.00150195 0)
(0.297397 -0.00119203 0)
(0.297389 -0.000880938 0)
(0.297383 -0.000568955 0)
(0.29738 -0.00025637 0)
(0.297379 5.65254e-05 0)
(0.298877 -0.00391412 0)
(0.29886 -0.00372512 0)
(0.298843 -0.00353295 0)
(0.298828 -0.00333815 0)
(0.298813 -0.00314072 0)
(0.298798 -0.00294071 0)
(0.298785 -0.00273829 0)
(0.298772 -0.00253358 0)
(0.29876 -0.00232675 0)
(0.298749 -0.00211794 0)
(0.298739 -0.00190732 0)
(0.29873 -0.00169503 0)
(0.298722 -0.00148126 0)
(0.298715 -0.00126618 0)
(0.29871 -0.00104996 0)
(0.298705 -0.00083279 0)
(0.298701 -0.000614853 0)
(0.298698 -0.000396342 0)
(0.298697 -0.00017745 0)
(0.298697 4.16246e-05 0)
(0.299626 -0.00232138 0)
(0.299622 -0.00220875 0)
(0.299618 -0.00209449 0)
(0.299614 -0.00197873 0)
(0.29961 -0.0018614 0)
(0.299606 -0.00174255 0)
(0.299602 -0.00162227 0)
(0.299598 -0.00150065 0)
(0.299595 -0.00137779 0)
(0.299591 -0.00125377 0)
(0.299588 -0.00112869 0)
(0.299586 -0.00100265 0)
(0.299583 -0.000875742 0)
(0.299581 -0.000748077 0)
(0.299579 -0.00061976 0)
(0.299578 -0.0004909 0)
(0.299576 -0.00036161 0)
(0.299576 -0.000232 0)
(0.299575 -0.000102188 0)
(0.299575 2.77124e-05 0)
(0.299983 -0.000777959 0)
(0.299983 -0.000739434 0)
(0.299984 -0.000700195 0)
(0.299984 -0.000660808 0)
(0.299984 -0.000621119 0)
(0.299984 -0.00058105 0)
(0.299984 -0.000540603 0)
(0.299984 -0.000499795 0)
(0.299983 -0.000458644 0)
(0.299983 -0.000417166 0)
(0.299983 -0.000375384 0)
(0.299983 -0.000333321 0)
(0.299983 -0.000291005 0)
(0.299983 -0.000248464 0)
(0.299983 -0.000205728 0)
(0.299983 -0.000162829 0)
(0.299983 -0.0001198 0)
(0.299983 -7.66739e-05 0)
(0.299983 -3.34872e-05 0)
(0.299983 9.72583e-06 0)
(0.0303597 -0.090258 0)
(0.0114487 -0.0649158 0)
(0.00556131 -0.0484112 0)
(0.0034289 -0.0376852 0)
(0.00245346 -0.0298433 0)
(0.00189815 -0.0236319 0)
(0.00152707 -0.018544 0)
(0.00124947 -0.0143128 0)
(0.00102531 -0.0107763 0)
(0.000834876 -0.007831 0)
(0.000667511 -0.00540664 0)
(0.00051721 -0.00345221 0)
(0.000380634 -0.00192748 0)
(0.000256136 -0.000797419 0)
(0.000143383 -2.84345e-05 0)
(4.30868e-05 0.000414827 0)
(-4.25419e-05 0.000573659 0)
(-0.00010443 0.000500689 0)
(-0.000126779 0.000282054 0)
(-7.64252e-05 7.51912e-05 0)
(0.0646635 -0.173883 0)
(0.0359366 -0.140595 0)
(0.023255 -0.113452 0)
(0.0169152 -0.0922179 0)
(0.0131799 -0.0750382 0)
(0.0106821 -0.0607871 0)
(0.00884839 -0.0487854 0)
(0.00740175 -0.0385928 0)
(0.00619621 -0.0299198 0)
(0.00514991 -0.0225727 0)
(0.00421523 -0.0164169 0)
(0.00336472 -0.0113528 0)
(0.00258383 -0.00730016 0)