/*--------------------------------*- C++ -*----------------------------------*\
| =========                 |                                                 |
| \\      /  F ield         | OpenFOAM: The Open Source CFD Toolbox           |
|  \\    /   O peration     | Version:  v1806                                 |
|   \\  /    A nd           | Web:      www.OpenFOAM.com                      |
|    \\/     M anipulation  |                                                 |
\*---------------------------------------------------------------------------*/
FoamFile
{
    version     2.0;
    format      ascii;
    class       surfaceScalarField;
    location    "350";
    object      phi;
}
// * * * * * * * * * * * * * * * * * * * * * * * * * * * * * * * * * * * * * //

dimensions      [0 3 -1 0 0 0 0];
oriented        oriented;


internalField   nonuniform List<scalar> 
4680
(
0.104998
2.17046e-05
0.105
-0.000395628
0.104992
-0.000340153
0.104993
-0.000833509
0.104981
-0.000786287
0.10498
-0.00141185
0.104959
-0.00143165
0.104955
-0.00223591
0.104923
-0.00240379
0.104914
-0.00345263
0.104868
-0.00387014
0.104852
-0.00521027
0.104792
-0.00601289
0.104769
-0.00767054
0.104706
-0.00892539
0.104685
-0.0107803
0.104646
-0.0123586
0.104651
-0.0140419
0.104674
-0.0153291
-0.0161299
0.104739
0.104995
2.71141e-05
0.104999
-0.000399768
0.104985
-0.000326539
0.104987
-0.000835587
0.104964
-0.000763245
0.104965
-0.00141226
0.104928
-0.00139518
0.104926
-0.00223365
0.104871
-0.00234923
0.104865
-0.00344621
0.104788
-0.00379346
0.104778
-0.00519958
0.104681
-0.00591656
0.104669
-0.00765882
0.104575
-0.00883074
0.104579
-0.0107845
0.104542
-0.0123219
0.104598
-0.014098
0.104688
-0.0154191
-0.0162727
0.104831
0.104991
3.56495e-05
0.104998
-0.000406272
0.104976
-0.000304833
0.10498
-0.000839164
0.104943
-0.000726782
0.104945
-0.0014141
0.104888
-0.00133814
0.104887
-0.00223294
0.104803
-0.00226468
0.104799
-0.00344193
0.104681
-0.00367563
0.104675
-0.0051933
0.104528
-0.00576974
0.104528
-0.00765869
0.104386
-0.0086887
0.10442
-0.0108187
0.104372
-0.0122739
0.104493
-0.0142188
0.10465
-0.0155761
-0.0165098
0.104887
0.104989
4.68581e-05
0.104997
-0.000414398
0.104968
-0.000275721
0.104972
-0.000843159
0.104923
-0.000677628
0.104924
-0.00141566
0.104847
-0.0012611
0.104846
-0.00223134
0.104731
-0.00215024
0.104726
-0.00343666
0.104566
-0.00351545
0.10456
-0.00518808
0.104359
-0.00556826
0.104368
-0.00766816
0.104169
-0.00848941
0.104236
-0.0108855
0.104161
-0.0121988
0.104356
-0.0144138
0.104573
-0.0157933
-0.016859
0.104922
0.104987
6.01523e-05
0.104996
-0.000423362
0.10496
-0.000240125
0.104964
-0.000846593
0.104903
-0.000616981
0.104903
-0.00141561
0.104807
-0.00116543
0.104803
-0.00222714
0.10466
-0.00200706
0.104651
-0.0034284
0.104449
-0.00331302
0.104443
-0.00518211
0.104184
-0.00530898
0.104203
-0.00768695
0.103936
-0.00822275
0.10404
-0.0109895
0.103918
-0.0120769
0.104201
-0.014697
0.104464
-0.0160558
-0.0173384
0.104943
0.104985
7.47935e-05
0.104994
-0.000432188
0.104953
-0.000199244
0.104955
-0.000848305
0.104884
-0.000546461
0.104881
-0.00141245
0.104769
-0.00105308
0.10476
-0.00221847
0.10459
-0.00183718
0.104577
-0.00341505
0.104334
-0.00306951
0.104325
-0.00517334
0.104006
-0.00498994
0.104033
-0.00771415
0.103689
-0.00787906
0.103834
-0.0111346
0.103644
-0.0118862
0.104032
-0.0150854
0.104317
-0.0163411
-0.0179752
0.104954
0.104985
8.99108e-05
0.104992
-0.00043971
0.104948
-0.000154529
0.104946
-0.000846903
0.104868
-0.000468068
0.10486
-0.00140437
0.104733
-0.000926621
0.104718
-0.0022031
0.104524
-0.0016435
0.104503
-0.00339385
0.104221
-0.00278731
0.104206
-0.00515856
0.103827
-0.00461071
0.10386
-0.00774676
0.10343
-0.00745004
0.103618
-0.0113221
0.103336
-0.0116039
0.103847
-0.0155968
0.104127
-0.0166213
-0.0188075
0.10496
0.104985
0.000104517
0.10499
-0.000444589
0.104943
-0.000107673
0.104937
-0.000840765
0.104853
-0.000384173
0.104838
-0.00138922
0.104701
-0.000789168
0.104676
-0.00217821
0.104462
-0.00142979
0.104429
-0.00336116
0.104112
-0.00247016
0.104087
-0.00513299
0.103649
-0.0041728
0.103681
-0.00777893
0.103161
-0.00692959
0.103387
-0.0115485
0.102991
-0.0112078
0.103641
-0.0162474
0.103884
-0.016864
-0.0198853
0.104962
0.104987
0.000117515
0.104988
-0.000445306
0.104941
-6.06325e-05
0.104928
-0.000828011
0.104841
-0.000297557
0.104817
-0.00136442
0.104672
-0.000644495
0.104634
-0.00214034
0.104405
-0.00120082
0.104356
-0.00331227
0.104009
-0.00212338
0.103966
-0.00509001
0.103474
-0.00368005
0.103496
-0.00780135
0.102881
-0.00631461
0.103137
-0.0118044
0.102606
-0.0106768
0.103408
-0.0170492
0.103576
-0.0170324
-0.0212747
0.104965
0.10499
0.000127692
0.104985
-0.00044014
0.10494
-1.56657e-05
0.104918
-0.000806457
0.104832
-0.000211477
0.104795
-0.0013269
0.104647
-0.000497148
0.104592
-0.00208524
0.104354
-0.000962617
0.104283
-0.00324123
0.103914
-0.00175412
0.103845
-0.00502095
0.103303
-0.00313902
0.103303
-0.00780101
0.102594
-0.00560552
0.102863
-0.0120734
0.102178
-0.00999212
0.103136
-0.0180072
0.103187
-0.0170834
-0.0230643
0.104977
0.104994
0.000133718
0.104981
-0.000427116
0.104941
2.45828e-05
0.104908
-0.000773505
0.104826
-0.0001298
0.104772
-0.00127285
0.104628
-0.0003527
0.10455
-0.00200754
0.10431
-0.00072278
0.104209
-0.00314041
0.103827
-0.0013719
0.103721
-0.00491475
0.103141
-0.00255957
0.103101
-0.00776095
0.102303
-0.00480693
0.102561
-0.0123313
0.101706
-0.00913778
0.102816
-0.0191169
0.102698
-0.0169656
-0.0253736
0.105007
0.105
0.000134193
0.104976
-0.000404062
0.104944
5.7127e-05
0.104897
-0.000726117
0.104824
-5.7126e-05
0.104749
-0.00119753
0.104614
-0.000218141
0.104507
-0.00190016
0.104275
-0.000491338
0.104134
-0.00299955
0.103752
-0.000989859
0.103594
-0.00475673
0.102991
-0.00195628
0.102889
-0.00765947
0.102011
-0.00392863
0.102226
-0.0125459
0.101189
-0.00810125
0.102432
-0.0203596
0.102084
-0.0166179
-0.0283647
0.105075
0.105006
0.000127841
0.104971
-0.00036896
0.104949
7.90067e-05
0.104884
-0.000661
0.104826
1.39886e-06
0.104723
-0.0010952
0.104608
-0.000102272
0.104461
-0.0017536
0.104252
-0.000281952
0.104056
-0.00280394
0.103693
-0.00062728
0.103462
-0.00452548
0.102858
-0.00135226
0.102665
-0.00746671
0.101726
-0.00298931
0.101855
-0.0126749
0.100628
-0.00687401
0.10197
-0.0217015
0.101314
-0.0159622
-0.0322592
0.105208
0.105014
0.000113779
0.104965
-0.000320354
0.104957
8.78741e-05
0.104871
-0.000575379
0.104831
4.12374e-05
0.104696
-0.000960558
0.104608
-1.37311e-05
0.104412
-0.0015572
0.104242
-0.000111956
0.10397
-0.00253263
0.103657
-0.000314005
0.103318
-0.00418639
0.102753
-0.000787346
0.102421
-0.00713449
0.101459
-0.00202777
0.101441
-0.0126571
0.100025
-0.00545799
0.101419
-0.0230953
0.10034
-0.0148834
-0.0373656
0.105447
0.105022
9.19854e-05
0.104959
-0.000257892
0.104965
8.25938e-05
0.104857
-0.000468225
0.104839
5.98969e-05
0.104669
-0.000790668
0.104614
4.1412e-05
0.10436
-0.00130367
0.104242
6.0389e-06
0.103877
-0.00216735
0.103645
-8.22351e-05
0.10315
-0.00369151
0.102696
-0.000332763
0.102133
-0.00657135
0.101234
-0.00112943
0.100958
-0.0123812
0.0993975
-0.00389714
0.100769
-0.0244671
0.0990979
-0.0132119
-0.0441408
0.105873
0.105028
6.38114e-05
0.104953
-0.000183123
0.104972
6.41464e-05
0.104845
-0.00034109
0.104847
5.7871e-05
0.104643
-0.000586848
0.104622
6.21366e-05
0.10431
-0.000991749
0.10425
6.58739e-05
0.103783
-0.00169984
0.103649
5.18543e-05
0.102971
-0.0030136
0.102682
-4.33674e-05
0.101772
-0.00566181
0.10111
-0.000466984
0.100318
-0.0115895
0.0987935
-0.0023728
0.0999329
-0.0256065
0.0975014
-0.0107804
-0.0534455
0.106806
0.105032
3.22744e-05
0.104948
-0.000100037
0.104976
3.63512e-05
0.104835
-0.000199434
0.104852
4.03929e-05
0.104622
-0.000356716
0.104629
5.51492e-05
0.104269
-0.000631494
0.104259
7.53287e-05
0.103699
-0.00113965
0.10366
9.07517e-05
0.102794
-0.00214732
0.102689
6.09957e-05
0.101388
-0.00435986
0.101084
-0.000163261
0.0993919
-0.00989758
0.0983193
-0.00130018
0.0985613
-0.0258486
0.0955378
-0.00775682
-0.066979
0.109071
0.105031
1.73351e-06
0.104945
-1.47701e-05
0.104976
5.69413e-06
0.104829
-5.28233e-05
0.104852
1.81119e-05
0.10461
-0.000115515
0.104629
3.69385e-05
0.104244
-0.000246796
0.104259
6.01833e-05
0.103644
-0.000524534
0.10366
7.50945e-05
0.102665
-0.00115298
0.102686
4.00043e-05
0.10104
-0.00271405
0.101059
-0.000181894
0.0983831
-0.00722163
0.0982253
-0.00114235
0.0956994
-0.0233227
0.0934685
-0.00552599
-0.0863738
0.112863
0.105025
-2.36996e-05
0.104943
6.73063e-05
0.104972
-2.26736e-05
0.104828
9.12888e-05
0.104846
-5.83031e-07
0.104609
0.000122265
0.104621
2.49066e-05
0.104239
0.00013503
0.104246
5.27951e-05
0.103627
9.48912e-05
0.103637
6.48072e-05
0.102605
-0.000120601
0.102644
7.90556e-07
0.100841
-0.000911381
0.100959
-0.000299569
0.0975647
-0.00382746
0.0979062
-0.00148387
0.091976
-0.0173925
0.0921639
-0.0057139
-0.107122
0.112912
0.105012
-3.60493e-05
0.104953
0.00012658
0.104955
-2.43873e-05
0.104843
0.000203118
0.104822
2.02486e-05
0.104632
0.000312262
0.104587
7.04982e-05
0.104274
0.000447132
0.104194
0.000133408
0.10368
0.000609181
0.103551
0.000193516
0.102682
0.000748516
0.102485
0.000197634
0.100919
0.000654224
0.100618
2.10963e-06
0.097419
-0.000628849
0.0968917
-0.000956569
0.0889357
-0.00943658
0.0921862
-0.00896431
0.0943013
-0.109237
0.104756
-0.00170281
0.104764
-0.00169827
0.104772
-0.00169652
0.104781
-0.00169386
0.10479
-0.00169036
0.104799
-0.00168605
0.104808
-0.00168091
0.104817
-0.00167498
0.104826
-0.00166824
-0.00166066
0.104834
0.104843
-0.00171459
0.104859
-0.0017144
0.104875
-0.00171273
0.104892
-0.00171016
0.104908
-0.00170671
0.104924
-0.00170238
0.104941
-0.00169718
0.104957
-0.00169113
0.104973
-0.00168426
-0.00167661
0.104989
0.104914
-0.00174171
0.104941
-0.00174129
0.104968
-0.00173964
0.104994
-0.00173699
0.105021
-0.00173334
0.105047
-0.00172871
0.105073
-0.00172313
0.105099
-0.0017166
0.105124
-0.00170915
-0.00170082
0.105148
0.104962
-0.0017809
0.105001
-0.0017803
0.105039
-0.0017786
0.105078
-0.00177572
0.105117
-0.00177171
0.105154
-0.00176658
0.105192
-0.00176036
0.105228
-0.00175307
0.105264
-0.00174474
-0.00173541
0.105298
0.104996
-0.00183419
0.105049
-0.00183343
0.105102
-0.00183156
0.105155
-0.0018283
0.105207
-0.00182368
0.105258
-0.00181776
0.105308
-0.00181055
0.105357
-0.00180209
0.105405
-0.00179243
-0.00178161
0.105451
0.105025
-0.00190455
0.105095
-0.00190342
0.105164
-0.00190117
0.105233
-0.0018972
0.105301
-0.00189163
0.105368
-0.0018845
0.105433
-0.00187583
0.105497
-0.00186568
0.105558
-0.00185411
-0.00184119
0.105618
0.105051
-0.00199581
0.105141
-0.00199393
0.105231
-0.00199089
0.10532
-0.00198577
0.105407
-0.00197871
0.105492
-0.00196976
0.105575
-0.00195898
0.105656
-0.00194643
0.105734
-0.00193218
-0.00191632
0.105809
0.105079
-0.00211291
0.105195
-0.00210967
0.105309
-0.00210523
0.105422
-0.00209824
0.105532
-0.00208892
0.105639
-0.00207733
0.105744
-0.00206351
0.105845
-0.00204756
0.105942
-0.00202958
-0.0020097
0.106036
0.105115
-0.00226219
0.105262
-0.00225664
0.105406
-0.00224988
0.105548
-0.00223998
0.105686
-0.0022273
0.105821
-0.00221188
0.105951
-0.00219375
0.106077
-0.00217303
0.106197
-0.00214989
-0.0021245
0.106312
0.105167
-0.00245193
0.105353
-0.00244246
0.105535
-0.00243201
0.105712
-0.00241772
0.105885
-0.00240012
0.106053
-0.00237919
0.106214
-0.00235497
0.106368
-0.00232762
0.106516
-0.00229737
-0.00226447
0.106656
0.105248
-0.00269249
0.105482
-0.00267687
0.105711
-0.0026607
0.105933
-0.00263989
0.106148
-0.00261513
0.106355
-0.00258634
0.106554
-0.00255353
0.106743
-0.00251697
0.106923
-0.00247696
-0.00243383
0.107092
0.105379
-0.00299614
0.105674
-0.00297205
0.105961
-0.00294723
0.106238
-0.00291689
0.106505
-0.00288185
0.10676
-0.00284192
0.107004
-0.00279712
0.107235
-0.00274782
0.107452
-0.00269444
-0.00263745
0.107656
0.105592
-0.0033794
0.105962
-0.00334269
0.106321
-0.00330554
0.106665
-0.00326177
0.106996
-0.00321229
0.107311
-0.00315681
0.107609
-0.00309541
0.10789
-0.0030286
0.108152
-0.00295699
-0.00288122
0.108396
0.105934
-0.00386617
0.106401
-0.00381025
0.106851
-0.00375578
0.107283
-0.00369338
0.107695
-0.00362403
0.108085
-0.00354728
0.108453
-0.0034632
0.108797
-0.00337253
0.109116
-0.00327604
-0.00317447
0.109409
0.106515
-0.00450832
0.107121
-0.00441577
0.1077
-0.00433475
0.108251
-0.00424439
0.108773
-0.00414588
0.109264
-0.00403853
0.109723
-0.00392239
0.110149
-0.00379839
0.11054
-0.00366752
-0.00353182
0.110898
0.107655
-0.00535723
0.108458
-0.00521831
0.109219
-0.00509659
0.109937
-0.00496179
0.110607
-0.00481626
0.111228
-0.00465948
0.111797
-0.0044915
0.112312
-0.00431356
0.112771
-0.00412649
-0.00393139
0.113171
0.110017
-0.00630319
0.110996
-0.00619721
0.111896
-0.00599647
0.112723
-0.00578895
0.113477
-0.00556964
0.114152
-0.00533465
0.114745
-0.00508446
0.115253
-0.00482204
0.115675
-0.00454867
-0.0042745
0.116018
0.114058
-0.00749774
0.114869
-0.00700859
0.115515
-0.0066423
0.116012
-0.00628592
0.11637
-0.00592709
0.116595
-0.00555963
0.116693
-0.00518309
0.116668
-0.00479681
0.11652
-0.00440044
-0.00400936
0.116255
0.112663
-0.00724846
0.11227
-0.00661522
0.111616
-0.00598862
0.110752
-0.00542179
0.10971
-0.00488517
0.108528
-0.00437774
0.107247
-0.0039022
0.105907
-0.00345648
0.104536
-0.00302904
-0.00257365
0.1031
0.0870528
0.0804376
0.074449
0.0690272
0.064142
0.0597643
0.0558621
0.0524056
0.0493766
0.0468029
0.104861
-0.00452616
0.104887
-0.00445113
0.104912
-0.0043629
0.104937
-0.00426441
0.104959
-0.00415765
0.10498
-0.00404499
0.104998
-0.00392881
0.105014
-0.00381132
0.105027
-0.00369473
0.105038
-0.00358094
0.105046
-0.00347194
0.105052
-0.00336918
0.105055
-0.00327444
0.105055
-0.00318858
0.105054
-0.00311332
0.105049
-0.0030487
0.105043
-0.00299663
0.105035
-0.00295615
0.105025
-0.00292955
-0.00291548
0.10503
-0.00456733
0.105068
-0.00448899
0.105101
-0.00439664
0.10513
-0.00429336
0.105154
-0.00418158
0.105173
-0.00406371
0.105186
-0.00394226
0.105195
-0.00381958
0.105198
-0.00369797
0.105196
-0.00357942
0.10519
-0.00346598
0.10518
-0.00335912
0.105167
-0.00326069
0.10515
-0.00317147
0.10513
-0.00309331
0.105107
-0.00302605
0.105082
-0.00297192
0.105056
-0.00292948
0.105028
-0.00290186
-0.00288602
0.105211
-0.00463063
0.105268
-0.00454559
0.105317
-0.00444546
0.105357
-0.00433362
0.105388
-0.00421278
0.10541
-0.0040857
0.105423
-0.00395514
0.105427
-0.00382362
0.105423
-0.00369365
0.105411
-0.0035673
0.105391
-0.00344674
0.105366
-0.00333345
0.105334
-0.00322935
0.105298
-0.00313515
0.105257
-0.0030528
0.105213
-0.00298193
0.105166
-0.00292503
0.105117
-0.00288018
0.105066
-0.00285112
-0.00283363
0.105388
-0.00472003
0.105467
-0.00462468
0.105534
-0.00451258
0.105588
-0.00438779
0.105629
-0.00425348
0.105656
-0.00411284
0.10567
-0.00396899
0.105671
-0.00382475
0.10566
-0.00368282
0.105638
-0.00354545
0.105606
-0.0034149
0.105566
-0.0032927
0.105517
-0.0031808
0.105462
-0.00307985
0.105401
-0.00299184
0.105335
-0.00291622
0.105266
-0.00285565
0.105193
-0.00280774
0.105119
-0.00277683
-0.00275769
0.10557
-0.00483889
0.105674
-0.00472879
0.105761
-0.00459985
0.105831
-0.00445707
0.105882
-0.00430428
0.105914
-0.00414523
0.105928
-0.00398352
0.105926
-0.00382233
0.105908
-0.00366466
0.105875
-0.00351289
0.10583
-0.00336944
0.105773
-0.00323581
0.105706
-0.00311403
0.105631
-0.00300459
0.105549
-0.00290955
0.10546
-0.00282807
0.105368
-0.00276301
0.105272
-0.00271146
0.105173
-0.00267836
-0.00265739
0.10577
-0.00499121
0.105902
-0.00486083
0.106012
-0.0047091
0.106097
-0.0045423
0.106158
-0.00436514
0.106195
-0.0041821
0.106208
-0.0039974
0.106201
-0.00381464
0.106173
-0.00363713
0.106128
-0.00346745
0.106066
-0.0033081
0.105991
-0.00316058
0.105904
-0.00302689
0.105807
-0.00290736
0.105701
-0.00280404
0.105589
-0.00271577
0.105472
-0.00264555
0.10535
-0.0025899
0.105226
-0.00255433
-0.0025314
0.106
-0.00518197
0.106163
-0.00502423
0.106296
-0.00484227
0.106398
-0.00464408
0.106469
-0.00443551
0.106509
-0.00422199
0.10652
-0.00400845
0.106504
-0.00379899
0.106464
-0.00359727
0.106403
-0.00340599
0.106322
-0.00322773
0.106226
-0.00306391
0.106115
-0.00291644
0.105993
-0.00278541
0.105862
-0.00267279
0.105723
-0.002577
0.105579
-0.00250114
0.10543
-0.00244112
0.105279
-0.00240292
-0.00237806
0.106271
-0.00541711
0.10647
-0.00522282
0.106628
-0.00500123
0.106747
-0.00476254
0.106826
-0.00451409
0.106866
-0.00426247
0.106871
-0.00401342
0.106844
-0.00377161
0.106787
-0.00354098
0.106706
-0.00332433
0.106602
-0.00312423
0.10648
-0.00294187
0.106343
-0.00277902
0.106193
-0.00263539
0.106033
-0.00251275
0.105865
-0.00240906
0.105691
-0.00232736
0.105513
-0.00226295
0.105332
-0.00222212
-0.0021955
0.106598
-0.00570348
0.106836
-0.00546064
0.107022
-0.00518743
0.107157
-0.00489694
0.107241
-0.00459836
0.107278
-0.00429968
0.107272
-0.0040076
0.107228
-0.00372726
0.10715
-0.00346284
0.107043
-0.00321709
0.106911
-0.00299241
0.106759
-0.00278966
0.10659
-0.00261025
0.106408
-0.00245339
0.106216
-0.0023205
0.106015
-0.00220896
0.10581
-0.00212162
0.1056
-0.00205314
0.105388
-0.00200994
-0.00198187
0.107001
-0.00604868
0.107282
-0.00574157
0.107496
-0.0054014
0.107644
-0.005045
0.10773
-0.00468395
0.107758
-0.00432784
0.107734
-0.00398431
0.107666
-0.00365889
0.107559
-0.00335577
0.107419
-0.00307745
0.107253
-0.00282594
0.107065
-0.00260153
0.10686
-0.00240508
0.106641
-0.00223505
0.106413
-0.00209236
0.106178
-0.00197363
0.105937
-0.00188139
0.105694
-0.00180955
0.105448
-0.00176453
-0.0017355
0.107505
-0.00646086
0.107832
-0.00606875
0.108072
-0.00564195
0.108229
-0.00520218
0.108309
-0.00476393
0.10832
-0.00433859
0.10827
-0.00393453
0.108169
-0.00355734
0.108024
-0.00321089
0.107844
-0.0028971
0.107635
-0.00261732
0.107404
-0.00237088
0.107157
-0.00215786
0.106898
-0.00197563
0.10663
-0.00182447
0.106356
-0.0016999
0.106079
-0.0016042
0.105799
-0.0015301
0.105519
-0.00148421
-0.00145465
0.108143
-0.00694861
0.108519
-0.00644434
0.108783
-0.00590571
0.108942
-0.005361
0.109006
-0.0048283
0.108988
-0.00432061
0.1089
-0.00384653
0.108754
-0.00341107
0.10856
-0.00301732
0.108329
-0.00266606
0.108069
-0.00235761
0.107788
-0.00208992
0.107492
-0.00186191
0.107186
-0.0016694
0.106874
-0.00151204
0.106558
-0.00138368
0.10624
-0.00128664
0.105922
-0.0012116
0.105604
-0.00116621
-0.00113619
0.10897
-0.0075224
0.109396
-0.00687005
0.109677
-0.00618713
0.109827
-0.0055109
0.109862
-0.00486343
0.1098
-0.00425869
0.109658
-0.00370449
0.109452
-0.00320447
0.109194
-0.00276011
0.108899
-0.00237035
0.108575
-0.00203388
0.108232
-0.00174665
0.107876
-0.00150616
0.107513
-0.00130618
0.107146
-0.00114564
0.106779
-0.00101606
0.106412
-0.000920293
0.106046
-0.000845649
0.105683
-0.000802419
-0.000771291
0.110085
-0.00819776
0.110561
-0.00734654
0.110849
-0.00647537
0.110972
-0.00563321
0.110954
-0.00484583
0.110822
-0.00412622
0.110597
-0.00347977
0.1103
-0.002908
0.10995
-0.00240993
0.109561
-0.00198147
0.109146
-0.00161836
0.108713
-0.00131426
0.108272
-0.00106459
0.107827
-0.000860919
0.107382
-0.000700993
0.10694
-0.000573765
0.106501
-0.000482044
0.106066
-0.000409888
0.105634
-0.000370723
-0.000337558
0.111685
-0.00898467
0.112191
-0.00785278
0.112442
-0.00672634
0.112478
-0.00566969
0.112342
-0.00471003
0.112069
-0.00385313
0.11169
-0.00309993
0.111231
-0.00244904
0.110716
-0.00189504
0.110164
-0.00142973
0.10959
-0.00104448
0.109005
-0.000729369
0.108417
-0.000476506
0.107832
-0.000276032
0.107254
-0.000122871
0.106686
-6.05678e-06
0.106127
7.77928e-05
0.105575
0.000141364
0.105031
0.000173604
0.000204514
0.113991
-0.00980493
0.114383
-0.00824419
0.114416
-0.0067595
0.114172
-0.00542603
0.113722
-0.00426032
0.11312
-0.00325024
0.112408
-0.00238818
0.111623
-0.00166407
0.11079
-0.00106224
0.109934
-0.000573331
0.109073
-0.000183944
0.10822
0.000123634
0.10738
0.000363333
0.106561
0.00054299
0.105764
0.000674476
0.104991
0.000766701
0.104241
0.000828311
0.103515
0.000866811
0.102803
0.000885492
0.000896324
0.116412
-0.0101982
0.116194
-0.00802655
0.11551
-0.00607514
0.114521
-0.00443773
0.113333
-0.00307218
0.112025
-0.00194165
0.110658
-0.00102157
0.109282
-0.000288351
0.107919
0.000301387
0.106584
0.000761552
0.105294
0.00110621
0.104058
0.00135924
0.102881
0.00154039
0.101764
0.00166021
0.100702
0.00173603
0.0996993
0.00176955
0.0987433
0.00178432
0.0978449
0.00176518
0.0969747
0.00175576
0.0017071
0.114784
-0.0087278
0.112818
-0.00606012
0.110577
-0.00383433
0.108198
-0.00205918
0.105806
-0.000680054
0.103472
0.000392454
0.101257
0.0011934
0.0991821
0.00178673
0.0972676
0.00221593
0.0955148
0.00251431
0.093912
0.00270908
0.0924494
0.0028218
0.0911159
0.00287392
0.0898998
0.00287632
0.0887876
0.00284817
0.087772
0.00278515
0.0868356
0.00272072
0.0859874
0.00261344
0.0851868
0.00255638
0.00240586
0.0978101
-0.00343805
0.0930305
-0.0012805
0.0887303
0.000465872
0.0850114
0.00165974
0.0818307
0.00250057
0.0791591
0.00306404
0.0769247
0.00342786
0.0750644
0.00364704
0.0735198
0.00376053
0.072239
0.00379512
0.071177
0.00377105
0.0702954
0.00370337
0.0695632
0.0036061
0.0689535
0.00348608
0.0684454
0.00335624
0.0680209
0.00320969
0.0676643
0.0030773
0.0673745
0.00290328
0.0671217
0.00280915
0.00256349
0.0443134
-0.000948548
0.042277
0.000755938
0.04074
0.00200281
0.0398557
0.00254406
0.0394364
0.00291985
0.0393878
0.00311268
0.0396034
0.00321228
0.0400008
0.00324962
0.0405191
0.00324224
0.041115
0.00319921
0.0417583
0.00312779
0.0424272
0.00303439
0.0431079
0.00292549
0.043789
0.00280497
0.0444647
0.00268053
0.0451284
0.00254598
0.0457756
0.00243006
0.0464141
0.00226478
0.0470018
0.0022215
0.00191735
0.0030428
-0.00399134
0.00408474
-0.000286002
0.00461073
0.00147682
0.00496709
0.0021877
0.00529505
0.0025919
0.00565108
0.00275665
0.00603566
0.0028277
0.00644159
0.00284368
0.00685919
0.00282465
0.00727983
0.00277857
0.00769678
0.00271084
0.00810524
0.00262593
0.00850208
0.00252865
0.00888522
0.00242183
0.00925375
0.002312
0.00960624
0.00219348
0.00994423
0.00209207
0.0102626
0.00194642
0.0105718
0.00191228
0.00163895
0.000737242
-0.00472859
0.00142646
-0.000975223
0.0020632
0.000840079
0.00255838
0.00169252
0.00303593
0.00211435
0.00352504
0.00226753
0.00402986
0.00232288
0.00454559
0.00232795
0.0050646
0.00230564
0.00557955
0.00226362
0.00608453
0.00220585
0.00657528
0.00213519
0.00704905
0.00205487
0.00750401
0.00196687
0.00793974
0.00187627
0.00835436
0.00177886
0.00875165
0.00169479
0.00912083
0.00157724
0.00948689
0.00154622
0.00132944
-0.000609401
-0.00411919
-0.000380298
-0.00120433
0.000150152
0.000309629
0.000674798
0.00116787
0.0012427
0.00154645
0.00182827
0.00168196
0.00242563
0.00172552
0.00302765
0.00172593
0.00362686
0.00170643
0.00421657
0.00167391
0.00479148
0.00163095
0.00534773
0.00157894
0.00588291
0.00151969
0.00639536
0.00145442
0.00688491
0.00138673
0.00734972
0.00131405
0.0077939
0.0012506
0.00820624
0.0011649
0.00861251
0.00113996
0.000986704
-0.00134379
-0.0027754
-0.00150053
-0.00104758
-0.0011724
-1.84947e-05
-0.000650209
0.000645677
-3.56672e-05
0.000931908
0.000610303
0.00103599
0.00127133
0.00106448
0.00193416
0.0010631
0.00259029
0.0010503
0.00323316
0.00103104
0.00385784
0.00100627
0.0044608
0.000975975
0.00503986
0.000940631
0.0055935
0.000900782
0.00612168
0.000858553
0.00662261
0.000813115
0.00710054
0.000772676
0.00754401
0.000721426
0.00797936
0.000704605
0.000621094
-0.00165483
-0.00112057
-0.00208123
-0.000621184
-0.00189552
-0.00020421
-0.00140204
0.000152202
-0.000773895
0.000303763
-9.56039e-05
0.000357703
0.000600887
0.000367994
0.00129826
0.000365732
0.00198681
0.000361744
0.0026599
0.000357959
0.00331283
0.000353337
0.00394231
0.000346488
0.00454635
0.000336599
0.0051235
0.000323628
0.00567379
0.000308269
0.00619546
0.000291444
0.00669273
0.0002754
0.00715416
0.000259995
0.00760622
0.000252546
0.000242629
-0.00166153
0.000540966
-0.00216827
-0.000114444
-0.00204438
-0.000328105
-0.0015761
-0.000316076
-0.000953009
-0.000319328
-0.000269965
-0.000325342
0.000434339
-0.00033631
0.00113971
-0.000339637
0.00183553
-0.000334077
0.00251509
-0.000321606
0.00317393
-0.000305497
0.00380894
-0.000288523
0.00441823
-0.000272693
0.00500043
-0.000258568
0.00555553
-0.000246832
0.00608178
-0.00023481
0.00658335
-0.000226166
0.00704879
-0.00020545
0.0075047
-0.000203357
-0.000138472
-0.00138601
0.00192698
-0.00177865
0.000278193
-0.00162681
-0.000479943
-0.00117195
-0.00077094
-0.000569368
-0.000921906
9.34307e-05
-0.00098814
0.000778409
-0.00102129
0.00146502
-0.00102625
0.00214256
-0.00101162
0.0028045
-0.000983548
0.00344657
-0.000947566
0.00406582
-0.000907773
0.00466041
-0.000867284
0.00522895
-0.000827103
0.00577136
-0.000789247
0.00628584
-0.000749285
0.00677645
-0.000716778
0.00723177
-0.000660766
0.00767851
-0.000650096
-0.000511943
-0.000765812
0.00269279
-0.000892936
0.000405317
-0.000638774
-0.000734105
-0.000194047
-0.00121567
0.000371354
-0.00148731
0.000988468
-0.00160525
0.00162649
-0.00165931
0.0022673
-0.00166706
0.00290092
-0.00164523
0.00352117
-0.0016038
0.00412397
-0.00155037
0.00470643
-0.00149023
0.00526666
-0.00142752
0.00580317
-0.00136361
0.00631574
-0.00130182
0.00680244
-0.00123598
0.00726716
-0.0011815
0.0076986
-0.00109221
0.00812337
-0.00107486
-0.000867615
0.000344333
0.00234846
0.00054927
0.00020038
0.000922323
-0.00110716
0.00135082
-0.00164416
0.00185245
-0.00198894
0.0023957
-0.00214851
0.00295826
-0.00222187
0.00352603
-0.00223483
0.00409029
-0.00220949
0.00464531
-0.00215882
0.00518706
-0.00209211
0.00571254
-0.00201571
0.00621966
-0.00193464
0.00670671
-0.00185067
0.0071732
-0.0017683
0.00761702
-0.00167981
0.00804178
-0.00160626
0.00843641
-0.00148684
0.00882732
-0.00146576
-0.001195
0.00213349
0.000214969
0.00269064
-0.000356775
0.00306779
-0.0014843
0.0034409
-0.00201728
0.00384441
-0.00239244
0.00428169
-0.00258579
0.00473911
-0.00267929
0.00520676
-0.00270248
0.00567708
-0.00267982
0.00614453
-0.00262627
0.00660484
-0.00255242
0.00705463
-0.0024655
0.00749142
-0.00237143
0.00791313
-0.00227237
0.00831873
-0.0021739
0.00870626
-0.00206734
0.00907773
-0.00197773
0.00942566
-0.00183477
0.00976745
-0.00180755
-0.00149198
0.0172161
-0.000172995
-0.0168281
0.0176762
-0.000816867
0.0179717
-0.00177979
0.0183237
-0.00236936
0.0187109
-0.00277957
0.0191782
-0.0030531
0.0197203
-0.00322137
0.0203224
-0.00330462
0.020968
-0.00332542
0.021642
-0.00330027
0.0223316
-0.00324201
0.0230258
-0.00315973
0.0237165
-0.00306209
0.0243959
-0.00295181
0.0250598
-0.00283776
0.0257028
-0.00271041
0.0263222
-0.00259708
0.0269223
-0.00243489
0.0274765
-0.00236175
-0.00207437
0.0451038
0.00458069
-0.0498575
0.0420273
0.00225963
0.0397379
0.000509608
0.0381007
-0.000732125
0.0369338
-0.0016127
0.036107
-0.0022263
0.0355333
-0.00264763
0.0351525
-0.00292388
0.0349206
-0.0030935
0.0348031
-0.00318271
0.0347733
-0.0032123
0.0348103
-0.00319672
0.034898
-0.00314978
0.0350221
-0.00307589
0.0351736
-0.00298924
0.0353419
-0.00287867
0.0355232
-0.00277847
0.0357138
-0.00262549
0.0359024
-0.00255032
-0.00230811
0.0669166
0.00868748
-0.0710234
0.0632933
0.00588291
0.0601161
0.00368681
0.0574243
0.00195965
0.0551756
0.000635981
0.0533146
-0.000365206
0.0517789
-0.00111196
0.0505099
-0.00165488
0.0494636
-0.00204726
0.0485987
-0.00231778
0.0478822
-0.0024958
0.047287
-0.00260147
0.0467912
-0.00265407
0.046376
-0.00266064
0.0460275
-0.00264077
0.0457325
-0.00258361
0.0454821
-0.00252808
0.0452735
-0.00241689
0.0450889
-0.00236577
-0.00218803
0.0775183
0.0107687
-0.0795995
0.075195
0.00820617
0.07282
0.00606181
0.0705115
0.0042682
0.0683512
0.00279626
0.0663746
0.00161135
0.0645895
0.00067314
0.0629922
-5.75727e-05
0.0615784
-0.000633432
0.0603247
-0.0010641
0.0592151
-0.00138617
0.0582319
-0.0016183
0.0573584
-0.00178058
0.0565799
-0.00188205
0.0558827
-0.00194363
0.0552572
-0.00195808
0.0546899
-0.00196075
0.0541842
-0.00191119
0.0537114
-0.00189301
-0.00179143
0.0803925
0.0113045
-0.0809284
0.0794013
0.00919743
0.078134
0.00732904
0.0767044
0.00569779
0.0752042
0.00429647
0.0737006
0.00311503
0.0722389
0.00213476
0.0708501
0.00133129
0.0695377
0.000678906
0.0683139
0.000159729
0.0671813
-0.00025356
0.0661358
-0.000572833
0.0651712
-0.000815993
0.0642831
-0.000993927
0.0634623
-0.0011228
0.0627063
-0.00120214
0.0620011
-0.00125556
0.0613567
-0.00126671
0.0607411
-0.00127748
-0.0012454
0.0796624
0.0110436
-0.0794015
0.0794985
0.00936137
0.07903
0.00779749
0.0783389
0.00638885
0.0774951
0.00514035
0.0765576
0.00405253
0.0755726
0.00311973
0.0745728
0.00233108
0.0735804
0.00167134
0.0726144
0.00112568
0.0716822
0.000678693
0.0707907
0.000318625
0.0699415
3.3279e-05
0.0691386
-0.000191044
0.0683769
-0.000361086
0.0676596
-0.0004849
0.0669758
-0.000571746
0.0663368
-0.000627705
0.0657174
-0.000658115
-0.000673928
0.077919
0.0105132
-0.0773885
0.0781279
0.0091525
0.0780794
0.00784595
0.0778286
0.00663964
0.0774222
0.00554681
0.076902
0.00457267
0.0763038
0.00371799
0.0756561
0.0029787
0.0749811
0.00234635
0.0742957
0.00181113
0.0736109
0.00136341
0.0729366
0.000992947
0.0722786
0.00069129
0.07164
0.000447537
0.0710214
0.000257574
0.0704272
0.00010932
0.0698507
4.72777e-06
0.0693001
-7.71487e-05
0.0687609
-0.000118918
-0.000158822
0.076304
0.00996702
-0.0757578
0.0766176
0.00883883
0.0767328
0.00773076
0.0766856
0.00668686
0.0765075
0.00572497
0.0762269
0.0048532
0.0758697
0.00407518
0.075458
0.00339039
0.0750093
0.00279507
0.0745377
0.0022828
0.0740536
0.00184752
0.0735658
0.00148069
0.0730797
0.00117739
0.0725998
0.000927415
0.0721277
0.000729757
0.0716666
0.000570385
0.0712148
0.000456536
0.0707741
0.000363573
0.0703397
0.000315403
0.000268418
0.0750933
0.00948366
-0.0746099
0.0754024
0.00852973
0.0755575
0.00757567
0.0755837
0.00666062
0.0755043
0.0058044
0.0753402
0.00501733
0.0751104
0.00430498
0.0748317
0.00366902
0.074518
0.00310874
0.0741807
0.00262017
0.0738284
0.0021998
0.0734682
0.00184083
0.0731051
0.00154053
0.0727428
0.00128969
0.0723836
0.00108903
0.0720289
0.000925009
0.0716794
0.000806047
0.0713337
0.000709296
0.0709921
0.000656952
0.000611482
0.0742186
0.00906684
-0.0738018
0.0744972
0.00825108
0.0746512
0.00742165
0.0746993
0.00661258
0.0746597
0.005844
0.0745493
0.00512774
0.0743832
0.00447101
0.0741751
0.00387717
0.0739363
0.00334758
0.0736761