/*--------------------------------*- C++ -*----------------------------------*\
| =========                 |                                                 |
| \\      /  F ield         | OpenFOAM: The Open Source CFD Toolbox           |
|  \\    /   O peration     | Version:  v1806                                 |
|   \\  /    A nd           | Web:      www.OpenFOAM.com                      |
|    \\/     M anipulation  |                                                 |
\*---------------------------------------------------------------------------*/
FoamFile
{
    version     2.0;
    format      ascii;
    class       surfaceScalarField;
    location    "13";
    object      phi;
}
// * * * * * * * * * * * * * * * * * * * * * * * * * * * * * * * * * * * * * //

dimensions      [0 3 -1 0 0 0 0];
oriented        oriented;


internalField   nonuniform List<scalar> 
4680
(
1.04999
-0.00308222
1.04851
-0.00924108
1.05019
0.0100711
1.0509
0.00551298
1.04823
-0.0276863
1.04895
-0.0395022
1.05131
0.00955388
1.05288
0.0178914
1.0501
-0.0485559
1.04544
-0.0806173
1.04694
-0.029097
1.05239
0.00939355
1.05209
-0.0456056
1.04733
-0.120461
1.04426
-0.116865
1.04752
-0.0687778
1.05179
-0.0780589
1.05181
-0.136787
1.05149
-0.178455
-0.182453
1.04952
1.04919
-0.00227198
1.04805
-0.00810365
1.05058
0.00754587
1.05085
0.00524506
1.04876
-0.0256004
1.04946
-0.040198
1.05009
0.00891509
1.05253
0.0154598
1.04914
-0.0451752
1.04411
-0.0755852
1.04587
-0.0308533
1.05058
0.0046812
1.05133
-0.046358
1.04713
-0.116255
1.04248
-0.11222
1.04397
-0.0702631
1.04907
-0.083157
1.04717
-0.134887
1.03884
-0.170126
-0.17879
1.03517
1.04825
-0.000517841
1.04914
-0.00899629
1.05101
0.00567102
1.05086
0.00539513
1.04977
-0.0245054
1.04904
-0.0394743
1.04817
0.00978567
1.05126
0.0123764
1.04773
-0.0416476
1.0449
-0.0727593
1.0453
-0.0312512
1.04892
0.0010617
1.0501
-0.047539
1.04578
-0.111932
1.03968
-0.106123
1.04106
-0.0716374
1.04553
-0.0876326
1.04741
-0.13677
1.04778
-0.170488
-0.176298
1.04528
1.04837
0.00111446
1.05059
-0.0112142
1.05081
0.00544816
1.05069
0.00551657
1.04936
-0.0231787
1.04777
-0.0378857
1.04714
0.0104223
1.05088
0.00863267
1.04717
-0.0379362
1.04519
-0.0707863
1.04445
-0.0305035
1.04785
-0.00233733
1.04864
-0.0483358
1.04301
-0.1063
1.0368
-0.0999138
1.03868
-0.0735129
1.04494
-0.0938951
1.04182
-0.133652
1.03597
-0.164637
-0.171663
1.03134
1.04881
0.00230839
1.05129
-0.0137017
1.04983
0.00690926
1.05065
0.00470231
1.04865
-0.0211835
1.04674
-0.0359788
1.04712
0.010046
1.05097
0.00478807
1.0464
-0.033371
1.04612
-0.0705091
1.04271
-0.0270901
1.04636
-0.00599003
1.04546
-0.0474308
1.04149
-0.102336
1.03478
-0.0932014
1.03889
-0.0776227
1.04063
-0.0956356
1.04343
-0.13645
1.04184
-0.163049
-0.173572
1.04375
1.04941
0.00289551
1.05128
-0.015565
1.04893
0.00925738
1.05099
0.0026384
1.04714
-0.0173315
1.04657
-0.0354065
1.04822
0.00839023
1.05049
0.00252214
1.04615
-0.0290341
1.04573
-0.0700855
1.04035
-0.0217092
1.04458
-0.0102181
1.04349
-0.0463405
1.03989
-0.0987371
1.03438
-0.0876939
1.03649
-0.0797282
1.03773
-0.0968824
1.04003
-0.138744
1.04004
-0.163065
-0.176224
1.04269
1.04992
0.00297181
1.05009
-0.0157268
1.04812
0.0112257
1.05136
-0.000600008
1.04623
-0.012209
1.04776
-0.0369345
1.0482
0.00795318
1.05011
0.0006058
1.04598
-0.0248971
1.04406
-0.0681633
1.03799
-0.0156473
1.04446
-0.0166867
1.04137
-0.0432473
1.03897
-0.0963357
1.033
-0.0817217
1.03409
-0.0808275
1.03499
-0.0977826
1.0327
-0.136445
1.03059
-0.160956
-0.17395
1.02831
1.04938
0.00359452
1.04819
-0.014544
1.04856
0.0108617
1.05221
-0.00425183
1.04638
-0.00637851
1.04878
-0.0393375
1.04686
0.00987814
1.04974
-0.00227896
1.0446
-0.0197556
1.04268
-0.0662389
1.0377
-0.0106712
1.04466
-0.0236492
1.03871
-0.0372975
1.03845
-0.0960739
1.0291
-0.0723674
1.0325
-0.0842349
1.03018
-0.0954572
1.03547
-0.141732
1.03772
-0.163209
-0.174494
1.03826
1.04825
0.00534847
1.04806
-0.0143624
1.04981
0.00911439
1.0525
-0.00694393
1.04724
-0.0011197
1.04841
-0.0405007
1.04459
0.0136968
1.04939
-0.00707849
1.04394
-0.0143036
1.0424
-0.0647013
1.03805
-0.00632001
1.04375
-0.029355
1.0363
-0.0298445
1.03587
-0.0956454
1.02643
-0.0629249
1.03099
-0.0887941
1.0276
-0.0920686
1.02943
-0.143559
1.02523
-0.159013
-0.174361
1.0251
1.04807
0.00727356
1.05007
-0.0163575
1.04979
0.00939316
1.05177
-0.00891849
1.04791
0.00273954
1.0468
-0.0393983
1.04333
0.0171662
1.05066
-0.0143994
1.04293
-0.00658078
1.04273
-0.0645033
1.03752
-0.00110204
1.04151
-0.0333507
1.03316
-0.0214888
1.03556
-0.0980467
1.02346
-0.0508276
1.02936
-0.0946971
1.02228
-0.0849822
1.03019
-0.151473
1.0303
-0.159124
-0.180381
1.03632
1.04924
0.00803358
1.0516
-0.0187173
1.04794
0.013052
1.05088
-0.0118567
1.0483
0.00532305
1.0459
-0.0370013
1.04452
0.0185458
1.0509
-0.0207787
1.0417
0.00261771
1.04243
-0.0652342
1.03559
0.00573447
1.04027
-0.0380216
1.03248
-0.0137014
1.03326
-0.0988267
1.02021
-0.037775
1.02828
-0.102768
1.01707
-0.073775
1.02652
-0.160928
1.01962
-0.152216
-0.194722
1.03396
1.05031
0.00772195
1.05053
-0.0189317
1.04686
0.0167213
1.05127
-0.0162735
1.04821
0.00838626
1.04665
-0.0354424
1.04547
0.0197285
1.04901
-0.0243206
1.04127
0.0103611
1.04186
-0.0658304
1.03428
0.0133225
1.0402
-0.0439444
1.0308
-0.00430515
1.03056
-0.0985846
1.01773
-0.0249479
1.02566
-0.110691
1.01149
-0.059605
1.02299
-0.172434
1.01471
-0.143931
-0.211886
1.03187
1.05009
0.00763571
1.0491
-0.0179499
1.04859
0.0172404
1.05151
-0.0192005
1.04758
0.0123166
1.04763
-0.0354872
1.0448
0.0225569
1.04741
-0.0269363
1.0425
0.0152732
1.04092
-0.0642515
1.03297
0.0212751
1.04019
-0.0511607
1.02906
0.00682566
1.02791
-0.0974426
1.01476
-0.0117959
1.02323
-0.119162
1.00624
-0.0426071
1.01947
-0.185672
1.0071
-0.131556
-0.235911
1.03112
1.05009
0.00754225
1.0493
-0.0171608
1.05075
0.0157982
1.04968
-0.0181359
1.04837
0.0136334
1.04743
-0.034551
1.04446
0.0255248
1.04712
-0.0295913
1.04336
0.0190292
1.03929
-0.0601863
1.03356
0.0270058
1.0376
-0.0551965
1.02755
0.0168708
1.02699
-0.0968745
1.012
0.00319332
1.01774
-0.124901
1.00029
-0.0251653
1.01667
-0.202045
0.999205
-0.114093
-0.267827
1.03112
1.05084
0.0066991
1.04966
-0.0159808
1.05048
0.0149818
1.04929
-0.01695
1.0495
0.0134276
1.04577
-0.0308265
1.04575
0.0255488
1.04698
-0.0308156
1.04251
0.0234993
1.03841
-0.0560931
1.03468
0.0307412
1.03585
-0.0563715
1.02601
0.0267127
1.02449
-0.0953539
1.01079
0.0168923
1.01502
-0.129129
0.992673
-0.00281933
1.00895
-0.218327
0.989331
-0.0944691
-0.316455
1.03796
1.05141
0.00528782
1.04891
-0.0134753
1.05099
0.0128981
1.04913
-0.0150948
1.05046
0.012106
1.04387
-0.024236
1.04824
0.0211791
1.04391
-0.026495
1.04441
0.0230034
1.03635
-0.0480296
1.03613
0.0309573
1.03114
-0.0513818
1.0306
0.0272549
1.01791
-0.0826618
1.00832
0.0264839
1.00971
-0.130524
0.989297
0.0175931
1.00134
-0.230371
0.972748
-0.0658757
-0.390536
1.04683
1.05169
0.00359487
1.04856
-0.0103393
1.05172
0.00973694
1.04872
-0.0121004
1.05047
0.0103594
1.04401
-0.0177727
1.04843
0.016756
1.04305
-0.0211168
1.04522
0.0208336
1.03463
-0.0374365
1.03727
0.0283127
1.02919
-0.0433019
1.02934
0.0271114
1.01631
-0.0696372
1.0092
0.0335984
1.00264
-0.123971
0.983258
0.0369792
0.99601
-0.243123
0.957408
-0.0272733
-0.478703
1.04557
1.05194
0.00165674
1.04834
-0.00674218
1.05201
0.0060702
1.04832
-0.00841139
1.05107
0.00761203
1.04338
-0.0100827
1.04876
0.0113751
1.04257
-0.0149271
1.04614
0.0172573
1.03261
-0.0239056
1.03882
0.0221049
1.02711
-0.0315894
1.03069
0.0235256
1.01052
-0.049466
1.0137
0.0304242
0.989596
-0.0998697
0.988788
0.0377872
0.971548
-0.225883
0.949274
-0.00499919
-0.644681
1.11525
1.05184
-0.000181396
1.04793
-0.00283878
1.05225
0.00175897
1.04773
-0.00389335
1.05143
0.00390893
1.04268
-0.00133063
1.04957
0.00448347
1.04152
-0.00687201
1.04671
0.0120644
1.03145
-0.00864538
1.03951
0.0140425
1.024
-0.0160749
1.03122
0.0163057
1.00575
-0.0239952
1.01177
0.0244016
0.977029
-0.0651313
0.980852
0.0339644
0.940985
-0.186016
0.885529
0.0504564
-0.853586
1.09443
1.04987
-4.68333e-05
1.04794
-0.000909372
1.05027
-0.000576576
1.04812
-0.00173722
1.04943
0.00259023
1.04378
0.00432499
1.04744
0.00082125
1.04318
-0.0026109
1.0451
0.0101461
1.03315
0.00330491
1.03801
0.00918284
1.02705
-0.00512097
1.02917
0.0141846
1.00827
-0.00309383
1.01118
0.02149
0.976063
-0.0300095
0.981161
0.0288662
0.917119
-0.121973
0.979097
-0.0115223
1.26489
-1.13938
1.04631
-0.0203419
1.04395
-0.0207194
1.04238
-0.02116
1.04169
-0.0215602
1.04208
-0.0221851
1.04256
-0.0221672
1.04289
-0.0222167
1.04301
-0.0220452
1.04295
-0.0221195
-0.0220489
1.04296
1.03796
-0.0231266
1.03998
-0.0227391
1.04129
-0.0224732
1.04176
-0.0220326
1.04118
-0.0216
1.04056
-0.0215447
1.04009
-0.0217524
1.03985
-0.0218058
1.0398
-0.0220711
-0.0220563
1.03981
1.04222
-0.0200649
1.03995
-0.0204654
1.03841
-0.0209336
1.03784
-0.0214603
1.03827
-0.0220368
1.03873
-0.0220047
1.03904
-0.0220561
1.03915
-0.0219214
1.03912
-0.0220402
-0.0219045
1.03897
1.03422
-0.0229479
1.03656
-0.0228101
1.03824
-0.022606
1.0386
-0.0218214
1.0382
-0.0216436
1.03774
-0.0215406
1.03737
-0.0216881
1.03716
-0.0217108
1.03707
-0.0219499
-0.0219973
1.03716
1.0415
-0.0207009
1.03984
-0.0211438
1.03851
-0.0212765
1.03802
-0.0213321
1.03786
-0.0214845
1.03783
-0.0215124
1.03781
-0.0216695
1.03776
-0.0216602
1.03766
-0.0218457
-0.0218004
1.03746
1.04137
-0.0193768
1.03981
-0.0195873
1.03856
-0.020026
1.03811
-0.0208765
1.03795
-0.0213224
1.0379
-0.0214659
1.03785
-0.0216255
1.03778
-0.0215903
1.03765
-0.0217147
-0.0215911
1.03744
1.0314
-0.0224608
1.03396
-0.0221479
1.03586
-0.021926
1.03642
-0.0214438
1.03627
-0.0211677
1.03602
-0.0212174
1.03583
-0.0214362
1.03577
-0.0215246
1.03578
-0.0217252
-0.0217768
1.03596
1.03586
-0.0200543
1.03421
-0.0205024
1.03327
-0.0209819
1.03335
-0.0215264
1.03428
-0.0221014
1.03516
-0.0220904
1.03581
-0.0220894
1.03624
-0.0219563
1.0365
-0.0219847
-0.0218309
1.03656
1.02862
-0.0235746
1.03162
-0.0235063
1.03399
-0.0233469
1.03528
-0.022822
1.03555
-0.0223698
1.03568
-0.022222
1.03585
-0.0222525
1.03612
-0.0222311
1.03647
-0.0223283
-0.0222777
1.03691
1.0349
-0.0221555
1.03427
-0.0228786
1.03413
-0.0232071
1.03461
-0.0232932
1.03551
-0.023273
1.03639
-0.0230994
1.03712
-0.0229868
1.03771
-0.0228176
1.03814
-0.022765
-0.0226801
1.03855
1.03519
-0.0233889
1.03634
-0.0240272
1.03724
-0.0241076
1.03801
-0.0240628
1.03872
-0.0239878
1.03945
-0.0238237
1.04015
-0.0236878
1.04082
-0.0234891
1.0414
-0.023349
-0.0230392
1.04176
1.03449
-0.0260101
1.03599
-0.0255301
1.03732
-0.0254332
1.03848
-0.0252274
1.0395
-0.0250032
1.04044
-0.0247598
1.0413
-0.0245531
1.04214
-0.0243252
1.0429
-0.0241149
-0.023741
1.04361
1.0336
-0.0284898
1.03593
-0.0278529
1.03805
-0.0275532
1.0399
-0.027081
1.0415
-0.0266048
1.04292
-0.026174
1.04415
-0.025786
1.04519
-0.0253648
1.04605
-0.0249729
-0.0246884
1.04699
1.03435
-0.0317187
1.03731
-0.030814
1.04003
-0.0302674
1.04255
-0.0296041
1.04489
-0.0289501
1.04699
-0.0282716
1.04885
-0.0276482
1.05047
-0.0269815
1.05187
-0.0263726
-0.0255167
1.0527
1.04025
-0.0340129
1.04309
-0.0336472
1.0455
-0.0326787
1.04755
-0.0316603
1.04932
-0.0307205
1.05085
-0.0297989
1.05218
-0.0289775
1.05331
-0.0281145
1.05429
-0.0273522
-0.0266959
1.05547
1.05399
-0.0411727
1.05928
-0.0389424
1.06366
-0.0370508
1.06716
-0.0351623
1.06991
-0.0334715
1.07203
-0.0319216
1.07364
-0.0305866
1.07478
-0.0292571
1.07557
-0.0281389
-0.026693
1.07557
1.04977
-0.0453641
1.05411
-0.043287
1.05764
-0.0405825
1.06061
-0.0381267
1.06325
-0.0361131
1.06558
-0.0342546
1.06773
-0.0327366
1.0696
-0.0311277
1.07135
-0.0298879
-0.0285802
1.07324
1.12276
-0.0528763
1.12509
-0.0456073
1.12485
-0.0403482
1.12301
-0.0362858
1.12058
-0.0336864
1.1175
-0.0311701
1.11438
-0.0296217
1.11071
-0.0274506
1.10735
-0.0265298
-0.0243208
1.10309
1.09912
-0.0575609
1.10251
-0.0490008
1.1039
-0.0417358
1.10491
-0.0372916
1.10467
-0.0334476
1.10463
-0.0311323
1.10337
-0.0283607
1.10293
-0.0270165
1.1015
-0.0250978
-0.025141
1.10232
1.20733
1.15833
1.11659
1.0793
1.04585
1.01472
0.986358
0.959341
0.934244
0.909103
1.04308
-0.0850717
1.0436
-0.0844014
1.04368
-0.0915343
1.0436
-0.0923646
1.04238
-0.102779
1.04102
-0.104997
1.03777
-0.1176
1.03416
-0.118925
1.02897
-0.133221
1.0241
-0.135048
1.01668
-0.149768
1.00967
-0.151301
1.00103
-0.169424
0.993417
-0.17728
0.980409
-0.194514
0.965935
-0.202681
0.946309
-0.217062
0.926816
-0.234328
0.902794
-0.245769
-0.260485
1.03963
-0.0848884
1.0396
-0.0843731
1.03891
-0.090841
1.03783
-0.0912839
1.03576
-0.100713
1.03315
-0.102382
1.02881
-0.113269
1.02391
-0.114018
1.01809
-0.127408
1.0114
-0.12835
1.00326
-0.141629
0.994965
-0.14301
0.986219
-0.160678
0.975475
-0.166536
0.959886
-0.178924
0.943685
-0.18648
0.924443
-0.19782
0.907068
-0.216952
0.884041
-0.222742
-0.232259
1.03869
-0.0846037
1.03855
-0.0842396
1.03767
-0.0899565
1.03661
-0.0902222
1.03451
-0.0986211
1.03183
-0.0996932
1.02751
-0.108957
1.02326
-0.10977
1.01746
-0.121608
1.01138
-0.122266
1.00341
-0.133661
0.996218
-0.135815
0.986597
-0.151057
0.975302
-0.155241
0.960976
-0.164599
0.946644
-0.172148
0.931106
-0.182282
0.913751
-0.199597
0.893354
-0.202345
-0.208548
1.03698
-0.0844167
1.03652
-0.0837814
1.03537
-0.0888095
1.0341
-0.0889486
1.03165
-0.0961687
1.02832
-0.0963661
1.02381
-0.104445
1.01878
-0.10474
1.01223
-0.115063
1.00466
-0.114697
0.995949
-0.124946
0.986653
-0.126519
0.974643
-0.139047
0.961135
-0.141733
0.945598
-0.149062
0.931003
-0.157553
0.91416
-0.165439
0.896725
-0.182162
0.87486
-0.180481
-0.18371
1.03687
-0.0838251
1.0362
-0.0831148
1.03483
-0.0874402
1.03319
-0.0873058
1.03025
-0.0932263
1.02666
-0.0927807
1.02192
-0.0996998
1.01702
-0.0998423
1.00981
-0.107856
1.00225
-0.107131
0.993447
-0.116148
0.98436
-0.117432
0.972543
-0.12723
0.960063
-0.129253
0.947454
-0.136453
0.935994
-0.146093
0.923319
-0.152764
0.906515
-0.165357
0.887684
-0.16165
-0.164082
1.03665
-0.0830293
1.03587
-0.0823354
1.03438
-0.0859474
1.03245
-0.0853827
1.0292
-0.0899755
1.02571
-0.0892898
1.0209
-0.0948845
1.01522
-0.0941644
1.00765
-0.100292
0.999783
-0.0992597
0.990229
-0.106594
0.979251
-0.106454
0.96608
-0.114059
0.953464
-0.116636
0.940898
-0.123887
0.926971
-0.132167
0.909601
-0.135394
0.889223
-0.144979
0.868882
-0.14131
-0.144295
1.03579
-0.0828608
1.03525
-0.0817951
1.03391
-0.0846037
1.03201
-0.0834814
1.02892
-0.0868835
1.02529
-0.0856601
1.01996
-0.0895586
1.01357
-0.0877692
1.00558
-0.0923026
0.997016
-0.0906998
0.986255
-0.0958318
0.975455
-0.0956543
0.963543
-0.102148
0.952234
-0.105327
0.940416
-0.112068
0.927386
-0.119137
0.914267
-0.122275
0.898855
-0.129568
0.883416
-0.125871
-0.12816
1.03678
-0.0830855
1.03672
-0.0817344
1.03548
-0.0833597
1.03371
-0.0817159
1.03041
-0.0835848
1.02636
-0.0816064
1.02039
-0.0835921
1.01403
-0.0814072
1.00536
-0.0836326
0.996268
-0.0816086
0.985463
-0.0850267
0.97475
-0.0849413
0.963117
-0.0905142
0.950853
-0.0930643
0.938293
-0.0995075
0.923157
-0.104002
0.906779
-0.105896
0.885556
-0.108344
0.865255
-0.10557
-0.111585
1.03762
-0.083793
1.03755
-0.0816651
1.03626
-0.0820707
1.03425
-0.0797026
1.03074
-0.0800731
1.02639
-0.0772637
1.02057
-0.0777656
1.014
-0.0748416
1.00539
-0.0750209
0.996258
-0.0724771
0.985355
-0.0741228
0.974566
-0.0741524
0.961631
-0.0775796
0.948259
-0.0796925
0.935024
-0.0862727
0.919537
-0.0885147
0.905889
-0.0922481
0.887881
-0.0903362
0.872669
-0.0903578
-0.0994751
1.03932
-0.0845712
1.03947
-0.0818114
1.03808
-0.0806761
1.03583
-0.0774522
1.03218
-0.0764261
1.02795
-0.0730344
1.02173
-0.0715453
1.01511
-0.0682183
1.00661
-0.0665297
0.997378
-0.0632407
0.985899
-0.0626434
0.974539
-0.0627928
0.962492
-0.065532
0.949741
-0.066942
0.936057
-0.0725884
0.920011
-0.0724685
0.903261
-0.0754985
0.884978
-0.0720531
0.867679
-0.073059
-0.0828525
1.04258
-0.0853915
1.04256
-0.0817884
1.04078
-0.078893
1.03795
-0.0746239
1.03398
-0.0724591
1.02945
-0.0685012
1.02348
-0.0655716
1.01682
-0.0615649
1.00848
-0.0581888
0.99882
-0.0535789
0.987088
-0.0509119
0.974871
-0.0505761
0.961767
-0.0524279
0.947845
-0.0530198
0.932444
-0.0571876
0.916955
-0.0569792
0.902837
-0.0613803
0.887801
-0.0570177
0.872749
-0.0580068
-0.0668967
1.04509
-0.0868758
1.04522
-0.081917
1.04377
-0.0774422
1.04177
-0.0726269
1.03825
-0.0689421
1.03399
-0.0642409
1.02854
-0.0601222
1.02201
-0.0550281
1.01261
-0.0487897
1.00139
-0.0423649
0.987752
-0.0372699
0.973168
-0.035992
0.958341
-0.0376009
0.944838
-0.0395171
0.930733
-0.0430831
0.918002
-0.0442475
0.904461
-0.0478394
0.894092
-0.0466484
0.879443
-0.0433582
-0.0448435
1.04869
-0.0885712
1.04877
-0.081996
1.04735
-0.0760273
1.04557
-0.0708425
1.04238
-0.0657563
1.03827
-0.0601333
1.03346
-0.0553115
1.027
-0.0485684
1.01667
-0.0384511
1.00285
-0.0285446
0.987451
-0.0218757
0.971359
-0.0198993
0.955353
-0.0215948
0.941299
-0.0254637
0.928225
-0.0300089
0.919235
-0.0352574
0.907427
-0.0360318
0.896754
-0.0359752
0.881753
-0.0283572
-0.0228935
1.05499
-0.0908624
1.05497
-0.0819745
1.05323
-0.0742902
1.05101
-0.0686196
1.04731
-0.062053
1.0443
-0.0571281
1.04132
-0.0523266
1.03583
-0.0430867
1.02492
-0.0275382
1.00953
-0.0131512
0.990517
-0.00286576
0.970965
-0.00034749
0.951813
-0.00244279
0.93688
-0.0105298
0.922991
-0.0161203
0.913802
-0.0260684
0.903129
-0.0253593
0.893494
-0.0263398
0.882299
-0.0171626
-0.00269876
1.05767
-0.0930587
1.05722
-0.0815227
1.05527
-0.0723477
1.05247
-0.0658193
1.0487
-0.0582762
1.04752
-0.0559538
1.04732
-0.0521247
1.04366
-0.0394249
1.03269
-0.0165686
1.01545
0.00409091
0.994286
0.0182952
0.972882
0.021057
0.952263
0.0181763
0.937434
0.00429901
0.925457
-0.00414329
0.917706
-0.0183172
0.906215
-0.013869
0.892578
-0.0127022
0.880874
-0.00545922
0.0149327
1.07472
-0.0922092
1.07115
-0.0779515
1.06647
-0.0676687
1.0588
-0.058155
1.05187
-0.0513403
1.053
-0.0570828
1.0567
-0.055832
1.0551
-0.0378221
1.04118
-0.00264704
1.01826
0.0270121
0.988856
0.0476975
0.962892
0.0470204
0.940515
0.0405538
0.925003
0.0198108
0.917651
0.00320902
0.91442
-0.0150867
0.912977
-0.0124257
0.896739
0.00353582
0.873034
0.0182452
0.0343228
1.07855
-0.0975217
1.07831
-0.0777129
1.07269
-0.0620489
1.06414
-0.0496059
1.05732
-0.0445164
1.0652
-0.0649619
1.07978
-0.0704185
1.08384
-0.0418759
1.06876
0.0124299
1.03865
0.0571275
0.996923
0.0894201
0.956907
0.0870367
0.928311
0.0691498
0.913684
0.0344376
0.912318
0.00457465
0.917703
-0.0204713
0.926326
-0.0210486
0.926495
0.00336717
0.903133
0.0416064
0.0621235
1.09532
-0.0897541
1.08713
-0.0695182
1.06566
-0.0405862
1.03512
-0.0190645
1.02145
-0.0308414
1.03507
-0.0785877
1.06553
-0.100874
1.08284
-0.0591866
1.06888
0.0263924
1.02828
0.0977234
0.976561
0.14114
0.923427
0.140171
0.881877
0.1107
0.867541
0.0487735
0.876145
-0.00402953
0.897544
-0.04187
0.907264
-0.030769
0.913072
-0.00243993
0.892557
0.0621212
0.0967082
1.10612
-0.0935508
1.09319
-0.05659
1.06226
-0.00965723
1.02602
0.0171735
0.994269
0.000913749
0.99669
-0.0810092
1.02885
-0.133034
1.04976
-0.0800915
1.04377
0.0323794
1.01099
0.130501
0.962229
0.189902
0.910538
0.191862
0.869536
0.151702
0.855588
0.062722
0.86015
-0.00859187
0.889847
-0.0715669
0.905913
-0.0468349
0.919118
-0.0156452
0.911265
0.0699746
0.128264
0.865628
-0.0500761
0.838013
-0.0289748
0.791453
0.0369026
0.710895
0.097731
0.639724
0.0720852
0.627865
-0.0691506
0.678987
-0.184156
0.734211
-0.135315
0.759652
0.00693804
0.749219
0.140935
0.71908
0.22004
0.690569
0.220373
0.664725
0.177546
0.648344
0.0791032
0.647424
-0.00767197
0.680712
-0.104855
0.723307
-0.0894304
0.767611
-0.0599488
0.795825
0.0417601
0.134322
0.0238131
-0.0738892
0.0369409
-0.0421025
0.0391184
0.0347251
0.034504
0.102345
0.0372951
0.069294
0.0560365
-0.087892
0.0847748
-0.212894
0.116693
-0.167233
0.136536
-0.012905
0.144437
0.133034
0.143157
0.22132
0.135163
0.228367
0.120406
0.192303
0.109909
0.0896002
0.110637
-0.00840014
0.126392
-0.12061
0.149989
-0.113027
0.17332
-0.0832799
0.1927
0.02238
0.129024
-0.00759528
-0.066294
-0.0118165
-0.0378813
-0.0151431
0.0380517
-0.00889095
0.0960933
0.00813171
0.0522713
0.0270929
-0.106853
0.0488439
-0.234645
0.078826
-0.197215
0.101975
-0.0360545
0.113815
0.121194
0.11476
0.220375
0.105118
0.238009
0.0882215
0.2092
0.0799622
0.0978596
0.0846496
-0.0130876
0.102158
-0.138118
0.127414
-0.138283
0.15304
-0.108906
0.176879
-0.00145827
0.120657
-0.0210481
-0.0452458
-0.0374246
-0.0215049
-0.0442569
0.044884
-0.0330132
0.0848495
-0.0140842
0.0333424
-0.00133267
-0.119605
0.0147094
-0.250687
0.0435207
-0.226027
0.0689314
-0.0614651
0.0839132
0.106212
0.0850121
0.219276
0.0735661
0.249455
0.05845
0.224316
0.055138
0.101172
0.06359
-0.0215396
0.0818675
-0.156396
0.107522
-0.163938
0.133982
-0.135366
0.161138
-0.0286143
0.109302
-0.0246103
-0.0206355
-0.0455397
-0.00057549
-0.0550109
0.0543552
-0.044625
0.0744636
-0.0279649
0.0166823
-0.0195139
-0.128056
-0.0118751
-0.258326
0.011808
-0.24971
0.0378147
-0.0874719
0.0540725
0.0899544
0.0542533
0.219095
0.0435431
0.260165
0.0341029
0.233757
0.0365968
0.0986777
0.0481732
-0.0331159
0.0662334
-0.174456
0.0910838
-0.188788
0.117149
-0.161431
0.146401
-0.0578668
0.0953559
-0.0250873
0.00445183
-0.0468404
0.0211776
-0.056768
0.0642828
-0.0480885
0.0657841
-0.0345711
0.00316483
-0.0302323
-0.132395
-0.0296998
-0.258858
-0.0144712
-0.264938
0.00891033
-0.110853
0.0248035
0.0740612
0.025197
0.218702
0.0186321
0.26673
0.0172048
0.235184
0.0251033
0.0907792
0.038989
-0.0470016
0.055733
-0.1912
0.0786851
-0.21174
0.103287
-0.186034
0.133299
-0.087878
0.0793312
-0.0224473
0.0268991
-0.0418249
0.0405552
-0.0516003
0.0740583
-0.044225
0.0584088
-0.0329335
-0.00812668
-0.0322619
-0.133066
-0.038291
-0.252829
-0.032617
-0.270612
-0.0151388
-0.128332
-0.000225967
0.0591484
0.00207333
0.216403
0.00149348
0.26731
0.00861693
0.22806
0.0210991
0.078297
0.0364148
-0.0623173
0.050682
-0.205467
0.070767
-0.231825
0.0928886
-0.208155
0.122292
-0.117281
0.0618121
-0.016624
0.0435231
-0.0319352
0.0558664
-0.0399598
0.0820829
-0.0328343
0.0512833
-0.0230319
-0.0179291
-0.0253988
-0.130699
-0.0371198
-0.241108
-0.0407083
-0.267024
-0.0303281
-0.138712
-0.0181698
0.0469901
-0.0123391
0.210572
-0.00596133
0.260932
0.00832399
0.213775
0.0246018
0.0620191
0.0404096
-0.0781251
0.0515661
-0.216624
0.0676751
-0.247934
0.0862214
-0.226702
0.113676
-0.144736
0.0434276
-0.00971353
0.0532366
-0.0178979
0.0640508
-0.0209447
0.0851297
-0.0128554
0.043194
-0.00414912
-0.0266354
-0.00929696
-0.125551
-0.0262703
-0.224135
-0.0378194
-0.255475
-0.0343022
-0.142229
-0.0248673
0.0375552
-0.0158577
0.201562
-0.00391003
0.248984
0.0157874
0.194078
0.0347167
0.0430899
0.0503775
-0.0937859
0.0581056
-0.224352
0.0694959
-0.259325
0.0833829
-0.240589
0.107629
-0.168982
0.0248461
0.00398447
0.0492522
0.00422668
0.0638086
0.00788093
0.0814754
0.0175775
0.0334974
0.0249868
-0.0340447
0.0166273
-0.117192
-0.00524939
-0.202258
-0.0241527
-0.236571
-0.0272344
-0.139147
-0.0204042
0.030725
-0.00930153
0.19046
0.00708283
0.2326
0.0297533
0.171407
0.0500311
0.022812
0.0651806
-0.108935
0.0696095
-0.228781
0.0759001
-0.265615
0.0843307
-0.249019
0.10428
-0.188931
0.00675995
0.0243261
0.024926
0.0338746
0.05426
0.048083
0.067267
0.0597183
0.0218622
0.0646179
-0.0389444
0.0526533
-0.105227
0.0259921
-0.175597
0.000285707
-0.210865
-0.0102427
-0.128619
-0.00691527
0.0273975
0.0054556
0.178089
0.0250044
0.213051
0.048488
0.147924
0.0688
0.00250011
0.0834494
-0.123585
0.0849592
-0.230291
0.0863352
-0.266991
0.0889395
-0.251624
0.103695
-0.203686
-0.0101812
0.410837
0.0941757
-0.480087
0.362211
0.102887
0.350701
0.0787769
0.352385
0.0201779
0.342518
-0.0290768
0.30166
-0.0643694
0.221196
-0.0951332
0.131465
-0.121134
0.0834096
-0.0805639
0.0814694
0.0293377
0.110356
0.149202
0.153799
0.169608
0.201884
0.0998385
0.24448
-0.040096
0.275452
-0.154557
0.271249
-0.226088
0.2558
-0.251542
0.239058
-0.234882
0.252078
-0.216707
-0.0434673
0.696374
0.119477
-0.721676
0.675422
0.123839
0.655146
0.0990531
0.639375
0.0359482
0.619184
-0.00888553
0.595498
-0.0406829
0.563936
-0.0635711
0.482476
-0.0396742
0.376746
0.0251665
0.307271
0.0988125
0.297296
0.159177
0.318521
0.148383
0.348666
0.0696937
0.375528
-0.0669578
0.399851
-0.17888
0.395709
-0.221946
0.363109
-0.218942
0.314532
-0.186304
0.290187
-0.192362
-0.0594535
0.747798
0.128933
-0.757254
0.746511
0.125126
0.738449
0.107115
0.722824
0.0515734
0.699059
0.0148789
0.661866
-0.00348943
0.621172
-0.0228776
0.58853
-0.00703161
0.549651
0.0640455
0.514408
0.134056
0.50172
0.171865
0.510166
0.139937
0.525501
0.054359
0.522245
-0.0637021
0.509255
-0.16589
0.49021
-0.202901
0.457575
-0.186308
0.401791
-0.130519
0.348591
-0.139162
-0.0529678
0.753728
0.130686
-0.75548
0.759767
0.119087
0.76111
0.105772
0.745957
0.0667263
0.727301
0.0335353
0.705398
0.0184139
0.668032
0.0144878
0.635342
0.0256587
0.627808
0.0715789
0.633874
0.12799
0.642795
0.162944
0.651261
0.131471
0.659521
0.0460991
0.645535
-0.0497168
0.607579
-0.127933
0.561662
-0.156984
0.520175
-0.144821
0.470909
-0.0812529
0.409197
-0.0774501
-0.0293201
0.747204
0.132235
-0.748753
0.750166
0.116124
0.751738
0.1042
0.742198
0.0762662
0.723762
0.0519717
0.704241
0.0379349
0.681622
0.037107
0.660945
0.0463349
0.657354
0.0751701
0.673951
0.111393
0.696908
0.139987
0.709793
0.118586
0.709254
0.0466384
0.68552
-0.0259824
0.640923
-0.0833363
0.59191
-0.107971
0.552098
-0.105009
0.516633
-0.0457874
0.462014
-0.0228318
0.00336042
0.736376
0.131165
-0.735307
0.737909
0.114592
0.73892
0.103189
0.732324
0.0828622
0.718883
0.0654133
0.704535
0.0522825
0.689841
0.0518007
0.675685
0.0604916
0.671916
0.0789391
0.684613
0.0986956
0.706019
0.118581
0.718004
0.1066
0.715503
0.0491398
0.69451
-0.00498975
0.654403
-0.0432284
0.60833
-0.0618984
0.571017
-0.0676968
0.54793
-0.0227
0.505479
0.0196193
0.0384211
0.728852
0.128969
-0.726656
0.729468
0.113976
0.729068
0.103589
0.724831
0.0870986
0.714854
0.0753903
0.702519
0.0646177
0.69209
0.0622298
0.682901
0.0696803
0.678859
0.0829817
0.685596
0.091958
0.700821
0.103356
0.709269
0.0981523
0.703734
0.0546745
0.685013
0.0137321
0.65256
-0.0107757
0.614987
-0.0243252
0.579813
-0.0325233
0.562001
-0.00488797
0.532088
0.0495331
0.0701487
0.72316
0.126565
-0.720757
0.723209
0.113927
0.722128
0.10467
0.718736
0.09049
0.711332
0.0827951
0.701749
0.0742006
0.693582
0.0703963
0.687195
0.076067
0.683712
0.0864654
0.6858
0.0898696
0.694211
0.0949457
0.698569
0.0937935
0.690985
0.0622591
0.674514
0.0302029
0.648609
0.0151289
0.617743
0.00654079
0.582999
0.00222099
0.567879
0.0102316
0.550966
0.066446
0.0956167
0.718678
0.124232
-0.716345
0.718803
0.113802
0.717473
0.106001
0.714605
0.0933576
0.709194
0.0882066
0.7015
0.0818945
0.69438
0.0775166
0.689561
0.0808855
0.686382
0.0896444
0.685656
0.0905962
0.689454
0.0911476
0.690912
0.0923353
0.681581
0.0715901
0.666751
0.0450329
0.644961
0.036919
0.61943
0.0320719
0.58758
0.0340708
0.571446
0.0263653
0.560004
0.0778886
0.116174
0.715119
0.121997
-0.712884
0.715518
0.113403
0.714206
0.107313
0.711586
0.0959772
0.707486
0.092307
0.701199
0.0881808
0.694787
0.0839285
0.690625
0.0850484
0.687676
0.0925933
0.685412
0.0928597
0.685983
0.0905764
0.685445
0.092874
0.675722
0.0813131
0.661859
0.0588957
0.642332
0.0564455
0.621848
0.0525563
0.592823
0.0630961
0.573569
0.0456188
0.566429
0.0850287
0.131191
0.712045
0.119893
-0.709941
0.712737
0.112711
0.711598
0.108452
0.709214
0.0983611
0.705879
0.0956418
0.700845
0.0932149
0.69501
0.0897637
0.691113
0.088945
0.688024
0.0956821
0.685027
0.0958567
0.683277
0.0923263
0.681594
0.0945571
0.672038
0.090869
0.65917
0.0717639
0.642052
0.0735641
0.624232
0.0703757
0.597984
0.089345
0.5762
0.0674025
0.568542
0.0926862
0.143578
0.709328
0.118013
-0.707448
0.710184
0.111855
0.709339
0.109297
0.707163
0.100537
0.704444
0.0983612
0.700409
0.09725
0.695116
0.0950562
0.691214
0.092847
0.688081
0.0988156
0.684358
0.0995796
0.680809
0.0958749
0.678525
0.0968409
0.669416
0.0999778
0.657643
0.0835371
0.642022
0.0891852
0.627361
0.0850372
0.605642
0.111063
0.581643
0.0914012
0.572454
0.101876
0.153753
0.707104
0.116398
-0.705489
0.708087
0.110872
0.707428
0.109956
0.705565
0.1024
0.703237
0.10069
0.700119
0.100368
0.695314
0.0998613
0.691526
0.096635
0.688082
0.102259
0.684068
0.103594
0.679299
0.100644
0.676064
0.100076
0.667566
0.108475
0.656548
0.0945556
0.642462
0.103271
0.629034
0.0984655
0.609915
0.130182
0.5857
0.115617
0.573919
0.113657
0.164075
0.704782
0.114955
-0.70334
0.705797
0.109857
0.705501
0.110252
0.703962
0.103939
0.702022
0.102629
0.699625
0.102765
0.695458
0.104029
0.691764
0.100329
0.688255
0.105768
0.684212
0.107637
0.678522
0.106334
0.674886
0.103712
0.666933
0.116429
0.656974
0.104514
0.644117
0.116129
0.632267
0.110315
0.617245
0.145204
0.59352
0.139342
0.579254
0.127923
0.174281
0.702956
0.113769
-0.70177
0.7038
0.109012
0.703712
0.110341
0.702509
0.105142
0.700787
0.104351
0.698961
0.104591
0.695318
0.107672
0.69188
0.103767
0.688311
0.109337
0.684247
0.111701
0.67804
0.11254
0.673704
0.108049
0.666115
0.124017
0.656364
0.114265
0.644441
0.128052
0.633376
0.12138
0.620384
0.158196
0.598155
0.161571
0.581478
0.1446
0.186378
0.701778
0.11289
-0.700899
0.702534
0.108256
0.702485
0.11039
0.701535
0.106092
0.699967
0.105919
0.698646
0.105912
0.695555
0.110763
0.692506
0.106816
0.689101
0.112742
0.685575
0.115227
0.679308
0.118807
0.674742
0.112615
0.667677
0.131082
0.658723
0.123219
0.647626
0.139149
0.636821
0.132185
0.626373
0.168644
0.606517
0.181427
0.589044
0.162073
0.198808
0.700373
0.112304
-0.699787
0.700989
0.10764
0.701006
0.110373
0.700196
0.106902
0.698741
0.107374
0.697614
0.10704
0.694871
0.113505
0.691988
0.109699
0.68877
0.11596
0.685433
0.118565
0.679368
0.124872
0.674654
0.117328
0.668035
0.137702
0.659358
0.131896
0.648716
0.149791
0.638411
0.14249
0.628723
0.178332
0.610119
0.20003
0.590828
0.181364
0.213699
0.699883
0.111908
-0.699487
0.700414
0.10711
0.70058
0.110206
0.700079
0.107403
0.698851
0.108602
0.698099
0.107792
0.695769
0.115835
0.693361
0.112108
0.69022
0.1191
0.687505
0.12128
0.681748
0.130629
0.677233
0.121843
0.671134
0.1438
0.663155
0.139875
0.653347
0.1596
0.643062
0.152775
0.63507
0.186324
0.619541
0.21556
0.600971
0.199933
0.229054
0.698345
0.111796
-0.698233
0.698717
0.106738
0.698805
0.110119