/*--------------------------------*- C++ -*----------------------------------*\
| =========                 |                                                 |
| \\      /  F ield         | OpenFOAM: The Open Source CFD Toolbox           |
|  \\    /   O peration     | Version:  v1806                                 |
|   \\  /    A nd           | Web:      www.OpenFOAM.com                      |
|    \\/     M anipulation  |                                                 |
\*---------------------------------------------------------------------------*/
FoamFile
{
    version     2.0;
    format      ascii;
    class       surfaceScalarField;
    location    "11";
    object      phi;
}
// * * * * * * * * * * * * * * * * * * * * * * * * * * * * * * * * * * * * * //

dimensions      [0 3 -1 0 0 0 0];
oriented        oriented;


internalField   nonuniform List<scalar> 
13938
(
9.14517e-08
-0.0793927
-0.347879
0.29897
0.128301
-2.82991e-11
-0.0794145
-0.347866
0.298968
0.128313
-9.1438e-08
-0.0794145
-0.347866
0.298968
0.128313
-0.0793927
-0.347879
0.29897
0.128301
1.08685e-07
-0.417447
0.061085
0.276969
-3.35878e-11
-0.417455
0.0610768
0.276964
-1.08738e-07
-0.417455
0.0610768
0.276964
-0.417447
0.061085
0.276969
-6.79219e-08
0.0549948
-0.0667315
-0.0535407
0.0652775
5.72166e-12
0.0550076
-0.0667284
-0.0535458
0.0652666
6.79167e-08
0.0550075
-0.0667284
-0.0535458
0.0652666
0.0549948
-0.0667315
-0.0535407
0.0652775
-6.55346e-08
-0.0702059
0.0502265
0.0749742
-3.07754e-11
-0.0701995
0.0502322
0.0749748
6.55038e-08
-0.0701995
0.0502322
0.0749748
-0.0702059
0.0502265
0.0749742
-3.6849e-08
-0.0772439
-0.0673192
0.0743572
7.59238e-11
-0.0772461
-0.0673158
0.0743623
3.68772e-08
-0.0772461
-0.0673158
0.0743623
-0.0772439
-0.0673192
0.0743572
-3.1398e-08
-0.0720111
-0.0719643
-3.43801e-11
-0.0720061
-0.0719684
3.13807e-08
-0.0720061
-0.0719684
-0.0720111
-0.0719643
-6.37591e-09
0.31399
-0.255637
-0.292259
0.233905
-6.40091e-12
0.313994
-0.255638
-0.292254
0.233898
6.41105e-09
0.313994
-0.255638
-0.292254
0.233898
0.31399
-0.255637
-0.292259
0.233905
-4.63389e-08
0.458245
-0.381124
0.236869
-3.32103e-11
0.458236
-0.381101
0.23686
4.63177e-08
0.458236
-0.381101
0.23686
0.458245
-0.381124
0.236869
4.70807e-08
-0.0580814
0.17516
0.341166
-2.80225e-11
-0.0580922
0.175174
0.341154
-4.71337e-08
-0.0580922
0.175174
0.341154
-0.0580814
0.17516
0.341166
2.63052e-07
-0.0321341
0.0488017
0.106159
-0.122826
-4.97067e-12
-0.0321151
0.0487748
0.106146
-0.122805
-2.63042e-07
-0.0321151
0.0487748
0.106146
-0.122805
-0.0321341
0.0488017
0.106159
-0.122826
1.12051e-07
0.0712668
-0.0888843
-0.0145167
-8.44475e-10
0.0712277
-0.0888507
-0.014492
-1.12951e-07
0.0712277
-0.0888507
-0.014492
0.0712668
-0.0888843
-0.0145167
-4.69531e-08
0.0489925
0.000391185
-0.045711
-0.00367266
-1.58996e-10
0.0490026
0.000400258
-0.0456841
-0.00371883
4.72218e-08
0.0490026
0.000400263
-0.0456841
-0.00371882
0.0489925
0.000391189
-0.045711
-0.00367265
-3.94718e-08
-0.0471044
0.0172478
0.0788492
-4.56789e-11
-0.0471069
0.0172463
0.0788631
3.94817e-08
-0.0471069
0.0172463
0.0788631
-0.0471044
0.0172478
0.0788492
-9.54281e-08
-0.0694706
0.0227575
7.31261e-12
-0.0694556
0.0227488
9.56032e-08
-0.0694556
0.0227489
-0.0694706
0.0227575
3.48794e-07
-0.189211
0.425956
-0.626203
0.389457
-1.83699e-10
-0.189221
0.425966
-0.626183
0.389439
-3.48513e-07
-0.189221
0.425965
-0.626183
0.389439
-0.189211
0.425956
-0.626203
0.389457
-2.97533e-07
0.517239
-0.615179
-0.0912705
2.67543e-11
0.517229
-0.615193
-0.0912565
2.97432e-07
0.517229
-0.615193
-0.0912565
0.517239
-0.615179
-0.0912705
1.96905e-07
0.651514
0.291681
-2.39501e-10
0.651527
0.291667
-1.96713e-07
0.651528
0.291667
0.651514
0.291681
-1.06409e-07
0.218411
-0.242194
-0.431028
0.454811
1.94629e-11
0.218423
-0.242198
-0.431032
0.454807
1.06469e-07
0.218423
-0.242198
-0.431032
0.454807
0.218411
-0.242194
-0.431028
0.454811
-3.50885e-08
0.437094
-0.280144
0.0614612
1.69732e-11
0.437082
-0.280126
0.0614669
3.51278e-08
0.437082
-0.280126
0.0614669
0.437094
-0.280144
0.0614612
6.21729e-08
-0.742729
0.282735
0.804823
-0.34483
-2.46027e-10
-0.742774
0.282732
0.804871
-0.344829
-6.21937e-08
-0.742774
0.282732
0.804871
-0.344829
-0.742729
0.282735
0.804823
-0.34483
1.63607e-07
-0.634865
0.0853032
-0.193167
-8.64583e-11
-0.634874
0.0852856
-0.193185
-1.63416e-07
-0.634874
0.0852856
-0.193185
-0.634865
0.0853032
-0.193167
-1.86836e-07
-0.193637
0.880484
-0.686847
-1.14314e-10
-0.193625
0.88047
-0.686845
1.86558e-07
-0.193625
0.88047
-0.686845
-0.193637
0.880484
-0.686847
9.25085e-10
-0.631454
-0.36241
0.800227
2.11293e-10
-0.631433
-0.362406
0.800214
-1.05256e-09
-0.631433
-0.362406
0.800214
-0.631454
-0.36241
0.800227
-2.86869e-08
-0.091711
0.0871222
-0.0627303
1.49835e-10
-0.0917108
0.0871242
-0.0627292
2.86764e-08
-0.0917108
0.0871242
-0.0627292
-0.091711
0.0871222
-0.0627303
-3.25327e-08
-0.0649943
-0.0987278
8.0517e-11
-0.064989
-0.0987279
3.24277e-08
-0.064989
-0.0987279
-0.0649943
-0.0987278
-5.54058e-08
0.0862171
-0.0534746
0.0543797
1.81025e-10
0.0862179
-0.0534688
0.054375
5.54895e-08
0.0862179
-0.0534688
0.054375
0.0862171
-0.0534746
0.0543797
-3.12098e-08
-0.0598188
0.0585125
0.0875235
2.46241e-10
-0.0598177
0.0585095
0.0875261
3.1281e-08
-0.0598177
0.0585095
0.0875261
-0.0598188
0.0585125
0.0875235
-1.58724e-08
-0.0915754
-0.0625311
0.0942877
2.62487e-10
-0.0915801
-0.0625325
0.0942948
1.59587e-08
-0.0915801
-0.0625325
0.0942948
-0.0915754
-0.0625311
0.0942878
-2.74456e-08
-0.0905986
-0.0544513
3.03098e-10
-0.0906026
-0.0544464
2.76357e-08
-0.0906026
-0.0544464
-0.0905986
-0.0544513
-1.64153e-08
-0.0958286
-0.0575003
2.75801e-10
-0.0958325
-0.0574994
1.64984e-08
-0.0958324
-0.0574994
-0.0958286
-0.0575003
-3.29365e-08
-0.102963
-0.0578598
1.43532e-10
-0.102968
-0.0578538
3.28777e-08
-0.102968
-0.0578538
-0.102963
-0.0578598
-4.70304e-08
0.0746112
0.0541258
1.38453e-10
0.0746118
0.0541255
4.71055e-08
0.0746118
0.0541255
0.0746112
0.0541258
-3.92158e-08
0.0880304
0.0450932
1.48979e-10
0.0880371
0.0450842
3.93547e-08
0.0880371
0.0450842
0.0880304
0.0450932
-8.83964e-08
-0.349374
-0.253418
0.360598
1.08821e-11
-0.349379
-0.253398
0.360579
8.8416e-08
-0.349379
-0.253398
0.360579
-0.349374
-0.253418
0.360598
-7.31877e-08
0.112235
-0.499351
0.0377421
1.23134e-11
0.112245
-0.499366
0.0377416
7.3198e-08
0.112245
-0.499366
0.0377416
0.112235
-0.499351
0.0377421
-5.86459e-08
-0.440895
0.299712
1.36106e-11
-0.440874
0.299721
5.86549e-08
-0.440874
0.299721
-0.440895
0.299712
-1.22431e-07
-0.0820627
-0.551959
0.134671
1.49498e-11
-0.0820681
-0.551971
0.134673
1.22424e-07
-0.0820681
-0.551971
0.134673
-0.0820627
-0.551959
0.134671
-8.75919e-08
-0.479442
0.086156
-2.44677e-13
-0.479455
0.0861641
8.75844e-08
-0.479455
0.0861641
-0.479442
0.0861561
-1.34799e-07
-0.549028
-0.0124763
-2.37753e-12
-0.549038
-0.0124848
1.34798e-07
-0.549038
-0.0124848
-0.549028
-0.0124763
-1.15899e-07
0.0960057
-0.592567
-0.0524672
-8.18747e-12
0.0959909
-0.592578
-0.0524514
1.15865e-07
0.0959909
-0.592578
-0.0524514
0.0960057
-0.592567
-0.0524672
-1.09241e-07
-0.590622
0.134669
7.62518e-12
-0.590639
0.134659
1.09201e-07
-0.590639
0.134659
-0.590622
0.134669
-6.61556e-08
-0.550494
0.244271
2.2064e-11
-0.550468
0.244267
6.61426e-08
-0.550468
0.244267
-0.550494
0.244271
3.11316e-08
0.0985654
-0.0574875
-0.633644
-1.81172e-11
0.0985749
-0.0575117
-0.633641
-3.11804e-08
0.0985749
-0.0575117
-0.633641
0.0985654
-0.0574875
-0.633644
-3.97431e-08
0.15138
-0.643436
4.27775e-12
0.151378
-0.643442
3.97085e-08
0.151378
-0.643442
0.15138
-0.643436
2.34301e-08
0.418763
-0.03824
0.0742874
6.87817e-12
0.418756
-0.0382306
0.0742812
-2.33868e-08
0.418756
-0.0382306
0.0742812
0.418763
-0.03824
0.0742874
6.27604e-08
0.142879
0.0202472
6.4178e-12
0.142872
0.0202458
-6.27418e-08
0.142872
0.0202458
0.142879
0.0202472
-3.67326e-08
-0.431296
0.193051
-2.29284e-11
-0.43131
0.193081
3.66986e-08
-0.43131
0.193081
-0.431296
0.193051
-1.21658e-07
-0.534783
0.065247
-1.80506e-11
-0.534763
0.065222
1.21619e-07
-0.534763
0.065222
-0.534783
0.065247
-9.93095e-09
-0.517067
0.0684404
-3.00769e-11
-0.51706
0.0684612
9.87442e-09
-0.51706
0.0684612
-0.517067
0.0684404
-3.30436e-07
-0.548289
0.0187462
-3.17561e-11
-0.548278
0.0187331
3.30398e-07
-0.548278
0.0187331
-0.548289
0.0187462
2.89179e-09
-0.585453
-0.0153029
-2.21162e-11
-0.585445
-0.0152849
-2.92461e-09
-0.585445
-0.0152849
-0.585453
-0.0153029
-1.67269e-07
-0.633273
-0.0096676
-2.28652e-11
-0.63327
-0.00968623
1.6725e-07
-0.63327
-0.00968624
-0.633273
-0.00966761
2.89106e-08
0.419707
0.0916747
1.94311e-11
0.419698
0.0916652
-2.88734e-08
0.419698
0.0916652
0.419707
0.0916747
1.87851e-08
0.147695
9.31334e-12
0.147689
-1.87583e-08
0.147689
0.147695
1.88044e-07
0.553043
-0.493308
0.133316
-2.41306e-11
0.553044
-0.49331
0.133347
-1.88063e-07
0.553044
-0.49331
0.133347
0.553043
-0.493308
0.133316
1.07071e-07
0.0775145
-1.75244e-11
0.0774969
-1.07047e-07
0.0774969
0.0775145
-1.9343e-08
0.0832764
-0.0654306
-0.120809
2.65729e-11
0.0832705
-0.0654258
-0.120812
1.91861e-08
0.0832705
-0.0654258
-0.120812
0.0832764
-0.0654306
-0.120809
-4.0218e-08
0.083935
-0.0993864
-1.13315e-11
0.0839268
-0.0993843
4.0078e-08
0.0839268
-0.0993843
0.083935
-0.0993864
-5.78245e-08
0.0878497
-0.0758788
-8.76646e-11
0.0878366
-0.0758782
5.76895e-08
0.0878366
-0.0758782
0.0878497
-0.0758788
-1.18474e-07
0.0872907
-0.0529817
1.40157e-11
0.08728
-0.0529894
1.18155e-07
0.08728
-0.0529893
0.0872907
-0.0529817
-2.13074e-08
-0.0854124
0.0846127
-0.0617314
2.94112e-10
-0.0854136
0.0846145
-0.0617334
2.1467e-08
-0.0854136
0.0846145
-0.0617334
-0.0854124
0.0846127
-0.0617314
-3.91326e-08
-0.087481
-0.0523827
3.26293e-10
-0.0874838
-0.0523761
3.93427e-08
-0.0874838
-0.0523762
-0.087481
-0.0523827
-2.91952e-08
-0.0972606
-0.0477206
2.78937e-10
-0.0972654
-0.0477178
2.93108e-08
-0.0972654
-0.0477178
-0.0972606
-0.0477206
-3.43796e-08
-0.109404
-0.0457164
1.35012e-10
-0.109408
-0.0457111
3.43579e-08
-0.109408
-0.0457111
-0.109404
-0.0457164
-2.81712e-08
-0.129371
-0.0454639
-1.36345e-11
-0.129375
-0.0454591
2.79947e-08
-0.129375
-0.0454592
-0.129371
-0.0454639
-7.23346e-08
-0.0386503
0.036783
0.0898978
1.70458e-10
-0.0386437
0.036782
0.0898987
7.2385e-08
-0.0386437
0.036782
0.0898987
-0.0386503
0.036783
0.0898978
-7.10628e-08
-0.0523675
0.101241
1.76582e-10
-0.0523607
0.101243
7.11532e-08
-0.0523607
0.101243
-0.0523675
0.101241
-6.78036e-08
-0.0657609
0.107681
2.28347e-10
-0.0657517
0.107686
6.79596e-08
-0.0657517
0.107686
-0.0657609
0.107681
-4.72564e-08
-0.0708085
0.0896603
2.09057e-10
-0.0708038
0.0896665
4.73859e-08
-0.0708038
0.0896665
-0.0708085
0.0896603
-5.11863e-08
0.0723345
0.0320178
1.75543e-11
0.0723358
0.0320218
5.11575e-08
0.0723358
0.0320218
0.0723345
0.0320178
-7.14876e-08
0.0815273
0.0359005
3.91012e-11
0.0815349
0.035885
7.15288e-08
0.0815349
0.035885
0.0815273
0.0359005
-9.43581e-08
-0.228366
0.30882
1.67962e-11
-0.228358
0.308811
9.43755e-08
-0.228358
0.308811
-0.228366
0.30882
-1.10144e-07
-0.301161
0.372508
2.54811e-11
-0.301145
0.372508
1.10176e-07
-0.301145
0.372508
-0.301161
0.372508
-7.28758e-08
0.0884958
0.0298146
7.91587e-11
0.0884961
0.0298208
7.29288e-08
0.0884961
0.0298208
0.0884957
0.0298146
-3.52295e-08
-0.581646
0.16582
4.03539e-11
-0.581624
0.165815
3.52223e-08
-0.581624
0.165815
-0.581646
0.16582
8.22638e-09
-0.557991
0.127725
2.98224e-11
-0.557967
0.127721
-8.22742e-09
-0.557967
0.127721
-0.557991
0.127725
-1.0963e-07
-0.523325
0.466434
2.46628e-11
-0.523305
0.466427
1.09624e-07
-0.523305
0.466427
-0.523325
0.466434
1.04507e-07
0.0356917
-0.00468255
-0.664282
-1.60036e-11
0.0356802
-0.00467617
-0.664274
-1.04595e-07
0.0356802
-0.00467617
-0.664274
0.0356917
-0.00468256
-0.664282
7.31732e-08
0.0700279
-0.667981
-1.00929e-11
0.0700078
-0.667968
-7.32339e-08
0.0700078
-0.667968
0.0700279
-0.667981
-2.83976e-08
0.125846
-0.699255
2.3327e-11
0.125835
-0.69927
2.83583e-08
0.125835
-0.69927
0.125846
-0.699255
6.27922e-08
0.291184
-0.723328
2.60029e-11
0.291184
-0.723316
-6.27992e-08
0.291184
-0.723316
0.291184
-0.723328
-5.18791e-08
0.477008
-0.106727
1.47248e-11
0.47701
-0.106733
5.18931e-08
0.47701
-0.106733
0.477008
-0.106727
-9.70794e-08
-0.545021
0.11696
-3.74413e-11
-0.545032
0.116944
9.69368e-08
-0.545032
0.116944
-0.545021
0.11696
-4.65553e-08
-0.546771
0.0701904
-2.84964e-11
-0.546797
0.0702261
4.64449e-08
-0.546797
0.0702261
-0.546771
0.0701904
-5.86286e-08
-0.561647
0.0336222
-3.66254e-11
-0.561665
0.0336012
5.85446e-08
-0.561665
0.0336012
-0.561647
0.0336222
1.36622e-08
-0.594347
0.017397
-3.76693e-11
-0.59436
0.0174104
-1.37148e-08
-0.59436
0.0174104
-0.594347
0.017397
8.41818e-08
-0.60835
0.00433525
-4.09337e-11
-0.608352
0.00430573
-8.41988e-08
-0.608352
0.00430573
-0.60835
0.00433524
-1.08072e-07
0.37892
0.189763
1.32718e-12
0.378914
0.189762
1.08056e-07
0.378914
0.189762
0.37892
0.189763
-1.87561e-08
0.342875
0.18374
-9.44207e-12
0.342873
0.18373
1.87349e-08
0.342873
0.18373
0.342875
0.18374
3.55493e-08
0.35825
0.21853
-1.4706e-11
0.358254
0.218518
-3.55756e-08
0.358254
0.218518
0.35825
0.21853
3.1515e-08
0.362401
0.232718
-3.58009e-11
0.362401
0.232713
-3.15691e-08
0.362401
0.232713
0.362401
0.232718
3.65391e-08
0.303464
0.234098
-4.77219e-11
0.303473
0.234102
-3.66184e-08
0.303473
0.234102
0.303464
0.234098
6.81942e-09
0.196849
0.205402
-3.44043e-11
0.196837
0.205394
-6.94847e-09
0.196837
0.205394
0.196849
0.205402
-1.25048e-07
-0.443302
0.172938
-6.35745e-11
-0.443292
0.172922
1.25128e-07
-0.443292
0.172922
-0.443302
0.172938
-2.64512e-08
0.306908
0.16691
-1.35982e-11
0.306912
0.166889
2.63374e-08
0.306912
0.166889
0.306908
0.16691
1.59916e-08
0.229929
0.278937
-4.94003e-11
0.229942
0.278925
-1.60993e-08
0.229942
0.278925
0.229929
0.278937
5.28702e-08
0.346404
0.190434
-5.15459e-11
0.346407
0.190447
-5.29686e-08
0.346407
0.190447
0.346404
0.190434
2.83854e-08
-0.654339
0.0413064
5.19844e-12
-0.654348
0.0413196
-2.84283e-08
-0.654348
0.0413196
-0.654339
0.0413064
-1.18003e-07
0.138222
0.327658
-6.91463e-12
0.138214
0.327643
1.17844e-07
0.138214
0.327643
0.138222
0.327658
1.04578e-07
0.357351
-0.380265
0.151215
-5.33932e-11
0.357367
-0.38026
0.151207
-1.04625e-07
0.357367
-0.38026
0.151207
0.357351
-0.380265
0.151215
-3.66678e-08
0.113792
0.381782
1.88347e-12
0.11381
0.38177
3.64947e-08
0.11381
0.38177
0.113792
0.381782
-1.24098e-07
0.0560813
-0.04203
0.0732396
5.81698e-11
0.0560857
-0.0420354
0.0732296
1.23891e-07
0.0560856
-0.0420354
0.0732296
0.0560813
-0.04203
0.0732396
-8.23328e-08
0.0433679
0.077991
3.82244e-11
0.0433602
0.077992
8.22278e-08
0.0433602
0.077992
0.0433679
0.077991
-7.24655e-08
0.366953
-0.357537
0.180347
-1.65347e-12
0.366946
-0.357526
0.180342
7.24617e-08
0.366946
-0.357526
0.180342
0.366953
-0.357537
0.180347
-1.742e-09
0.359852
0.190841
-2.03317e-11
0.359847
0.190829
1.68856e-09
0.359847
0.190829
0.359852
0.190841
-7.35017e-09
0.358586
0.219795
-2.63365e-11
0.358578
0.219786
7.28725e-09
0.358578
0.219786
0.358586
0.219795
-4.41293e-08
0.351106
0.240199
-2.8291e-11
0.351097
0.240194
4.4044e-08
0.351097
0.240194
0.351106
0.240199
-9.48097e-08
0.298132
0.287072
-3.33211e-11
0.298119
0.28708
9.47196e-08
0.298119
0.28708
0.298132
0.287072
-8.46653e-08
0.252986
0.324082
-2.89054e-11
0.252971
0.324073
8.45798e-08
0.252971
0.324073
0.252986
0.324082
-1.13794e-07
0.413307
0.186083
-3.15551e-11
0.413301
0.186077
1.13728e-07
0.413301
0.186077
0.413307
0.186083
-1.56261e-07
0.396379
-0.130598
2.38721e-11
0.39637
-0.130596
1.56301e-07
0.39637
-0.130596
0.396379
-0.130598
-1.29911e-07
-0.153998
0.19284
1.31789e-11
-0.153994
0.192838
1.29923e-07
-0.153994
0.192838
-0.153998
0.19284
7.6211e-08
-0.524157
0.214171
-7.77893e-11
-0.524129
0.214184
-7.6333e-08
-0.524129
0.214184
-0.524157
0.214171
-2.53222e-07
-0.526301
0.119104
-7.39003e-11
-0.526294
0.119109
2.53058e-07
-0.526294
0.119109
-0.526301
0.119104
-1.62969e-08
-0.560475
0.104365
-1.64841e-11
-0.560444
0.104376
1.61853e-08
-0.560444
0.104376
-0.560475
0.104365
-3.21437e-07
-0.550087
0.0232341
-1.14314e-11
-0.55008
0.0232375
3.21356e-07
-0.55008
0.0232375
-0.550087
0.0232341
5.13757e-08
-0.582528
0.049838
-3.99308e-11
-0.58251
0.0498404
-5.13914e-08
-0.58251
0.0498404
-0.582528
0.049838
-1.52071e-07
-0.61337
0.035178
-5.86708e-11
-0.613374
0.0351693
1.52094e-07
-0.613374
0.0351693
-0.61337
0.035178
-2.62927e-08
0.0705154
-0.0427141
-0.157172
-3.21069e-11
0.0705089
-0.0427086
-0.157175
2.60245e-08
0.0705089
-0.0427086
-0.157175
0.0705154
-0.0427141
-0.157172
-1.04984e-08
0.0961062
-0.1464
-1.01897e-11
0.0960997
-0.146403
1.02727e-08
0.0960997
-0.146403
0.0961062
-0.1464
-1.10463e-08
0.111471
-0.114752
-8.70088e-12
0.111466
-0.11475
1.08893e-08
0.111466
-0.11475
0.111471
-0.114752
-2.08781e-08
0.116337
-0.0807449
6.10997e-11
0.11633
-0.0807426
2.07412e-08
0.11633
-0.0807426
0.116337
-0.0807449
-9.50117e-08
0.114034
-0.0506781
1.42939e-10
0.114023
-0.0506827
9.46247e-08
0.114023
-0.0506827
0.114034
-0.0506781
-1.21572e-07
-0.0224946
0.0944986
-1.99186e-10
-0.0225007
0.0944884
1.21221e-07
-0.0225007
0.0944884
-0.0224946
0.0944986
-4.21751e-08
-0.0750327
0.0783378
-0.0741135
4.66002e-11
-0.0750385
0.0783455
-0.0741109
4.21678e-08
-0.0750385
0.0783455
-0.0741109
-0.0750327
0.0783378
-0.0741135
-2.68657e-08
-0.0770556
-0.0597085
2.21068e-10
-0.0770625
-0.0597094
2.69545e-08
-0.0770625
-0.0597094
-0.0770556
-0.0597085
-3.24775e-08
-0.0817049
-0.0477334
2.96089e-10
-0.0817092
-0.0477296
3.25812e-08
-0.0817092
-0.0477296
-0.0817049
-0.0477334
-2.69097e-08
-0.0901941
-0.0392313
2.31455e-10
-0.090198
-0.039229
2.69834e-08
-0.090198
-0.039229
-0.0901941
-0.0392314
-3.24041e-08
-0.104302
-0.0316087
1.41915e-10
-0.104305
-0.0316041
3.23634e-08
-0.104305
-0.0316041
-0.104302
-0.0316087
-2.84755e-08
-0.123928
-0.0258378
5.26186e-11
-0.123931
-0.0258337
2.8296e-08
-0.123931
-0.0258337
-0.123928
-0.0258378
-2.69575e-08
-0.0156373
-0.151005
4.49921e-11
-0.0156325
-0.151007
2.67107e-08
-0.0156325
-0.151007
-0.0156373
-0.151005
-6.34389e-08
-0.0584663
0.0473
0.0996621
1.38341e-10
-0.0584625
0.0472915
0.0996671
6.34651e-08
-0.0584625
0.0472915
0.0996671
-0.0584663
0.0473
0.0996621
-5.57659e-08
-0.0507024
0.082134
1.87292e-10
-0.050702
0.0821382
5.58816e-08
-0.050702
0.0821382
-0.0507024
0.082134
-3.94652e-08
-0.0654839
0.116022
7.78166e-11
-0.0654884
0.116029
3.95865e-08
-0.0654884
0.116029
-0.0654839
0.116022
-3.33113e-08
-0.0790975
0.121295
-1.85109e-12
-0.0791014
0.121299
3.33716e-08
-0.0791014
0.121299
-0.0790975
0.121295
-3.44316e-08
-0.0894249
0.0999878
6.35138e-11
-0.089428
0.099993
3.43725e-08
-0.089428
0.099993
-0.089425
0.0999878
-2.7611e-08
0.0863138
-0.0974009
1.99999e-11
0.086322
-0.0974044
2.75311e-08
0.0863219
-0.0974045
0.0863138
-0.097401
-5.5028e-08
0.0689893
0.0380028
-3.8281e-11
0.0689913
0.0380052
5.49456e-08
0.0689913
0.0380052
0.0689893
0.0380028
-9.37608e-08
0.0903435
0.0145464
-1.09937e-11
0.0903457
0.0145305
9.37273e-08
0.0903457
0.0145305
0.0903435
0.0145464
-8.7775e-08
0.0968868
0.0232715
1.23566e-10
0.0968918
0.0232746
8.7746e-08
0.0968918
0.0232746
0.0968868
0.0232715
-1.19421e-07
0.0878949
0.056292
1.01325e-10
0.0878997
0.0562835
1.19428e-07
0.0878997
0.0562835
0.0878949
0.056292
2.70119e-08
-0.383802
0.176475
-1.59137e-10
-0.383821
0.176483
-2.6946e-08
-0.383821
0.176483
-0.383802
0.176475
-1.10437e-07
-0.529057
0.171553
3.95864e-11
-0.529033
0.171544
1.10453e-07
-0.529033
0.171544
-0.529057
0.171553
-1.51596e-07
0.459485
-0.123649
2.67092e-11
0.459482
-0.12365
1.51634e-07
0.459482
-0.12365
0.459485
-0.123649
-4.02072e-08
-0.517386
0.116054
1.08391e-11
-0.517364
0.116052
4.02119e-08
-0.517364
0.116052
-0.517386
0.116053
-4.68918e-08
-0.0106657
0.0258281
-0.679445
-2.65637e-11
-0.0106419
0.0258166
-0.679449
4.68227e-08
-0.0106419
0.0258166
-0.679449
-0.0106657
0.0258281
-0.679445
8.16967e-08
0.0242986
-0.702945
3.91231e-12
0.0243196
-0.70293
-8.17266e-08
0.0243196
-0.70293
0.0242986
-0.702945
-8.76061e-10
-0.4081
0.181898
3.36387e-11
-0.408087
0.181907
9.47324e-10
-0.408087
0.181907
-0.4081
0.181898
1.02925e-07
0.0240607
-0.699017
-4.22071e-12
0.0240586
-0.699008
-1.0295e-07
0.0240586
-0.699008
0.0240607
-0.699017
1.4723e-09
-0.0104063
-0.688861
4.83014e-12
-0.010421
-0.688837
-1.48822e-09
-0.0104209
-0.688837
-0.0104063
-0.688861
5.78557e-08
0.0367412
-0.665252
-2.28781e-11
0.0367153
-0.665247
-5.78601e-08
0.0367153
-0.665247
0.0367412
-0.665252
7.51171e-10
-0.5598
0.390169
-3.79619e-11
-0.559823
0.390186
-8.05031e-10
-0.559823
0.390186
-0.5598
0.390169
4.91507e-08
0.319072
0.0990745
-0.266932
-7.5414e-13
0.31908
0.0990568
-0.266929
-4.92532e-08
0.31908
0.0990569
-0.266929
0.319072
0.0990745
-0.266932
-1.60104e-07
0.064202
0.368661
5.66952e-11
0.0642352
0.368655
1.59886e-07
0.0642352
0.368655
0.064202
0.368661
1.81787e-07
0.276466
-0.214864
0.037472
1.19625e-10
0.276456
-0.214861
0.0374613
-1.81793e-07
0.276456
-0.214861
0.0374613
0.276466
-0.214864
0.037472
-2.04997e-07
0.320842
0.0198271
7.53503e-11
0.320842
0.0198489
2.04761e-07
0.320842
0.0198489
0.320842
0.0198271
-8.81137e-08
0.0325235
-0.0403645
0.095736
1.51962e-10
0.0325402
-0.0403798
0.0957392
8.81745e-08
0.0325402
-0.0403798
0.0957391
0.0325235
-0.0403645
0.095736
-6.22394e-08
-0.000976505
0.133162
1.81924e-10
-0.000958993
0.133166
6.23311e-08
-0.00095898
0.133166
-0.000976477
0.133162
-1.25817e-07
-0.0151815
0.0963391
1.06018e-10
-0.0151716
0.0963507
1.25897e-07
-0.0151716
0.0963507
-0.0151815
0.0963391
-9.91116e-08
-0.0453808
0.146222
-4.18398e-11
-0.0453775
0.146235
9.91428e-08
-0.0453775
0.146235
-0.0453808
0.146222
-1.09568e-07
-0.0823984
0.158313
5.53259e-12
-0.0823972
0.158318
1.09539e-07
-0.0823972
0.158318
-0.0823984
0.158313
-5.14827e-08
-0.108041
0.125631
7.7434e-12
-0.108037
0.125633
5.13812e-08
-0.108037
0.125633
-0.108041
0.125631
-3.01121e-08
-0.127198
0.105471
-6.73068e-11
-0.127201
0.105486
2.99928e-08
-0.127201
0.105486
-0.127198
0.105471
-2.55187e-08
-0.0426914
-0.122525
0.0380189
-1.26577e-10
-0.0426884
-0.122525
0.0380118
2.53056e-08
-0.0426883
-0.122525
0.0380118
-0.0426914
-0.122525
0.0380188
-2.9934e-08
-0.0489086
-0.0911838
-1.05955e-10
-0.0489073
-0.0911855
2.96889e-08
-0.0489073
-0.0911855
-0.0489086
-0.0911838
-4.06867e-08
-0.054687
-0.0683351
-4.46782e-11
-0.0546849
-0.0683334
4.05109e-08
-0.0546848
-0.0683334
-0.054687
-0.0683351
-3.38542e-08
-0.0618935
-0.0525019
1.14749e-10
-0.0618933
-0.0525009
3.38369e-08
-0.0618933
-0.052501
-0.0618935
-0.0525019
-3.73295e-08
-0.0703529
-0.0392739
2.14196e-10
-0.0703532
-0.0392697
3.73721e-08
-0.0703532
-0.0392697
-0.0703529
-0.0392739
-3.29174e-08
-0.0809472
-0.0286371
1.93036e-10
-0.0809482
-0.028634
3.30146e-08
-0.0809482
-0.028634
-0.0809472
-0.0286371
-3.67146e-08
-0.0950007
-0.0175552
1.37243e-10
-0.095002
-0.0175503
3.67838e-08
-0.095002
-0.0175504
-0.0950007
-0.0175552
-3.38853e-08
-0.113716
-0.00712236
1.11303e-10
-0.113717
-0.00711835
3.38923e-08
-0.113717
-0.00711836
-0.113716
-0.00712237
-3.61269e-08
-0.135192
0.00583853
1.41274e-10
-0.135193
0.00584321
3.61166e-08
-0.135193
0.0058432
-0.135192
0.00583852
-3.99766e-08
0.00159678
-0.161589
0.0248004
1.52262e-10
0.00159263
-0.16159
0.0248037
3.98843e-08
0.00159265
-0.16159
0.0248037
0.00159678
-0.161589
0.0248004
-2.10291e-08
0.0388469
-0.188255
7.50036e-11
0.0388409
-0.188255
2.09076e-08
0.038841
-0.188255
0.0388469
-0.188255
-2.34287e-08
0.0767106
-0.195036
4.57294e-11
0.0767004
-0.195035
2.32349e-08
0.0767004
-0.195035
0.0767105
-0.195036
-4.75729e-08
0.110346
-0.180035
1.18862e-10
0.110331
-0.180034
4.72852e-08
0.110331
-0.180034
0.110346
-0.180035
-7.74041e-08
0.132578
-0.136984
4.51714e-11
0.132561
-0.13698
7.73045e-08
0.132561
-0.136979
0.132578
-0.136984
-7.26865e-08
0.1348
-0.0829666
1.62623e-10
0.13478
-0.0829621
7.25923e-08
0.13478
-0.082962
0.1348
-0.0829666
-1.61417e-07
0.118095
-0.033973
3.0552e-10
0.118072
-0.0339748
1.61215e-07
0.118072
-0.0339748
0.118095
-0.033973
-1.6601e-07
0.0947948
0.000806066
-9.65402e-12
0.0947783
0.000792692
1.66056e-07
0.0947783
0.000792731
0.0947948
0.000806074
-1.63958e-07
0.0676557
0.00900844
0.0181309
-1.99189e-10
0.0676379
0.00902562
0.0181146
1.64039e-07
0.0676379
0.0090256
0.0181146
0.0676557
0.00900843
0.0181309
-1.08803e-07
-0.0203573
0.0185425
-3.08183e-10
-0.020335
0.0185173
1.08429e-07
-0.020335
0.0185173
-0.0203573
0.0185425
5.45219e-08
0.0703764
-0.64244
8.44277e-12
0.0703701
-0.642424
-5.45344e-08
0.0703701
-0.642424
0.0703764
-0.64244
-1.13959e-07
0.0919052
-0.182362
-1.6224e-10
0.0919156
-0.182362
1.13931e-07
0.0919156
-0.182362
0.0919052
-0.182362
2.19816e-07
-0.553561
0.112865
-2.88608e-11
-0.553551
0.112836
-2.19876e-07
-0.553551
0.112836
-0.553561
0.112865
1.00834e-07
-0.549445
0.100249
-6.69179e-11
-0.549456
0.100282
-1.00923e-07
-0.549456
0.100282
-0.549445
0.100249
1.25353e-07
-0.568502
0.0422905
2.29345e-11
-0.568478
0.0422597
-1.25437e-07
-0.568478
0.0422597
-0.568502
0.0422905
1.67915e-07
-0.594967
0.0763031
-4.25663e-11
-0.594972
0.0763346
-1.67909e-07
-0.594972
0.0763346
-0.594967
0.0763031
-1.12653e-07
0.359121
-0.0536338
2.28263e-11
0.359124
-0.0536361
1.12679e-07
0.359124
-0.0536361
0.359121
-0.0536338
-8.50504e-08
0.399274
0.152688
2.80002e-12
0.399277
0.152685
8.50487e-08
0.399277
0.152685
0.399274
0.152688
-9.71869e-08
0.38265
0.196971
-6.63781e-12
0.382641
0.196978
9.7174e-08
0.382641
0.196978
0.38265
0.196971
9.09622e-09
0.370479
0.203013
-2.45652e-11
0.370477
0.202993
-9.16968e-09
0.370477
0.202993
0.370479
0.203013
1.2138e-08
0.365967
0.224307
-3.00789e-11
0.365963
0.2243
-1.2221e-08
0.365963
0.2243
0.365967
0.224307
-3.02841e-08
0.350429
0.255737
-2.35574e-11
0.350426
0.255731
3.01834e-08
0.350426
0.255731
0.350429
0.255737
2.13811e-09
0.33132
0.306181
-2.28908e-11
0.331332
0.306174
-2.22435e-09
0.331332
0.306174
0.33132
0.306181
1.0973e-07
0.29981
0.355592
-1.38046e-11
0.299823
0.355581
-1.09802e-07
0.299823
0.355581
0.29981
0.355592
1.13594e-07
0.5576
0.155517
3.54824e-11
0.557582
0.155543
-1.13617e-07
0.557582
0.155543
0.5576
0.155517
-5.54715e-08
-0.604271
0.0444816
-2.45324e-11
-0.60426
0.0444567
5.55038e-08
-0.60426
0.0444567
-0.604271
0.0444816
-9.1724e-08
0.034745
0.0687621
-3.40724e-10
0.0347598
0.0687541
9.14312e-08
0.0347598
0.0687541
0.034745
0.0687621
-1.19029e-07
0.0461559
0.0618288
-4.71672e-11
0.0461687
0.0618206
1.18814e-07
0.0461687
0.0618206
0.0461559
0.0618288
-5.47043e-08
0.0634138
0.02611
-2.42728e-10
0.0634203
0.0261086
5.44328e-08
0.0634203
0.0261086
0.0634138
0.02611
6.68204e-08
0.107782
0.0990074
0.350811
6.06219e-11
0.107756
0.0990028
0.350823
-6.67769e-08
0.107756
0.0990028
0.350823
0.107782
0.0990074
0.350811
-1.35399e-08
0.169021
0.349071
-4.97131e-11
0.169022
0.349068
1.34509e-08
0.169022
0.349068
0.169021
0.349071
2.14335e-08
0.130899
0.419903
-4.93481e-11
0.130878
0.419914
-2.15034e-08
0.130878
0.419914
0.130899
0.419903
-1.12327e-07
0.0651673
0.0508267
-8.70641e-11
0.065175
0.0508221
1.12137e-07
0.065175
0.0508221
0.0651672
0.0508267
-1.1434e-07
0.06702
0.0126938
-5.95538e-11
0.0670212
0.0126843
1.14267e-07
0.0670212
0.0126842
0.06702
0.0126938
-1.339e-07
0.102439
-0.012147
-3.60432e-11
0.10244
-0.0121443
1.3393e-07
0.10244
-0.0121443
0.102439
-0.012147
-1.50608e-07
0.0862462
0.0724846
4.12347e-11
0.0862631
0.0724601
1.50637e-07
0.0862631
0.0724602
0.0862461
0.0724846
-2.30594e-08
-0.03701
0.0828916
1.74258e-10
-0.037008
0.0828913
2.33169e-08
-0.037008
0.0828913
-0.03701
0.0828916
-8.48777e-08
0.410508
0.124646
-2.10148e-11
0.410509
0.124635
8.48413e-08
0.410509
0.124635
0.410509
0.124646
-1.14197e-07
-0.15675
0.191007
3.0322e-10
-0.156726
0.190945
1.14023e-07
-0.156726
0.190945
-0.15675
0.191007
-2.72786e-07
-0.105282
0.0210164
-3.17187e-10
-0.105274
0.0210077
2.72574e-07
-0.105274
0.0210077
-0.105282
0.0210164
-2.44836e-07
-0.0665996
-0.0508288
-8.36256e-11
-0.0666037
-0.0508145
2.44857e-07
-0.0666037
-0.0508145
-0.0665996
-0.0508288
-1.50555e-07
-0.0780292
0.0241235
-1.16559e-10
-0.0780363
0.0241167
1.50384e-07
-0.0780363
0.0241167
-0.0780292
0.0241235
-1.35023e-07
0.0362114
-1.34751e-10
0.036206
1.34734e-07
0.036206
0.0362114
-1.12476e-07
0.00271795
0.045687
-1.89876e-10
0.00273214
0.0456869
1.11921e-07
0.00273214
0.0456869
0.00271795
0.045687
-1.42881e-07
0.0332679
0.031279
-1.42496e-10
0.0332779
0.0312748
1.42679e-07
0.0332778
0.0312748
0.0332679
0.031279
-1.33431e-07
-0.181258
0.0582997
-3.32892e-10
-0.18125
0.0583051
1.33506e-07
-0.18125
0.0583051
-0.181258
0.0582997
-2.36083e-08
0.432076
0.133949
5.5035e-11
0.432087
0.133964
2.36087e-08
0.432087
0.133964
0.432076
0.133949
-6.46821e-08
0.423796
0.116062
7.28942e-11
0.4238
0.116043
6.47401e-08
0.4238
0.116043
0.423796
0.116062
2.80251e-08
0.112326
-0.64622
1.91139e-11
0.11236
-0.64625
-2.80138e-08
0.11236
-0.64625
0.112326
-0.64622
-5.97969e-08
-0.0821196
0.0549511
-2.92595e-10
-0.0821063
0.0549395
5.99322e-08
-0.0821063
0.0549395
-0.0821196
0.0549511
-7.32311e-08
-0.0989154
0.0349268
-4.05065e-10
-0.0988981
0.0349063
7.3611e-08
-0.0988981
0.0349063
-0.0989154
0.0349268
-9.21596e-08
-0.122164
0.0240552
-5.68235e-10
-0.122151
0.0240454
9.26633e-08
-0.122151
0.0240455
-0.122164
0.0240553
-1.07965e-07
-0.134924
-0.0212137
-2.65187e-10
-0.134913
-0.0212128
1.07985e-07
-0.134913
-0.0212128
-0.134924
-0.0212137
3.65743e-09
-0.133644
-0.0842463
5.68011e-11
-0.13364
-0.0842349
-3.75442e-09
-0.13364
-0.0842348
-0.133644
-0.0842463
3.46141e-08
-0.113834
-0.156794
1.77483e-10
-0.113831
-0.156788
-3.47786e-08
-0.113831
-0.156788
-0.113834
-0.156794
3.89305e-10
-0.0749089
-0.21896
3.0566e-10
-0.0749031
-0.218962
-7.32663e-10
-0.0749032
-0.218962
-0.0749089
-0.21896
1.73661e-08
-0.0241528
-0.245792
2.20053e-10
-0.0241487
-0.245789
-1.75102e-08
-0.0241487
-0.245789
-0.0241528
-0.245792
1.45795e-08
0.0199745
-0.232382
1.72989e-10
0.0199781
-0.232382
-1.45897e-08
0.019978
-0.232382
0.0199745
-0.232382
1.66262e-08
0.0531029
-0.194717
2.37533e-10
0.0531042
-0.194716
-1.65588e-08
0.0531042
-0.194716
0.0531029
-0.194717
-3.42741e-08
-0.00772897
-0.021527
-0.0932693
-3.14932e-10
-0.00772452
-0.0215365
-0.0932637
3.39369e-08
-0.00772451
-0.0215365
-0.0932637
-0.00772896
-0.0215271
-0.0932693
-2.60195e-08
-0.0260472
-0.0728655