/*--------------------------------*- C++ -*----------------------------------*\
| =========                 |                                                 |
| \\      /  F ield         | OpenFOAM: The Open Source CFD Toolbox           |
|  \\    /   O peration     | Version:  v1806                                 |
|   \\  /    A nd           | Web:      www.OpenFOAM.com                      |
|    \\/     M anipulation  |                                                 |
\*---------------------------------------------------------------------------*/
FoamFile
{
    version     2.0;
    format      ascii;
    class       volScalarField;
    location    "40";
    object      p;
}
// * * * * * * * * * * * * * * * * * * * * * * * * * * * * * * * * * * * * * //

dimensions      [0 2 -2 0 0 0 0];


internalField   nonuniform List<scalar> 
2400
(
0.000873929
0.000871576
0.000866485
0.00085852
0.000847495
0.00083313
0.000815073
0.000792937
0.00076634
0.000734936
0.000698446
0.000656696
0.000609659
0.000557476
0.000500499
0.000439289
0.000374643
0.000307605
0.000239398
0.000171062
0.00262452
0.00261796
0.00260376
0.0025814
0.00255034
0.00250975
0.00245864
0.00239589
0.00232037
0.00223109
0.00212721
0.00200822
0.00187396
0.0017248
0.00156167
0.00138614
0.00120041
0.00100725
0.000809904
0.000612096
0.00438271
0.00437239
0.00435001
0.00431463
0.00426523
0.00420043
0.00411849
0.00401747
0.00389539
0.00375043
0.00358103
0.0033861
0.00316518
0.00291864
0.00264782
0.00235512
0.00204413
0.00171948
0.00138683
0.00105281
0.00615297
0.00613939
0.00610987
0.00606304
0.00599737
0.00591083
0.0058008
0.00566441
0.00549865
0.00530069
0.00506801
0.00479873
0.00449181
0.00414742
0.0037671
0.003354
0.00291304
0.00245083
0.00197562
0.00149692
0.00793905
0.00792284
0.00788751
0.00783128
0.00775204
0.00764696
0.00751244
0.00734447
0.00713878
0.0068913
0.00659818
0.00625649
0.0058642
0.00542098
0.00492827
0.00438981
0.00381182
0.00320296
0.00257437
0.00193909
0.00974398
0.00972591
0.00968645
0.00962339
0.00953395
0.00941437
0.00925987
0.00906511
0.00882424
0.00853164
0.00818172
0.00777006
0.00729313
0.00674974
0.00614073
0.00547023
0.00474561
0.00397779
0.00318128
0.00237338
0.0115698
0.0115509
0.0115093
0.0114426
0.0113471
0.011218
0.0110491
0.0108336
0.0105635
0.0102315
0.00982951
0.00935127
0.00879089
0.00814593
0.00741579
0.0066048
0.00572113
0.00477819
0.00379451
0.00279265
0.0134175
0.0133988
0.0133577
0.0132911
0.0131946
0.013062
0.0128857
0.0126568
0.0123653
0.0120012
0.0115534
0.0110134
0.0103717
0.00962415
0.00876728
0.00780562
0.00674711
0.00560819
0.00441207
0.00318798
0.0152866
0.0152696
0.0152318
0.0151699
0.0150783
0.0149497
0.0147743
0.0145414
0.014238
0.0138515
0.0133665
0.0127717
0.0120521
0.0112021
0.0102123
0.00908825
0.00783515
0.00647378
0.00503207
0.003548
0.0171751
0.0171613
0.0171304
0.0170784
0.0169988
0.0168828
0.0167187
0.0164933
0.0161902
0.0157936
0.015283
0.0146432
0.0138519
0.0129012
0.0117722
0.010473
0.00900054
0.00738385
0.00565301
0.00385821
0.019079
0.0190703
0.0190501
0.0190141
0.0189548
0.0188618
0.0187212
0.0185171
0.0182296
0.0178387
0.0173181
0.0166474
0.0157943
0.0147482
0.0134743
0.011987
0.0102634
0.00835139
0.00627312
0.00409988
0.0209923
0.0209907
0.0209856
0.0209725
0.0209429
0.0208847
0.020782
0.0206158
0.020363
0.0199978
0.019488
0.0188055
0.0179068
0.0167755
0.0153545
0.0136669
0.0116515
0.00939568
0.00688716
0.00424675
0.0229066
0.0229143
0.0229291
0.0229464
0.0229569
0.0229468
0.0228986
0.02279
0.0225947
0.0222801
0.0218086
0.0211403
0.0202216
0.0190219
0.0174602
0.0155628
0.013208
0.0105498
0.00748341
0.00425932
0.0248107
0.02483
0.0248698
0.0249256
0.0249874
0.0250401
0.025065
0.0250364
0.0249257
0.0246924
0.0242945
0.023675
0.0227742
0.0215319
0.0198525
0.0177395
0.015004
0.0118753
0.00805473
0.00408916
0.026691
0.0267243
0.0267942
0.0268966
0.0270214
0.0271523
0.0272702
0.0273467
0.0273515
0.0272364
0.0269561
0.0264317
0.025602
0.0243565
0.0226057
0.0202728
0.0171464
0.0134636
0.00863622
0.00372304
0.0285309
0.0285805
0.0286854
0.0288424
0.0290415
0.0292663
0.0294975
0.0297059
0.0298599
0.0299059
0.0297953
0.0294284
0.0287409
0.0275558
0.0258071
0.0232548
0.0197712
0.0153849
0.00934945
0.00322788
0.0303113
0.0303792
0.0305236
0.0307424
0.0310262
0.0313595
0.0317235
0.0320902
0.032428
0.032682
0.0328001
0.0326701
0.0322176
0.0312024
0.0295625
0.0268284
0.0230392
0.0176517
0.0103442
0.00249256
0.0320109
0.0320986
0.0322859
0.0325723
0.0329494
0.0334033
0.0339173
0.0344661
0.03502
0.0355279
0.035936
0.036134
0.036031
0.0353593
0.0340056
0.0312664
0.0272313
0.0204186
0.0115218
-0.000189931
0.0336064
0.0337149
0.0339474
0.034305
0.0347812
0.0353645
0.0360408
0.0367901
0.0375862
0.0383867
0.0391405
0.0397531
0.0401241
0.0400116
0.039228
0.0369889
0.0330776
0.0246476
0.0128041
-0.00844341
0.0350736
0.0352033
0.0354815
0.0359116
0.0364891
0.0372055
0.0380507
0.0390104
0.0400649
0.0411829
0.042322
0.0434113
0.0443597
0.0449908
0.0450963
0.0440892
0.0414714
0.0338514
0.0197705
-0.020194
0.000107528
5.30093e-05
3.45862e-06
-4.21295e-05
-8.44113e-05
-0.00012178
-0.000155452
-0.000181637
-0.000205799
-0.000217375
0.00043801
0.000288491
0.000145783
1.21807e-05
-0.00011128
-0.000222134
-0.000320602
-0.000401588
-0.000468671
-0.000510325
0.000756816
0.000501423
0.000257969
2.97814e-05
-0.000180874
-0.000370667
-0.000538753
-0.000679788
-0.000797174
-0.000881364
0.00107169
0.000704622
0.000354867
2.69458e-05
-0.00027549
-0.000548482
-0.000789807
-0.000994274
-0.0011638
-0.00128923
0.00137361
0.000885056
0.000419686
-1.65315e-05
-0.000418206
-0.000781014
-0.00110093
-0.0013738
-0.00159935
-0.00177136
0.00165263
0.00102956
0.000436597
-0.000118508
-0.000628276
-0.00108837
-0.00149268
-0.00183927
-0.00212487
-0.00234832
0.00189675
0.00112216
0.00038622
-0.000300923
-0.000929393
-0.00149516
-0.00199004
-0.00241596
-0.00276574
-0.00304684
0.00209072
0.00114254
0.000244055
-0.000591039
-0.00135029
-0.00203009
-0.00262121
-0.00313094
-0.00354856
-0.00389357
0.00221455
0.00106388
-2.20717e-05
-0.00102386
-0.00192665
-0.00272703
-0.00341788
-0.00401246
-0.00449987
-0.00491297
0.00224156
0.000849565
-0.000456272
-0.00164636
-0.00270432
-0.00362696
-0.00441579
-0.00508861
-0.00564311
-0.00612094
0.00213621
0.000448458
-0.00112107
-0.002524
-0.00374455
-0.00478176
-0.00565663
-0.00638734
-0.00699557
-0.00751789
0.00184919
-0.000213103
-0.00210651
-0.00374886
-0.00513036
-0.00625966
-0.00719154
-0.00793857
-0.00856674
-0.00908498
0.00130353
-0.00124979
-0.00354382
-0.00544665
-0.00696967
-0.00814736
-0.00908097
-0.00977343
-0.0103541
-0.0107814
0.000360583
-0.00286271
-0.00563478
-0.00778738
-0.00939446
-0.0105427
-0.0113814
-0.0119085
-0.0123261
-0.0125337
-0.00125084
-0.00543639
-0.0087275
-0.0110293
-0.0125751
-0.0135413
-0.0141146
-0.0143085
-0.0143857
-0.0142116
-0.00405934
-0.00965893
-0.0134156
-0.0155819
-0.016728
-0.0171912
-0.0172018
-0.0168195
-0.0163221
-0.0156099
-0.0088885
-0.0162932
-0.020211
-0.0217191
-0.0218793
-0.0212948
-0.0203122
-0.0190953
-0.0178574
-0.0165679
-0.0166837
-0.0252618
-0.0285322
-0.0286323
-0.0271428
-0.0250134
-0.0228406
-0.0208182
-0.0190095
-0.0173587
-0.0300324
-0.0349943
-0.0359435
-0.0331979
-0.0301422
-0.0273901
-0.024807
-0.0223873
-0.0202152
-0.0183899
-0.0702207
-0.0462389
-0.0461205
-0.0394087
-0.0339758
-0.0293897
-0.0258415
-0.0231246
-0.0210834
-0.0198264
-0.000233628
-0.000211347
0.00018052
0.00115395
0.00211791
0.00242832
0.0020658
0.00145869
0.000942458
0.000602552
0.000397285
0.000272277
0.00019288
0.000139797
0.000102446
7.48561e-05
5.35025e-05
3.6039e-05
2.1076e-05
6.70417e-06
-0.000628665
-0.000530139
0.000484127
0.00260248
0.00451306
0.00508989
0.00440669
0.00328375
0.00227251
0.00154031
0.00105841
0.00074563
0.000537914
0.000394633
0.00029156
0.000214198
0.000153631
0.000103705
6.06633e-05
1.92445e-05
-0.00107149
-0.000921
0.000654301
0.00390777
0.00684333
0.00772722
0.00666366
0.00497164
0.00348078
0.00239835
0.00167262
0.00119162
0.000866486
0.000639142
0.000473932
0.000348996
0.000250648
0.000169283
9.89622e-05
3.13519e-05
-0.00156847
-0.00139154
0.000726736
0.0049505
0.00858298
0.00964307
0.00837114
0.00633565
0.00451229
0.00316157
0.002236
0.0016099
0.00117947
0.000874534
0.000650754
0.000480279
0.000345369
0.000233354
0.000136336
4.31603e-05
-0.00214647
-0.00198498
0.00063128
0.00572635
0.00997164
0.0111889
0.00974779
0.00745277
0.00538452
0.00382989
0.00274434
0.00199626
0.0014736
0.00109848
0.000820402
0.000606934
0.000437043
0.000295439
0.000172517
5.45769e-05
-0.00282959
-0.00274573
0.000335424
0.00622754
0.0109755
0.0123184
0.0107851
0.008335
0.00610616
0.00440582
0.00319699
0.00234903
0.00174718
0.00130955
0.000981775
0.000728145
0.00052509
0.000355155
0.000207291
6.55304e-05
-0.0036443
-0.00372176
-0.000218085
0.00641832
0.0116225
0.0130957
0.0115306
0.00900649
0.00668783
0.00489315
0.00359465
0.00266774
0.00199942
0.00150698
0.00113423
0.00084342
0.00060916
0.000412274
0.000240538
7.59858e-05
-0.00461917
-0.00496933
-0.00108823
0.00626542
0.0119135
0.0135427
0.012011
0.00948654
0.00714014
0.0052966
0.0039389
0.00295254
0.00222994
0.00169027
0.00127732
0.000952396
0.000688987
0.000466625
0.00027217
8.59198e-05
-0.00578393
-0.00655064
-0.00234196
0.00572989
0.0118518
0.013686
0.012253
0.00979417
0.00747413
0.00562161
0.00423199
0.00320411
0.00243873
0.00185917
0.00141072
0.00105479
0.000764352
0.000518063
0.000302116
9.53132e-05
-0.00716156
-0.0085287
-0.00404144
0.00478261
0.0114456
0.0135517
0.0122822
0.009948
0.00770123
0.0058743
0.00447682
0.0034236
0.0026261
0.00201361
0.00153424
0.0011504
0.000835091
0.000566475
0.000330315
0.000104151
-0.00875009
-0.0109407
-0.00621586
0.00341749
0.0107151
0.01317
0.0121245
0.0099669
0.00783329
0.00606129
0.00467674
0.00361252
0.00279261
0.0021537
0.00164783
0.0012391
0.000901082
0.000611775
0.000356723
0.000112423
-0.010499
-0.0137609
-0.00883191
0.00166014
0.00969969
0.0125529
0.0118077
0.0098704
0.00788256
0.00618959
0.00483548
0.00377272
0.00293906
0.00227974
0.0017515
0.00132083
0.000962247
0.000653901
0.000381307
0.000120122
-0.0122783
-0.0168596
-0.0117401
-0.000369549
0.0084821
0.011789
0.0113628
0.00967898
0.00786157
0.00626646
0.00495703
0.00390624
0.00306644
0.00239212
0.0018454
0.00139559
0.00101854
0.000692812
0.000404043
0.000127242
-0.0138524
-0.0199277
-0.0146489
-0.00246913
0.00715749
0.0109049
0.0108218
0.00941325
0.00778299
0.0062993
0.00504557
0.00401531
0.00317586
0.00249136
0.00192971
0.00146343
0.00106997
0.000728489
0.00042492
0.000133782
-0.014893
-0.0224637
-0.0171975
-0.00440667
0.00584419
0.0099568
0.0102195
0.0090932
0.00765923
0.00629544
0.0051053
0.00410227
0.00326855
0.00257806
0.0020047
0.00152445
0.00111654
0.00076093
0.000443932
0.000139744
-0.0151496
-0.023967
-0.0188273
-0.00593561
0.00465589
0.00900071
0.00958677
0.00873821
0.00750223
0.00626203
0.00514039
0.00416947
0.00334577
0.00265285
0.00207068
0.00157877
0.0011583
0.000790145
0.000461081
0.000145129
-0.014709
-0.0243358
-0.0194239
-0.00690461
0.00366908
0.00808458
0.00895409
0.00836502
0.00732306
0.00620586
0.00515486
0.00421925
0.00340883
0.00271644
0.00212798
0.00162655
0.00119531
0.00081616
0.000476378
0.000149943
-0.0142666
-0.0237455
-0.0190507
-0.00730666
0.00290629
0.00724311
0.00834664
0.0079944
0.00713175
0.00613319
0.00515256
0.00425386
0.00345901
0.00276952
0.00217697
0.00166796
0.00122765
0.000839006
0.000489836
0.000154192
-0.014195
-0.0225499
-0.0179995
-0.00724218
0.00234654
0.00649638
0.00778205
0.00763595
0.00693673
0.00604965
0.00513705
0.00427545
0.00349756
0.00281278
0.00221801
0.00170319
0.00125542
0.000858727
0.000501472
0.000157883
-0.0142441
-0.0209594
-0.0165746
-0.00688136
0.00194599
0.00585184
0.00727143
0.00729902
0.00674513
0.00596015
0.0051115
0.00428599
0.00352564
0.0028469
0.00225147
0.00173242
0.00127869
0.000875369
0.000511291
0.000161044
-0.0136501
-0.0189544
-0.0148458
-0.00633046
0.00162314
0.00525346
0.00677586
0.0069601
0.00654456
0.00585985
0.00507553
0.00428745
0.00354623
0.00287505
0.00228032
0.00175819
0.00129946
0.000890346
0.000520113
0.000163957
-0.0129043
-0.0170742
-0.0130985
-0.0056762
0.0013626
0.00474062
0.00632808
0.00664136
0.00634763
0.00575391
0.00503
0.00427832
0.00355676
0.00289442
0.00230189
0.00177823
0.00131594
0.000902376
0.000527265
0.000166296
-0.0121776
-0.0155495
-0.0117002
-0.00515333
0.0012182
0.00435894
0.00597417
0.00637916
0.00617823
0.00565618
0.00498161
0.00426077
0.00355681
0.00290329
0.00231407
0.00179045
0.00132641
0.000910182
0.00053197
0.000167829
-0.0115741
-0.0144383
-0.0106908
-0.00476861
0.00113132
0.00409441
0.00571383
0.00617726
0.00604042
0.00557053
0.00493301
0.00423665
0.00354758
0.0029024
0.00231727
0.00179511
0.001331
0.000913843
0.00053425
0.000168587
-0.0111485
-0.0137423
-0.0100648
-0.00451996
0.00109346
0.00393758
0.00554607
0.0060377
0.00593708
0.00549934
0.00488631
0.00420729
0.00352991
0.00289225
0.00231181
0.00179242
0.00132982
0.000913425
0.000534137
0.00016858
-0.0109245
-0.0134446
-0.0098061
-0.00439611
0.00110154
0.00388319
0.00546981
0.00596125
0.00586972
0.00544388
0.00484244
0.00417348
0.0035044
0.00287331
0.00229797
0.00178252
0.00132297
0.000908983
0.000531659
0.000167817
-0.0109064
-0.0135342
-0.00990306
-0.00439159
0.00115625
0.00392958
0.00548423
0.00594777
0.00583851
0.00540445
0.00480165
0.00413545
0.00347119
0.00284567
0.00227586
0.0017655
0.00131051
0.000900556
0.00052684
0.000166303
-0.0110816
-0.0140165
-0.0103643
-0.00451205
0.00126149
0.00407819
0.00558876
0.00599625
0.0058425
0.00538035
0.00476349
0.00409294
0.00343021
0.00280933
0.00224549
0.0017414
0.00129248
0.000888175
0.000519696
0.000164043
-0.0114161
-0.0149005
-0.0112013
-0.00477031
0.00142549
0.00433395
0.00578477
0.00610473
0.0058794
0.00536975
0.00472672
0.00404518
0.00338103
0.00276408
0.0022068
0.00171022
0.0012689
0.000871852
0.00051024
0.000161039
-0.0118486
-0.0161827
-0.0124147
-0.00517118
0.00166743
0.00470463
0.00606842
0.00626975
0.00594549
0.00536963
0.00468922
0.00399085
0.00332289
0.00270954
0.0021596
0.00167188
0.00123974
0.00085159
0.000498499
0.000157268
-0.0123006
-0.0176766
-0.0137503
-0.00557258
0.00193368
0.00514568
0.00640048
0.0064634
0.00602606
0.00537536
0.00465271
0.00393503
0.00326218
0.00265214
0.00210971
0.00163122
0.00120875
0.00083
0.000486014
0.000153191
-0.0122325
-0.0189556
-0.0149769
-0.00590943
0.00222888
0.00561347
0.00674407
0.00666101
0.00610764
0.00538135
0.00461648
0.00387968
0.00320205
0.00259535
0.00206035
0.00159099
0.00117806
0.00080863
0.00047359
0.000149215
-0.01212
-0.020067
-0.0160968
-0.00614204
0.00261615
0.00616572
0.00713661
0.00688156
0.00619586
0.00538521
0.00457409
0.00381678
0.00313442
0.0025318
0.00200528
0.00154616
0.00114389
0.000784847
0.000459715
0.00014483
-0.0123222
-0.0208843
-0.0169184
-0.00615367
0.00312867
0.00680289
0.00757251
0.00711887
0.00628581
0.0053835
0.00452329
0.00374499
0.00305854
0.00246111
0.0019443
0.00149667
0.00110621
0.000758642
0.000444409
0.000140012
-0.0127635
-0.0211968
-0.0171797
-0.00580789
0.00379769
0.00751892
0.00804246
0.00736475
0.00637146
0.00537217
0.00446155
0.00366283
0.0029736
0.00238286
0.00187723
0.00144243
0.001065
0.000730011
0.000427678
0.000134755
-0.0129367
-0.0207603
-0.0166684
-0.00502015
0.00463986
0.0082981
0.00853308
0.0076089
0.0064457
0.00534663
0.00438609
0.0035687
0.00287874
0.00229662
0.00180387
0.00138337
0.00102023
0.000698953
0.000409523
0.00012906
-0.0125731
-0.0194713
-0.015315
-0.00378631
0.00564196
0.00911321
0.00903639
0.00783888
0.00650035
0.00530181
0.00429395
0.00346096
0.00277307
0.00220196
0.00172403
0.00131943
0.000971898
0.000665475
0.00038995
0.000122926
-0.0116737
-0.0174323
-0.0133062
-0.00220471
0.00675187
0.00992462
0.00950804
0.00803919
0.0065262
0.00523225
0.00418203
0.0033379
0.00265574
0.00209846
0.00163755
0.00125054
0.000920001
0.000629586
0.00036897
0.000116354
-0.0104082
-0.0149785
-0.0109191
-0.000452471
0.00788471
0.0106851
0.00992647
0.00819279
0.00651318
0.00513221
0.00404713
0.00319784
0.00252589
0.00198575
0.00154427
0.00117669
0.000864551
0.000591308
0.000346595
0.000109346
-0.00897888
-0.0124517
-0.00846017
0.00132828
0.00894477
0.0113488
0.0102612
0.0082812
0.00645059
0.00499574
0.00388603
0.00303913
0.00238275
0.0018635
0.00144411
0.00109787
0.000805576
0.000550668
0.000322843
0.000101904
-0.00755056
-0.0100894
-0.00619009
0.00286695
0.0098596
0.0118624
0.0104813
0.00828509
0.00632736
0.00481679
0.00369559
0.00286022
0.00222562
0.00173145
0.00133699
0.00101409
0.000743122
0.000507707
0.000297735
9.40329e-05
-0.00622857
-0.00801523
-0.00425534
0.00409895
0.0105085
0.012179
0.0105546
0.00818468
0.00613228
0.0045894
0.00347283
0.00265974
0.00205393
0.00158941
0.00122291
0.00092543
0.00067726
0.000462478
0.000271301
8.57389e-05
-0.00506094
-0.00626856
-0.00270927
0.00495951
0.0108518
0.0122525
0.010449
0.00796007
0.00585422
0.00430786
0.00321502
0.0024365
0.00186727
0.00143731
0.00110193
0.000831979
0.000608085
0.000415048
0.000243574
7.70302e-05
-0.00405475
-0.0048358
-0.0015482
0.00542763
0.010847
0.0120396
0.0101324
0.00759136
0.00548233
0.00396683
0.0029198
0.00218963
0.0016654
0.0012752
0.000974202
0.000733888
0.00053572
0.000365503
0.000214599
6.7917e-05
-0.00319401
-0.00367454
-0.000731424
0.00551245
0.0104648
0.0114994
0.00957207
0.00705845
0.00500619
0.00356155
0.00258533
0.00191856
0.00144832
0.00110325
0.000839936
0.000631361
0.000460322
0.000313944
0.000184426
5.84125e-05
-0.00245494
-0.00273466
-0.000204208
0.0052364
0.00968501
0.0105936
0.00873475
0.00634108
0.00441593
0.003088
0.00221031
0.00162316
0.00121627
0.000921805
0.000699446
0.000524648
0.000382077
0.000260494
0.000153118
4.85328e-05
-0.00181333
-0.00196932
9.35691e-05
0.00463461
0.00847426
0.00925618
0.00757428
0.00541689
0.00370228
0.00254307
0.00179423
0.00130378
0.000969816
0.000731404
0.00055318
0.000414096
0.000301237
0.000205317
0.000120761
3.83039e-05
-0.00124877
-0.0013331
0.000204538
0.00371963
0.00685055
0.00750927
0.00608244
0.00426982
0.00285734
0.00192508
0.0013379
0.000961849
0.000710314
0.000533137
0.000401976
0.00030033
0.000218251
0.000148714
8.75276e-05
2.77843e-05
-0.000735963
-0.000783393
0.000205699
0.00251954
0.00458402
0.00501208
0.00407077
0.00284389
0.0018718
0.00123636
0.000845432
0.000600834
0.000440256
0.000328732
0.000247018
0.00018416
0.000133669
9.10398e-05
5.36178e-05
1.70452e-05
-0.000273147
-0.00031233
6.1062e-05
0.00112776
0.00222103
0.00248608
0.00197423
0.00128806
0.000781563
0.000484063
0.000316973
0.000219034
0.000157601
0.000116282
8.66911e-05
6.4295e-05
4.6512e-05
3.16142e-05
1.86153e-05
5.93562e-06
-0.0659345
-0.0422262
-0.0414829
-0.0342104
-0.0291449
-0.0250707
-0.0219838
-0.0196143
-0.0178654
-0.0167679
-0.0294322
-0.0324562
-0.0322666
-0.0292918
-0.0263655
-0.0236772
-0.0211947
-0.0189876
-0.0171095
-0.0156437
-0.0162393
-0.0239963
-0.0263088
-0.0256238
-0.023727
-0.0215923
-0.0195907
-0.017779
-0.0161534
-0.0147503
-0.00838381
-0.0156493
-0.0190165
-0.0199499
-0.0196852
-0.0188325
-0.0176839
-0.016394
-0.0151458
-0.0140094
-0.00346696
-0.00919106
-0.0127119
-0.0145356
-0.0153653
-0.0155609
-0.0153209
-0.014747
-0.0141002
-0.0133645
-0.000614042
-0.00497488
-0.00821033
-0.0103348
-0.0116755
-0.0124464
-0.0128235
-0.0128431
-0.0127615
-0.0124651
0.000978788
-0.00239862
-0.00519714
-0.0072763
-0.0087684
-0.00979482
-0.010511
-0.0109114
-0.0112219
-0.0112995
0.00187345
-0.000805977
-0.0031625
-0.00505573
-0.00652968
-0.00764016
-0.00851173
-0.00912658
-0.00966263
-0.0100089
0.00236213
0.000193436
-0.00177488
-0.00344411
-0.0048222
-0.00592592
-0.00684072
-0.00755619
-0.00819226
-0.00869643
0.00259123
0.000810304
-0.000835525
-0.00228442
-0.00353085
-0.00457461
-0.00546413
-0.00620231
-0.00685262
-0.00741755
0.00264086
0.00116566
-0.000213492
-0.00145855
-0.00255918
-0.00351126
-0.00433482
-0.00504309
-0.00565602
-0.00621016
0.00256123
0.00133606
0.00018167
-0.000877983
-0.00183108
-0.00267453
-0.00341039
-0.00405581
-0.00460531
-0.00510554
0.00238783
0.00137357
0.000412806
-0.000478815
-0.00128964
-0.002018
-0.00265708
-0.00322225
-0.00369859
-0.00412552
0.00214706
0.00131501
0.000524013
-0.000215275
-0.000892405
-0.00150611
-0.00204707
-0.00252565
-0.00292776
-0.00327794
0.00185877
0.00118712
0.000547087
-5.37023e-05
-0.000606639
-0.00111004
-0.00155564
-0.00194807
-0.00227857
-0.00255651
0.00153797
0.00100986
0.000505886
3.17043e-05
-0.000406162
-0.000805377
-0.00116014
-0.00147022
-0.00173286
-0.00194567
0.00119634
0.000798748
0.000419066
6.15612e-05
-0.00026928
-0.000570656
-0.000839438
-0.00107199
-0.00127047
-0.00142445
0.000843258
0.000566186
0.000301426
5.21947e-05
-0.000178792
-0.000388627
-0.00057641
-0.000736537
-0.000874542
-0.000976823
0.000487879
0.000325465
0.000170044
2.39478e-05
-0.000111662
-0.000234236
-0.000344539
-0.000436109
-0.000515377
-0.00056469
0.000120238
6.06899e-05
6.34344e-06
-4.38847e-05
-9.08506e-05
-0.000132447
-0.000170844
-0.000200498
-0.000229922
-0.000243543
0.0348865
0.0350206
0.0353085
0.0357541
0.0363525
0.0370954
0.0379729
0.0389709
0.0400701
0.0412399
0.0424384
0.0435969
0.0446255
0.0453551
0.0455805
0.044755
0.0423648
0.0353233
0.0220222
-0.0162291
0.0334703
0.0335849
0.0338308
0.0342096
0.0347147
0.0353348
0.0360564
0.0368599
0.0377199
0.0385958
0.0394369
0.0401533
0.0406447
0.0406842
0.0400748
0.0380849
0.034435
0.0263276
0.014561
-0.00758766
0.0319343
0.0320297
0.0322338
0.0325466
0.0329597
0.0334597
0.03403
0.0346467
0.0352803
0.0358821
0.036398
0.036723
0.0367631
0.0362625
0.0350913
0.0325528
0.0286914
0.0218691
0.0129586
0.000536804
0.0302983
0.0303752
0.0305391
0.0307886
0.0311142
0.0315006
0.0319297
0.0323741
0.0328026
0.0331618
0.033399
0.0334045
0.0331
0.0322441
0.0307662
0.0281536
0.0244783
0.0190135
0.0116626
0.00366058
0.0285815
0.028641
0.0287676
0.0289583
0.0292032
0.029486
0.0297876
0.0300793
0.0303296
0.0304848
0.0304959
0.0302606
0.0297135
0.0286619
0.0270469
0.024569
0.0211513
0.0167086
0.0105439
0.00438638
0.0268018
0.0268457
0.0269383
0.0270761
0.0272489
0.0274402
0.0276307
0.0277922
0.0278939
0.027886
0.0277228
0.0273191
0.0266143
0.0254772
0.0238286
0.0215452
0.0184368
0.0147176
0.00970126
0.00470415
0.0249755
0.0250056
0.0250685
0.0251601
0.0252703
0.0253834
0.0254805
0.025535
0.0255177
0.0253854
0.0250953
0.0245824
0.0237873
0.0226325
0.0210239
0.0189447
0.0161875
0.0130175
0.00900791
0.00491422
0.023117
0.0231353
0.0231729
0.0232254
0.0232832
0.0233316
0.0233527
0.0233227
0.0232145
0.0229921
0.0226162
0.0220399
0.021207
0.0200765
0.0185592
0.0166802
0.0142816
0.0115672
0.00834172
0.004978
0.0212386
0.0212471
0.0212639
0.0212844
0.0212997
0.0212966
0.0212585
0.0211649
0.0209909
0.0207077
0.0202803
0.0196755
0.0188443
0.0177658
0.0163692
0.0146853
0.0126188
0.0102968
0.00765947
0.00488494
0.0193504
0.0193513
0.0193514
0.0193467
0.0193291
0.0192868
0.019205
0.0190662
0.0188485
0.0185289
0.0180778
0.0174711
0.0166698
0.0156619
0.014399
0.0129035
0.0111292
0.00914778
0.00696186
0.00466655
0.0174607
0.0174557
0.0174433
0.0174198
0.017378
0.0173077
0.017196
0.0170281
0.0167854
0.0164496
0.0159965
0.0154083
0.014656
0.0137313
0.0126044
0.011289
0.00976858
0.00808403
0.00625999
0.00435722
0.0155756
0.0155664
0.0155453
0.0155088
0.0154506
0.0153623
0.0152327
0.0150495
0.0147975
0.0144618
0.0140237
0.0134693
0.0127785
0.0119447
0.0109514
0.00980658
0.00850876
0.00708404
0.00556067
0.00398262
0.0136994
0.0136876
0.0136611
0.0136167
0.0135492
0.0134515
0.0133144
0.0131276
0.012879
0.0125566
0.0121463
0.0116375
0.0110164
0.0102779
0.00941386
0.00842948
0.00732985
0.0061338
0.00486653
0.00356151
0.0118351
0.011822
0.011793
0.0117452
0.0116744
0.0115748
0.0114388
0.0112582
0.0110233
0.0107249
0.0103523
0.00989743
0.00935137
0.00871038
0.007971
0.0071374
0.00621672
0.0052237
0.00417896
0.00310828
0.00998392
0.00997078
0.00994174
0.00989448
0.00982554
0.00973027
0.00960271
0.00943629
0.00922356
0.00895735
0.00862999
0.00823548
0.00776804
0.00722523
0.00660618
0.00591461
0.00515766
0.00434716
0.00349939
0.00263408
0.00814613
0.0081339
0.00810698
0.00806348
0.00800071
0.00791505
0.00780191
0.00765623
0.00747241
0.00724507
0.00696879
0.00663925
0.00625286
0.00580823
0.00530573
0.00474875
0.00414357
0.00349956
0.00282928
0.00214755
0.00632085
0.00631034
0.0062873
0.00625025
0.00619721
0.00612548
0.00603166
0.00591201
0.00576251
0.00557928
0.00535861
0.00509757
0.004794
0.00444728
0.00405827
0.00362991
0.00316728
0.00267753
0.00217
0.00165548
0.00450635
0.00449822
0.00448046
0.00445203
0.00441157
0.00435722
0.00428665
0.00419727
0.00408638
0.0039514
0.00378994
0.00360017
0.00338089
0.00313192
0.0028542
0.00255003
0.00222313
0.00187859
0.00152283
0.00116332
0.00270023
0.002695
0.0026836
0.00266546
0.00263978
0.00260546
0.00256111
0.00250524
0.00243627
0.00235274
0.00225331
0.00213703
0.00200334
0.00185226
0.00168456
0.00150174
0.00130614
0.00110082
0.000889497
0.000676344
0.000899433
0.000897552
0.000893445
0.000886945
0.000877783
0.00086557
0.000849824
0.000830015
0.0008056
0.00077607
0.000740971
0.000699971
0.000652896
0.000599777
0.000540904
0.000476818
0.00040838
0.000336731
0.000263291
0.000189342
0.0365187
0.0366715
0.036999
0.037507
0.0381937
0.0390543
0.0400835
0.0412742
0.0426153
0.0440885
0.0456659
0.0473029
0.0489345
0.0504572
0.0517246
0.052495
0.0524659
0.0508127
0.0477187
0.0210801
0.0378368
0.0380124
0.0383888
0.0389742
0.0397695
0.040774
0.0419878
0.0434112
0.0450429
0.0468773
0.0489031
0.0510985
0.0534276
0.05583
0.0582072
0.0604015
0.0621194
0.0630662
0.0618946
0.0609096
0.0388588
0.0390531
0.03947
0.0401196
0.0410051
0.0421292
0.0434968
0.0451145
0.0469888
0.0491242
0.0515215
0.0541739
0.0570626
0.0601478
0.0633569
0.0665642
0.0695659
0.0720029
0.07333
0.0738058
0.0395532
0.0397609
0.0402069
0.0409026
0.0418531
0.0430634
0.0445418
0.0462993
0.0483477
0.0506981
0.0533586
0.0563304
0.0596024
0.0631414
0.0668774
0.070683
0.0743384
0.0775119
0.0796135
0.0815538
0.0398976
0.0401125
0.040574
0.0412944
0.0422796
0.043536
0.0450734
0.046905
0.0490455
0.051509
0.0543068
0.0574431
0.0609094
0.064673
0.0686618
0.072742
0.0766871
0.080154
0.0826237
0.0846049
0.0398798
0.0400951
0.0405575
0.0412794
0.0422664
0.0435251
0.0450652
0.0469
0.049044
0.0515113
0.0543129
0.0574532
0.0609231
0.0646898
0.068681
0.0727627
0.076708
0.0801729
0.0826388
0.0846209
0.0394993
0.0397083
0.0401569
0.0408568
0.0418128
0.04303
0.0445166
0.0462835
0.0483424
0.0507042
0.0533765
0.0563604
0.0596441
0.0631938
0.066939
0.070752
0.0744148
0.0775944
0.0797108
0.0816388
0.0387667
0.038963
0.0393843
0.0400406
0.0409352
0.0420707
0.0434519
0.0450853
0.0469771
0.0491317
0.0515495
0.0542232
0.0571333
0.0602394
0.0634676
0.0666912
0.0697026
0.0721515
0.0734802
0.0740151
0.0377031
0.0378814
0.0382637
0.0388583
0.0396661
0.0406862
0.0419188
0.0433639
0.0450202
0.0468819
0.0489374
0.0511648
0.0535275
0.0559651
0.0583789
0.0606133
0.0623823
0.0633919
0.0623574
0.0614242
0.0363387
0.0364948
0.0368296
0.0373491
0.0380513
0.0389315
0.0399842
0.0412024
0.042575
0.0440836
0.0457004
0.0473812
0.0490613
0.0506378
0.0519654
0.0528017
0.0528424
0.0512592
0.0481488
0.0226677
)
;

boundaryField
{
    inlet
    {
        type            zeroGradient;
    }
    outlet
    {
        type            fixedValue;
        value           uniform 0;
    }
    upAndBottom
    {
        type            empty;
    }
    obstacle
    {
        type            zeroGradient;
    }
}


// ************************************************************************* //
