x,y,z,p
0,0,0,1.90078e-05
0,0.1,0,3.84493e-05
0,0.2,0,5.78909e-05
0,0.3,0,8.10432e-05
0,0.4,0,0.000107906
0,0.5,0,0.00013477
0,0.6,0,0.00016143
0,0.7,0,0.000188091
0,0.8,0,0.000214613
0,0.9,0,0.000240995
0,1,0,0.000267378
0,1.1,0,0.00029337
0,1.2,0,0.000319363
0,1.3,0,0.000345106
0,1.4,0,0.000370598
0,1.5,0,0.00039609
0,1.6,0,0.000421006
0,1.7,0,0.000445921
0,1.8,0,0.000470501
0,1.9,0,0.000494744
0,2,0,0.000518988
0,2.1,0,0.000542469
0,2.2,0,0.000565949
0,2.3,0,0.000589001
0,2.4,0,0.000611626
0,2.5,0,0.00063425
0,2.6,0,0.000655925
0,2.7,0,0.0006776
0,2.8,0,0.000698754
0,2.9,0,0.000719388
0,3,0,0.000740023
0,3.1,0,0.000759525
0,3.2,0,0.000779027
0,3.3,0,0.000797918
0,3.4,0,0.000816199
0,3.5,0,0.00083448
0,3.6,0,0.000851454
0,3.7,0,0.000868428
0,3.8,0,0.000884708
0,3.9,0,0.000900294
0,4,0,0.00091588
0,4.1,0,0.000930003
0,4.2,0,0.000944125
0,4.3,0,0.000957476
0,4.4,0,0.000970055
0,4.5,0,0.000982634
0,4.6,0,0.000993612
0,4.7,0,0.00100459
0,4.8,0,0.00101458
0,4.9,0,0.00102358
0,5,0,0.00103258
0,5.1,0,0.00104106
0,5.2,0,0.00104954
0,5.3,0,0.00105617
0,5.4,0,0.00106281
0,5.5,0,0.00106817
0,5.6,0,0.00107352
0,5.7,0,0.0010776
0,5.8,0,0.00108168
0,5.9,0,0.00108447
0,6,0,0.00108726
0,6.1,0,0.00108874
0,6.2,0,0.00109023
0,6.3,0,0.00109042
0,6.4,0,0.00109061
0,6.5,0,0.00108952
0,6.6,0,0.00108842
0,6.7,0,0.00108604
0,6.8,0,0.00108366
0,6.9,0,0.00107944
0,7,0,0.00107521
0,7.1,0,0.00107014
0,7.2,0,0.00106507
0,7.3,0,0.00105966
0,7.4,0,0.00105239
0,7.5,0,0.00104512
0,7.6,0,0.00103727
0,7.7,0,0.00102804
0,7.8,0,0.00101881
0,7.9,0,0.00100874
0,8,0,0.00099765
0,8.1,0,0.000986559
0,8.2,0,0.000974414
0,8.3,0,0.000961564
0,8.4,0,0.000948715
0,8.5,0,0.000934617
0,8.6,0,0.000920103
0,8.7,0,0.000905588
0,8.8,0,0.000889666
0,8.9,0,0.000873587
0,9,0,0.000857436
0,9.1,0,0.000839899
0,9.2,0,0.000822362
0,9.3,0,0.000804555
0,9.4,0,0.000785668
0,9.5,0,0.000766782
0,9.6,0,0.000747462
0,9.7,0,0.000727337
0,9.8,0,0.000707212
0,9.9,0,0.000686523
0,10,0,0.000665271
0,10.1,0,0.000644019
0,10.2,0,0.000622108
0,10.3,0,0.000599841
0,10.4,0,0.000577574
0,10.5,0,0.000554586
0,10.6,0,0.000531417
0,10.7,0,0.000508248
0,10.8,0,0.000484331
0,10.9,0,0.000460374
0,11,0,0.000436351
0,11.1,0,0.000411722
0,11.2,0,0.000387094
0,11.3,0,0.000362327
0,11.4,0,0.000337141
0,11.5,0,0.000311955
0,11.6,0,0.000286589
0,11.7,0,0.000260955
0,11.8,0,0.00023532
0,11.9,0,0.000209501
0,12,0,0.00018353
0,12.1,0,0.00015756
0,12.2,0,0.000131436
0,12.3,0,0.000105247
0,12.4,0,7.90571e-05
0,12.5,0,5.89942e-05
0,12.6,0,4.00126e-05
0,12.7,0,2.10309e-05
0.1,0,0,1.67716e-05
0.1,0.1,0,3.62438e-05
0.1,0.2,0,5.56854e-05
0.1,0.3,0,8.10659e-05
0.1,0.4,0,0.000107929
0.1,0.5,0,0.000134692
0.1,0.6,0,0.000161467
0.1,0.7,0,0.000188128
0.1,0.8,0,0.000214658
0.1,0.9,0,0.00024104
0.1,1,0,0.000267226
0.1,1.1,0,0.00029344
0.1,1.2,0,0.000319433
0.1,1.3,0,0.000345184
0.1,1.4,0,0.000370676
0.1,1.5,0,0.000395835
0.1,1.6,0,0.000421098
0.1,1.7,0,0.000446013
0.1,1.8,0,0.000470606
0.1,1.9,0,0.00049485
0.1,2,0,0.000518595
0.1,2.1,0,0.000542588
0.1,2.2,0,0.000566068
0.1,2.3,0,0.000589134
0.1,2.4,0,0.000611758
0.1,2.5,0,0.000633684
0.1,2.6,0,0.000656071
0.1,2.7,0,0.000677746
0.1,2.8,0,0.000698914
0.1,2.9,0,0.000719548
0.1,3,0,0.000739269
0.1,3.1,0,0.000759698
0.1,3.2,0,0.0007792
0.1,3.3,0,0.000798105
0.1,3.4,0,0.000816385
0.1,3.5,0,0.000833549
0.1,3.6,0,0.000851652
0.1,3.7,0,0.000868626
0.1,3.8,0,0.000884917
0.1,3.9,0,0.000900504
0.1,4,0,0.000914814
0.1,4.1,0,0.000930224
0.1,4.2,0,0.000944346
0.1,4.3,0,0.000957709
0.1,4.4,0,0.000970288
0.1,4.5,0,0.000981515
0.1,4.6,0,0.00099385
0.1,4.7,0,0.00100483
0.1,4.8,0,0.00101492
0.1,4.9,0,0.00102392
0.1,5,0,0.00103148
0.1,5.1,0,0.00104134
0.1,5.2,0,0.00104846
0.1,5.3,0,0.00105633
0.1,5.4,0,0.00106176
0.1,5.5,0,0.00106831
0.1,5.6,0,0.00107251
0.1,5.7,0,0.00107775
0.1,5.8,0,0.00108069
0.1,5.9,0,0.00108462
0.1,6,0,0.00108628
0.1,6.1,0,0.00108889
0.1,6.2,0,0.00108927
0.1,6.3,0,0.00109057
0.1,6.4,0,0.00108966
0.1,6.5,0,0.00108966
0.1,6.6,0,0.00108746
0.1,6.7,0,0.00108619
0.1,6.8,0,0.00108269
0.1,6.9,0,0.00107972
0.1,7,0,0.00107427
0.1,7.1,0,0.00107054
0.1,7.2,0,0.00106547
0.1,7.3,0,0.00105932
0.1,7.4,0,0.00105273
0.1,7.5,0,0.00104546
0.1,7.6,0,0.00103746
0.1,7.7,0,0.00102836
0.1,7.8,0,0.00101913
0.1,7.9,0,0.00100904
0.1,8,0,0.000997952
0.1,8.1,0,0.000986862
0.1,8.2,0,0.000974701
0.1,8.3,0,0.000961852
0.1,8.4,0,0.000948801
0.1,8.5,0,0.000934888
0.1,8.6,0,0.000920374
0.1,8.7,0,0.000905433
0.1,8.8,0,0.00088992
0.1,8.9,0,0.000873841
0.1,9,0,0.000857331
0.1,9.1,0,0.000840134
0.1,9.2,0,0.000822597
0.1,9.3,0,0.000804686
0.1,9.4,0,0.000785885
0.1,9.5,0,0.000766999
0.1,9.6,0,0.00074766
0.1,9.7,0,0.000727535
0.1,9.8,0,0.00070741
0.1,9.9,0,0.000686703
0.1,10,0,0.000665451
0.1,10.1,0,0.000644199
0.1,10.2,0,0.000622268
0.1,10.3,0,0.000600002
0.1,10.4,0,0.000577868
0.1,10.5,0,0.000554728
0.1,10.6,0,0.000531559
0.1,10.7,0,0.000508727
0.1,10.8,0,0.000484454
0.1,10.9,0,0.000460497
0.1,11,0,0.000436766
0.1,11.1,0,0.000411825
0.1,11.2,0,0.000387197
0.1,11.3,0,0.000362522
0.1,11.4,0,0.000337225
0.1,11.5,0,0.000312039
0.1,11.6,0,0.000286655
0.1,11.7,0,0.000261021
0.1,11.8,0,0.000235386
0.1,11.9,0,0.000209547
0.1,12,0,0.000183577
0.1,12.1,0,0.000157629
0.1,12.2,0,0.000131463
0.1,12.3,0,0.000105274
0.1,12.4,0,7.91404e-05
0.1,12.5,0,5.65504e-05
0.1,12.6,0,3.75687e-05
0.1,12.7,0,1.85567e-05
0.2,0,0,1.45354e-05
0.2,0.1,0,3.40383e-05
0.2,0.2,0,5.41277e-05
0.2,0.3,0,8.1068e-05
0.2,0.4,0,0.000107952
0.2,0.5,0,0.000134614
0.2,0.6,0,0.000161504
0.2,0.7,0,0.000188121
0.2,0.8,0,0.000214656
0.2,0.9,0,0.000241085
0.2,1,0,0.000267075
0.2,1.1,0,0.000293509
0.2,1.2,0,0.000319422
0.2,1.3,0,0.000345178
0.2,1.4,0,0.000370754
0.2,1.5,0,0.00039558
0.2,1.6,0,0.000421189
0.2,1.7,0,0.000445981
0.2,1.8,0,0.000470584
0.2,1.9,0,0.000494956
0.2,2,0,0.000518201
0.2,2.1,0,0.000542707
0.2,2.2,0,0.000566009
0.2,2.3,0,0.000589084
0.2,2.4,0,0.000611891
0.2,2.5,0,0.000633119
0.2,2.6,0,0.000656217
0.2,2.7,0,0.000677651
0.2,2.8,0,0.000698828
0.2,2.9,0,0.000719708
0.2,3,0,0.000738516
0.2,3.1,0,0.000759871
0.2,3.2,0,0.000779068
0.2,3.3,0,0.000797981
0.2,3.4,0,0.000816571
0.2,3.5,0,0.000832617
0.2,3.6,0,0.00085185
0.2,3.7,0,0.000868463
0.2,3.8,0,0.000884762
0.2,3.9,0,0.000900714
0.2,4,0,0.000913747
0.2,4.1,0,0.000930445
0.2,4.2,0,0.000944169
0.2,4.3,0,0.00095754
0.2,4.4,0,0.000970521
0.2,4.5,0,0.000980396
0.2,4.6,0,0.000994087
0.2,4.7,0,0.00100466
0.2,4.8,0,0.00101483
0.2,4.9,0,0.00102427
0.2,5,0,0.00103038
0.2,5.1,0,0.00104162
0.2,5.2,0,0.00104737
0.2,5.3,0,0.00105648
0.2,5.4,0,0.00106071
0.2,5.5,0,0.00106846
0.2,5.6,0,0.00107149
0.2,5.7,0,0.0010779
0.2,5.8,0,0.0010797
0.2,5.9,0,0.00108477
0.2,6,0,0.00108531
0.2,6.1,0,0.00108905
0.2,6.2,0,0.00108832
0.2,6.3,0,0.00109073
0.2,6.4,0,0.00108871
0.2,6.5,0,0.00108981
0.2,6.6,0,0.0010865
0.2,6.7,0,0.00108635
0.2,6.8,0,0.00108172
0.2,6.9,0,0.00108
0.2,7,0,0.00107333
0.2,7.1,0,0.00107094
0.2,7.2,0,0.00106587
0.2,7.3,0,0.00105841
0.2,7.4,0,0.00105306
0.2,7.5,0,0.00104579
0.2,7.6,0,0.00103659
0.2,7.7,0,0.00102868
0.2,7.8,0,0.00101905
0.2,7.9,0,0.00100863
0.2,8,0,0.000998254
0.2,8.1,0,0.000986391
0.2,8.2,0,0.00097479
0.2,8.3,0,0.000962139
0.2,8.4,0,0.000948298
0.2,8.5,0,0.000935159
0.2,8.6,0,0.000920645
0.2,8.7,0,0.000905097
0.2,8.8,0,0.000890173
0.2,8.9,0,0.000874094
0.2,9,0,0.000857167
0.2,9.1,0,0.00084037
0.2,9.2,0,0.000822833
0.2,9.3,0,0.00080469
0.2,9.4,0,0.000786102
0.2,9.5,0,0.000767212
0.2,9.6,0,0.000747823
0.2,9.7,0,0.000727733
0.2,9.8,0,0.000707659
0.2,9.9,0,0.000686943
0.2,10,0,0.00066563
0.2,10.1,0,0.000644599
0.2,10.2,0,0.000622444
0.2,10.3,0,0.000600162
0.2,10.4,0,0.000578359
0.2,10.5,0,0.00055487
0.2,10.6,0,0.000531701
0.2,10.7,0,0.000509265
0.2,10.8,0,0.000484576
0.2,10.9,0,0.000460619
0.2,11,0,0.000437315
0.2,11.1,0,0.000411928
0.2,11.2,0,0.0003873
0.2,11.3,0,0.000363046
0.2,11.4,0,0.000337309
0.2,11.5,0,0.000312203
0.2,11.6,0,0.000287042
0.2,11.7,0,0.000261087
0.2,11.8,0,0.000235655
0.2,11.9,0,0.000209712
0.2,12,0,0.000183623
0.2,12.1,0,0.00015789
0.2,12.2,0,0.00013149
0.2,12.3,0,0.000105301
0.2,12.4,0,7.92693e-05
0.2,12.5,0,5.41065e-05
0.2,12.6,0,3.51248e-05
0.2,12.7,0,1.60825e-05
0.3,0,0,1.22992e-05
0.3,0.1,0,3.18328e-05
0.3,0.2,0,5.40818e-05
0.3,0.3,0,8.10221e-05
0.3,0.4,0,0.000107974
0.3,0.5,0,0.000134537
0.3,0.6,0,0.000161541
0.3,0.7,0,0.000188011
0.3,0.8,0,0.000214546
0.3,0.9,0,0.00024113
0.3,1,0,0.000266923
0.3,1.1,0,0.000293579
0.3,1.2,0,0.000319221
0.3,1.3,0,0.000344978
0.3,1.4,0,0.000370832
0.3,1.5,0,0.000395324
0.3,1.6,0,0.000421281
0.3,1.7,0,0.000445661
0.3,1.8,0,0.000470264
0.3,1.9,0,0.000495061
0.3,2,0,0.000517807
0.3,2.1,0,0.000542826
0.3,2.2,0,0.000565533
0.3,2.3,0,0.000588608
0.3,2.4,0,0.000612024
0.3,2.5,0,0.000632554
0.3,2.6,0,0.000656363
0.3,2.7,0,0.000676992
0.3,2.8,0,0.00069817
0.3,2.9,0,0.000719868
0.3,3,0,0.000737762
0.3,3.1,0,0.000760044
0.3,3.2,0,0.000778222
0.3,3.3,0,0.000797135
0.3,3.4,0,0.000816758
0.3,3.5,0,0.000831686
0.3,3.6,0,0.000852049
0.3,3.7,0,0.000867456
0.3,3.8,0,0.000883756
0.3,3.9,0,0.000900923
0.3,4,0,0.00091268
0.3,4.1,0,0.000930665
0.3,4.2,0,0.000943061
0.3,4.3,0,0.000956433
0.3,4.4,0,0.000970754
0.3,4.5,0,0.000979277
0.3,4.6,0,0.000994325
0.3,4.7,0,0.00100356
0.3,4.8,0,0.00101373
0.3,4.9,0,0.00102461
0.3,5,0,0.00102928
0.3,5.1,0,0.00104191
0.3,5.2,0,0.00104629
0.3,5.3,0,0.00105663
0.3,5.4,0,0.00105967
0.3,5.5,0,0.00106861
0.3,5.6,0,0.00107048
0.3,5.7,0,0.00107805
0.3,5.8,0,0.00107871
0.3,5.9,0,0.00108493
0.3,6,0,0.00108434
0.3,6.1,0,0.0010892
0.3,6.2,0,0.00108736
0.3,6.3,0,0.00109088
0.3,6.4,0,0.00108775
0.3,6.5,0,0.00108996
0.3,6.6,0,0.00108554
0.3,6.7,0,0.0010865
0.3,6.8,0,0.00108075
0.3,6.9,0,0.00108028
0.3,7,0,0.00107239
0.3,7.1,0,0.00107132
0.3,7.2,0,0.00106567
0.3,7.3,0,0.00105751
0.3,7.4,0,0.0010534
0.3,7.5,0,0.00104503
0.3,7.6,0,0.00103572
0.3,7.7,0,0.001029
0.3,7.8,0,0.00101827
0.3,7.9,0,0.00100785
0.3,8,0,0.000998557
0.3,8.1,0,0.000985735
0.3,8.2,0,0.000974134
0.3,8.3,0,0.000962426
0.3,8.4,0,0.000947795
0.3,8.5,0,0.000934839
0.3,8.6,0,0.000920916
0.3,8.7,0,0.00090476
0.3,8.8,0,0.00089024
0.3,8.9,0,0.000874278
0.3,9,0,0.000857003
0.3,9.1,0,0.000840605
0.3,9.2,0,0.000822926
0.3,9.3,0,0.000804695
0.3,9.4,0,0.000786319
0.3,9.5,0,0.000767373
0.3,9.6,0,0.000747984
0.3,9.7,0,0.000727932
0.3,9.8,0,0.000707957
0.3,9.9,0,0.000687241
0.3,10,0,0.00066581
0.3,10.1,0,0.000645008
0.3,10.2,0,0.000622854
0.3,10.3,0,0.000600323
0.3,10.4,0,0.00057885
0.3,10.5,0,0.000555226
0.3,10.6,0,0.000531843
0.3,10.7,0,0.000509803
0.3,10.8,0,0.000484768
0.3,10.9,0,0.000460876
0.3,11,0,0.000437864
0.3,11.1,0,0.000412031
0.3,11.2,0,0.000387723
0.3,11.3,0,0.000363569
0.3,11.4,0,0.000337393
0.3,11.5,0,0.000312667
0.3,11.6,0,0.000287506
0.3,11.7,0,0.000261153
0.3,11.8,0,0.00023603
0.3,11.9,0,0.000210086
0.3,12,0,0.00018367
0.3,12.1,0,0.00015815
0.3,12.2,0,0.000131731
0.3,12.3,0,0.000105328
0.3,12.4,0,7.93981e-05
0.3,12.5,0,5.28587e-05
0.3,12.6,0,3.26804e-05
0.3,12.7,0,1.36082e-05
0.4,0,0,1.00629e-05
0.4,0.1,0,2.96089e-05
0.4,0.2,0,5.40359e-05
0.4,0.3,0,8.09762e-05
0.4,0.4,0,0.000107937
0.4,0.5,0,0.000134459
0.4,0.6,0,0.000161509
0.4,0.7,0,0.0001879
0.4,0.8,0,0.000214436
0.4,0.9,0,0.000241057
0.4,1,0,0.000266772
0.4,1.1,0,0.000293516
0.4,1.2,0,0.000319021
0.4,1.3,0,0.000344778
0.4,1.4,0,0.00037071
0.4,1.5,0,0.000395069
0.4,1.6,0,0.000421165
0.4,1.7,0,0.000445341
0.4,1.8,0,0.000469944
0.4,1.9,0,0.000494867
0.4,2,0,0.000517413
0.4,2.1,0,0.000542637
0.4,2.2,0,0.000565056
0.4,2.3,0,0.000588132
0.4,2.4,0,0.000611738
0.4,2.5,0,0.000631988
0.4,2.6,0,0.000656083
0.4,2.7,0,0.000676333
0.4,2.8,0,0.000697511
0.4,2.9,0,0.00071948
0.4,3,0,0.000737009
0.4,3.1,0,0.000759661
0.4,3.2,0,0.000777376
0.4,3.3,0,0.00079629
0.4,3.4,0,0.000816273
0.4,3.5,0,0.000830754
0.4,3.6,0,0.000851569
0.4,3.7,0,0.00086645
0.4,3.8,0,0.000882749
0.4,3.9,0,0.000900367
0.4,4,0,0.000911613
0.4,4.1,0,0.000930114
0.4,4.2,0,0.000941954
0.4,4.3,0,0.000955326
0.4,4.4,0,0.000970176
0.4,4.5,0,0.000978158
0.4,4.6,0,0.000993749
0.4,4.7,0,0.00100245
0.4,4.8,0,0.00101262
0.4,4.9,0,0.00102409
0.4,5,0,0.00102819
0.4,5.1,0,0.00104219
0.4,5.2,0,0.00104521
0.4,5.3,0,0.00105678
0.4,5.4,0,0.00105862
0.4,5.5,0,0.00106876
0.4,5.6,0,0.00106946
0.4,5.7,0,0.0010782
0.4,5.8,0,0.00107772
0.4,5.9,0,0.00108508
0.4,6,0,0.00108337
0.4,6.1,0,0.00108935
0.4,6.2,0,0.0010864
0.4,6.3,0,0.00109103
0.4,6.4,0,0.0010868
0.4,6.5,0,0.00109011
0.4,6.6,0,0.00108459
0.4,6.7,0,0.00108665
0.4,6.8,0,0.00107978
0.4,6.9,0,0.00108056
0.4,7,0,0.00107144
0.4,7.1,0,0.00107038
0.4,7.2,0,0.00106476
0.4,7.3,0,0.00105661
0.4,7.4,0,0.00105303
0.4,7.5,0,0.00104416
0.4,7.6,0,0.00103485
0.4,7.7,0,0.00102918
0.4,7.8,0,0.00101749
0.4,7.9,0,0.00100706
0.4,8,0,0.000998859
0.4,8.1,0,0.000985079
0.4,8.2,0,0.000973478
0.4,8.3,0,0.000962499
0.4,8.4,0,0.000947291
0.4,8.5,0,0.000934336
0.4,8.6,0,0.00092075
0.4,8.7,0,0.000904424
0.4,8.8,0,0.000889904
0.4,8.9,0,0.000874114
0.4,9,0,0.000856838
0.4,9.1,0,0.000840493
0.4,9.2,0,0.000822931
0.4,9.3,0,0.000804699
0.4,9.4,0,0.000786447
0.4,9.5,0,0.000767534
0.4,9.6,0,0.000748145
0.4,9.7,0,0.00072813
0.4,9.8,0,0.000708256
0.4,9.9,0,0.000687539
0.4,10,0,0.000665989
0.4,10.1,0,0.000645418
0.4,10.2,0,0.000623264
0.4,10.3,0,0.000600623
0.4,10.4,0,0.000579341
0.4,10.5,0,0.000555717
0.4,10.6,0,0.000532328
0.4,10.7,0,0.00051034
0.4,10.8,0,0.000485305
0.4,10.9,0,0.000461425
0.4,11,0,0.000438412
0.4,11.1,0,0.000412454
0.4,11.2,0,0.000388247
0.4,11.3,0,0.000364092
0.4,11.4,0,0.000337597
0.4,11.5,0,0.00031313
0.4,11.6,0,0.00028797
0.4,11.7,0,0.000261219
0.4,11.8,0,0.000236404
0.4,11.9,0,0.000210461
0.4,12,0,0.000183742
0.4,12.1,0,0.000158411
0.4,12.2,0,0.000131991
0.4,12.3,0,0.000105413
0.4,12.4,0,7.9527e-05
0.4,12.5,0,5.29876e-05
0.4,12.6,0,3.02062e-05
0.4,12.7,0,1.1134e-05
0.5,0,0,7.82674e-06
0.5,0.1,0,2.73727e-05
0.5,0.2,0,5.399e-05
0.5,0.3,0,8.09303e-05
0.5,0.4,0,0.000107859
0.5,0.5,0,0.000134382
0.5,0.6,0,0.000161431
0.5,0.7,0,0.00018779
0.5,0.8,0,0.000214326
0.5,0.9,0,0.000240906
0.5,1,0,0.000266621
0.5,1.1,0,0.000293365
0.5,1.2,0,0.000318821
0.5,1.3,0,0.000344577
0.5,1.4,0,0.000370454
0.5,1.5,0,0.000394813
0.5,1.6,0,0.000420909
0.5,1.7,0,0.000445021
0.5,1.8,0,0.000469624
0.5,1.9,0,0.000494473
0.5,2,0,0.000517019
0.5,2.1,0,0.000542243
0.5,2.2,0,0.00056458
0.5,2.3,0,0.000587656
0.5,2.4,0,0.000611173
0.5,2.5,0,0.000631423
0.5,2.6,0,0.000655517
0.5,2.7,0,0.000675675
0.5,2.8,0,0.000696852
0.5,2.9,0,0.000718726
0.5,3,0,0.000736256
0.5,3.1,0,0.000758908
0.5,3.2,0,0.000776531
0.5,3.3,0,0.000795444
0.5,3.4,0,0.000815342
0.5,3.5,0,0.000829823
0.5,3.6,0,0.000850638
0.5,3.7,0,0.000865443
0.5,3.8,0,0.000881743
0.5,3.9,0,0.0008993
0.5,4,0,0.000910546
0.5,4.1,0,0.000929047
0.5,4.2,0,0.000940847
0.5,4.3,0,0.000954219
0.5,4.4,0,0.000969057
0.5,4.5,0,0.000977039
0.5,4.6,0,0.00099263
0.5,4.7,0,0.00100135
0.5,4.8,0,0.00101152
0.5,4.9,0,0.00102299
0.5,5,0,0.00102709
0.5,5.1,0,0.00104041
0.5,5.2,0,0.00104412
0.5,5.3,0,0.00105511
0.5,5.4,0,0.00105757
0.5,5.5,0,0.00106714
0.5,5.6,0,0.00106845
0.5,5.7,0,0.00107663
0.5,5.8,0,0.00107674
0.5,5.9,0,0.00108354
0.5,6,0,0.0010824
0.5,6.1,0,0.00108783
0.5,6.2,0,0.00108544
0.5,6.3,0,0.00108952
0.5,6.4,0,0.00108585
0.5,6.5,0,0.00108861
0.5,6.6,0,0.00108363
0.5,6.7,0,0.00108513
0.5,6.8,0,0.0010788
0.5,6.9,0,0.00107898
0.5,7,0,0.0010705
0.5,7.1,0,0.00106944
0.5,7.2,0,0.00106386
0.5,7.3,0,0.00105571
0.5,7.4,0,0.00105213
0.5,7.5,0,0.00104329
0.5,7.6,0,0.00103398
0.5,7.7,0,0.00102789
0.5,7.8,0,0.0010167
0.5,7.9,0,0.00100628
0.5,8,0,0.000997638
0.5,8.1,0,0.000984423
0.5,8.2,0,0.000972822
0.5,8.3,0,0.00096178
0.5,8.4,0,0.000946788
0.5,8.5,0,0.000933833
0.5,8.6,0,0.000920414
0.5,8.7,0,0.000904088
0.5,8.8,0,0.000889567
0.5,8.9,0,0.00087395
0.5,9,0,0.000856674
0.5,9.1,0,0.000840329
0.5,9.2,0,0.000822935
0.5,9.3,0,0.000804703
0.5,9.4,0,0.000786447
0.5,9.5,0,0.000767695
0.5,9.6,0,0.000748306
0.5,9.7,0,0.000728344
0.5,9.8,0,0.000708554
0.5,9.9,0,0.000687838
0.5,10,0,0.000666456
0.5,10.1,0,0.000645828
0.5,10.2,0,0.000623674
0.5,10.3,0,0.000601133
0.5,10.4,0,0.000579832
0.5,10.5,0,0.000556207
0.5,10.6,0,0.000532866
0.5,10.7,0,0.000510878
0.5,10.8,0,0.000485843
0.5,10.9,0,0.000461974
0.5,11,0,0.000438961
0.5,11.1,0,0.000413003
0.5,11.2,0,0.00038877
0.5,11.3,0,0.000364616
0.5,11.4,0,0.000338207
0.5,11.5,0,0.000313594
0.5,11.6,0,0.000288434
0.5,11.7,0,0.000261822
0.5,11.8,0,0.000236779
0.5,11.9,0,0.000210835
0.5,12,0,0.000184127
0.5,12.1,0,0.000158671
0.5,12.2,0,0.000132252
0.5,12.3,0,0.000105542
0.5,12.4,0,7.96559e-05
0.5,12.5,0,5.31164e-05
0.5,12.6,0,2.7732e-05
0.5,12.7,0,8.65979e-06
0.6,0,0,5.59053e-06
0.6,0.1,0,2.70801e-05
0.6,0.2,0,5.39441e-05
0.6,0.3,0,8.08844e-05
0.6,0.4,0,0.00010772
0.6,0.5,0,0.000134304
0.6,0.6,0,0.000161222
0.6,0.7,0,0.00018768
0.6,0.8,0,0.000214216
0.6,0.9,0,0.000240615
0.6,1,0,0.000266469
0.6,1.1,0,0.00029297
0.6,1.2,0,0.00031862
0.6,1.3,0,0.000344377
0.6,1.4,0,0.000369948
0.6,1.5,0,0.000394558
0.6,1.6,0,0.000420283
0.6,1.7,0,0.000444701
0.6,1.8,0,0.000469304
0.6,1.9,0,0.000493696
0.6,2,0,0.000516625
0.6,2.1,0,0.000541314
0.6,2.2,0,0.000564104
0.6,2.3,0,0.00058718
0.6,2.4,0,0.000610059
0.6,2.5,0,0.000630858
0.6,2.6,0,0.000654228
0.6,2.7,0,0.000675016
0.6,2.8,0,0.000696193
0.6,2.9,0,0.000717236
0.6,3,0,0.000735502
0.6,3.1,0,0.000757238
0.6,3.2,0,0.000775685
0.6,3.3,0,0.000794599
0.6,3.4,0,0.000813482
0.6,3.5,0,0.000828891
0.6,3.6,0,0.000848622
0.6,3.7,0,0.000864436
0.6,3.8,0,0.000880736
0.6,3.9,0,0.000897139
0.6,4,0,0.000909479
0.6,4.1,0,0.000926785
0.6,4.2,0,0.00093974
0.6,4.3,0,0.000953112
0.6,4.4,0,0.000966732
0.6,4.5,0,0.00097592
0.6,4.6,0,0.000990303
0.6,4.7,0,0.00100025
0.6,4.8,0,0.00101042
0.6,4.9,0,0.00102059
0.6,5,0,0.00102599
0.6,5.1,0,0.00103795
0.6,5.2,0,0.00104304
0.6,5.3,0,0.00105283
0.6,5.4,0,0.00105652
0.6,5.5,0,0.00106493
0.6,5.6,0,0.00106744
0.6,5.7,0,0.00107447
0.6,5.8,0,0.00107575
0.6,5.9,0,0.00108142
0.6,6,0,0.00108143
0.6,6.1,0,0.00108575
0.6,6.2,0,0.00108449
0.6,6.3,0,0.00108746
0.6,6.4,0,0.0010849
0.6,6.5,0,0.00108655
0.6,6.6,0,0.00108267
0.6,6.7,0,0.00108305
0.6,6.8,0,0.00107783
0.6,6.9,0,0.00107679
0.6,7,0,0.00106956
0.6,7.1,0,0.00106786
0.6,7.2,0,0.00106291
0.6,7.3,0,0.00105481
0.6,7.4,0,0.00105011
0.6,7.5,0,0.00104242
0.6,7.6,0,0.00103311
0.6,7.7,0,0.00102591
0.6,7.8,0,0.00101592
0.6,7.9,0,0.0010055
0.6,8,0,0.000995896
0.6,8.1,0,0.000983767
0.6,8.2,0,0.000972166
0.6,8.3,0,0.000960333
0.6,8.4,0,0.000946285
0.6,8.5,0,0.000933329
0.6,8.6,0,0.000919473
0.6,8.7,0,0.000903751
0.6,8.8,0,0.000889154
0.6,8.9,0,0.000873589
0.6,9,0,0.00085651
0.6,9.1,0,0.000840019
0.6,9.2,0,0.000822939
0.6,9.3,0,0.000804708
0.6,9.4,0,0.000786395
0.6,9.5,0,0.000767857
0.6,9.6,0,0.000748467
0.6,9.7,0,0.000728606
0.6,9.8,0,0.000708852
0.6,9.9,0,0.000688136
0.6,10,0,0.000666984
0.6,10.1,0,0.000646238
0.6,10.2,0,0.000624084
0.6,10.3,0,0.000601873
0.6,10.4,0,0.000580323
0.6,10.5,0,0.000556698
0.6,10.6,0,0.000533624
0.6,10.7,0,0.000511416
0.6,10.8,0,0.000486523
0.6,10.9,0,0.000462599
0.6,11,0,0.00043951
0.6,11.1,0,0.00041388
0.6,11.2,0,0.000389293
0.6,11.3,0,0.000365139
0.6,11.4,0,0.00033911
0.6,11.5,0,0.000314058
0.6,11.6,0,0.000288897
0.6,11.7,0,0.000262594
0.6,11.8,0,0.000237153
0.6,11.9,0,0.00021121
0.6,12,0,0.000184715
0.6,12.1,0,0.000158932
0.6,12.2,0,0.000132512
0.6,12.3,0,0.000105888
0.6,12.4,0,7.97847e-05
0.6,12.5,0,5.32442e-05
0.6,12.6,0,2.6499e-05
0.6,12.7,0,6.18557e-06
0.7,0,0,3.35432e-06
0.7,0.1,0,2.70035e-05
0.7,0.2,0,5.3892e-05
0.7,0.3,0,8.08184e-05
0.7,0.4,0,0.000107574
0.7,0.5,0,0.000134227
0.7,0.6,0,0.000160997
0.7,0.7,0,0.000187547
0.7,0.8,0,0.000214066
0.7,0.9,0,0.000240309
0.7,1,0,0.000266318
0.7,1.1,0,0.000292549
0.7,1.2,0,0.000318376
0.7,1.3,0,0.00034411
0.7,1.4,0,0.000369415
0.7,1.5,0,0.000394302
0.7,1.6,0,0.000419616
0.7,1.7,0,0.000444311
0.7,1.8,0,0.000468884
0.7,1.9,0,0.000492877
0.7,2,0,0.000516231
0.7,2.1,0,0.000540325
0.7,2.2,0,0.000563525
0.7,2.3,0,0.000586564
0.7,2.4,0,0.000608885
0.7,2.5,0,0.000630293
0.7,2.6,0,0.000652858
0.7,2.7,0,0.000674215
0.7,2.8,0,0.000695352
0.7,2.9,0,0.000715664
0.7,3,0,0.000734749
0.7,3.1,0,0.000755466
0.7,3.2,0,0.000774654
0.7,3.3,0,0.000793529
0.7,3.4,0,0.000811518
0.7,3.5,0,0.00082796
0.7,3.6,0,0.000846486
0.7,3.7,0,0.000863204
0.7,3.8,0,0.000879474
0.7,3.9,0,0.000894855
0.7,4,0,0.000908412
0.7,4.1,0,0.00092439
0.7,4.2,0,0.000938376
0.7,4.3,0,0.000951734
0.7,4.4,0,0.000964273
0.7,4.5,0,0.000974801
0.7,4.6,0,0.000987842
0.7,4.7,0,0.000998871
0.7,4.8,0,0.00100902
0.7,4.9,0,0.00101804
0.7,5,0,0.00102489
0.7,5.1,0,0.00103548
0.7,5.2,0,0.00104196
0.7,5.3,0,0.00105054
0.7,5.4,0,0.00105548
0.7,5.5,0,0.00106272
0.7,5.6,0,0.00106642
0.7,5.7,0,0.00107232
0.7,5.8,0,0.00107476
0.7,5.9,0,0.00107931
0.7,6,0,0.00108046
0.7,6.1,0,0.00108367
0.7,6.2,0,0.00108353
0.7,6.3,0,0.0010854
0.7,6.4,0,0.00108395
0.7,6.5,0,0.00108449
0.7,6.6,0,0.00108171
0.7,6.7,0,0.00108096
0.7,6.8,0,0.00107686
0.7,6.9,0,0.0010746
0.7,7,0,0.00106862
0.7,7.1,0,0.00106562
0.7,7.2,0,0.00106067
0.7,7.3,0,0.00105391
0.7,7.4,0,0.001048
0.7,7.5,0,0.00104082
0.7,7.6,0,0.00103224
0.7,7.7,0,0.00102394
0.7,7.8,0,0.00101497
0.7,7.9,0,0.00100471
0.7,8,0,0.000994153
0.7,8.1,0,0.000983111
0.7,8.2,0,0.000971281
0.7,8.3,0,0.000958887
0.7,8.4,0,0.000945781
0.7,8.5,0,0.000932378
0.7,8.6,0,0.000918362
0.7,8.7,0,0.000903415
0.7,8.8,0,0.0008884
0.7,8.9,0,0.000872835
0.7,9,0,0.000856346
0.7,9.1,0,0.000839624
0.7,9.2,0,0.00082259
0.7,9.3,0,0.000804712
0.7,9.4,0,0.000786344
0.7,9.5,0,0.000767924
0.7,9.6,0,0.000748628
0.7,9.7,0,0.000728867
0.7,9.8,0,0.000709151
0.7,9.9,0,0.000688434
0.7,10,0,0.000667513
0.7,10.1,0,0.000646648
0.7,10.2,0,0.000624639
0.7,10.3,0,0.000602614
0.7,10.4,0,0.000580814
0.7,10.5,0,0.00055754
0.7,10.6,0,0.000534511
0.7,10.7,0,0.000511954
0.7,10.8,0,0.000487487
0.7,10.9,0,0.000463563
0.7,11,0,0.000440058
0.7,11.1,0,0.000414849
0.7,11.2,0,0.000390145
0.7,11.3,0,0.000365662
0.7,11.4,0,0.000340012
0.7,11.5,0,0.000314649
0.7,11.6,0,0.000289361
0.7,11.7,0,0.000263366
0.7,11.8,0,0.000237528
0.7,11.9,0,0.000211614
0.7,12,0,0.000185304
0.7,12.1,0,0.000159192
0.7,12.2,0,0.000132833
0.7,12.3,0,0.00010625
0.7,12.4,0,7.99136e-05
0.7,12.5,0,5.33427e-05
0.7,12.6,0,2.65975e-05
0.7,12.7,0,3.71134e-06
0.8,0,0,1.11811e-06
0.8,0.1,0,2.69269e-05
0.8,0.2,0,5.38154e-05
0.8,0.3,0,8.06723e-05
0.8,0.4,0,0.000107428
0.8,0.5,0,0.000134149
0.8,0.6,0,0.000160773
0.8,0.7,0,0.000187323
0.8,0.8,0,0.00021376
0.8,0.9,0,0.000240002
0.8,1,0,0.000266167
0.8,1.1,0,0.000292128
0.8,1.2,0,0.000317955
0.8,1.3,0,0.000343577
0.8,1.4,0,0.000368881
0.8,1.5,0,0.000394047
0.8,1.6,0,0.000418948
0.8,1.7,0,0.000443644
0.8,1.8,0,0.000468064
0.8,1.9,0,0.000492057
0.8,2,0,0.000515837
0.8,2.1,0,0.000539335
0.8,2.2,0,0.000562536
0.8,2.3,0,0.000585389
0.8,2.4,0,0.000607711
0.8,2.5,0,0.000629727
0.8,2.6,0,0.000651487
0.8,2.7,0,0.000672845
0.8,2.8,0,0.00069378
0.8,2.9,0,0.000714093
0.8,3,0,0.000733996
0.8,3.1,0,0.000753693
0.8,3.2,0,0.000772882
0.8,3.3,0,0.000791566
0.8,3.4,0,0.000809555
0.8,3.5,0,0.000827028
0.8,3.6,0,0.000844349
0.8,3.7,0,0.000861068
0.8,3.8,0,0.000877191
0.8,3.9,0,0.000892572
0.8,4,0,0.000907345
0.8,4.1,0,0.000921995
0.8,4.2,0,0.000935981
0.8,4.3,0,0.000949275
0.8,4.4,0,0.000961813
0.8,4.5,0,0.000973682
0.8,4.6,0,0.000985381
0.8,4.7,0,0.00099641
0.8,4.8,0,0.00100648
0.8,4.9,0,0.0010155
0.8,5,0,0.00102379
0.8,5.1,0,0.00103302
0.8,5.2,0,0.00104087
0.8,5.3,0,0.00104826
0.8,5.4,0,0.00105443
0.8,5.5,0,0.00106051
0.8,5.6,0,0.00106541
0.8,5.7,0,0.00107017
0.8,5.8,0,0.00107377
0.8,5.9,0,0.0010772
0.8,6,0,0.00107949
0.8,6.1,0,0.00108159
0.8,6.2,0,0.00108257
0.8,6.3,0,0.00108334
0.8,6.4,0,0.001083
0.8,6.5,0,0.00108243
0.8,6.6,0,0.00108075
0.8,6.7,0,0.00107888
0.8,6.8,0,0.00107589
0.8,6.9,0,0.0010724
0.8,7,0,0.00106767
0.8,7.1,0,0.00106337
0.8,7.2,0,0.00105842
0.8,7.3,0,0.00105301
0.8,7.4,0,0.00104589
0.8,7.5,0,0.00103872
0.8,7.6,0,0.00103094
0.8,7.7,0,0.00102196
0.8,7.8,0,0.00101299
0.8,7.9,0,0.00100312
0.8,8,0,0.000992411
0.8,8.1,0,0.000981702
0.8,8.2,0,0.000969834
0.8,8.3,0,0.00095744
0.8,8.4,0,0.000945046
0.8,8.5,0,0.000931267
0.8,8.6,0,0.000917251
0.8,8.7,0,0.000903078
0.8,8.8,0,0.000887646
0.8,8.9,0,0.000872081
0.8,9,0,0.000856182
0.8,9.1,0,0.000839228
0.8,9.2,0,0.000822194
0.8,9.3,0,0.000804711
0.8,9.4,0,0.000786292
0.8,9.5,0,0.000767873
0.8,9.6,0,0.000748843
0.8,9.7,0,0.000729128
0.8,9.8,0,0.000709412
0.8,9.9,0,0.000688961
0.8,10,0,0.000668042
0.8,10.1,0,0.000647123
0.8,10.2,0,0.000625379
0.8,10.3,0,0.000603354
0.8,10.4,0,0.000581328
0.8,10.5,0,0.000558427
0.8,10.6,0,0.000535398
0.8,10.7,0,0.000512492
0.8,10.8,0,0.000488451
0.8,10.9,0,0.000464527
0.8,11,0,0.000440607
0.8,11.1,0,0.000415818
0.8,11.2,0,0.000391115
0.8,11.3,0,0.000366279
0.8,11.4,0,0.000340915
0.8,11.5,0,0.000315552
0.8,11.6,0,0.000290039
0.8,11.7,0,0.000264138
0.8,11.8,0,0.000238237
0.8,11.9,0,0.000212203
0.8,12,0,0.000185893
0.8,12.1,0,0.000159582
0.8,12.2,0,0.000133195
0.8,12.3,0,0.000106613
0.8,12.4,0,8.00424e-05
0.8,12.5,0,5.34412e-05
0.8,12.6,0,2.6696e-05
0.8,12.7,0,1.23711e-06
0.9,0,0,0
0.9,0.1,0,2.6868e-05
0.9,0.2,0,5.37566e-05
0.9,0.3,0,8.05475e-05
0.9,0.4,0,0.000107303
0.9,0.5,0,0.000134597
0.9,0.6,0,0.000160587
0.9,0.7,0,0.000187137
0.9,0.8,0,0.000213504
0.9,0.9,0,0.000239747
0.9,1,0,0.000267049
0.9,1.1,0,0.000291778
0.9,1.2,0,0.000317605
0.9,1.3,0,0.000343126
0.9,1.4,0,0.00036843
0.9,1.5,0,0.000395338
0.9,1.6,0,0.000418377
0.9,1.7,0,0.000443073
0.9,1.8,0,0.000467355
0.9,1.9,0,0.000491348
0.9,2,0,0.000517504
0.9,2.1,0,0.000538469
0.9,2.2,0,0.00056167
0.9,2.3,0,0.000584351
0.9,2.4,0,0.000606672
0.9,2.5,0,0.000631727
0.9,2.6,0,0.000650265
0.9,2.7,0,0.000671622
0.9,2.8,0,0.000692368
0.9,2.9,0,0.00071268
0.9,3,0,0.000736284
0.9,3.1,0,0.000752092
0.9,3.2,0,0.000771281
0.9,3.3,0,0.000789785
0.9,3.4,0,0.000807774
0.9,3.5,0,0.000829568
0.9,3.6,0,0.000842405
0.9,3.7,0,0.000859123
0.9,3.8,0,0.000875109
0.9,3.9,0,0.00089049
0.9,4,0,0.000910116
0.9,4.1,0,0.000919809
0.9,4.2,0,0.000933795
0.9,4.3,0,0.000947032
0.9,4.4,0,0.000959571
0.9,4.5,0,0.000976686
0.9,4.6,0,0.000983148
0.9,4.7,0,0.000994177
0.9,4.8,0,0.0010043
0.9,4.9,0,0.00101332
0.9,5,0,0.00102705
0.9,5.1,0,0.00103082
0.9,5.2,0,0.00104422
0.9,5.3,0,0.00104613
0.9,5.4,0,0.00105786
0.9,5.5,0,0.00105845
0.9,5.6,0,0.0010689
0.9,5.7,0,0.00106817
0.9,5.8,0,0.0010773
0.9,5.9,0,0.00107524
0.9,6,0,0.00108305
0.9,6.1,0,0.00107967
0.9,6.2,0,0.00108613
0.9,6.3,0,0.00108143
0.9,6.4,0,0.00108654
0.9,6.5,0,0.00108052
0.9,6.6,0,0.00108426
0.9,6.7,0,0.00107695
0.9,6.8,0,0.00107934
0.9,6.9,0,0.00107045
0.9,7,0,0.00107105
0.9,7.1,0,0.00106157
0.9,7.2,0,0.00105662
0.9,7.3,0,0.00105174
0.9,7.4,0,0.00104409
0.9,7.5,0,0.00103692
0.9,7.6,0,0.00102926
0.9,7.7,0,0.00102028
0.9,7.8,0,0.00101131
0.9,7.9,0,0.00100167
0.9,8,0,0.000990956
0.9,8.1,0,0.000980247
0.9,8.2,0,0.000968665
0.9,8.3,0,0.000956271
0.9,8.4,0,0.000943877
0.9,8.5,0,0.000930423
0.9,8.6,0,0.000916406
0.9,8.7,0,0.000903752
0.9,8.8,0,0.000887145
0.9,8.9,0,0.00087158
0.9,9,0,0.000858133
0.9,9.1,0,0.000839073
0.9,9.2,0,0.000822038
0.9,9.3,0,0.000804885
0.9,9.4,0,0.000786465
0.9,9.5,0,0.000768046
0.9,9.6,0,0.000749314
0.9,9.7,0,0.000729599
0.9,9.8,0,0.000709883
0.9,9.9,0,0.000689683
0.9,10,0,0.000668764
0.9,10.1,0,0.000647845
0.9,10.2,0,0.000626296
0.9,10.3,0,0.000604271
0.9,10.4,0,0.000582246
0.9,10.5,0,0.000559473
0.9,10.6,0,0.000536444
0.9,10.7,0,0.000514205
0.9,10.8,0,0.000489556
0.9,10.9,0,0.000465632
0.9,11,0,0.000441972
0.9,11.1,0,0.000416908
0.9,11.2,0,0.000392205
0.9,11.3,0,0.000367282
0.9,11.4,0,0.000341919
0.9,11.5,0,0.000316555
0.9,11.6,0,0.00029089
0.9,11.7,0,0.00026499
0.9,11.8,0,0.000239089
0.9,11.9,0,0.000212849
0.9,12,0,0.000186539
0.9,12.1,0,0.000160229
0.9,12.2,0,0.000133591
0.9,12.3,0,0.000107009
0.9,12.4,0,8.04309e-05
0.9,12.5,0,5.35607e-05
0.9,12.6,0,2.68154e-05
0.9,12.7,0,0
1,0,0,0
1,0.1,0,2.6827e-05
1,0.2,0,5.37156e-05
1,0.3,0,8.04439e-05
1,0.4,0,0.0001072
1,0.5,0,0.000135569
1,0.6,0,0.000160441
1,0.7,0,0.000186991
1,0.8,0,0.0002133
1,0.9,0,0.000239543
1,1,0,0.000268964
1,1.1,0,0.000291499
1,1.2,0,0.000317326
1,1.3,0,0.000342757
1,1.4,0,0.000368062
1,1.5,0,0.000398176
1,1.6,0,0.000417903
1,1.7,0,0.000442599
1,1.8,0,0.000466755
1,1.9,0,0.000490748
1,2,0,0.000521233
1,2.1,0,0.000537726
1,2.2,0,0.000560927
1,2.3,0,0.000583448
1,2.4,0,0.000605769
1,2.5,0,0.000636292
1,2.6,0,0.00064919
1,2.7,0,0.000670547
1,2.8,0,0.000691115
1,2.9,0,0.000711428
1,3,0,0.000741613
1,3.1,0,0.000750662
1,3.2,0,0.00076985
1,3.3,0,0.000788185
1,3.4,0,0.000806174
1,3.5,0,0.000835579
1,3.6,0,0.000840652
1,3.7,0,0.000857371
1,3.8,0,0.000873228
1,3.9,0,0.000888609
1,4,0,0.000916726
1,4.1,0,0.000917832
1,4.2,0,0.000931818
1,4.3,0,0.000945007
1,4.4,0,0.000957545
1,4.5,0,0.000983814
1,4.6,0,0.000981141
1,4.7,0,0.00099217
1,4.8,0,0.00100248
1,4.9,0,0.0010115
1,5,0,0.00103464
1,5.1,0,0.00102889
1,5.2,0,0.00105201
1,5.3,0,0.00104414
1,5.4,0,0.00106577
1,5.5,0,0.00105655
1,5.6,0,0.0010769
1,5.7,0,0.00106632
1,5.8,0,0.00108536
1,5.9,0,0.00107344
1,6,0,0.00109114
1,6.1,0,0.0010779
1,6.2,0,0.00109422
1,6.3,0,0.00107969
1,6.4,0,0.00109459
1,6.5,0,0.00107878
1,6.6,0,0.00109225
1,6.7,0,0.00107517
1,6.8,0,0.00108722
1,6.9,0,0.00106874
1,7,0,0.00107873
1,7.1,0,0.0010602
1,7.2,0,0.00105525
1,7.3,0,0.00105918
1,7.4,0,0.0010426
1,7.5,0,0.00103542
1,7.6,0,0.00103308
1,7.7,0,0.0010189
1,7.8,0,0.00100993
1,7.9,0,0.00100178
1,8,0,0.000989788
1,8.1,0,0.000981505
1,8.2,0,0.000967774
1,8.3,0,0.00095538
1,8.4,0,0.000948536
1,8.5,0,0.000929844
1,8.6,0,0.000915828
1,8.7,0,0.000909927
1,8.8,0,0.000886897
1,8.9,0,0.000871332
1,9,0,0.000863992
1,9.1,0,0.000839156
1,9.2,0,0.000822122
1,9.3,0,0.000809907
1,9.4,0,0.000786864
1,9.5,0,0.000768445
1,9.6,0,0.000752033
1,9.7,0,0.000730279
1,9.8,0,0.000710599
1,9.9,0,0.000690633
1,10,0,0.00066968
1,10.1,0,0.000650324
1,10.2,0,0.00062739
1,10.3,0,0.000605365
1,10.4,0,0.000585882
1,10.5,0,0.000560679
1,10.6,0,0.00053765
1,10.7,0,0.000517663
1,10.8,0,0.000490801
1,10.9,0,0.000466877
1,11,0,0.000444965
1,11.1,0,0.000418119
1,11.2,0,0.000393415
1,11.3,0,0.000369451
1,11.4,0,0.000343022
1,11.5,0,0.000317659
1,11.6,0,0.000292158
1,11.7,0,0.000265921
1,11.8,0,0.000240115
1,11.9,0,0.000213553
1,12,0,0.000187243
1,12.1,0,0.00016113
1,12.2,0,0.000134021
1,12.3,0,0.000107438
1,12.4,0,8.09511e-05
1,12.5,0,5.3701e-05
1,12.6,0,2.69558e-05
1,12.7,0,0
1.1,0,0,0
1.1,0.1,0,2.6786e-05
1.1,0.2,0,5.40994e-05