/*--------------------------------*- C++ -*----------------------------------*\
| =========                 |                                                 |
| \\      /  F ield         | OpenFOAM: The Open Source CFD Toolbox           |
|  \\    /   O peration     | Version:  v1806                                 |
|   \\  /    A nd           | Web:      www.OpenFOAM.com                      |
|    \\/     M anipulation  |                                                 |
\*---------------------------------------------------------------------------*/
FoamFile
{
    version     2.0;
    format      ascii;
    class       volVectorField;
    location    "6";
    object      U;
}
// * * * * * * * * * * * * * * * * * * * * * * * * * * * * * * * * * * * * * //

dimensions      [0 1 -1 0 0 0 0];


internalField   nonuniform List<vector> 
4400
(
(1.97356 3.05035 0)
(2.44892 2.47835 0)
(2.89217 2.04289 0)
(3.12277 1.58736 0)
(3.26243 1.21595 0)
(3.34187 1.00694 0)
(3.36903 0.88163 0)
(3.37367 0.785558 0)
(3.36239 0.702861 0)
(3.34276 0.635051 0)
(3.31667 0.578962 0)
(3.28762 0.533305 0)
(3.25586 0.493721 0)
(3.22376 0.461508 0)
(3.19107 0.434248 0)
(3.15836 0.411721 0)
(3.12634 0.392779 0)
(3.09449 0.378661 0)
(3.06449 0.367918 0)
(3.02755 0.361879 0)
(3.16338 1.20754 0)
(3.64133 0.89288 0)
(3.3642 0.846027 0)
(3.2354 0.919363 0)
(3.22754 0.94273 0)
(3.25169 0.915405 0)
(3.27996 0.848445 0)
(3.29855 0.765786 0)
(3.3016 0.687985 0)
(3.29236 0.622279 0)
(3.27541 0.567361 0)
(3.25263 0.520624 0)
(3.22663 0.482226 0)
(3.19896 0.449996 0)
(3.17037 0.423509 0)
(3.1416 0.402167 0)
(3.11275 0.38578 0)
(3.08491 0.373393 0)
(3.05758 0.36417 0)
(3.02427 0.358633 0)
(1.87233 1.60206 0)
(2.12612 1.69307 0)
(2.53868 1.64763 0)
(2.81643 1.44621 0)
(2.99578 1.16616 0)
(3.11676 0.946835 0)
(3.19369 0.813185 0)
(3.23236 0.725577 0)
(3.24492 0.659214 0)
(3.24186 0.600407 0)
(3.23052 0.54899 0)
(3.21462 0.50497 0)
(3.19556 0.466826 0)
(3.17407 0.435095 0)
(3.15119 0.408245 0)
(3.12726 0.387311 0)
(3.10319 0.370676 0)
(3.07739 0.358418 0)
(3.05299 0.348949 0)
(3.02256 0.342486 0)
(2.93193 0.770032 0)
(3.50694 0.634988 0)
(3.32413 0.50099 0)
(3.13594 0.564847 0)
(3.10836 0.646462 0)
(3.12802 0.700571 0)
(3.15442 0.71022 0)
(3.17994 0.680394 0)
(3.1954 0.631119 0)
(3.1987 0.578441 0)
(3.1928 0.533573 0)
(3.18082 0.493568 0)
(3.16516 0.461482 0)
(3.14703 0.432328 0)
(3.12769 0.408533 0)
(3.10776 0.386628 0)
(3.08671 0.36902 0)
(3.06534 0.353477 0)
(3.04336 0.342832 0)
(3.01813 0.333483 0)
(2.21165 0.976935 0)
(2.15255 1.13326 0)
(2.4135 1.22613 0)
(2.68339 1.19411 0)
(2.87021 1.03224 0)
(2.98771 0.857815 0)
(3.0721 0.729565 0)
(3.12593 0.647994 0)
(3.15266 0.591066 0)
(3.16133 0.547661 0)
(3.16068 0.507987 0)
(3.15451 0.476041 0)
(3.14412 0.446735 0)
(3.12953 0.422232 0)
(3.11236 0.4008 0)
(3.09363 0.383555 0)
(3.07428 0.369298 0)
(3.0545 0.358114 0)
(3.03504 0.35089 0)
(3.01313 0.346341 0)
(2.91322 0.499912 0)
(3.40002 0.443501 0)
(3.3034 0.325693 0)
(3.1112 0.336168 0)
(3.05865 0.426609 0)
(3.06518 0.503925 0)
(3.0834 0.553294 0)
(3.10228 0.563193 0)
(3.11817 0.545515 0)
(3.12892 0.514001 0)
(3.1319 0.48052 0)
(3.12838 0.448547 0)
(3.11912 0.419486 0)
(3.10791 0.39493 0)
(3.09537 0.374367 0)
(3.08143 0.358234 0)
(3.06597 0.344729 0)
(3.05055 0.33659 0)
(3.03441 0.329708 0)
(3.01435 0.326932 0)
(2.46466 0.666819 0)
(2.28383 0.796106 0)
(2.43742 0.908466 0)
(2.65965 0.947125 0)
(2.8296 0.870198 0)
(2.93216 0.745993 0)
(3.0043 0.635369 0)
(3.05618 0.560084 0)
(3.08808 0.511153 0)
(3.10159 0.475678 0)
(3.1049 0.445259 0)
(3.10241 0.417394 0)
(3.09768 0.393655 0)
(3.09021 0.373341 0)
(3.07973 0.355398 0)
(3.06713 0.33905 0)
(3.0545 0.326386 0)
(3.04065 0.315304 0)
(3.02595 0.306938 0)
(3.0099 0.301921 0)
(2.94386 0.331059 0)
(3.34047 0.301221 0)
(3.28046 0.216665 0)
(3.11111 0.203508 0)
(3.03919 0.273962 0)
(3.03246 0.351864 0)
(3.04253 0.415239 0)
(3.05584 0.445985 0)
(3.06729 0.447234 0)
(3.0774 0.430651 0)
(3.08339 0.40872 0)
(3.08513 0.387301 0)
(3.08234 0.367372 0)
(3.07589 0.348226 0)
(3.0669 0.330877 0)
(3.05735 0.317634 0)
(3.04648 0.30697 0)
(3.03464 0.298299 0)
(3.02332 0.292285 0)
(3.00978 0.288011 0)
(2.628 0.48085 0)
(2.42415 0.579422 0)
(2.5116 0.680314 0)
(2.69188 0.738058 0)
(2.83567 0.706593 0)
(2.91918 0.621161 0)
(2.97403 0.533301 0)
(3.01398 0.467667 0)
(3.04154 0.426586 0)
(3.05715 0.401216 0)
(3.06491 0.38153 0)
(3.06611 0.361753 0)
(3.06332 0.344115 0)
(3.05802 0.327422 0)
(3.05252 0.314146 0)
(3.04573 0.301856 0)
(3.03706 0.291243 0)
(3.02734 0.282423 0)
(3.01667 0.276561 0)
(3.00583 0.27267 0)
(2.98613 0.220258 0)
(3.30005 0.200348 0)
(3.25756 0.142249 0)
(3.10737 0.124877 0)
(3.03056 0.173731 0)
(3.01523 0.243388 0)
(3.01944 0.304859 0)
(3.03021 0.346925 0)
(3.04021 0.36186 0)
(3.04805 0.358918 0)
(3.05208 0.345528 0)
(3.05419 0.331551 0)
(3.05369 0.316406 0)
(3.05083 0.303733 0)
(3.04546 0.292175 0)
(3.03811 0.28185 0)
(3.03019 0.272807 0)
(3.0224 0.266813 0)
(3.01498 0.263102 0)
(3.00589 0.261429 0)
(2.73851 0.352871 0)
(2.54515 0.43028 0)
(2.59679 0.512982 0)
(2.74728 0.566992 0)
(2.86133 0.559146 0)
(2.92531 0.502447 0)
(2.96706 0.439252 0)
(2.99634 0.384889 0)
(3.01566 0.348554 0)
(3.0284 0.325203 0)
(3.0366 0.309652 0)
(3.03969 0.295563 0)
(3.03897 0.282521 0)
(3.03689 0.270829 0)
(3.03352 0.260042 0)
(3.029 0.250895 0)
(3.02416 0.244056 0)
(3.019 0.239052 0)
(3.01214 0.234663 0)
(3.00448 0.231915 0)
(3.02347 0.145018 0)
(3.26958 0.126451 0)
(3.23614 0.0878806 0)
(3.10429 0.0728027 0)
(3.03226 0.10611 0)
(3.01271 0.163112 0)
(3.0105 0.215809 0)
(3.01431 0.25506 0)
(3.02083 0.275362 0)
(3.02614 0.279394 0)
(3.02966 0.274029 0)
(3.03136 0.26473 0)
(3.03209 0.25524 0)
(3.03088 0.246096 0)
(3.02758 0.236958 0)
(3.02366 0.229296 0)
(3.01931 0.22286 0)
(3.01379 0.217074 0)
(3.00835 0.212828 0)
(3.00299 0.2109 0)
(2.81598 0.257405 0)
(2.64463 0.320244 0)
(2.67847 0.381178 0)
(2.80095 0.425914 0)
(2.88758 0.425955 0)
(2.93555 0.387954 0)
(2.96625 0.339839 0)
(2.98893 0.298041 0)
(3.00341 0.267844 0)
(3.01311 0.249819 0)
(3.01908 0.238927 0)
(3.02209 0.22998 0)
(3.02274 0.222014 0)
(3.02142 0.213111 0)
(3.0196 0.205646 0)
(3.01745 0.199309 0)
(3.01431 0.19395 0)
(3.01089 0.189908 0)
(3.0072 0.18734 0)
(3.00286 0.185621 0)
(3.05128 0.0892086 0)
(3.24177 0.0700729 0)
(3.21359 0.0461951 0)
(3.10361 0.0334052 0)
(3.03951 0.0567568 0)
(3.01634 0.100595 0)
(3.00918 0.144471 0)
(3.00738 0.178775 0)
(3.0094 0.19912 0)
(3.01272 0.206816 0)
(3.0152 0.205001 0)
(3.01656 0.200311 0)
(3.01671 0.194159 0)
(3.01594 0.188193 0)
(3.01485 0.182871 0)
(3.01287 0.177475 0)
(3.01046 0.173003 0)
(3.00749 0.169216 0)
(3.00427 0.166492 0)
(3.00128 0.164922 0)
(2.86968 0.184407 0)
(2.7254 0.233665 0)
(2.74887 0.276934 0)
(2.84256 0.311917 0)
(2.90732 0.314702 0)
(2.9443 0.289186 0)
(2.96847 0.254011 0)
(2.98648 0.220854 0)
(2.99829 0.197249 0)
(3.00467 0.183153 0)
(3.0082 0.175232 0)
(3.0108 0.17002 0)
(3.0116 0.164348 0)
(3.01148 0.159521 0)
(3.01045 0.154692 0)
(3.00906 0.150959 0)
(3.00734 0.147555 0)
(3.00544 0.144995 0)
(3.00355 0.14334 0)
(3.00141 0.14306 0)
(3.06809 0.0457149 0)
(3.21298 0.0274509 0)
(3.19324 0.0103225 0)
(3.11008 -0.000670711 0)
(3.05392 0.0146296 0)
(3.02614 0.0466642 0)
(3.01201 0.0811209 0)
(3.00442 0.110764 0)
(3.00206 0.129957 0)
(3.00304 0.137427 0)
(3.00572 0.138698 0)
(3.00682 0.135377 0)
(3.00703 0.131215 0)
(3.00716 0.127058 0)
(3.00703 0.123207 0)
(3.00632 0.119665 0)
(3.005 0.116372 0)
(3.00364 0.114078 0)
(3.00251 0.112818 0)
(3.00096 0.112034 0)
(2.9083 0.124395 0)
(2.79049 0.158994 0)
(2.80371 0.188425 0)
(2.86911 0.2136 0)
(2.91623 0.215931 0)
(2.94615 0.197976 0)
(2.96756 0.17173 0)
(2.98383 0.146433 0)
(2.99354 0.127289 0)
(2.99911 0.116602 0)
(3.00176 0.110383 0)
(3.00297 0.10586 0)
(3.00402 0.102959 0)
(3.00445 0.0999217 0)
(3.00404 0.0969801 0)
(3.00316 0.0937991 0)
(3.00251 0.0915592 0)
(3.00238 0.0900276 0)
(3.00172 0.0887297 0)
(3.0007 0.0872793 0)
(3.07785 0.00868065 0)
(3.18807 -0.00893168 0)
(3.17838 -0.0245969 0)
(3.11728 -0.0343425 0)
(3.06704 -0.0235709 0)
(3.03419 -0.00139846 0)
(3.01365 0.025382 0)
(3.00158 0.0490192 0)
(2.99739 0.0648281 0)
(2.99799 0.0722795 0)
(2.99955 0.073782 0)
(3.00096 0.0738508 0)
(3.00171 0.0729619 0)
(3.00158 0.0714455 0)
(3.0013 0.0697733 0)
(3.00122 0.0684975 0)
(3.00139 0.0677413 0)
(3.00094 0.066714 0)
(3 0.0654885 0)
(2.99965 0.0651881 0)
(2.9362 0.0714849 0)
(2.84001 0.0976699 0)
(2.8406 0.120953 0)
(2.88002 0.140436 0)
(2.91469 0.139356 0)
(2.94185 0.123126 0)
(2.96404 0.0995726 0)
(2.98094 0.0768385 0)
(2.99182 0.0604884 0)
(2.99733 0.0513753 0)
(2.99984 0.0476284 0)
(3.00102 0.0463079 0)
(3.00122 0.0448429 0)
(3.00116 0.0436489 0)
(3.00111 0.0425535 0)
(3.00115 0.0418303 0)
(3.00087 0.0407779 0)
(3.00035 0.0398389 0)
(3.00033 0.0395264 0)
(3.00032 0.0397791 0)
(3.06561 -0.0267694 0)
(3.15101 -0.0426761 0)
(3.15502 -0.0568928 0)
(3.11944 -0.0682947 0)
(3.08187 -0.0646093 0)
(3.05011 -0.0497587 0)
(3.02591 -0.0301692 0)
(3.01084 -0.0114738 0)
(3.00334 0.00215892 0)
(3.00052 0.00969062 0)
(2.99987 0.0128939 0)
(2.99963 0.013516 0)
(2.99955 0.0135273 0)
(2.99966 0.013265 0)
(2.99979 0.0129815 0)
(2.99976 0.0125161 0)
(2.99971 0.0121381 0)
(2.99989 0.0120038 0)
(3.00001 0.0119591 0)
(2.99996 0.0116999 0)
(0.735544 -0.96894 0)
(0.771655 -0.783433 0)
(0.6633 -0.568026 0)
(0.623723 -0.378828 0)
(0.583525 -0.197973 0)
(0.553653 -0.0274156 0)
(0.532101 0.136489 0)
(0.517915 0.296437 0)
(0.510678 0.454687 0)
(0.509717 0.613434 0)
(0.517126 0.772392 0)
(0.526643 0.939592 0)
(0.555557 1.10366 0)
(0.569844 1.2955 0)
(0.635527 1.4646 0)
(0.642905 1.70246 0)
(0.769382 1.8712 0)
(0.756635 2.17879 0)
(0.970275 2.33831 0)
(0.932393 2.71404 0)
(1.54172 -0.25719 0)
(1.40431 -0.183021 0)
(1.30957 -0.110828 0)
(1.23402 -0.0231361 0)
(1.17897 0.0701756 0)
(1.13988 0.167839 0)
(1.11389 0.268733 0)
(1.09913 0.371923 0)
(1.09451 0.476728 0)
(1.09951 0.582408 0)
(1.11358 0.688723 0)
(1.13794 0.794004 0)
(1.17158 0.898295 0)
(1.21846 0.999373 0)
(1.27647 1.09567 0)
(1.34827 1.19418 0)
(1.44793 1.26913 0)
(1.53839 1.3768 0)
(1.72989 1.39515 0)
(1.79716 1.54386 0)
(1.55374 -0.217264 0)
(1.56354 -0.151976 0)
(1.56424 -0.0782286 0)
(1.56266 -0.00130387 0)
(1.56053 0.079145 0)
(1.55963 0.161769 0)
(1.5612 0.245919 0)
(1.56609 0.331277 0)
(1.57485 0.417629 0)
(1.58785 0.504866 0)
(1.60542 0.592839 0)
(1.62756 0.681479 0)
(1.65434 0.770994 0)
(1.68614 0.860064 0)
(1.72003 0.951875 0)
(1.7639 1.03835 0)
(1.79778 1.13375 0)
(1.86147 1.2123 0)
(1.8789 1.30833 0)
(1.97695 1.37551 0)
(2.04538 0.00475137 0)
(2.00546 0.047547 0)
(1.97082 0.0908307 0)
(1.94257 0.135969 0)
(1.92099 0.182687 0)
(1.90578 0.230809 0)
(1.89654 0.279993 0)
(1.89292 0.329769 0)
(1.89469 0.379612 0)
(1.90171 0.428949 0)
(1.91392 0.477183 0)
(1.93142 0.523738 0)
(1.95441 0.567793 0)
(1.98291 0.609274 0)
(2.01851 0.646266 0)
(2.05865 0.680731 0)
(2.11112 0.707633 0)
(2.16201 0.733477 0)
(2.24376 0.747365 0)
(2.2834 0.765442 0)
(2.04436 -0.032679 0)
(2.05599 0.00749435 0)
(2.06722 0.0497728 0)
(2.07736 0.0934885 0)
(2.08662 0.138398 0)
(2.09554 0.184266 0)
(2.10464 0.230901 0)
(2.11438 0.278165 0)
(2.12505 0.325956 0)
(2.13688 0.374201 0)
(2.14996 0.422846 0)
(2.1643 0.471812 0)
(2.17983 0.521138 0)
(2.19654 0.570514 0)
(2.21364 0.620344 0)
(2.23244 0.669567 0)
(2.24852 0.719403 0)
(2.27118 0.767806 0)
(2.27688 0.815468 0)
(2.31624 0.864516 0)
(2.38583 0.0636831 0)
(2.36827 0.0914218 0)
(2.35209 0.118976 0)
(2.33858 0.146519 0)
(2.32823 0.174076 0)
(2.32113 0.201597 0)
(2.31721 0.228972 0)
(2.31634 0.256041 0)
(2.31842 0.282608 0)
(2.32337 0.308451 0)
(2.33117 0.333332 0)
(2.34186 0.357017 0)
(2.35555 0.379234 0)
(2.37233 0.399835 0)
(2.39262 0.418454 0)
(2.41617 0.435172 0)
(2.44473 0.449519 0)
(2.47535 0.46158 0)
(2.51645 0.471787 0)
(2.5497 0.478634 0)
(2.35984 0.0177497 0)
(2.37036 0.0441891 0)
(2.38141 0.0714255 0)
(2.39218 0.0993306 0)
(2.40237 0.127796 0)
(2.41202 0.15673 0)
(2.42126 0.186058 0)
(2.43027 0.21573 0)
(2.43922 0.245709 0)
(2.44819 0.27597 0)
(2.45726 0.306496 0)
(2.46643 0.33726 0)
(2.47566 0.368248 0)
(2.4849 0.399389 0)
(2.49396 0.430678 0)
(2.5029 0.461952 0)
(2.51093 0.493163 0)
(2.5195 0.524236 0)
(2.52367 0.554506 0)
(2.53915 0.586095 0)
(2.61403 0.0697295 0)
(2.60407 0.0880141 0)
(2.59449 0.105987 0)
(2.58614 0.123654 0)
(2.57949 0.141012 0)
(2.57475 0.158038 0)
(2.57194 0.174689 0)
(2.57104 0.190899 0)
(2.572 0.206588 0)
(2.57478 0.221665 0)
(2.57935 0.236036 0)
(2.58575 0.249606 0)
(2.59403 0.262283 0)
(2.60426 0.273995 0)
(2.61662 0.28466 0)
(2.63121 0.29425 0)
(2.64846 0.302732 0)
(2.66818 0.310058 0)
(2.69262 0.316642 0)
(2.71963 0.321124 0)
(2.57146 0.0284791 0)
(2.58017 0.046682 0)
(2.58944 0.0653145 0)
(2.59866 0.0843437 0)
(2.60747 0.103724 0)
(2.61577 0.12341 0)
(2.62353 0.143367 0)
(2.63082 0.163568 0)
(2.63771 0.183993 0)
(2.64425 0.204626 0)
(2.65049 0.225451 0)
(2.65643 0.24645 0)
(2.66205 0.267599 0)
(2.66732 0.288863 0)
(2.67217 0.3102 0)
(2.67654 0.331545 0)
(2.68026 0.352816 0)
(2.68348 0.373965 0)
(2.68556 0.394765 0)
(2.68967 0.415857 0)
(2.76951 0.0609111 0)
(2.76276 0.073161 0)
(2.75602 0.0851004 0)
(2.74988 0.096714 0)
(2.74473 0.107994 0)
(2.74078 0.118929 0)
(2.73812 0.129498 0)
(2.73676 0.139674 0)
(2.73669 0.149423 0)
(2.73789 0.158706 0)
(2.74035 0.167485 0)
(2.74408 0.175724 0)
(2.74912 0.18339 0)
(2.75553 0.190459 0)
(2.76339 0.196912 0)
(2.77283 0.202745 0)
(2.78406 0.20797 0)
(2.79736 0.212625 0)
(2.81371 0.21688 0)
(2.83533 0.220024 0)
(2.71776 0.026555 0)
(2.7248 0.0394556 0)
(2.7323 0.052644 0)
(2.73981 0.0661096 0)
(2.74702 0.0798319 0)
(2.75377 0.093788 0)
(2.75999 0.107956 0)
(2.76568 0.122318 0)
(2.77086 0.136858 0)
(2.77558 0.15156 0)
(2.77984 0.166408 0)
(2.78366 0.181383 0)
(2.78704 0.196464 0)
(2.78995 0.211619 0)
(2.79235 0.226813 0)
(2.79419 0.241997 0)
(2.79542 0.257114 0)
(2.79602 0.272102 0)
(2.79583 0.286889 0)
(2.79387 0.301685 0)
(2.87658 0.0484017 0)
(2.87146 0.0566012 0)
(2.8662 0.0645291 0)
(2.86123 0.0721715 0)
(2.85687 0.0795209 0)
(2.8533 0.0865715 0)
(2.85064 0.0933153 0)
(2.84892 0.0997418 0)
(2.84814 0.105838 0)
(2.84831 0.11159 0)
(2.84942 0.116985 0)
(2.85147 0.12201 0)
(2.85449 0.126658 0)
(2.85852 0.130925 0)
(2.86363 0.134813 0)
(2.86992 0.138332 0)
(2.87757 0.1415 0)
(2.88689 0.144375 0)
(2.8988 0.147047 0)
(2.9162 0.148964 0)
(2.82039 0.0206335 0)
(2.82605 0.0298241 0)
(2.83209 0.0392304 0)
(2.83814 0.0488499 0)
(2.84395 0.0586723 0)
(2.84935 0.0686833 0)
(2.85427 0.0788676 0)
(2.85867 0.0892102 0)
(2.86256 0.0996962 0)
(2.86594 0.110311 0)
(2.86883 0.121037 0)
(2.87124 0.131858 0)
(2.87317 0.142751 0)
(2.87459 0.15369 0)
(2.87549 0.164645 0)
(2.87583 0.175578 0)
(2.87556 0.186444 0)
(2.87458 0.197186 0)
(2.87243 0.207763 0)
(2.86713 0.218392 0)
(2.94948 0.0363195 0)
(2.94533 0.0415917 0)
(2.94099 0.0466385 0)
(2.93678 0.0514494 0)
(2.93294 0.0560195 0)
(2.92966 0.0603471 0)
(2.92703 0.0644305 0)
(2.9251 0.0682679 0)
(2.92389 0.0718568 0)
(2.9234 0.0751949 0)
(2.92364 0.0782805 0)
(2.92461 0.0811136 0)
(2.92632 0.0836967 0)
(2.92881 0.0860355 0)
(2.93213 0.0881391 0)
(2.93638 0.0900183 0)
(2.9417 0.0916919 0)
(2.94848 0.0932167 0)
(2.95767 0.0946661 0)
(2.97179 0.0955017 0)
(2.89124 0.0136488 0)
(2.89582 0.0200797 0)
(2.9007 0.0266838 0)
(2.90559 0.0334613 0)
(2.91029 0.0404059 0)
(2.91463 0.0475079 0)
(2.91853 0.054755 0)
(2.92195 0.0621344 0)
(2.92487 0.0696327 0)
(2.9273 0.0772357 0)
(2.92924 0.0849283 0)
(2.9307 0.0926934 0)
(2.93168 0.100512 0)
(2.93215 0.108361 0)
(2.93211 0.116217 0)
(2.93152 0.124049 0)
(2.93029 0.131824 0)
(2.9282 0.139488 0)
(2.92453 0.147007 0)
(2.9174 0.154674 0)
(2.99675 0.024889 0)
(2.99329 0.0279804 0)
(2.98961 0.0308907 0)
(2.98598 0.0336131 0)
(2.98259 0.0361456 0)
(2.9796 0.0384892 0)
(2.97709 0.0406459 0)
(2.97511 0.0426185 0)
(2.97369 0.0444099 0)
(2.97284 0.0460234 0)
(2.97256 0.0474631 0)
(2.97286 0.0487341 0)
(2.97374 0.0498435 0)
(2.97524 0.0508001 0)
(2.9774 0.0516141 0)
(2.9803 0.0522939 0)
(2.98412 0.0528529 0)
(2.98924 0.0533478 0)
(2.99661 0.0538692 0)
(3.00808 0.0538947 0)
(2.93819 0.00731123 0)
(2.94194 0.0114696 0)
(2.94595 0.0157734 0)
(2.94997 0.0202235 0)
(2.95383 0.0248163 0)
(2.95738 0.0295445 0)
(2.96054 0.0343987 0)
(2.96327 0.0393682 0)
(2.96554 0.0444416 0)
(2.96735 0.0496068 0)
(2.96871 0.0548505 0)
(2.9696 0.0601584 0)
(2.97004 0.0655145 0)
(2.97 0.0709009 0)
(2.96946 0.0762977 0)
(2.96838 0.0816857 0)
(2.96661 0.0870424 0)
(2.96384 0.0923204 0)
(2.95927 0.0974738 0)
(2.95146 0.10281 0)
(3.02431 0.0156348 0)
(3.02143 0.0168555 0)
(3.01835 0.0179312 0)
(3.01527 0.0188584 0)
(3.01234 0.0196374 0)
(3.0097 0.0202714 0)
(3.00744 0.0207652 0)
(3.00559 0.021125 0)
(3.0042 0.0213573 0)
(3.00327 0.0214695 0)
(3.00281 0.02147 0)
(3.00282 0.0213681 0)
(3.00332 0.0211744 0)
(3.00434 0.0209006 0)
(3.00592 0.020559 0)
(3.00816 0.0201602 0)
(3.01124 0.0197178 0)
(3.01556 0.0192793 0)
(3.02189 0.0189349 0)
(3.03146 0.0182487 0)
(2.96587 9.48894e-05 0)
(2.96907 0.00233038 0)
(2.9725 0.00468612 0)
(2.97595 0.00716314 0)
(2.97925 0.00975822 0)
(2.9823 0.012465 0)
(2.985 0.015275 0)
(2.98731 0.0181782 0)
(2.98922 0.0211637 0)
(2.99069 0.0242198 0)
(2.99175 0.0273341 0)
(2.99238 0.0304935 0)
(2.99258 0.0336839 0)
(2.99234 0.0368908 0)
(2.99163 0.0401009 0)
(2.99039 0.0433057 0)
(2.98845 0.0464928 0)
(2.98544 0.0496046 0)
(2.98069 0.052549 0)
(2.97321 0.0557105 0)
(3.03093 0.00566658 0)
(3.02842 0.00525787 0)
(3.02571 0.0047423 0)
(3.02298 0.0041186 0)
(3.02036 0.0033885 0)
(3.01796 0.0025558 0)
(3.01585 0.00162564 0)
(3.01408 0.000604003 0)
(3.01267 -0.000503712 0)
(3.01164 -0.00169162 0)
(3.01098 -0.00295341 0)
(3.01071 -0.00428393 0)
(3.01084 -0.00567837 0)
(3.01138 -0.00713256 0)
(3.01239 -0.00864415 0)
(3.01396 -0.0102168 0)
(3.01629 -0.0118625 0)
(3.01975 -0.01357 0)
(3.02487 -0.0152675 0)
(3.03226 -0.0171454 0)
(2.12578 -1.0967 0)
(2.08015 -1.08296 0)
(2.0312 -1.06995 0)
(1.97944 -1.05565 0)
(1.92527 -1.04168 0)
(1.87047 -1.02907 0)
(1.8172 -1.01954 0)
(1.76836 -1.01502 0)
(1.72698 -1.01759 0)
(1.69563 -1.02913 0)
(1.67554 -1.05088 0)
(1.66571 -1.0829 0)
(1.66241 -1.1237 0)
(1.65915 -1.17039 0)
(1.64726 -1.21925 0)
(1.61667 -1.2663 0)
(1.5562 -1.30662 0)
(1.45367 -1.33134 0)
(1.29511 -1.31536 0)
(1.06244 -1.19994 0)
(2.23422 -0.877452 0)
(2.21288 -0.861049 0)
(2.1902 -0.841436 0)
(2.16607 -0.819323 0)
(2.1387 -0.793617 0)
(2.10663 -0.76405 0)
(2.06858 -0.730293 0)
(2.02378 -0.692469 0)
(1.97232 -0.651137 0)
(1.91539 -0.60737 0)
(1.85562 -0.562723 0)
(1.79709 -0.519109 0)
(1.74525 -0.478611 0)
(1.70611 -0.443259 0)
(1.68464 -0.414673 0)
(1.6823 -0.393159 0)
(1.69365 -0.376833 0)
(1.70457 -0.361621 0)
(1.69297 -0.341453 0)
(1.63794 -0.30998 0)
(2.23016 -0.777671 0)
(2.19744 -0.765723 0)
(2.16706 -0.754863 0)
(2.13949 -0.744322 0)
(2.11555 -0.734538 0)
(2.09526 -0.725146 0)
(2.07808 -0.715787 0)
(2.06272 -0.705729 0)
(2.0472 -0.694024 0)
(2.029 -0.679543 0)
(2.00537 -0.661119 0)
(1.97366 -0.637712 0)
(1.93192 -0.608541 0)
(1.87937 -0.573154 0)
(1.81708 -0.531644 0)
(1.74846 -0.485289 0)
(1.67951 -0.435872 0)
(1.61869 -0.384676 0)
(1.57508 -0.331856 0)
(1.55432 -0.27638 0)
(2.39889 -0.576053 0)
(2.3782 -0.555229 0)
(2.35476 -0.532459 0)
(2.32813 -0.507827 0)
(2.29841 -0.481494 0)
(2.26622 -0.453917 0)
(2.23268 -0.425546 0)
(2.19939 -0.396924 0)
(2.16832 -0.368559 0)
(2.1416 -0.34087 0)
(2.1212 -0.314084 0)
(2.10851 -0.28813 0)
(2.10392 -0.262636 0)
(2.1065 -0.237004 0)
(2.11387 -0.210462 0)
(2.12235 -0.18202 0)
(2.12738 -0.150666 0)
(2.12428 -0.115855 0)
(2.10951 -0.0777752 0)
(2.0822 -0.0372791 0)
(2.39156 -0.546762 0)
(2.377 -0.534486 0)
(2.36397 -0.521968 0)
(2.35284 -0.508935 0)
(2.34292 -0.495089 0)
(2.33331 -0.480013 0)
(2.32288 -0.463294 0)
(2.3104 -0.444513 0)
(2.29472 -0.42331 0)
(2.27494 -0.399428 0)
(2.25054 -0.37281 0)
(2.22161 -0.34367 0)
(2.1889 -0.312432 0)
(2.15393 -0.279634 0)
(2.11894 -0.24583 0)
(2.08675 -0.211517 0)
(2.06037 -0.17701 0)
(2.04244 -0.142309 0)
(2.03443 -0.107072 0)
(2.03591 -0.0707159 0)
(2.54462 -0.378363 0)
(2.52746 -0.360051 0)
(2.50881 -0.340942 0)
(2.48896 -0.321156 0)
(2.46868 -0.30091 0)
(2.44891 -0.280447 0)
(2.43075 -0.259967 0)
(2.4153 -0.239616 0)
(2.40355 -0.219461 0)
(2.39621 -0.199479 0)
(2.39358 -0.179547 0)
(2.3954 -0.15943 0)
(2.40082 -0.138813 0)
(2.40845 -0.117367 0)
(2.41645 -0.0948089 0)
(2.42279 -0.0709437 0)
(2.42556 -0.045727 0)
(2.42331 -0.0193059 0)
(2.4154 0.00800926 0)
(2.40236 0.0357978 0)
(2.55231 -0.385843 0)
(2.54627 -0.373795 0)
(2.54096 -0.361164 0)
(2.53602 -0.347803 0)
(2.53081 -0.333508 0)
(2.52461 -0.318091 0)
(2.51675 -0.301405 0)
(2.50665 -0.283368 0)
(2.49392 -0.263982 0)
(2.47847 -0.24334 0)
(2.46049 -0.22161 0)
(2.44056 -0.199021 0)
(2.41961 -0.175826 0)
(2.39888 -0.152267 0)
(2.37985 -0.128536 0)
(2.36402 -0.104749 0)
(2.35273 -0.0809173 0)
(2.34686 -0.0569453 0)
(2.34661 -0.032658 0)
(2.35137 -0.00783392 0)
(2.67251 -0.252999 0)
(2.66053 -0.238646 0)
(2.64796 -0.223981 0)
(2.63544 -0.209113 0)
(2.62366 -0.194149 0)
(2.61328 -0.179182 0)
(2.60498 -0.16427 0)
(2.59931 -0.149426 0)
(2.59662 -0.134614 0)
(2.59702 -0.11975 0)
(2.60029 -0.104719 0)
(2.60591 -0.0893871 0)
(2.61307 -0.0736198 0)
(2.62071 -0.0573072 0)
(2.62769 -0.0403841 0)
(2.63289 -0.0228478 0)
(2.63537 -0.00476672 0)
(2.63455 0.0137227 0)
(2.63034 0.0324316 0)
(2.62319 0.0511622 0)
(2.68722 -0.27526 0)
(2.68501 -0.264706 0)
(2.68302 -0.253607 0)
(2.68074 -0.241928 0)
(2.67768 -0.229572 0)
(2.67339 -0.216486 0)
(2.6675 -0.202653 0)
(2.65977 -0.1881 0)
(2.65012 -0.17289 0)
(2.63868 -0.157123 0)
(2.6258 -0.14092 0)
(2.61204 -0.124411 0)
(2.59817 -0.107722 0)
(2.58507 -0.0909551 0)
(2.5737 -0.0741758 0)
(2.56492 -0.0574045 0)
(2.55941 -0.0406124 0)
(2.55755 -0.0237322 0)
(2.55929 -0.00666625 0)
(2.56419 0.0107072 0)
(2.779 -0.171461 0)
(2.77117 -0.160647 0)
(2.76328 -0.149733 0)
(2.75592 -0.138783 0)
(2.74958 -0.127846 0)
(2.74471 -0.116948 0)
(2.74167 -0.106088 0)
(2.74072 -0.095244 0)
(2.74195 -0.084373 0)
(2.74525 -0.0734161 0)
(2.75031 -0.0623063 0)
(2.75664 -0.0509773 0)
(2.76359 -0.0393742 0)
(2.77041 -0.0274633 0)
(2.77633 -0.015241 0)
(2.78066 -0.00273832 0)
(2.78287 0.00997826 0)
(2.78269 0.0228136 0)
(2.78014 0.0356565 0)
(2.77555 0.0483884 0)
(2.79308 -0.198081 0)
(2.79274 -0.189523 0)
(2.79226 -0.180554 0)
(2.79125 -0.171187 0)
(2.78936 -0.161377 0)
(2.78628 -0.151121 0)
(2.78181 -0.140438 0)
(2.77587 -0.129369 0)
(2.76848 -0.117972 0)
(2.75986 -0.106318 0)
(2.75034 -0.0944813 0)
(2.7404 -0.0825368 0)
(2.73063 -0.0705468 0)
(2.72169 -0.0585559 0)
(2.71422 -0.046585 0)
(2.70878 -0.034628 0)
(2.70576 -0.0226541 0)
(2.70535 -0.0106122 0)
(2.70747 0.00156199 0)
(2.71178 0.0139339 0)
(2.86306 -0.116617 0)
(2.85804 -0.108672 0)
(2.85329 -0.100702 0)
(2.84919 -0.092753 0)
(2.84608 -0.0848514 0)
(2.84425 -0.0769949 0)
(2.84392 -0.0691688 0)
(2.84519 -0.0613481 0)
(2.84803 -0.0534993 0)
(2.85228 -0.0455834 0)
(2.85764 -0.0375616 0)
(2.86369 -0.0294003 0)
(2.86992 -0.0210768 0)
(2.87578 -0.0125845 0)
(2.88074 -0.00393626 0)
(2.88432 0.00483646 0)
(2.88619 0.0136818 0)
(2.88621 0.0225322 0)
(2.88441 0.0313147 0)
(2.88107 0.0399581 0)
(2.87312 -0.141809 0)
(2.87373 -0.135297 0)
(2.87396 -0.128501 0)
(2.87358 -0.121434 0)
(2.87234 -0.114078 0)
(2.87004 -0.106443 0)
(2.86656 -0.0985568 0)
(2.86188 -0.0904541 0)
(2.85608 -0.0821791 0)
(2.84938 -0.0737798 0)
(2.84206 -0.0653037 0)
(2.83453 -0.0567931 0)
(2.82726 -0.0482805 0)
(2.82073 -0.0397851 0)
(2.81542 -0.0313099 0)
(2.8117 -0.022842 0)
(2.80984 -0.0143535 0)
(2.80995 -0.00580502 0)
(2.81193 0.00284808 0)
(2.81554 0.0116492 0)
(2.92584 -0.0755898 0)
(2.92266 -0.0700545 0)
(2.91991 -0.0645235 0)
(2.9178 -0.0590378 0)
(2.91658 -0.0536049 0)
(2.91642 -0.0482145 0)
(2.91745 -0.04285 0)
(2.9197 -0.0374899 0)
(2.9231 -0.0321093 0)
(2.92749 -0.0266823 0)
(2.93259 -0.0211854 0)
(2.93805 -0.0156009 0)
(2.94348 -0.00992007 0)
(2.94846 -0.00414546 0)
(2.95258 0.00170733 0)
(2.95553 0.00760995 0)
(2.95706 0.0135229 0)
(2.9571 0.0193988 0)
(2.9557 0.0251876 0)
(2.95305 0.0308413 0)
(2.93013 -0.0995177 0)
(2.93119 -0.0948722 0)
(2.93178 -0.0900295 0)
(2.93175 -0.0850018 0)
(2.93092 -0.0797851 0)
(2.92916 -0.0743913 0)
(2.9264 -0.0688432 0)
(2.92266 -0.0631693 0)
(2.91802 -0.0574015 0)
(2.91267 -0.0515722 0)
(2.90688 -0.0457114 0)
(2.90097 -0.0398443 0)
(2.89533 -0.0339877 0)
(2.89032 -0.0281486 0)
(2.88631 -0.0223229 0)
(2.88359 -0.0164959 0)
(2.88233 -0.0106433 0)
(2.8826 -0.00473465 0)
(2.88432 0.00126346 0)
(2.8873 0.00738262 0)
(2.96979 -0.045228 0)
(2.96779 -0.0416569 0)
(2.96626 -0.0380947 0)
(2.96532 -0.0345803 0)
(2.96515 -0.0311196 0)
(2.96585 -0.027701 0)
(2.9675 -0.0243083 0)
(2.9701 -0.0209239 0)
(2.97355 -0.0175289 0)
(2.9777 -0.0141057 0)
(2.98232 -0.010639 0)
(2.98712 -0.00711896 0)
(2.99178 -0.00354256 0)
(2.99597 8.47348e-05 0)
(2.99939 0.00374858 0)
(3.0018 0.00742611 0)
(3.00304 0.0110875 0)
(3.00305 0.0146985 0)
(3.00189 0.0182236 0)
(2.99971 0.0216298 0)
(2.96805 -0.0633986 0)
(2.96931 -0.0605453 0)
(2.97007 -0.0575601 0)
(2.97023 -0.0544412 0)
(2.96967 -0.0511903 0)
(2.96829 -0.0478212 0)
(2.96607 -0.0443527 0)
(2.96302 -0.0408061 0)
(2.95923 -0.0372043 0)
(2.95487 -0.0335696 0)
(2.95018 -0.0299217 0)
(2.94542 -0.0262756 0)
(2.94089 -0.0226399 0)
(2.93691 -0.019016 0)
(2.93376 -0.0153969 0)
(2.93165 -0.0117684 0)
(2.93073 -0.00811021 0)
(2.93103 -0.00439782 0)
(2.93249 -0.000605506 0)
(2.93495 0.00329085 0)
(2.99613 -0.0178259 0)
(2.99493 -0.0159758 0)
(2.99418 -0.0141498 0)
(2.99398 -0.0123742 0)
(2.99444 -0.0106535 0)
(2.99562 -0.00897796 0)
(2.99756 -0.0073341 0)
(3.00024 -0.00570739 0)
(3.00357 -0.00408306 0)
(3.00741 -0.00244767 0)
(3.01156 -0.000790611 0)
(3.01579 0.000894796 0)
(3.01983 0.00260938 0)
(3.02342 0.00434736 0)
(3.02633 0.00609694 0)
(3.02837 0.00784036 0)
(3.02942 0.00955519 0)
(3.02946 0.0112163 0)
(3.02852 0.0127983 0)
(3.02674 0.0142776 0)
(2.98903 -0.0349975 0)
(2.99034 -0.0336262 0)
(2.99115 -0.0322084 0)
(2.99141 -0.0307065 0)
(2.99102 -0.0291173 0)
(2.98992 -0.027454 0)
(2.98809 -0.025732 0)
(2.98557 -0.0239667 0)
(2.98244 -0.022174 0)
(2.97884 -0.0203687 0)
(2.97497 -0.0185632 0)
(2.97107 -0.0167661 0)
(2.96738 -0.014981 0)
(2.96417 -0.0132057 0)
(2.96164 -0.0114324 0)
(2.95999 -0.00964806 0)
(2.95932 -0.00783525 0)
(2.95967 -0.00597411 0)
(2.96097 -0.00404412 0)
(2.96309 -0.0020263 0)
(3.007 0.00552 0)
(3.00607 0.00578129 0)
(3.00556 0.00599925 0)
(3.00556 0.00615255 0)
(3.00612 0.00625144 0)
(3.0073 0.00630767 0)
(3.0091 0.00633169 0)
(3.0115 0.00633443 0)
(3.0144 0.00632685 0)
(3.01769 0.00631868 0)
(3.0212 0.0063173 0)
(3.02472 0.00632682 0)
(3.02804 0.00634731 0)
(3.03096 0.00637438 0)
(3.03329 0.00639925 0)
(3.03488 0.00640923 0)
(3.03564 0.00638866 0)
(3.03555 0.00632034 0)
(3.03466 0.00618712 0)
(3.03307 0.00597339 0)
(0.093586 -1.70281 0)
(0.296489 -1.34983 0)
(0.0976102 -0.978112 0)
(0.128437 -0.735806 0)
(0.0812848 -0.502234 0)
(0.0701913 -0.329065 0)
(0.0505471 -0.181199 0)
(0.0353886 -0.0705688 0)
(0.0219861 0.00959911 0)
(0.0102358 0.0601917 0)
(0.00148429 0.0865057 0)
(-0.00406635 0.0940604 0)
(-0.00677562 0.0885587 0)
(-0.00748611 0.075366 0)
(-0.00696125 0.0588594 0)
(-0.00588412 0.042045 0)
(-0.00467895 0.0266393 0)
(-0.00338318 0.0135592 0)
(-0.00166308 0.00359328 0)
(0.000439964 -0.000248229 0)
(0.627312 -2.36557 0)
(0.663715 -1.83424 0)
(0.403419 -1.55598 0)
(0.426685 -1.17614 0)
(0.303395 -0.900604 0)
(0.27527 -0.635354 0)
(0.211189 -0.413055 0)
(0.16226 -0.228087 0)
(0.114181 -0.080671 0)
(0.0705256 0.0272405 0)
(0.0335674 0.0981386 0)
(0.00542485 0.136846 0)
(-0.0135237 0.149078 0)
(-0.0241943 0.141497 0)
(-0.0284439 0.120933 0)
(-0.0283507 0.093694 0)
(-0.0256165 0.0646587 0)
(-0.0209235 0.0372698 0)
(-0.0137724 0.0144201 0)
(-0.00385776 0.00225339 0)
(1.06221 -2.3783 0)
(1.01116 -1.95467 0)
(0.78074 -1.73052 0)
(0.739137 -1.38196 0)
(0.600614 -1.12528 0)
(0.536776 -0.852892 0)
(0.436919 -0.619334 0)
(0.352481 -0.409792 0)
(0.264833 -0.233063 0)
(0.182504 -0.0914268 0)
(0.108247 0.0139861 0)
(0.0463459 0.0844585 0)
(-0.00075982 0.123424 0)
(-0.0325845 0.135885 0)
(-0.0508674 0.128078 0)
(-0.0582934 0.106709 0)
(-0.0576271 0.078105 0)
(-0.0504506 0.0475649 0)
(-0.0365251 0.0198975 0)
(-0.0145923 0.00369917 0)
(1.3456 -2.33165 0)
(1.26048 -2.02275 0)
(1.08185 -1.82456 0)
(1.00069 -1.54443 0)
(0.873593 -1.3044 0)
(0.780671 -1.0535 0)
(0.664749 -0.821504 0)
(0.553008 -0.604752 0)
(0.434679 -0.412063 0)
(0.318706 -0.247838 0)
(0.210041 -0.115925 0)
(0.114714 -0.0177703 0)
(0.0373364 0.0476413 0)
(-0.0200887 0.0837221 0)
(-0.0578979 0.0954083 0)
(-0.0784808 0.0885196 0)
(-0.0847894 0.0694424 0)
(-0.0786785 0.0442627 0)
(-0.0599078 0.0190401 0)
(-0.0261589 0.00360013 0)
(1.54703 -2.24908 0)
(1.45617 -2.03457 0)
(1.31603 -1.87484 0)
(1.22741 -1.65638 0)
(1.1136 -1.44818 0)
(1.01063 -1.22582 0)
(0.888778 -1.00683 0)
(0.759693 -0.792578 0)
(0.619262 -0.591868 0)
(0.475328 -0.411534 0)
(0.335231 -0.258314 0)
(0.207605 -0.136435 0)
(0.0993359 -0.0470869 0)
(0.014305 0.0113987 0)
(-0.046418 0.0430103 0)
(-0.0840979 0.0530743 0)
(-0.1014 0.0474309 0)
(-0.0998386 0.0322304 0)
(-0.0789405 0.0140786 0)
(-0.0357375 0.00256104 0)
(1.67909 -2.14252 0)
(1.59979 -2.0017 0)
(1.49031 -1.87993 0)
(1.41168 -1.71787 0)
(1.3152 -1.54838 0)
(1.21766 -1.36122 0)
(1.10025 -1.1651 0)
(0.966306 -0.962743 0)
(0.813823 -0.761972 0)
(0.649298 -0.571132 0)
(0.481872 -0.399771 0)
(0.323056 -0.255791 0)
(0.183175 -0.14371 0)
(0.069021 -0.0638543 0)
(-0.0167814 -0.0133166 0)
(-0.0744279 0.0131655 0)
(-0.105559 0.0214424 0)
(-0.111348 0.0174587 0)
(-0.0911022 0.00795605 0)
(-0.0418857 0.00134387 0)
(1.76272 -2.0309 0)
(1.70056 -1.93926 0)
(1.61535 -1.85163 0)
(1.55194 -1.73501 0)
(1.47553 -1.60561 0)
(1.39273 -1.45617 0)
(1.2893 -1.29056 0)
(1.16291 -1.1094 0)
(1.01056 -0.918159 0)
(0.836053 -0.72448 0)
(0.648428 -0.539267 0)
(0.461312 -0.37407 0)
(0.289245 -0.23819 0)
(0.143554 -0.135839 0)
(0.0300782 -0.0658291 0)
(-0.0500489 -0.0233401 0)
(-0.0974537 -0.0021024 0)
(-0.113084 0.00444955 0)
(-0.0962352 0.00293492 0)
(-0.0447231 0.00050256 0)
(1.82173 -1.92366 0)
(1.76884 -1.86296 0)