/*--------------------------------*- C++ -*----------------------------------*\
| =========                 |                                                 |
| \\      /  F ield         | OpenFOAM: The Open Source CFD Toolbox           |
|  \\    /   O peration     | Version:  v1806                                 |
|   \\  /    A nd           | Web:      www.OpenFOAM.com                      |
|    \\/     M anipulation  |                                                 |
\*---------------------------------------------------------------------------*/
FoamFile
{
    version     2.0;
    format      ascii;
    class       volScalarField;
    location    "3";
    object      p;
}
// * * * * * * * * * * * * * * * * * * * * * * * * * * * * * * * * * * * * * //

dimensions      [0 2 -2 0 0 0 0];


internalField   nonuniform List<scalar> 
2400
(
0.03477
0.0374343
0.0420119
0.0472146
0.0677415
0.103612
0.131084
0.150013
0.163431
0.165665
0.157872
0.143469
0.125421
0.106082
0.0874274
0.070765
0.0565953
0.0449216
0.035441
0.0278571
0.105248
0.109259
0.120253
0.147388
0.197808
0.26938
0.343189
0.404964
0.44498
0.453977
0.434112
0.394237
0.344959
0.293747
0.244913
0.200745
0.1624
0.130159
0.103465
0.0817364
0.173075
0.181628
0.199142
0.238343
0.310471
0.41774
0.538476
0.634465
0.687559
0.701151
0.677616
0.622265
0.547984
0.46786
0.391052
0.321812
0.261668
0.210774
0.168288
0.133385
0.237809
0.250359
0.273567
0.327194
0.418148
0.545796
0.696283
0.819753
0.889159
0.907357
0.878594
0.813327
0.72386
0.623925
0.5252
0.434559
0.354963
0.287057
0.22997
0.182744
0.300567
0.316916
0.345183
0.410194
0.513139
0.65493
0.820522
0.963729
1.06098
1.09809
1.0681
0.989132
0.8806
0.762285
0.645673
0.537488
0.441304
0.358398
0.288107
0.229524
0.360798
0.379509
0.415617
0.48719
0.600235
0.757699
0.930279
1.08793
1.19692
1.24219
1.21928
1.13972
1.02201
0.888893
0.756161
0.632235
0.521263
0.424888
0.342601
0.273572
0.417989
0.439877
0.480367
0.55982
0.680325
0.841106
1.03225
1.21478
1.34487
1.38962
1.35787
1.26723
1.14149
0.999123
0.854806
0.718212
0.594616
0.486375
0.393301
0.314737
0.472087
0.493688
0.538395
0.627561
0.755216
0.930989
1.14121
1.31764
1.43625
1.49542
1.4765
1.38564
1.25153
1.09895
0.943821
0.796145
0.661558
0.542854
0.440121
0.352906
0.519508
0.546408
0.595166
0.685769
0.81737
0.999088
1.2159
1.39541
1.53189
1.59422
1.56994
1.47881
1.34352
1.18579
1.02282
0.866099
0.722146
0.594316
0.483002
0.387998
0.567515
0.592495
0.642876
0.743596
0.882375
1.05016
1.23891
1.44262
1.61105
1.69272
1.67017
1.57007
1.4272
1.26289
1.09286
0.928457
0.776518
0.640787
0.521913
0.419957
0.605947
0.63476
0.689505
0.78987
0.927688
1.12251
1.36764
1.56909
1.69301
1.7533
1.72973
1.63728
1.49627
1.32919
1.15405
0.983423
0.824788
0.682311
0.556853
0.448759
0.644011
0.672325
0.726851
0.834474
0.98014
1.14908
1.34027
1.5572
1.74131
1.81896
1.7985
1.70183
1.5573
1.38658
1.20702
1.03127
0.867086
0.718947
0.587844
0.474417
0.674192
0.704161
0.762619
0.870384
1.01225
1.2031
1.45022
1.66465
1.80453
1.86866
1.84638
1.75191
1.60748
1.43483
1.25201
1.07219
0.903526
0.750763
0.614936
0.496989
0.701476
0.731747
0.789817
0.901611
1.05151
1.22814
1.43732
1.65871
1.83205
1.90797
1.88857
1.79443
1.64913
1.47474
1.28935
1.10638
0.934212
0.777833
0.638208
0.516593
0.72252
0.753279
0.813784
0.926708
1.07164
1.25865
1.49817
1.71765
1.87232
1.94189
1.92177
1.82772
1.68207
1.50652
1.31927
1.13397
0.959224
0.800226
0.657768
0.533395
0.739065
0.770131
0.830809
0.945373
1.09637
1.27845
1.50164
1.72454
1.89073
1.96476
1.94621
1.85265
1.70681
1.53047
1.34194
1.15505
0.978611
0.817994
0.673805
0.547416
0.750074
0.781238
0.843055
0.958738
1.10661
1.29163
1.52411
1.74655
1.90888
1.98167
1.96305
1.86957
1.72359
1.54678
1.35748
1.16968
0.992377
0.831149
0.686459
0.560622
0.755955
0.787147
0.849469
0.965567
1.11546
1.29992
1.52985
1.75279
1.91669
1.99019
1.97191
1.87859
1.73257
1.55557
1.36596
1.17785
1.00049
0.839649
0.695923
0.568429
0.756435
0.787524
0.850492
0.966693
1.11562
1.30051
1.5313
1.75457
1.91823
1.99154
1.97318
1.87984
1.73383
1.55687
1.36737
1.17953
1.00283
0.843447
0.703382
0.584885
0.751448
0.782609
0.846121
0.961697
1.11032
1.29545
1.52588
1.74894
1.9123
1.98536
1.96677
1.87332
1.72738
1.55069
1.36168
1.1746
0.999178
0.841803
0.706644
0.58287
0.0243929
0.0237463
0.0231122
0.0224923
0.0218863
0.0212935
0.0207135
0.0201458
0.0195898
0.0190446
0.0716956
0.0698185
0.0679804
0.0661825
0.0644236
0.0627022
0.0610173
0.0593678
0.0577526
0.056171
0.117182
0.114152
0.111182
0.108274
0.105427
0.102638
0.0999064
0.0972301
0.094608
0.0920393
0.16074
0.156624
0.152586
0.148629
0.144752
0.140952
0.137228
0.133577
0.129998
0.12649
0.202111
0.19698
0.191944
0.187005
0.182162
0.177413
0.172756
0.168188
0.163709
0.159315
0.24113
0.235056
0.229089
0.223235
0.217491
0.211855
0.206326
0.200899
0.195575
0.19035
0.277645
0.270697
0.263869
0.257165
0.250585
0.244125
0.237784
0.231558
0.225447
0.219447
0.311531
0.303778
0.296156
0.288668
0.281315
0.274094
0.267001
0.260036
0.253195
0.246476
0.342687
0.334195
0.325844
0.317636
0.309573
0.30165
0.293865
0.286217
0.278703
0.271322
0.371034
0.361864
0.352845
0.343978
0.335263
0.326696
0.318276
0.310002
0.30187
0.293879
0.396511
0.386717
0.377087
0.367616
0.358304
0.349147
0.340145
0.331296
0.322598
0.314049
0.419072
0.4087
0.398507
0.388483
0.378621
0.368922
0.359385
0.350008
0.340792
0.331733
0.438686
0.427767
0.417051
0.406511
0.39614
0.385937
0.375904
0.366041
0.356346
0.346819
0.455337
0.443881
0.432663
0.421633
0.410776
0.400094
0.389592
0.379271
0.369131
0.359171
0.469026
0.457027
0.445307
0.433787
0.422441
0.411277
0.400306
0.38953
0.37895
0.368571
0.479581
0.466992
0.454761
0.442746
0.430906
0.41926
0.407825
0.396611
0.385621
0.374864
0.487818
0.474436
0.461516
0.448815
0.436282
0.423948
0.411842
0.399976
0.388361
0.377024
0.49164
0.477602
0.464095
0.450782
0.437602
0.42461
0.411856
0.399378
0.387216
0.37543
0.495651
0.480049
0.465407
0.450915
0.436455
0.422089
0.407838
0.393723
0.379705
0.365963
0.493187
0.477214
0.461815
0.446346
0.430691
0.414824
0.39867
0.382072
0.36489
0.346795
0.0180443
0.0166714
0.0153777
0.0141561
0.0130007
0.0119065
0.0108684
0.00988172
0.00894197
0.00804472
0.0071856
0.00636027
0.00556434
0.00479332
0.00404253
0.00330687
0.00258063
0.00185697
0.00112695
0.000379317
0.0532696
0.0492549
0.0454601
0.0418691
0.0384672
0.0352405
0.0321755
0.0292591
0.0264786
0.0238214
0.0212751
0.018827
0.0164647
0.0141751
0.0119448
0.0097595
0.00760338
0.00545832
0.00330196
0.00110824
0.0873229
0.080781
0.074588
0.0687196
0.0631535
0.0578683
0.052843
0.048057
0.0434903
0.0391227
0.0349343
0.0309053
0.0270153
0.0232438
0.0195693
0.0159697
0.0124207
0.00889599
0.00536524
0.00179584
0.120045
0.111092
0.102607
0.0945587
0.086917
0.0796545
0.0727435
0.066157
0.059868
0.0538497
0.0480755
0.0425184
0.0371514
0.0319468
0.0268765
0.0219109
0.0170193
0.0121689
0.00732394
0.00244711
0.151238
0.140004
0.129345
0.119224
0.109607
0.100459
0.0917484
0.0834414
0.0755053
0.0679073
0.0606144
0.0535936
0.0468115
0.0402342
0.0338274
0.0275556
0.0213823
0.0152694
0.00917668
0.00306256
0.180741
0.16736
0.154652
0.142574
0.131089
0.120157
0.109741
0.0998033
0.090305
0.0812081
0.072474
0.0640639
0.0559388
0.0480593
0.0403854
0.0328764
0.0254908
0.018186
0.0109179
0.00364045
0.208408
0.19302
0.178392
0.164479
0.15124
0.138633
0.126615
0.115145
0.104178
0.0936722
0.0835835
0.0738678
0.0644811
0.0553787
0.0465158
0.0378469
0.0293261
0.0209066
0.0125409
0.00417865
0.234109
0.216855
0.20044
0.18482
0.169948
0.155781
0.142272
0.129375
0.117042
0.105226
0.0938779
0.082949
0.0723903
0.0621526
0.0521864
0.0424422
0.0328698
0.0234189
0.0140386
0.00467498
0.257729
0.23875
0.220685
0.203487
0.187109
0.171503
0.15662
0.14241
0.128822
0.115802
0.103298
0.0912558
0.0796225
0.0683444
0.0573679
0.0466393
0.036105
0.0257114
0.0154047
0.00512739
0.27916
0.258598
0.23902
0.220378
0.202623
0.185706
0.169574
0.154173
0.139446
0.125337
0.111788
0.0987413
0.0861382
0.0739214
0.0620336
0.0504176
0.0390165
0.0277738
0.0166331
0.00553402
0.298299
0.276293
0.255339
0.23539
0.216395
0.198301
0.181052
0.164589
0.148851
0.133776
0.119301
0.105364
0.0919022
0.0788548
0.0661605
0.0537592
0.0415912
0.0295972
0.0177189
0.00589328
0.315042
0.291726
0.269535
0.248421
0.228328
0.209201
0.190977
0.17359
0.156976
0.141065
0.125791
0.111086
0.0968843
0.08312
0.0697293
0.0566494
0.0438182
0.0311743
0.0186579
0.00620391
0.32927
0.304776
0.28149
0.259359
0.238323
0.218316
0.19927
0.181111
0.163766
0.14716
0.131222
0.115878
0.10106
0.0866975
0.0727249
0.0590768
0.0456894
0.0324999
0.0194471
0.006465
0.340832
0.315293
0.291066
0.268084
0.246273
0.225558
0.205858
0.18709
0.169172
0.152022
0.135563
0.119717
0.104411
0.0895739
0.0751371
0.061034
0.0471996
0.0335705
0.0200848
0.00667603
0.34948
0.323022
0.298026
0.274392
0.252021
0.230808
0.210656
0.191468
0.173153
0.155622
0.138794
0.122587
0.106928
0.0917424
0.0769615
0.0625182
0.0483473
0.0343853
0.0205706
0.00683694
0.35512
0.328008
0.302491
0.27841
0.255659
0.234123
0.21369
0.194252
0.175706
0.157956
0.140911
0.124489
0.108611
0.0932049
0.0782006
0.0635318
0.0491344
0.0349458
0.0209055
0.00694809
0.356267
0.32868
0.303017
0.278977
0.256353
0.234951
0.214626
0.195259
0.176744
0.158988
0.141908
0.125426
0.10947
0.093971
0.0788629
0.0640821
0.0495668
0.0352563
0.021092
0.0070103
0.353952
0.327186
0.30186
0.277996
0.255538
0.234285
0.214106
0.19488
0.176495
0.158851
0.141861
0.125447
0.109536
0.0940635
0.0789653
0.0641816
0.0496534
0.0353228
0.0211337
0.00702474
0.33929
0.316375
0.293094
0.271254
0.250417
0.230392
0.211135
0.192595
0.174719
0.157455
0.140756
0.124568
0.108838
0.0935105
0.0785327
0.0638502
0.0494091
0.0351555
0.0210364
0.00699318
0.314813
0.306726
0.285784
0.265562
0.245507
0.226064
0.20737
0.189354
0.171952
0.15511
0.138775
0.122902
0.107445
0.0923597
0.0775975
0.0631106
0.0488497
0.0347647
0.0208059
0.00691712
0.260778
0.283859
0.270768
0.256657
0.239146
0.221351
0.203685
0.186357
0.169451
0.152991
0.136968
0.121361
0.106139
0.0912641
0.0766958
0.0623896
0.0482996
0.0343777
0.0205776
0.00683931
0.2688
0.279266
0.266922
0.25363
0.236703
0.21939
0.202064
0.184992
0.168288
0.151992
0.136108
0.120623
0.10551
0.0907348
0.0762588
0.0620394
0.048032
0.0341891
0.0204661
0.00680174
0.266309
0.275278
0.263524
0.250777
0.234345
0.21744
0.200415
0.18358
0.167069
0.150935
0.135193
0.119833
0.104834
0.0901636
0.075786
0.0616597
0.0477413
0.0339842
0.0203447
0.00676133
0.265467
0.271968
0.260469
0.248055
0.232035
0.215478
0.198728
0.182117
0.165794
0.149822
0.134222
0.118991
0.10411
0.0895509
0.0752776
0.0612508
0.0474277
0.0337629
0.0202133
0.00671783
0.264693
0.269342
0.257833
0.245537
0.229809
0.213528
0.197017
0.180612
0.164467
0.148654
0.133198
0.118099
0.103341
0.0888975
0.0747343
0.0608129
0.0470916
0.0335254
0.0200722
0.0066712
0.263956
0.267322
0.255601
0.243239
0.227685
0.211602
0.195289
0.179069
0.163093
0.147435
0.132122
0.117158
0.102527
0.0882041
0.0741566
0.0603466
0.0467332
0.0332721
0.0199215
0.00662145
0.263472
0.265864
0.253732
0.241153
0.225661
0.209705
0.19355
0.177491
0.161673
0.146166
0.130997
0.116169
0.101669
0.0874713
0.0735448
0.0598521
0.0463527
0.0330029
0.0197613
0.00656862
0.262179
0.264945
0.252199
0.239257
0.223729
0.207833
0.191798
0.175881
0.16021
0.144848
0.129822
0.115133
0.100767
0.0866996
0.0728996
0.0593298
0.0459504
0.0327181
0.0195917
0.00651274
0.264551
0.264838
0.25099
0.237521
0.221874
0.20598
0.190033
0.174237
0.158703
0.143483
0.128599
0.11405
0.0998219
0.0858895
0.072221
0.05878
0.0455265
0.0324178
0.0194126
0.00645387
0.25907
0.264401
0.249945
0.235908
0.220081
0.204141
0.18825
0.172559
0.157151
0.142069
0.127327
0.112921
0.0988342
0.085041
0.0715094
0.0582027
0.0450811
0.0321021
0.0192241
0.00639224
0.278109
0.267457
0.249515
0.233487
0.217179
0.201072
0.185228
0.169684
0.154477
0.13962
0.125116
0.110952
0.0971082
0.0835559
0.0702622
0.0571899
0.0442991
0.0315475
0.0188927
0.00628422
0.279288
0.264671
0.246484
0.229479
0.212797
0.196549
0.180757
0.165395
0.15045
0.135906
0.121742
0.107933
0.0944516
0.0812633
0.0683324
0.0556199
0.043085
0.0306854
0.0183781
0.00611423
0.282725
0.26293
0.243398
0.225269
0.208102
0.191704
0.17596
0.160783
0.146108
0.131888
0.118081
0.10465
0.0915559
0.0787598
0.0662217
0.0539007
0.0417545
0.0297399
0.0178136
0.0059272
0.27885
0.257961
0.238257
0.219906
0.202643
0.186285
0.170696
0.155761
0.141397
0.127533
0.114115
0.101091
0.0884144
0.0760416
0.0639286
0.0520317
0.0403072
0.0287109
0.0171992
0.00572343
0.273034
0.251758
0.231968
0.213592
0.196411
0.180228
0.164891
0.150273
0.136275
0.122814
0.109823
0.0972424
0.0850193
0.0731043
0.0614503
0.0500114
0.0387424
0.0275983
0.0165346
0.00550297
0.264683
0.243706
0.22425
0.206173
0.189297
0.173449
0.158482
0.14427
0.130706
0.117704
0.105188
0.0930936
0.0813629
0.0699429
0.058784
0.0478382
0.0370593
0.0264014
0.0158198
0.00526576
0.254355
0.234056
0.2152
0.197654
0.181272
0.16591
0.151432
0.137718
0.124665
0.112184
0.100196
0.0886345
0.0774387
0.0665534
0.0559271
0.0455107
0.035257
0.02512
0.0150544
0.00501177
0.242317
0.222941
0.20489
0.188061
0.172338
0.157598
0.143722
0.1306
0.118136
0.10624
0.0948371
0.0838583
0.0732423
0.0629329
0.0528778
0.0430278
0.0333351
0.0237538
0.0142384
0.00474098
0.228764
0.210478
0.193396
0.177439
0.162513
0.148517
0.135349
0.12291
0.111111
0.0998676
0.0891069
0.0787617
0.0687714
0.05908
0.0496357
0.0403893
0.0312936
0.0223027
0.0133718
0.00445339
0.213851
0.196781
0.180797
0.165838
0.151828
0.138686
0.126323
0.114652
0.103592
0.0930664
0.0830054
0.073345
0.0640265
0.0549955
0.0462014
0.037596
0.029133
0.0207673
0.0124548
0.00414908
0.197707
0.181953
0.167171
0.153315
0.140326
0.128133
0.116662
0.105838
0.0955885
0.0858431
0.0765376
0.067612
0.0590108
0.0506821
0.0425772
0.0346496
0.0268547
0.0191485
0.0114881
0.00382822
0.18044
0.166083
0.152593
0.139932
0.128051
0.116893
0.106394
0.0964894
0.0871153
0.0782093
0.0697126
0.0615703
0.0537304
0.0461447
0.0387669
0.0315532
0.0244608
0.0174477
0.0104722
0.00349103
0.162144
0.149257
0.137135
0.125747
0.115053
0.105005
0.095549
0.0866303
0.0781927
0.0701813
0.0625438
0.0552304
0.0481941
0.0413901
0.034776
0.0283107
0.0219542
0.0156668
0.00940839
0.00313783
0.142904
0.131552
0.120867
0.110822
0.101384
0.0925128
0.0841643
0.0762911
0.0688454
0.0617797
0.055048
0.0486064
0.0424129
0.0364274
0.0306113
0.0249274
0.0193386
0.0138079
0.00829775
0.00276898
0.122799
0.113043
0.103856
0.0952167
0.0870967
0.0794631
0.0722792
0.0655056
0.0591021
0.0530284
0.0472452
0.0417147
0.0364004
0.0312672
0.0262813
0.0214093
0.0166181
0.0118739
0.00714168
0.00238489
0.101902
0.0938002
0.0861699
0.0789929
0.0722467
0.0659045
0.0599366
0.0543109
0.0489946
0.0439546
0.0391585
0.0345746
0.0301724
0.0259223
0.0217955
0.0177634
0.0137973
0.00986736
0.00594151
0.00198598
0.0802879
0.0738948
0.0678746
0.0622124
0.0568905
0.051888
0.0471818
0.042747
0.038558
0.0345887
0.0308136
0.0272076
0.0237465
0.0204065
0.0171646
0.0139974
0.0108813
0.0077909
0.00469821
0.00157242
0.0580289
0.0533975
0.0490379
0.0449386
0.0410867
0.0374671
0.0340632
0.030857
0.0278299
0.0249634
0.0222387
0.0196376
0.0171424
0.0147357
0.0124005
0.0101195
0.00787473
0.00564651
0.00341186
0.00114391
0.0351997
0.0323805
0.0297285
0.0272361
0.0248954
0.0226971
0.0206309
0.0186859
0.0168508
0.0151141
0.0134644
0.0118906
0.0103817
0.00892716
0.00751638
0.00613862
0.00478252
0.0034353
0.00208101
0.000699293
0.011874
0.0109164
0.0100179
0.00917434
0.00838286
0.00764012
0.00694258
0.00628646
0.00566791
0.00508299
0.00452783
0.0039986
0.00349158
0.00300314
0.00252964
0.00206737
0.00161237
0.00116004
0.000704393
0.000237173
0.382435
0.3746
0.365486
0.35542
0.345381
0.335436
0.325497
0.31553
0.305516
0.29537
0.395605
0.382472
0.371346
0.360214
0.349227
0.338549
0.328139
0.317923
0.307869
0.29802
0.394825
0.381716
0.370479
0.359332
0.348343
0.337722
0.327489
0.317619
0.308129
0.299057
0.389793
0.3773
0.366148
0.355152
0.344337
0.33386
0.323747
0.313974
0.304525
0.295407
0.379966
0.368219
0.357466
0.346901
0.33652
0.326431
0.316659
0.307191
0.298022
0.28915
0.366752
0.355818
0.345615
0.335592
0.325738
0.31613
0.306787
0.297704
0.288876
0.280303
0.351001
0.340848
0.331235
0.321791
0.312504
0.303424
0.294568
0.285934
0.277519
0.269323
0.333188
0.323774
0.314769
0.305921
0.297217
0.288694
0.280363
0.272223
0.264273
0.256513
0.313615
0.304911
0.296523
0.28828
0.280172
0.272223
0.264442
0.256827
0.24938
0.2421
0.292482
0.284471
0.276708
0.26908
0.261578
0.254219
0.247007
0.239943
0.233028
0.22626
0.269928
0.262602
0.255476
0.248475
0.241592
0.234837
0.228213
0.221721
0.215362
0.209134
0.246055
0.239417
0.232944
0.226584
0.220334
0.214199
0.208182
0.202283
0.196501
0.190837
0.220945
0.215005
0.209202
0.203502
0.197902
0.192406
0.187015
0.181728
0.176546
0.171468
0.19467
0.189443
0.18433
0.179311
0.174381
0.169543
0.164798
0.160145
0.155583
0.151113
0.167295
0.162801
0.158402
0.154085
0.149847
0.145689
0.141611
0.137612
0.133693
0.129852
0.138885
0.135147
0.131488
0.127897
0.124373
0.120917
0.117529
0.114206
0.11095
0.10776
0.109508
0.106552
0.103657
0.100817
0.0980323
0.0953017
0.0926248
0.0900011
0.08743
0.0849114
0.0792313
0.0770834
0.0749806
0.0729189
0.0708976
0.0689162
0.0669743
0.0650713
0.0632068
0.0613805
0.0481408
0.0468273
0.0455418
0.0442822
0.043048
0.0418387
0.0406538
0.0394931
0.038356
0.0372423
0.0162909
0.0158467
0.0154093
0.01498
0.0145594
0.0141471
0.0137431
0.0133472
0.0129587
0.0125765
0.689012
0.718652
0.779757
0.890134
1.03518
1.21881
1.44557
1.66511
1.82497
1.89456
1.87317
1.77861
1.63378
1.46057
1.27708
1.09696
0.929091
0.778987
0.64966
0.519947
0.670688
0.699412
0.759222
0.868626
1.01135
1.19406
1.42249
1.64131
1.79844
1.86592
1.84352
1.74877
1.60447
1.43248
1.25078
1.0728
0.906948
0.758397
0.626634
0.507155
0.650023
0.678157
0.736218
0.843539
0.987506
1.16847
1.39004
1.60651
1.76502
1.8327
1.80984
1.71483
1.5711
1.40053
1.22094
1.04548
0.882074
0.735702
0.60402
0.489754
0.627044
0.654245
0.711366
0.816871
0.955503
1.13753
1.36609
1.57954
1.73103
1.79516
1.77097
1.67609
1.53334
1.36457
1.18749
1.01498
0.854539
0.710981
0.581075
0.471131
0.602248
0.628705
0.683127
0.786417
0.927225
1.10448
1.32096
1.53351
1.68849
1.75347
1.72861
1.63319
1.49123
1.32451
1.15036
0.98128
0.824366
0.684237
0.557387
0.451467
0.574597
0.600346
0.653926
0.753919
0.888898
1.06841
1.2913
1.4969
1.64432
1.7051
1.67907
1.58441
1.44418
1.28011
1.10943
0.944336
0.791549
0.65546
0.532637
0.430653
0.546154
0.570363
0.620844
0.718777
0.853521
1.02819
1.24395
1.44836
1.59278
1.6527
1.62605
1.53125
1.39243
1.2313
1.06462
0.904094
0.756064
0.624626
0.506585
0.408726
0.514134
0.538174
0.587082
0.680155
0.81077
0.98411
1.19568
1.39559
1.53768
1.59406
1.56539
1.47137
1.3351
1.17774
1.01577
0.86049
0.717878
0.591707
0.479075
0.385696
0.481854
0.503671
0.549574
0.640362
0.767081
0.937392
1.14669
1.33878
1.47262
1.52668
1.49909
1.40639
1.2726
1.11939
0.962784
0.813453
0.676953
0.556677
0.450005
0.361531
0.446573
0.467978
0.511204
0.596248
0.720147
0.885089
1.08867
1.27781
1.40794
1.45611
1.4255
1.33362
1.20361
1.05577
0.905466
0.7629
0.633247
0.51951
0.419311
0.336193
0.410214
0.429516
0.470231
0.550452
0.668769
0.83092
1.02727
1.20732
1.32872
1.37327
1.34369
1.25491
1.12905
0.986975
0.843727
0.708758
0.586722
0.480186
0.386957
0.309656
0.372008
0.390135
0.42656
0.502197
0.615441
0.77035
0.957634
1.1282
1.24478
1.2866
1.25514
1.16763
1.04687
0.912179
0.777284
0.650924
0.537339
0.438692
0.35293
0.281904
0.332216
0.348651
0.381882
0.450982
0.557814
0.706478
0.885058
1.04453
1.14998
1.18556
1.1544
1.07209
0.958349
0.831844
0.706156
0.589348
0.485072
0.39502
0.317235
0.252938
0.291766
0.305436
0.335024
0.397808
0.496792
0.636999
0.804217
0.951517
1.04639
1.07779
1.04683
0.968028
0.86131
0.744614
0.629829
0.523875
0.429883
0.34917
0.279891
0.222771
0.249182
0.26136
0.286693
0.34171
0.432163
0.56263
0.714333
0.845693
0.929456
0.955209
0.924612
0.852362
0.756217
0.651317
0.548623
0.454568
0.371786
0.301162
0.24093
0.191427
0.20553
0.215995
0.236974
0.284088
0.363349
0.479665
0.614095
0.728688
0.800817
0.821336
0.793054
0.728165
0.642591
0.550511
0.461655
0.3811
0.310706
0.251004
0.200391
0.158944
0.161444
0.169147
0.18549
0.22367
0.292396
0.391787
0.504364
0.596489
0.654239
0.67036
0.645247
0.589635
0.518103
0.442254
0.369467
0.303797
0.246793
0.198776
0.158337
0.125369
0.116309
0.121315
0.133644
0.161625
0.214689
0.29399
0.381688
0.44988
0.492489
0.504132
0.48359
0.440248
0.38508
0.326842
0.271488
0.222175
0.179834
0.144439
0.114804
0.09075
0.0705198
0.0729507
0.0802366
0.0983581
0.134936
0.188014
0.243355
0.28511
0.311072
0.317417
0.303435
0.275083
0.239241
0.201979
0.167152
0.136421
0.110128
0.0882123
0.0699384
0.0551797
0.0230996
0.0249845
0.0280279
0.0314862
0.0448547
0.0684936
0.0893866
0.103241
0.111197
0.112875
0.107731
0.0973128
0.0841896
0.0707007
0.0581782
0.0471744
0.0378251
0.0301153
0.0237584
0.0186817
0.744843
0.775869
0.839804
0.954667
1.10271
1.28799
1.51807
1.74102
1.90389
1.97657
1.95765
1.86405
1.71819
1.54184
1.3534
1.16709
0.992785
0.837207
0.709998
0.606134
0.741473
0.772498
0.836525
0.951032
1.09882
1.28414
1.51403
1.7369
1.89955
1.97204
1.95295
1.85927
1.71346
1.53728
1.34912
1.16321
0.989417
0.834584
0.709008
0.605524
0.737706
0.768732
0.832752
0.94689
1.09444
1.27975
1.5094
1.73216
1.89459
1.96686
1.9476
1.85384
1.70807
1.53209
1.34426
1.15876
0.985507
0.831345
0.707063
0.606298
0.733556
0.764542
0.82848
0.942249
1.08955
1.27478
1.50421
1.72682
1.88902
1.96105
1.94158
1.84774
1.70204
1.52627
1.3388
1.15376
0.981051
0.827499
0.704153
0.603903
0.729018
0.759925
0.823715
0.937109
1.08414
1.26927
1.49845
1.72087
1.88282
1.95459
1.93491
1.84098
1.69535
1.51983
1.33274
1.1482
0.976047
0.82305
0.700236
0.599569
0.72409
0.754884
0.818464
0.931469
1.07821
1.2632
1.49214
1.71432
1.87599
1.94747
1.92757
1.83355
1.688
1.51274
1.32608
1.14208
0.970496
0.818
0.695326
0.593259
0.718774
0.749422
0.812727
0.925326
1.07177
1.25658
1.48525
1.70714
1.86853
1.93969
1.91955
1.82543
1.67998
1.50501
1.31881
1.13539
0.964398
0.812358
0.689446
0.584927
0.713074
0.743539
0.806501
0.918682
1.06482
1.24941
1.47779
1.69934
1.86041
1.93125
1.91084
1.81663
1.67128
1.49664
1.31094
1.12814
0.957757
0.806138
0.682615
0.574556
0.706992
0.73724
0.799785
0.911542
1.05734
1.24167
1.46975
1.69089
1.85162
1.92211
1.90144
1.80713
1.6619
1.48761
1.30246
1.12033
0.950578
0.79936
0.674853
0.562121
0.700526
0.730538
0.792577
0.903893
1.04938
1.23335
1.4611
1.68186
1.84223
1.9123
1.89133
1.79692
1.65183
1.47792
1.29336
1.11195
0.94287
0.792049
0.666166
0.547598
)
;

boundaryField
{
    inlet
    {
        type            zeroGradient;
    }
    outlet
    {
        type            fixedValue;
        value           uniform 0;
    }
    upAndBottom
    {
        type            empty;
    }
    obstacle
    {
        type            zeroGradient;
    }
}


// ************************************************************************* //
