/*--------------------------------*- C++ -*----------------------------------*\
| =========                 |                                                 |
| \\      /  F ield         | OpenFOAM: The Open Source CFD Toolbox           |
|  \\    /   O peration     | Version:  v1806                                 |
|   \\  /    A nd           | Web:      www.OpenFOAM.com                      |
|    \\/     M anipulation  |                                                 |
\*---------------------------------------------------------------------------*/
FoamFile
{
    version     2.0;
    format      ascii;
    class       volScalarField;
    location    "80";
    object      p;
}
// * * * * * * * * * * * * * * * * * * * * * * * * * * * * * * * * * * * * * //

dimensions      [0 2 -2 0 0 0 0];


internalField   nonuniform List<scalar> 
4400
(
-0.00557822
0.00721881
0.00670328
0.0052187
0.00460786
0.00427359
0.00395804
0.00364942
0.00335018
0.00305409
0.00275735
0.0024598
0.00216235
0.00186575
0.00157052
0.0012771
0.000985964
0.000697581
0.00041148
0.0001276
0.0221023
0.0162495
0.0120069
0.00925263
0.00766537
0.00662646
0.00581419
0.00513192
0.00454417
0.00402474
0.00355274
0.00311418
0.00270022
0.00230499
0.00192436
0.00155534
0.00119581
0.000844158
0.00049822
0.000157154
0.0271497
0.0205985
0.0161085
0.0128147
0.0104525
0.00876119
0.00749041
0.00648213
0.00564834
0.00493534
0.00430736
0.00374041
0.00321845
0.00273047
0.00226858
0.00182695
0.00140123
0.000987952
0.000583576
0.000186301
0.0293439
0.0230853
0.0183877
0.0148877
0.0123018
0.0103624
0.00885615
0.0076401
0.00662688
0.00576053
0.00500215
0.0043239
0.00370584
0.00313363
0.0025967
0.0020871
0.00159872
0.00112663
0.000666139
0.000214509
0.0282569
0.0234706
0.0194768
0.0162562
0.0136837
0.0116304
0.00997438
0.00861303
0.00746883
0.00648597
0.00562418
0.00485402
0.00415388
0.00350772
0.00290345
0.00233176
0.00178533
0.00125816
0.000744686
0.000241377
0.0269645
0.0232981
0.0198976
0.0169656
0.0145168
0.0124904
0.0108039
0.00938199
0.0081641
0.00710404
0.00616654
0.00532451
0.00455707
0.00384809
0.00318501
0.00255789
0.00195875
0.00138091
0.000818234
0.000266579
0.0253447
0.0225382
0.019767
0.0172373
0.0150092
0.01308
0.0114177
0.00997977
0.00872508
0.00761778
0.00662836
0.005733
0.00491263
0.00415201
0.00343892
0.00276342
0.00211734
0.0014937
0.000886051
0.000289863
0.0238776
0.0216916
0.0194109
0.0172235
0.015218
0.0134215
0.0118281
0.0104161
0.00915914
0.00803192
0.00701199
0.00608015
0.00522017
0.00441856
0.00366406
0.00294724
0.00226013
0.00159576
0.000947656
0.000311058
0.0224996
0.0207625
0.0188861
0.0170176
0.0152402
0.0135935
0.0120898
0.0107249
0.0094862
0.00835778
0.00732373
0.00636928
0.0054813
0.00464833
0.00386046
0.0031091
0.00238677
0.00168677
0.00100281
0.000330072
0.0212992
0.0198891
0.0183232
0.0167137
0.0151363
0.0136346
0.0122293
0.010926
0.00972093
0.00860592
0.0075708
0.00660516
0.005699
0.00484309
0.00402909
0.00324946
0.00249742
0.00176675
0.00105147
0.000346887
0.0202365
0.0190687
0.0177468
0.0163549
0.0149556
0.0135902
0.0122831
0.0110461
0.00988228
0.00878941
0.00776215
0.00679382
0.00587728
0.00500548
0.00417162
0.00336935
0.0025927
0.00183601
0.0010938
0.000361545
0.0193242
0.0183375
0.0172035
0.0159855
0.0147351
0.0134898
0.0122745
0.0111039
0.00998503
0.00891968
0.00790636
0.00694155
0.00602066
0.00513863
0.00429022
0.00347021
0.00267352
0.00189512
0.00113008
0.000374138
0.0185388
0.0176895
0.0167021
0.015625
0.0144998
0.0133591
0.0122267
0.0111185
0.0100442
0.00900824
0.00801212
0.00705481
0.00613388
0.005246
0.00438732
0.00355374
0.00274101
0.0019448
0.00116069
0.000384792
0.0178773
0.0171323
0.0162582
0.0152925
0.014269
0.0132162
0.0121559
0.0111041
0.0100715
0.0090648
0.00808719
0.00713967
0.00622157
0.00533103
0.00446546
0.00362174
0.00279643
0.00198583
0.00118609
0.000393654
0.0173259
0.0166605
0.015874
0.0149963
0.0140551
0.0130749
0.0120757
0.0110729
0.0100778
0.00909816
0.00813867
0.00720175
0.00628809
0.00539707
0.00452714
0.00367605
0.00284106
0.00201908
0.00120676
0.000400884
0.0168798
0.016274
0.0155542
0.0147442
0.0138677
0.0129456
0.0119963
0.0110344
0.0100714
0.00911555
0.00817258
0.00724594
0.00633736
0.00544718
0.00457469
0.00371838
0.00287613
0.00204535
0.00122316
0.000406639
0.0165311
0.0159695
0.0152992
0.0145403
0.013713
0.0128358
0.0119256
0.0109963
0.0100592
0.00912305
0.00819406
0.00727646
0.00637275
0.00548398
0.00461013
0.00375024
0.00290271
0.00206537
0.00123571
0.000411058
0.0162769
0.0157464
0.015111
0.0143883
0.0135961
0.0127513
0.0118696
0.0109643
0.0100466
0.00912531
0.00820708
0.00729661
0.00639691
0.00550959
0.00463507
0.00377284
0.00292166
0.0020797
0.00124474
0.000414252
0.0161141
0.0156033
0.0149899
0.0142899
0.0135198
0.0126957
0.0118322
0.0109423
0.0100372
0.00912557
0.00821442
0.0073087
0.00641176
0.00552551
0.00465069
0.00378706
0.00293363
0.00208878
0.00125047
0.000416295
0.0160397
0.0155371
0.0149335
0.0142439
0.0134841
0.0126694
0.0118144
0.0109317
0.0100324
0.00912539
0.00821759
0.00731413
0.00641851
0.0055328
0.00465786
0.00379361
0.00293915
0.00209298
0.00125313
0.000417241
0.0412947
0.0474328
0.0518229
0.05515
0.0576699
0.059513
0.0607797
0.0615446
0.0618566
0.0617435
0.0612151
0.0602639
0.0588656
0.0569767
0.0545307
0.0514327
0.0475575
0.0427426
0.0366654
0.0285196
0.0466035
0.0488287
0.0506342
0.0521047
0.0532851
0.0541916
0.054834
0.0552197
0.0553539
0.0552394
0.054877
0.0542659
0.0534033
0.0522851
0.0509045
0.0492514
0.04732
0.0451312
0.0426631
0.0393342
0.042128
0.0434692
0.0446725
0.0457115
0.046573
0.0472493
0.0477347
0.0480255
0.048119
0.0480132
0.0477065
0.0471972
0.0464838
0.0455651
0.0444401
0.0431085
0.0415744
0.0398495
0.0379302
0.0357143
0.0387847
0.0395309
0.0401961
0.0407691
0.0412411
0.0416056
0.0418575
0.0419929
0.0420091
0.0419039
0.0416764
0.0413262
0.0408534
0.0402592
0.0395453
0.0387142
0.0377712
0.036725
0.0355738
0.0342651
0.0348815
0.0353357
0.0357378
0.0360807
0.0363583
0.0365654
0.0366975
0.0367515
0.0367247
0.0366154
0.0364229
0.0361473
0.0357893
0.0353508
0.0348345
0.0342442
0.033585
0.0328634
0.0320853
0.0312474
0.0318499
0.0321339
0.0323794
0.032583
0.0327418
0.0328532
0.0329149
0.0329252
0.0328829
0.0327872
0.0326378
0.0324348
0.0321789
0.0318713
0.0315136
0.0311079
0.0306574
0.0301662
0.0296364
0.0290584
0.0290639
0.0292437
0.0293954
0.029517
0.0296068
0.0296633
0.0296851
0.0296713
0.0296211
0.0295343
0.0294106
0.0292504
0.0290543
0.0288231
0.0285582
0.028261
0.0279335
0.027578
0.0271969
0.0267902
0.026839
0.0269591
0.0270578
0.0271338
0.0271863
0.0272145
0.0272177
0.0271954
0.0271473
0.0270731
0.026973
0.0268471
0.0266957
0.0265195
0.0263191
0.0260955
0.0258498
0.0255836
0.0252977
0.0249889
0.0248868
0.024967
0.0250306
0.025077
0.0251056
0.0251161
0.025108
0.0250811
0.0250353
0.0249704
0.0248864
0.0247837
0.0246625
0.024523
0.024366
0.0241919
0.0240014
0.0237955
0.0235749
0.0233394
0.0232902
0.0233467
0.02339
0.0234198
0.0234357
0.0234375
0.023425
0.023398
0.0233565
0.0233004
0.0232298
0.0231448
0.0230457
0.0229325
0.0228057
0.0226657
0.0225128
0.0223479
0.0221711
0.021981
0.0219106
0.0219505
0.0219797
0.0219982
0.0220056
0.0220018
0.0219867
0.0219602
0.0219224
0.0218732
0.0218126
0.0217408
0.0216579
0.0215641
0.0214595
0.0213446
0.0212194
0.0210846
0.0209403
0.0207862
0.0207688
0.0207984
0.0208191
0.020831
0.0208337
0.0208273
0.0208117
0.0207869
0.0207528
0.0207094
0.0206568
0.0205951
0.0205244
0.0204447
0.0203563
0.0202593
0.0201539
0.0200405
0.0199191
0.0197892
0.0197963
0.0198185
0.0198332
0.0198405
0.0198402
0.0198322
0.0198166
0.0197933
0.0197623
0.0197237
0.0196774
0.0196236
0.0195622
0.0194935
0.0194175
0.0193343
0.0192441
0.0191472
0.0190436
0.018933
0.0189956
0.0190129
0.0190239
0.0190284
0.0190264
0.0190179
0.0190028
0.0189811
0.0189529
0.0189181
0.0188767
0.018829
0.0187748
0.0187142
0.0186474
0.0185745
0.0184955
0.0184106
0.0183199
0.0182231
0.0183318
0.0183457
0.018354
0.0183567
0.0183536
0.0183448
0.0183303
0.01831
0.018284
0.0182523
0.0182149
0.0181719
0.0181233
0.0180692
0.0180096
0.0179445
0.0178742
0.0177987
0.0177181
0.0176322
0.0178026
0.0178143
0.0178209
0.0178223
0.0178187
0.0178099
0.017796
0.017777
0.0177528
0.0177235
0.0176892
0.0176498
0.0176053
0.0175559
0.0175016
0.0174424
0.0173785
0.0173098
0.0172366
0.0171585
0.01739
0.0174001
0.0174055
0.0174062
0.0174022
0.0173936
0.0173802
0.0173621
0.0173394
0.017312
0.0172799
0.0172432
0.017202
0.0171562
0.0171058
0.017051
0.0169919
0.0169284
0.0168606
0.0167884
0.0170924
0.0171014
0.0171061
0.0171063
0.0171022
0.0170937
0.0170807
0.0170634
0.0170416
0.0170155
0.016985
0.0169502
0.0169111
0.0168677
0.0168201
0.0167683
0.0167124
0.0166523
0.0165883
0.01652
0.0168972
0.0169056
0.0169098
0.0169098
0.0169056
0.0168972
0.0168846
0.0168678
0.0168467
0.0168215
0.0167922
0.0167587
0.0167211
0.0166794
0.0166337
0.016584
0.0165303
0.0164727
0.0164114
0.0163462
0.0168164
0.0168246
0.0168286
0.0168285
0.0168243
0.0168159
0.0168033
0.0167867
0.0167659
0.016741
0.016712
0.0166789
0.0166417
0.0166006
0.0165554
0.0165063
0.0164532
0.0163963
0.0163356
0.0162708
0.0191798
0.0196389
0.0201043
0.0205735
0.0210455
0.0215145
0.0219711
0.0224029
0.0227957
0.0231346
0.0234072
0.0236084
0.0237476
0.0238601
0.0240192
0.0243338
0.024924
0.0259748
0.0281135
0.0329153
0.0205835
0.0209654
0.0213982
0.0218684
0.0223797
0.0229409
0.0235617
0.0242541
0.0250321
0.0259121
0.0269119
0.0280504
0.0293456
0.0308143
0.0324701
0.0343212
0.0363745
0.0386528
0.0412024
0.0439784
0.022924
0.0235025
0.0240954
0.0247134
0.0253596
0.0260358
0.0267444
0.0274884
0.0282712
0.0290962
0.0299677
0.0308902
0.0318692
0.0329109
0.0340218
0.0352082
0.0364748
0.0378232
0.0392434
0.0406996
0.0233614
0.0238888
0.0244485
0.0250347
0.025648
0.0262905
0.0269637
0.0276686
0.0284056
0.0291749
0.029976
0.0308073
0.0316667
0.0325505
0.033454
0.0343706
0.0352924
0.036209
0.0371073
0.0379715
0.0236172
0.0241129
0.0246172
0.0251337
0.0256625
0.0262033
0.0267559
0.0273197
0.0278943
0.0284787
0.029072
0.0296727
0.0302789
0.0308884
0.031498
0.032104
0.0327016
0.0332853
0.0338482
0.034383
0.0231874
0.023612
0.024045
0.0244855
0.0249327
0.0253863
0.0258453
0.0263089
0.0267758
0.0272447
0.0277137
0.0281811
0.0286445
0.0291015
0.0295492
0.0299845
0.0304041
0.0308042
0.0311812
0.0315311
0.0225815
0.022943
0.0233049
0.0236682
0.0240324
0.0243968
0.0247604
0.0251225
0.025482
0.0258379
0.0261888
0.0265335
0.0268704
0.027198
0.0275143
0.0278176
0.0281057
0.0283767
0.0286281
0.028858
0.0217972
0.0221006
0.0224029
0.0227043
0.023004
0.0233016
0.0235961
0.0238868
0.0241729
0.0244533
0.0247272
0.0249933
0.0252506
0.0254979
0.0257339
0.0259573
0.0261668
0.026361
0.0265386
0.0266984
0.0209766
0.0212308
0.0214818
0.0217298
0.0219746
0.0222153
0.0224516
0.0226827
0.022908
0.0231269
0.0233385
0.0235423
0.0237373
0.0239229
0.0240981
0.0242622
0.0244143
0.0245537
0.0246794
0.0247907
0.0201585
0.0203734
0.0205843
0.0207916
0.0209948
0.0211936
0.0213875
0.0215759
0.0217583
0.0219344
0.0221035
0.0222651
0.0224186
0.0225635
0.0226992
0.0228252
0.0229409
0.0230457
0.0231392
0.0232209
0.0193821
0.0195645
0.0197426
0.0199166
0.0200862
0.0202512
0.0204111
0.0205656
0.0207142
0.0208568
0.0209927
0.0211218
0.0212436
0.0213577
0.0214637
0.0215613
0.0216501
0.0217298
0.0217999
0.0218603
0.0186689
0.0188262
0.0189791
0.0191278
0.0192722
0.019412
0.0195469
0.0196766
0.0198009
0.0199194
0.0200319
0.0201382
0.0202379
0.0203308
0.0204166
0.020495
0.0205659
0.0206289
0.0206839
0.0207306
0.0180278
0.0181647
0.0182974
0.018426
0.0185503
0.0186702
0.0187854
0.0188957
0.0190009
0.0191008
0.0191953
0.019284
0.0193669
0.0194437
0.0195142
0.0195783
0.0196357
0.0196864
0.0197302
0.0197668
0.0174674
0.0175888
0.0177061
0.0178194
0.0179286
0.0180336
0.0181341
0.0182301
0.0183214
0.0184078
0.0184891
0.0185653
0.0186361
0.0187015
0.0187612
0.0188153
0.0188635
0.0189057
0.0189419
0.0189718
0.016988
0.017097
0.0172022
0.0173035
0.0174009
0.0174943
0.0175835
0.0176685
0.017749
0.0178249
0.0178963
0.0179628
0.0180246
0.0180813
0.018133
0.0181795
0.0182208
0.0182567
0.0182872
0.0183123
0.016592
0.0166919
0.016788
0.0168804
0.0169691
0.017054
0.0171349
0.0172117
0.0172844
0.0173528
0.0174169
0.0174766
0.0175318
0.0175824
0.0176283
0.0176695
0.017706
0.0177375
0.0177642
0.0177859
0.0162778
0.0163708
0.0164601
0.0165459
0.0166281
0.0167065
0.0167812
0.0168521
0.0169189
0.0169818
0.0170406
0.0170952
0.0171456
0.0171917
0.0172335
0.0172708
0.0173037
0.0173322
0.017356
0.0173753
0.0160462
0.0161345
0.0162192
0.0163004
0.0163782
0.0164524
0.0165229
0.0165896
0.0166526
0.0167117
0.0167669
0.0168181
0.0168653
0.0169084
0.0169474
0.0169822
0.0170128
0.0170392
0.0170612
0.017079
0.0158953
0.0159801
0.0160615
0.0161397
0.0162144
0.0162856
0.0163533
0.0164173
0.0164777
0.0165343
0.0165871
0.0166361
0.0166812
0.0167224
0.0167596
0.0167928
0.0168219
0.0168469
0.0168678
0.0168846
0.0158295
0.0159136
0.0159941
0.0160713
0.016145
0.0162153
0.016282
0.0163451
0.0164045
0.0164603
0.0165122
0.0165604
0.0166047
0.0166452
0.0166817
0.0167142
0.0167428
0.0167673
0.0167877
0.0168041
0.011431
0.0154424
0.0172903
0.0183757
0.0190302
0.0193627
0.0194712
0.0194336
0.0193036
0.0191183
0.0189048
0.0186827
0.0184667
0.0182681
0.0180952
0.0179524
0.0178442
0.0177767
0.0177547
0.0177797
0.011066
0.0133543
0.0147675
0.015825
0.0166104
0.0171556
0.017511
0.0177248
0.0178353
0.0178724
0.0178594
0.0178145
0.0177517
0.0176814
0.0176112
0.0175483
0.0174968
0.0174574
0.0174327
0.0174237
0.0126448
0.014215
0.0152912
0.0160996
0.0166971
0.0171119
0.0173793
0.0175334
0.0176034
0.0176128
0.0175807
0.0175223
0.0174491
0.0173698
0.0172906
0.0172161
0.0171492
0.0170913
0.0170411
0.0169971
0.0133232
0.0143526
0.0151377
0.0157563
0.0162315
0.0165773
0.0168129
0.0169587
0.0170343
0.0170565
0.0170402
0.0169975
0.0169381
0.0168695
0.0167974
0.0167258
0.0166576
0.0165938
0.0165317
0.0164693
0.0137118
0.0144393
0.0150326
0.0155134
0.0158906
0.0161713
0.0163665
0.016489
0.016552
0.0165683
0.0165492
0.0165049
0.0164438
0.0163727
0.0162968
0.0162202
0.0161461
0.0160757
0.0160062
0.0159354
0.0137765
0.0143096
0.0147646
0.0151409
0.0154412
0.0156688
0.0158296
0.0159316
0.0159837
0.0159951
0.0159745
0.0159303
0.0158695
0.0157983
0.0157217
0.0156436
0.0155673
0.0154944
0.0154224
0.015349
0.0136516
0.0140621
0.0144212
0.0147206
0.0149609
0.0151438
0.0152728
0.0153529
0.0153904
0.0153924
0.0153658
0.0153173
0.0152533
0.0151793
0.0150998
0.0150189
0.0149397
0.0148643
0.0147899
0.0147146
0.0133867
0.0137109
0.0139973
0.0142365
0.014428
0.0145727
0.0146726
0.0147313
0.0147532
0.0147439
0.0147089
0.0146539
0.0145846
0.0145059
0.0144222
0.0143373
0.0142544
0.0141756
0.0140983
0.0140203
0.0130375
0.0132952
0.0135219
0.0137099
0.0138587
0.0139684
0.0140402
0.0140765
0.0140807
0.0140572
0.0140107
0.013946
0.0138682
0.0137819
0.0136911
0.0135997
0.013511
0.013427
0.013345
0.0132629
0.0126411
0.0128405
0.0130119
0.0131515
0.0132587
0.013333
0.0133751
0.0133866
0.0133701
0.013329
0.0132673
0.0131892
0.0130993
0.0130017
0.0129007
0.0127998
0.0127025
0.0126109
0.0125221
0.012434
0.0122331
0.0123756
0.0124905
0.0125796
0.0126421
0.0126771
0.0126848
0.0126664
0.0126239
0.0125599
0.0124776
0.012381
0.0122738
0.0121604
0.0120444
0.0119298
0.0118201
0.0117176
0.0116191
0.0115225
0.0118463
0.0119291
0.0119825
0.0120152
0.0120261
0.0120141
0.0119794
0.0119228
0.0118458
0.0117506
0.01164
0.0115171
0.0113856
0.0112493
0.0111122
0.0109779
0.0108504
0.0107322
0.0106199
0.0105111
0.0115167
0.0115348
0.0115201
0.0114879
0.0114374
0.0113673
0.011278
0.0111705
0.0110463
0.0109073
0.010756
0.0105952
0.0104284
0.0102591
0.010091
0.0099281
0.00977463
0.0096334
0.00950091
0.00937451
0.0112858
0.0112346
0.0111454
0.0110393
0.0109156
0.0107732
0.010613
0.0104369
0.0102468
0.010045
0.00983427
0.00961759
0.00939817
0.0091795
0.00896523
0.00875947
0.00856689
0.00839089
0.00822766
0.00807445
0.0112039
0.0110829
0.0109167
0.01073
0.0105222
0.0102923
0.0100422
0.00977464
0.00949295
0.00920073
0.00890189
0.00860041
0.00830022
0.00800512
0.00771897
0.00744606
0.00719173
0.00696021
0.00674744
0.00655079
0.0113283
0.0111443
0.0109067
0.0106399
0.0103425
0.0100136
0.00965552
0.0092719
0.00886764
0.00844852
0.00802093
0.00759137
0.00716605
0.00675044
0.00634935
0.00596757
0.00561111
0.00528516
0.00498517
0.0047098
0.0117258
0.0114979
0.0112069
0.010873
0.010493
0.0100644
0.00958828
0.00906774
0.00850822
0.00791729
0.00730446
0.00668056
0.00605674
0.00544338
0.00484916
0.00428128
0.00374703
0.00325147
0.00278586
0.00234996
0.0124986
0.0122755
0.0119811
0.0116269
0.0112076
0.010717
0.0101519
0.00951097
0.00879601
0.00801216
0.00716844
0.00627761
0.00535537
0.00441876
0.00348422
0.00256735
0.00168385
0.000840229
4.75749e-06
-0.000842896
0.0136364
0.013459
0.0132119
0.0128914
0.01249
0.0119982
0.0114061
0.0107051
0.00988887
0.00895469
0.00790489
0.0067478
0.00549778
0.00417362
0.00279662
0.00139201
-1.40315e-05
-0.00144497
-0.00308652
-0.00507722
0.0151538
0.0149924
0.0147882
0.0145154
0.0141569
0.0136957
0.0131122
0.0123838
0.0114862
0.0103942
0.00908301
0.00753011
0.00571705
0.00363034
0.0012644
-0.00137175
-0.00426743
-0.00752773
-0.0115876
-0.0165972
0.000335292
0.00102051
0.00171424
0.00241834
0.00313631
0.00387141
0.00462694
0.0054063
0.00621299
0.00705052
0.00792234
0.00883169
0.00978138
0.0107736
0.0118097
0.0128902
0.0140165
0.0151975
0.0164654
0.0179287
0.000354029
0.00107432
0.00180279
0.00254197
0.00329531
0.00406625
0.00485838
0.00567544
0.00652141
0.00740053
0.00831734
0.00927677
0.0102843
0.0113464
0.0124707
0.0136666
0.0149474
0.0163348
0.0178695
0.0195776
0.000370689
0.00112264
0.0018824
0.00265282
0.00343746
0.00423989
0.00506389
0.00591345
0.00679294
0.00770713
0.00866143
0.00966207
0.0107165
0.0118342
0.0130277
0.0143149
0.0157238
0.0172971
0.0190949
0.0212245
0.000385483
0.00116538
0.00195276
0.00275052
0.0035623
0.00439173
0.00524264
0.00611919
0.00702591
0.00796791
0.00895104
0.00998223
0.0110699
0.0122246
0.0134603
0.0147955
0.0162562
0.01788
0.019727
0.0218795
0.000398391
0.00120256
0.00201379
0.002835
0.00366974
0.00452161
0.00539444
0.00629232
0.0072198
0.00818199
0.00918482
0.0102353
0.0113419
0.0125154
0.0137698
0.0151233
0.0166005
0.0182344
0.0200671
0.0221518
0.000409419
0.00123427
0.00206566
0.00290646
0.00376006
0.00462994
0.00551975
0.00643343
0.0073753
0.00835022
0.00936374
0.0104224
0.0115339
0.0127077
0.0139554
0.0152913
0.0167333
0.0183044
0.0200319
0.0219379
0.000418632
0.0012607
0.00210871
0.00296541
0.00383396
0.00471762
0.00561977
0.00654402
0.00749433
0.00847504
0.00949108
0.0105481
0.0116526
0.0128122
0.0140361
0.0153345
0.0167196
0.018204
0.019797
0.0214974
0.00042613
0.00128215
0.00214346
0.00301261
0.00389249
0.00478604
0.00569628
0.0066264
0.00757981
0.00856022
0.00957168
0.0106187
0.0117061
0.0128395
0.0140246
0.0152676
0.0165742
0.0179487
0.0193895
0.0208826
0.00043205
0.00129903
0.00217059
0.00304908
0.00393702
0.00483699
0.00575158
0.00668349
0.00763552
0.00861059
0.00961181
0.0106424
0.0117057
0.0128051
0.0139436
0.0151236
0.0163459
0.0176081
0.0189007
0.020203
0.000436554
0.0013118
0.00219093
0.00307599
0.00396916
0.00487257
0.00578838
0.00671872
0.00766574
0.00863156
0.0096183
0.0106279
0.0116622
0.0127225
0.0138094
0.0149221
0.0160577
0.0172098
0.0183652
0.0195017
0.000439824
0.00132101
0.00220537
0.00309467
0.00399066
0.00489509
0.00580959
0.00673577
0.00767509
0.00862891
0.00959838
0.0105843
0.0115872
0.0126066
0.0136411
0.0146878
0.0157412
0.0167923
0.0178264
0.0188214
0.000442052
0.00132721
0.00221487
0.00310648
0.0040034
0.00490693
0.00581826
0.00673841
0.00766825
0.00860839
0.0095591
0.0105202
0.0114909
0.0124696
0.0134532
0.0144373
0.0154148
0.0163758
0.0173054
0.0181836
0.000443434
0.00133098
0.00222041
0.00311282
0.00400923
0.0049105
0.00581738
0.00673038
0.00764978
0.00857554
0.00950717
0.0104436
0.0113832
0.0123232
0.0132596
0.0141868
0.015097
0.01598
0.0168215
0.0176037
0.000444161
0.00133288
0.00222291
0.00311506
0.00400995
0.0049081
0.00580982
0.00671518
0.00762393
0.00853546
0.00944864
0.0103618
0.0112723
0.0121769
0.0130707
0.0139476
0.0147996
0.0156165
0.0163854
0.0170905
0.000444416
0.00133344
0.00222328
0.00311444
0.00400725
0.00490187
0.00579824
0.00669603
0.00759457
0.00849274
0.00938892
0.0102808
0.0111654
0.0120387
0.0128956
0.0137295
0.0145325
0.0152949
0.0160048
0.0166484
0.000444363
0.00133314
0.00222232
0.00311214
0.00400265
0.00489373
0.005785
0.0066758
0.00756509
0.00845137
0.00933261
0.0102061
0.0110684
0.0119152
0.012741
0.0135394
0.0143024
0.015021
0.0156843
0.0162804
0.00044415
0.00133241
0.00222075
0.00310916
0.00399749
0.00488537
0.00577218
0.00665698
0.00753845
0.0084148
0.00928367
0.0101421
0.0109863
0.0118117
0.0126128
0.013383
0.0141148
0.0147994
0.0154272
0.0159873
0.000443901
0.00133161
0.00221916
0.00310637
0.0039929
0.00487822
0.00576151
0.00664166
0.00751711
0.00838587
0.00924536
0.0100924
0.010923
0.0117325
0.0125153
0.0132649
0.0139739
0.0146339
0.015236
0.0157704
0.000443705
0.001331
0.00221798
0.00310434
0.00398965
0.00487325
0.00575421
0.00663127
0.00750276
0.00836655
0.00921991
0.0100595
0.0108814
0.0116806
0.0124516
0.013188
0.0138824
0.0145268
0.0151126
0.0156303
0.000443606
0.00133069
0.00221739
0.00310335
0.00398807
0.00487085
0.00575071
0.00662632
0.00749595
0.0083574
0.00920789
0.010044
0.0108618
0.0116562
0.0124218
0.013152
0.0138397
0.014477
0.0150554
0.0155664
2.07133e-05
0.00013134
0.000223623
0.000312443
0.000389887
0.000451969
0.000493342
0.000508
0.000488971
0.000427978
0.000314705
0.000136275
-0.000121065
-0.000471348
-0.000947702
-0.00162964
-0.0025049
-0.0030139
-0.00295433
-0.0107662
3.54086e-05
0.000173571
0.000295116
0.000414457
0.000524586
0.000622208
0.000702984
0.000762234
0.000794815
0.000795029
0.000756489
0.000672799
0.000540042
0.00035654
0.000111026
-0.000206192
-0.000442949
-4.60798e-05
0.0010156
-5.14501e-05
5.06717e-05
0.000217375
0.000369218
0.000520147
0.00066407
0.000798391
0.000919772
0.00102483
0.00111019
0.0011726
0.0012094
0.00121998
0.00120832
0.00118321
0.00115655
0.00117653
0.00145228
0.00239456
0.00404219
0.00617378
6.64116e-05
0.000262488
0.000445465
0.000628815
0.000807353
0.000979164
0.00114187
0.0012933
0.00143167
0.00155596
0.00166673
0.00176794
0.00186934
0.00198791
0.00215397
0.0024474
0.00307057
0.00431701
0.00634484
0.00950571
8.2535e-05
0.000308642
0.000523388
0.000739764
0.00095346
0.00116321
0.00136751
0.00156529
0.00175613
0.00194089
0.00212266
0.00230865
0.00251248
0.00275708
0.00308435
0.00358337
0.00442371
0.00582887
0.00801785
0.0112186
9.89488e-05
0.000355573
0.000602528
0.000852313
0.00110145
0.00134927
0.00159506
0.00183865
0.0020808
0.00232377
0.00257245
0.00283605
0.00313032
0.00348133
0.00393507
0.00457509
0.00553689
0.00700285
0.00916885
0.0120401
0.000115562
0.00040302
0.000682439
0.000965811
0.00125044
0.00153619
0.00182302
0.00211152
0.00240333
0.0027017
0.00301258
0.00334609
0.00371862
0.00415671
0.00470443
0.00543272
0.00644741
0.00789579
0.00991177
0.0123595
0.000132287
0.000450737
0.0007627
0.00107965
0.00139962
0.00172291
0.00205008
0.00238229
0.0027218
0.00307245
0.00344063
0.00383643
0.0042756
0.00478282
0.00539636
0.00617232
0.0071913
0.00856528
0.0103638
0.0123841
0.00014904
0.00049849
0.000842915
0.00119326
0.00154822
0.0019085
0.0022751
0.00264964
0.00303474
0.00343449
0.00385517
0.0043062
0.00480166
0.00536264
0.00601961
0.00681383
0.00780351
0.00906627
0.0106187
0.0122379
0.000165742
0.00054606
0.000922719
0.00130613
0.00169559
0.00209214
0.00249713
0.0029125
0.00334104
0.00378682
0.00425562
0.00475567
0.00529869
0.00590118
0.00658506
0.00737773
0.00831716
0.00944948
0.0107497
0.012001
0.000182321
0.000593244
0.00100177
0.00141778
0.00184113
0.0022731
0.00271536
0.00317002
0.00363994
0.00412891
0.00464201
0.00518597
0.00576972
0.00640479
0.00710469
0.00788416
0.00876295
0.0097593
0.0108152
0.0117324
0.000198708
0.000639853
0.00107978
0.0015278
0.00198429
0.00245077
0.00292912
0.00342156
0.00393089
0.00446056
0.00501479
0.0055987
0.00621834
0.00688034
0.00759043
0.00835215
0.00916901
0.0100347
0.0108645
0.0114803
0.000214841
0.000685717
0.00115644
0.00163579
0.00212462
0.00262462
0.00313784
0.0036666
0.00421357
0.0047818
0.00537467
0.00599571
0.00664828
0.00733456
0.00805349
0.00879906
0.00956055
0.01031
0.0109409
0.0112912
0.000230663
0.000730677
0.00123151
0.00174142
0.00226168
0.00279416
0.00334105
0.00390471
0.00448771
0.00509273
0.00572237
0.0063788
0.00706304
0.00777351
0.0085037
0.00923985
0.00995923
0.0106149
0.0110834
0.0112126
0.000246117
0.000774585
0.00130476
0.00184435
0.00239509
0.00295896
0.0035383
0.00413552
0.00475309
0.00539343
0.00605851
0.00674945
0.00746546
0.00820214
0.00894894
0.0096864
0.0103822
0.0109739
0.0113275
0.0112927
0.000261131
0.000817289
0.00137596
0.00194431
0.00252449
0.00311863
0.00372918
0.00435864
0.00500945
0.00568384
0.00638343
0.00710863
0.0078575
0.00862391
0.00939487
0.0101472
0.0108416
0.0114053
0.0117017
0.0115757
0.000275609
0.000858641
0.00144493
0.00204102
0.00264956
0.00327279
0.00391331
0.00457371
0.00525647
0.00596379
0.00669716
0.00745673
0.00824014
0.00904073
0.00984486
0.010628
0.0113468
0.0119233
0.0122273
0.0120975
0.00028952
0.000898528
0.0015115
0.00213427
0.00277001
0.00342114
0.00409035
0.00478039
0.00549386
0.00623305
0.00699959
0.00779379
0.00861364
0.00945321
0.0103002
0.0111319
0.0119059
0.0125452
0.0129285
0.0128909
0.000303198
0.00093688
0.00157549
0.00222388
0.00288564
0.00356342
0.00426004
0.00497842
0.00572136
0.00649142
0.00729057
0.00811971
0.00897783
0.00986086
0.0107599
0.0116576
0.0125204
0.0132854
0.0138455
0.0140043
0.000317337
0.000973585
0.00163665
0.00230961
0.00299618
0.00369932
0.00442202
0.0051674
0.00593854
0.00673836
0.00756943
0.00843353
0.00933118
0.0102609
0.0112182
0.0121935
0.013169
0.0141135
0.0149677
0.0155279
-8.87452e-05
-0.000186289
-0.000312108
-0.000436068
-0.00057033
-0.000714674
-0.000871738
-0.00104302
-0.00122961
-0.00143148
-0.00164706
-0.00187365
-0.00210938
-0.00235591
-0.00261726
-0.00289266
-0.00317585
-0.00345532
-0.00369342
-0.00401719
-9.05297e-05
-0.000193133
-0.00032262
-0.000452293
-0.000593035
-0.000745586
-0.000912973
-0.00109727
-0.0013002
-0.00152261
-0.00176424
-0.00202381
-0.00229986
-0.00259142
-0.00289626
-0.0032076
-0.00352032
-0.00383031
-0.00408648
-0.00436491
-9.20034e-05
-0.000198105
-0.000330639
-0.000464776
-0.000611163
-0.000771155
-0.000948336
-0.00114548
-0.00136508
-0.00160892
-0.00187777
-0.00217132
-0.00248837
-0.00282661
-0.00317997
-0.00353598
-0.0038848
-0.00422463
-0.00450128
-0.00475942
-9.30213e-05
-0.000201147
-0.000335889
-0.000473305
-0.000624268
-0.000790673
-0.000976694
-0.00118584
-0.00142149
-0.00168654
-0.00198307
-0.00231205
-0.00267276
-0.00306166
-0.00346907
-0.00387663
-0.00426764
-0.00463975
-0.00494283
-0.00520658
-9.35116e-05
-0.000202155
-0.000337947
-0.000477359
-0.00063165
-0.000803261
-0.000996998
-0.00121717
-0.00146813
-0.00175396
-0.00207813
-0.00244295
-0.00284862
-0.00329127
-0.00375871
-0.00422648
-0.00466837
-0.00507781
-0.00541332
-0.00569763
-9.33144e-05
-0.000201095
-0.000336553
-0.000476557
-0.000632729
-0.000808087
-0.00100808
-0.00123786
-0.00150283
-0.0018084
-0.0021596
-0.00256039
-0.00301231
-0.00351198
-0.00404556
-0.00458283
-0.00508668
-0.00554183
-0.00591653
-0.00623291
-9.2339e-05
-0.000197794
-0.000331389
-0.000470427
-0.000626859
-0.000804286
-0.00100881
-0.00124646
-0.00152375
-0.00184749
-0.00222444
-0.00266051
-0.00315921
-0.00371866
-0.00432459
-0.00494168
-0.00552136
-0.00603491
-0.00645632
-0.00681785
-9.05308e-05
-0.000192117
-0.000322193
-0.000458556
-0.000613438
-0.000791013
-0.000998032
-0.0012414
-0.00152879
-0.00186851
-0.00226923
-0.00273914
-0.00328439
-0.00390574
-0.00458987
-0.00529767
-0.00596981
-0.00655999
-0.00703604
-0.00746095
-8.78333e-05
-0.000183911
-0.0003087
-0.000440539
-0.000591883
-0.000767455
-0.000974629
-0.00122118
-0.00151594
-0.00186878
-0.00229045
-0.00279175
-0.0033822
-0.00406649
-0.00483389
-0.00564338
-0.00642752
-0.00711966
-0.00765832
-0.00817415
-8.42039e-05
-0.000173049
-0.00029068
-0.000416015
-0.000561666
-0.000732859
-0.000937544
-0.00118432
-0.00148317
-0.00184557
-0.0022844
-0.00281345
-0.00344636
-0.00419306
-0.00504727
-0.00596891
-0.00688737
-0.00771536
-0.00832475
-0.00897325
-7.96033e-05
-0.000159419
-0.000267937
-0.000384673
-0.000522324
-0.000686559
-0.000885829
-0.00112949
-0.0014286
-0.00179618
-0.00224734
-0.00279908
-0.00346987
-0.00427621
-0.00521832
-0.00626107
-0.00733852
-0.00834503
-0.00903524
-0.00987723
-7.40028e-05
-0.000142937
-0.000240316
-0.000346269
-0.000473487
-0.000628002
-0.000818669
-0.00105549
-0.00135047
-0.00171809
-0.00217561
-0.00274335
-0.00344517
-0.0043053
-0.00533262
-0.00650239
-0.00776401
-0.00899822
-0.00978718
-0.0109051
-6.73824e-05
-0.000123546
-0.000207713
-0.000300633
-0.000414891
-0.000556783
-0.000735442
-0.000961356
-0.00124733
-0.00160905
-0.00206576
-0.00264105
-0.00336442
-0.0042685
-0.00537299
-0.00667001
-0.00813717
-0.00964868
-0.0105742
-0.0120691
-5.97334e-05
-0.000101222
-0.000170086
-0.000247689
-0.000346401
-0.000472668
-0.000635751
-0.000846435
-0.00111805
-0.00146723
-0.0019148
-0.00248736
-0.00321988
-0.00415352
-0.00532021
-0.00673543
-0.00841872
-0.0102485
-0.0113837
-0.0133642
-5.10585e-05
-7.59774e-05
-0.000127455
-0.000187458
-0.000268026
-0.000375626
-0.000519473
-0.000710421
-0.000962019
-0.00129138
-0.00172041
-0.00227816
-0.00300442
-0.00394817
-0.00515397
-0.00666596
-0.0085589
-0.0107306
-0.0121839
-0.0147525
-4.13736e-05
-4.78621e-05
-7.9911e-05
-0.000120068
-0.000179928
-0.000265842
-0.000386793
-0.000553441
-0.00077917
-0.00108104
-0.00148128
-0.00201043
-0.00271179
-0.00364031
-0.00485263
-0.00642647
-0.00850448
-0.0110171
-0.0128844
-0.0161211
-3.07085e-05
-1.69666e-05
-2.76142e-05
-4.57572e-05
-8.24314e-05
-0.000143734
-0.000238229
-0.000376104
-0.000570153
-0.00083674
-0.00119752
-0.00168305
-0.00233766
-0.00321863
-0.00439287
-0.00597743
-0.0081954
-0.0110093
-0.0132704
-0.0172295
-1.91063e-05
1.65802e-05
2.92059e-05
3.51313e-05
2.39845e-05
-9.95072e-06
-7.46368e-05
-0.000179517
-0.000336379
-0.000560244
-0.000871148
-0.0012978