x,y,z,U_0,U_1,U_2
0,0,0,0.299997,-0.000291094,0
0,0.1,0,0.299998,-0.0002315,-1.96467e-41
0,0.2,0,0.299998,-0.000171906,-3.92934e-41
0,0.3,0,0.299999,-0.000112312,-5.894e-41
0,0.4,0,0.299999,-5.27178e-05,-7.85867e-41
0,0.5,0,0.3,-2.94713e-20,6.49947e-31
0,0.6,0,0.3,-3.53656e-20,7.79937e-31
0,0.7,0,0.3,-4.12598e-20,9.09926e-31
0,0.8,0,0.3,-4.71541e-20,1.03992e-30
0,0.9,0,0.3,-5.30483e-20,1.1699e-30
0,1,0,0.3,-5.89426e-20,1.29989e-30
0,1.1,0,0.3,-6.48369e-20,1.42988e-30
0,1.2,0,0.3,-7.07311e-20,1.55987e-30
0,1.3,0,0.3,-7.66254e-20,1.68986e-30
0,1.4,0,0.3,-8.25197e-20,1.81985e-30
0,1.5,0,0.3,-8.51544e-20,2.93046e-30
0,1.6,0,0.3,-9.08313e-20,3.12582e-30
0,1.7,0,0.3,-9.65083e-20,3.32119e-30
0,1.8,0,0.3,-1.02185e-19,3.51655e-30
0,1.9,0,0.3,-1.07862e-19,3.71191e-30
0,2,0,0.3,-1.08108e-19,3.90379e-30
0,2.1,0,0.3,-1.13514e-19,4.09898e-30
0,2.2,0,0.3,-1.18919e-19,4.29416e-30
0,2.3,0,0.3,-1.24325e-19,4.48935e-30
0,2.4,0,0.3,-1.2973e-19,4.68454e-30
0,2.5,0,0.3,-1.26457e-19,6.50895e-30
0,2.6,0,0.3,-1.31515e-19,6.76931e-30
0,2.7,0,0.3,-1.36573e-19,7.02967e-30
0,2.8,0,0.3,-1.41632e-19,7.29002e-30
0,2.9,0,0.3,-1.4669e-19,7.55038e-30
0,3,0,0.3,-1.39012e-19,7.81074e-30
0,3.1,0,0.3,-1.43646e-19,8.0711e-30
0,3.2,0,0.3,-1.4828e-19,8.33146e-30
0,3.3,0,0.3,-1.52913e-19,8.59181e-30
0,3.4,0,0.3,-1.57547e-19,8.85217e-30
0,3.5,0,0.3,-1.44744e-19,1.13907e-29
0,3.6,0,0.3,-1.4888e-19,1.17161e-29
0,3.7,0,0.3,-1.53015e-19,1.20416e-29
0,3.8,0,0.3,-1.57151e-19,1.2367e-29
0,3.9,0,0.3,-1.61286e-19,1.26925e-29
0,4,0,0.3,-1.42778e-19,1.56215e-29
0,4.1,0,0.3,-1.46348e-19,1.6012e-29
0,4.2,0,0.3,-1.49917e-19,1.64026e-29
0,4.3,0,0.3,-1.53487e-19,1.67931e-29
0,4.4,0,0.3,-1.29701e-19,1.97612e-29
0,4.5,0,0.3,-1.32648e-19,2.02103e-29
0,4.6,0,0.3,-1.35596e-19,2.06594e-29
0,4.7,0,0.3,-1.38544e-19,2.11085e-29
0,4.8,0,0.3,-1.41492e-19,2.15576e-29
0,4.9,0,0.3,-1.11582e-19,2.51961e-29
0,5,0,0.3,-1.1386e-19,2.57104e-29
0,5.1,0,0.3,-1.16137e-19,2.62246e-29
0,5.2,0,0.3,-1.18414e-19,2.67388e-29
0,5.3,0,0.3,-1.20691e-19,2.7253e-29
0,5.4,0,0.3,-8.46971e-20,2.91731e-29
0,5.5,0,0.3,-8.62656e-20,2.97134e-29
0,5.6,0,0.3,-8.78341e-20,3.02536e-29
0,5.7,0,0.3,-8.94025e-20,3.07938e-29
0,5.8,0,0.3,-9.0971e-20,3.13341e-29
0,5.9,0,0.3,-4.9214e-20,3.37945e-29
0,6,0,0.3,-5.00481e-20,3.43673e-29
0,6.1,0,0.3,-5.08823e-20,3.494e-29
0,6.2,0,0.3,-5.17164e-20,3.55128e-29
0,6.3,0,0.3,-5.25505e-20,3.60856e-29
0,6.4,0,0.3,-5.47525e-21,3.74915e-29
0,6.5,0,0.3,-5.5608e-21,3.80774e-29
0,6.6,0,0.3,-5.64635e-21,3.86632e-29
0,6.7,0,0.3,-5.7319e-21,3.9249e-29
0,6.8,0,0.3,-5.81745e-21,3.98348e-29
0,6.9,0,0.3,4.60087e-20,3.99715e-29
0,7,0,0.3,4.66755e-20,4.05508e-29
0,7.1,0,0.3,4.73422e-20,4.11301e-29
0,7.2,0,0.3,4.8009e-20,4.17093e-29
0,7.3,0,0.3,4.86758e-20,4.22886e-29
0,7.4,0,0.3,1.0453e-19,4.04596e-29
0,7.5,0,0.3,1.05943e-19,4.10064e-29
0,7.6,0,0.3,1.07355e-19,4.15531e-29
0,7.7,0,0.3,1.08768e-19,4.20999e-29
0,7.8,0,0.3,1.1018e-19,4.26466e-29
0,7.9,0,0.3,1.69017e-19,4.11366e-29
0,8,0,0.3,1.71157e-19,4.16573e-29
0,8.1,0,0.3,1.73296e-19,4.2178e-29
0,8.2,0,0.3,1.75435e-19,4.26987e-29
0,8.3,0,0.3,1.77575e-19,4.32194e-29
0,8.4,0,0.3,2.38124e-19,4.37401e-29
0,8.5,0,0.3,2.40959e-19,4.42609e-29
0,8.6,0,0.3,2.43794e-19,4.47816e-29
0,8.7,0,0.3,2.46628e-19,4.53023e-29
0,8.8,0,0.3,3.0649e-19,4.5823e-29
0,8.9,0,0.3,3.09973e-19,4.63437e-29
0,9,0,0.3,3.13455e-19,4.68644e-29
0,9.1,0,0.3,3.16938e-19,4.73852e-29
0,9.2,0,0.3,3.20421e-19,4.79059e-29
0,9.3,0,0.3,3.79187e-19,4.84266e-29
0,9.4,0,0.3,3.83264e-19,4.89473e-29
0,9.5,0,0.3,3.87342e-19,4.9468e-29
0,9.6,0,0.3,3.91419e-19,4.99887e-29
0,9.7,0,0.3,3.95496e-19,5.05094e-29
0,9.8,0,0.3,4.52007e-19,4.4628e-29
0,9.9,0,0.3,4.5662e-19,4.50834e-29
0,10,0,0.3,4.61232e-19,4.55387e-29
0,10.1,0,0.3,4.65844e-19,4.59941e-29
0,10.2,0,0.3,4.70457e-19,4.64495e-29
0,10.3,0,0.3,5.22452e-19,3.34967e-29
0,10.4,0,0.3,5.27525e-19,3.38219e-29
0,10.5,0,0.3,5.32597e-19,3.41471e-29
0,10.6,0,0.3,5.37669e-19,3.44723e-29
0,10.7,0,0.3,5.42742e-19,3.47975e-29
0,10.8,0,0.3,5.9415e-19,2.84287e-29
0,10.9,0,0.3,5.99651e-19,2.86919e-29
0,11,0,0.3,6.05153e-19,2.89552e-29
0,11.1,0,0.3,6.10654e-19,2.92184e-29
0,11.2,0,0.3,6.16155e-19,2.94816e-29
0,11.3,0,0.3,6.92855e-19,2.27854e-29
0,11.4,0,0.3,6.98987e-19,2.2987e-29
0,11.5,0,0.3,7.05118e-19,2.31887e-29
0,11.6,0,0.3,7.1125e-19,2.33903e-29
0,11.7,0,0.3,7.17381e-19,2.3592e-29
0,11.8,0,0.3,7.23512e-19,2.37936e-29
0,11.9,0,0.3,7.29644e-19,2.39952e-29
0,12,0,0.3,7.35775e-19,2.41969e-29
0,12.1,0,0.3,7.41907e-19,2.43985e-29
0,12.2,0,0.3,7.48038e-19,2.46002e-29
0,12.3,0,0.3,5.29891e-05,4.52321e-16
0,12.4,0,0.3,0.00011289,9.6364e-16
0,12.5,0,0.3,0.000172791,1.47496e-15
0,12.6,0,0.3,0.000232691,1.98628e-15
0,12.7,0,0.3,0.000292592,2.4976e-15
0.1,0,0,0.299997,-0.000468863,0
0.1,0.1,0,0.299996,-0.00046461,-7.54603e-25
0.1,0.2,0,0.299997,-0.000405016,-7.54603e-25
0.1,0.3,0,0.299997,-0.000345422,-7.54603e-25
0.1,0.4,0,0.299998,-0.000285828,-7.54603e-25
0.1,0.5,0,0.299998,-0.000232589,6.16131e-16
0.1,0.6,0,0.299997,-0.000226391,4.99272e-15
0.1,0.7,0,0.299997,-0.000226391,4.99272e-15
0.1,0.8,0,0.299997,-0.000226391,4.99272e-15
0.1,0.9,0,0.299997,-0.000226391,4.99272e-15
0.1,1,0,0.299997,-0.000226391,4.99272e-15
0.1,1.1,0,0.299997,-0.000226391,4.99272e-15
0.1,1.2,0,0.299997,-0.000226391,4.99272e-15
0.1,1.3,0,0.299997,-0.000226391,4.99272e-15
0.1,1.4,0,0.299997,-0.00022363,5.82311e-15
0.1,1.5,0,0.299996,-0.000218044,7.50366e-15
0.1,1.6,0,0.299996,-0.000218044,7.50366e-15
0.1,1.7,0,0.299996,-0.000218044,7.50366e-15
0.1,1.8,0,0.299996,-0.000218044,7.50366e-15
0.1,1.9,0,0.299995,-0.000213363,7.50066e-15
0.1,2,0,0.299994,-0.000207615,7.49696e-15
0.1,2.1,0,0.299994,-0.000207615,7.49696e-15
0.1,2.2,0,0.299994,-0.000207615,7.49696e-15
0.1,2.3,0,0.299994,-0.000207615,7.49696e-15
0.1,2.4,0,0.299993,-0.000200056,8.91601e-15
0.1,2.5,0,0.299992,-0.000194282,1e-14
0.1,2.6,0,0.299992,-0.000194282,1e-14
0.1,2.7,0,0.299992,-0.000194282,1e-14
0.1,2.8,0,0.299992,-0.000194282,1e-14
0.1,2.9,0,0.299991,-0.000183111,1e-14
0.1,3,0,0.299991,-0.000177976,1e-14
0.1,3.1,0,0.299991,-0.000177976,1e-14
0.1,3.2,0,0.299991,-0.000177976,1e-14
0.1,3.3,0,0.299991,-0.000177976,1e-14
0.1,3.4,0,0.299989,-0.000162608,1.20079e-14
0.1,3.5,0,0.299989,-0.000158841,1.25e-14
0.1,3.6,0,0.299989,-0.000158841,1.25e-14
0.1,3.7,0,0.299989,-0.000158841,1.25e-14
0.1,3.8,0,0.299989,-0.000158841,1.25e-14
0.1,3.9,0,0.299988,-0.00013881,1.48031e-14
0.1,4,0,0.299988,-0.000137098,1.5e-14
0.1,4.1,0,0.299988,-0.000137098,1.5e-14
0.1,4.2,0,0.299988,-0.000137098,1.5e-14
0.1,4.3,0,0.299988,-0.000136722,1.50354e-14
0.1,4.4,0,0.299987,-0.000113219,1.725e-14
0.1,4.5,0,0.299987,-0.000113219,1.725e-14
0.1,4.6,0,0.299987,-0.000113219,1.725e-14
0.1,4.7,0,0.299987,-0.000113219,1.725e-14
0.1,4.8,0,0.299987,-0.000109771,1.75846e-14
0.1,4.9,0,0.299986,-8.74639e-05,1.975e-14
0.1,5,0,0.299986,-8.74639e-05,1.975e-14
0.1,5.1,0,0.299986,-8.74639e-05,1.975e-14
0.1,5.2,0,0.299986,-8.74639e-05,1.975e-14
0.1,5.3,0,0.299985,-8.0605e-05,2.0002e-14
0.1,5.4,0,0.299985,-6.02427e-05,2.075e-14
0.1,5.5,0,0.299985,-6.02427e-05,2.075e-14
0.1,5.6,0,0.299985,-6.02427e-05,2.075e-14
0.1,5.7,0,0.299985,-6.02427e-05,2.075e-14
0.1,5.8,0,0.299985,-4.98047e-05,2.12126e-14
0.1,5.9,0,0.299984,-3.2038e-05,2.2e-14
0.1,6,0,0.299984,-3.2038e-05,2.2e-14
0.1,6.1,0,0.299984,-3.2038e-05,2.2e-14
0.1,6.2,0,0.299984,-3.2038e-05,2.2e-14
0.1,6.3,0,0.299984,-1.80016e-05,2.22441e-14
0.1,6.4,0,0.299984,-3.28589e-06,2.25e-14
0.1,6.5,0,0.299984,-3.28589e-06,2.25e-14
0.1,6.6,0,0.299984,-3.28589e-06,2.25e-14
0.1,6.7,0,0.299984,-3.28589e-06,2.25e-14
0.1,6.8,0,0.299984,1.4234e-05,2.23484e-14
0.1,6.9,0,0.299984,2.56106e-05,2.225e-14
0.1,7,0,0.299984,2.56106e-05,2.225e-14
0.1,7.1,0,0.299984,2.56106e-05,2.225e-14
0.1,7.2,0,0.299984,2.56106e-05,2.225e-14
0.1,7.3,0,0.299985,4.63608e-05,2.13445e-14
0.1,7.4,0,0.299985,5.42549e-05,2.1e-14
0.1,7.5,0,0.299985,5.42549e-05,2.1e-14
0.1,7.6,0,0.299985,5.42549e-05,2.1e-14
0.1,7.7,0,0.299985,5.42549e-05,2.1e-14
0.1,7.8,0,0.299985,7.7777e-05,2.01575e-14
0.1,7.9,0,0.299985,8.21736e-05,2e-14
0.1,8,0,0.299985,8.21736e-05,2e-14
0.1,8.1,0,0.299985,8.21736e-05,2e-14
0.1,8.2,0,0.299985,8.21736e-05,2e-14
0.1,8.3,0,0.299986,0.00010783,2e-14
0.1,8.4,0,0.299986,0.000108881,2e-14
0.1,8.5,0,0.299986,0.000108881,2e-14
0.1,8.6,0,0.299986,0.000108881,2e-14
0.1,8.7,0,0.299986,0.000110253,2e-14
0.1,8.8,0,0.299987,0.000133771,2e-14
0.1,8.9,0,0.299987,0.000133771,2e-14
0.1,9,0,0.299987,0.000133771,2e-14
0.1,9.1,0,0.299987,0.000133771,2e-14
0.1,9.2,0,0.299988,0.000137726,2e-14
0.1,9.3,0,0.299989,0.000156603,2e-14
0.1,9.4,0,0.299989,0.000156603,2e-14
0.1,9.5,0,0.299989,0.000156603,2e-14
0.1,9.6,0,0.299989,0.000156603,2e-14
0.1,9.7,0,0.299989,0.00016259,1.9269e-14
0.1,9.8,0,0.299991,0.000177153,1.74908e-14
0.1,9.9,0,0.299991,0.000177153,1.74908e-14
0.1,10,0,0.299991,0.000177153,1.74908e-14
0.1,10.1,0,0.299991,0.000177153,1.74908e-14
0.1,10.2,0,0.299992,0.000184388,1.54436e-14
0.1,10.3,0,0.299993,0.000194822,1.24909e-14
0.1,10.4,0,0.299993,0.000194822,1.24909e-14
0.1,10.5,0,0.299993,0.000194822,1.24909e-14
0.1,10.6,0,0.299993,0.000194822,1.24909e-14
0.1,10.7,0,0.299994,0.000203551,1.12299e-14
0.1,10.8,0,0.299995,0.000211301,1.01103e-14
0.1,10.9,0,0.299995,0.000211301,1.01103e-14
0.1,11,0,0.299995,0.000211301,1.01103e-14
0.1,11.1,0,0.299995,0.000211301,1.01103e-14
0.1,11.2,0,0.299996,0.0002201,8.49952e-15
0.1,11.3,0,0.299997,0.000231746,7.70096e-15
0.1,11.4,0,0.299997,0.000235501,7.74475e-15
0.1,11.5,0,0.299997,0.000235501,7.74475e-15
0.1,11.6,0,0.299997,0.000235501,7.74475e-15
0.1,11.7,0,0.299997,0.000235501,7.74475e-15
0.1,11.8,0,0.299997,0.000235501,7.74475e-15
0.1,11.9,0,0.299997,0.000235501,7.74475e-15
0.1,12,0,0.299997,0.000235501,7.74475e-15
0.1,12.1,0,0.299997,0.000235501,7.74475e-15
0.1,12.2,0,0.299997,0.000237825,6.07222e-15
0.1,12.3,0,0.299997,0.000290919,6.2996e-15
0.1,12.4,0,0.299997,0.000350819,6.81092e-15
0.1,12.5,0,0.299997,0.00041072,7.32224e-15
0.1,12.6,0,0.299997,0.000470621,7.83356e-15
0.1,12.7,0,0.299999,0.0004729,3.51769e-15
0.2,0,0,0.299996,-0.000646632,0
0.2,0.1,0,0.299995,-0.000643863,-7.7484e-25
0.2,0.2,0,0.299995,-0.000638126,-1.50921e-24
0.2,0.3,0,0.299995,-0.000578532,-1.50921e-24
0.2,0.4,0,0.299996,-0.000518938,-1.50921e-24
0.2,0.5,0,0.299996,-0.000466008,6.46112e-16
0.2,0.6,0,0.299995,-0.000458814,5.72608e-15
0.2,0.7,0,0.299994,-0.000452781,9.98544e-15
0.2,0.8,0,0.299994,-0.000452781,9.98544e-15
0.2,0.9,0,0.299994,-0.000452781,9.98544e-15
0.2,1,0,0.299994,-0.000452781,9.98544e-15
0.2,1.1,0,0.299994,-0.000452781,9.98544e-15
0.2,1.2,0,0.299994,-0.000452781,9.98544e-15
0.2,1.3,0,0.299994,-0.000450218,1.07565e-14
0.2,1.4,0,0.299992,-0.000441675,1.33268e-14
0.2,1.5,0,0.299991,-0.000436089,1.50073e-14
0.2,1.6,0,0.299991,-0.000436089,1.50073e-14
0.2,1.7,0,0.299991,-0.000436089,1.50073e-14
0.2,1.8,0,0.299991,-0.000431654,1.50045e-14
0.2,1.9,0,0.299989,-0.000420978,1.49976e-14
0.2,2,0,0.299988,-0.000415229,1.49939e-14
0.2,2.1,0,0.299988,-0.000415229,1.49939e-14
0.2,2.2,0,0.299988,-0.000415229,1.49939e-14
0.2,2.3,0,0.299987,-0.000407985,1.63538e-14
0.2,2.4,0,0.299985,-0.000394337,1.8916e-14
0.2,2.5,0,0.299985,-0.000388563,2e-14
0.2,2.6,0,0.299985,-0.000388563,2e-14
0.2,2.7,0,0.299985,-0.000388563,2e-14
0.2,2.8,0,0.299984,-0.000377778,2e-14
0.2,2.9,0,0.299982,-0.000361087,2e-14
0.2,3,0,0.299981,-0.000355951,2e-14
0.2,3.1,0,0.299981,-0.000355951,2e-14
0.2,3.2,0,0.299981,-0.000355951,2e-14
0.2,3.3,0,0.29998,-0.000341035,2.19488e-14
0.2,3.4,0,0.299979,-0.000321448,2.45079e-14
0.2,3.5,0,0.299978,-0.000317682,2.5e-14
0.2,3.6,0,0.299978,-0.000317682,2.5e-14
0.2,3.7,0,0.299978,-0.000317682,2.5e-14
0.2,3.8,0,0.299977,-0.000298165,2.72441e-14
0.2,3.9,0,0.299976,-0.000275908,2.98031e-14
0.2,4,0,0.299976,-0.000274196,3e-14
0.2,4.1,0,0.299976,-0.000274196,3e-14
0.2,4.2,0,0.299976,-0.000274196,3e-14
0.2,4.3,0,0.299975,-0.000249941,3.22854e-14
0.2,4.4,0,0.299974,-0.000226438,3.45e-14
0.2,4.5,0,0.299974,-0.000226438,3.45e-14
0.2,4.6,0,0.299974,-0.000226438,3.45e-14
0.2,4.7,0,0.299973,-0.000223599,3.47756e-14
0.2,4.8,0,0.299972,-0.000197235,3.73346e-14
0.2,4.9,0,0.299971,-0.000174928,3.95e-14
0.2,5,0,0.299971,-0.000174928,3.95e-14
0.2,5.1,0,0.299971,-0.000174928,3.95e-14
0.2,5.2,0,0.299971,-0.000168712,3.97283e-14
0.2,5.3,0,0.29997,-0.000140848,4.0752e-14
0.2,5.4,0,0.29997,-0.000120485,4.15e-14
0.2,5.5,0,0.29997,-0.000120485,4.15e-14
0.2,5.6,0,0.29997,-0.000120485,4.15e-14
0.2,5.7,0,0.299969,-0.000110714,4.19331e-14
0.2,5.8,0,0.299969,-8.18427e-05,4.32126e-14
0.2,5.9,0,0.299968,-6.40761e-05,4.4e-14
0.2,6,0,0.299968,-6.40761e-05,4.4e-14
0.2,6.1,0,0.299968,-6.40761e-05,4.4e-14
0.2,6.2,0,0.299968,-5.07188e-05,4.42323e-14
0.2,6.3,0,0.299968,-2.12874e-05,4.47441e-14
0.2,6.4,0,0.299968,-6.57178e-06,4.5e-14
0.2,6.5,0,0.299968,-6.57178e-06,4.5e-14
0.2,6.6,0,0.299968,-6.57178e-06,4.5e-14
0.2,6.7,0,0.299968,1.02655e-05,4.48543e-14
0.2,6.8,0,0.299968,3.98446e-05,4.45984e-14
0.2,6.9,0,0.299968,5.12212e-05,4.45e-14
0.2,7,0,0.299968,5.12212e-05,4.45e-14
0.2,7.1,0,0.299968,5.12212e-05,4.45e-14
0.2,7.2,0,0.299969,7.12948e-05,4.3624e-14
0.2,7.3,0,0.299969,0.000100616,4.23445e-14
0.2,7.4,0,0.299969,0.00010851,4.2e-14
0.2,7.5,0,0.299969,0.00010851,4.2e-14
0.2,7.6,0,0.299969,0.00010851,4.2e-14
0.2,7.7,0,0.29997,0.000131372,4.11811e-14
0.2,7.8,0,0.29997,0.000159951,4.01575e-14
0.2,7.9,0,0.29997,0.000164347,4e-14
0.2,8,0,0.29997,0.000164347,4e-14
0.2,8.1,0,0.29997,0.000164347,4e-14
0.2,8.2,0,0.299971,0.000189372,4e-14
0.2,8.3,0,0.299972,0.000216711,4e-14
0.2,8.4,0,0.299972,0.000217762,4e-14
0.2,8.5,0,0.299972,0.000217762,4e-14
0.2,8.6,0,0.299972,0.000218546,4e-14
0.2,8.7,0,0.299974,0.000244024,4e-14
0.2,8.8,0,0.299975,0.000267542,4e-14
0.2,8.9,0,0.299975,0.000267542,4e-14
0.2,9,0,0.299975,0.000267542,4e-14
0.2,9.1,0,0.299975,0.000270958,4e-14
0.2,9.2,0,0.299976,0.000294329,4e-14
0.2,9.3,0,0.299978,0.000313206,4e-14
0.2,9.4,0,0.299978,0.000313206,4e-14
0.2,9.5,0,0.299978,0.000313206,4e-14
0.2,9.6,0,0.299978,0.000318707,3.93283e-14
0.2,9.7,0,0.29998,0.000339743,3.67598e-14
0.2,9.8,0,0.299981,0.000354306,3.49816e-14
0.2,9.9,0,0.299981,0.000354306,3.49816e-14
0.2,10,0,0.299981,0.000354306,3.49816e-14
0.2,10.1,0,0.299982,0.000361123,3.30525e-14
0.2,10.2,0,0.299985,0.00037921,2.79345e-14
0.2,10.3,0,0.299986,0.000389645,2.49818e-14
0.2,10.4,0,0.299986,0.000389645,2.49818e-14
0.2,10.5,0,0.299986,0.000389645,2.49818e-14
0.2,10.6,0,0.299987,0.000397983,2.37772e-14
0.2,10.7,0,0.29999,0.000414919,2.13304e-14
0.2,10.8,0,0.299991,0.000422602,2.02205e-14
0.2,10.9,0,0.299991,0.000422602,2.02205e-14
0.2,11,0,0.299991,0.000422602,2.02205e-14
0.2,11.1,0,0.299992,0.000431287,1.86306e-14
0.2,11.2,0,0.299993,0.000444919,1.61353e-14
0.2,11.3,0,0.299993,0.000456583,1.53213e-14
0.2,11.4,0,0.299993,0.00046715,1.54446e-14
0.2,11.5,0,0.299993,0.000471002,1.54895e-14
0.2,11.6,0,0.299993,0.000471002,1.54895e-14
0.2,11.7,0,0.299993,0.000471002,1.54895e-14
0.2,11.8,0,0.299993,0.000471002,1.54895e-14
0.2,11.9,0,0.299993,0.000471002,1.54895e-14
0.2,12,0,0.299993,0.000471002,1.54895e-14
0.2,12.1,0,0.299994,0.000473342,1.3806e-14
0.2,12.2,0,0.299995,0.000475952,1.19277e-14
0.2,12.3,0,0.299995,0.000528848,1.21469e-14
0.2,12.4,0,0.299995,0.000588749,1.26582e-14
0.2,12.5,0,0.299995,0.00064865,1.31695e-14
0.2,12.6,0,0.299996,0.000651472,8.89917e-15
0.2,12.7,0,0.299997,0.000653207,4.53779e-15
0.3,0,0,0.299996,-0.0008244,0
0.3,0.1,0,0.299995,-0.000821632,-7.7484e-25
0.3,0.2,0,0.299994,-0.000818863,-1.54968e-24
0.3,0.3,0,0.299994,-0.000811642,-2.26381e-24
0.3,0.4,0,0.299994,-0.000752048,-2.26381e-24
0.3,0.5,0,0.299995,-0.000699428,6.76093e-16
0.3,0.6,0,0.299994,-0.000692233,5.75606e-15
0.3,0.7,0,0.299992,-0.000685038,1.0836e-14
0.3,0.8,0,0.299991,-0.000679172,1.49782e-14
0.3,0.9,0,0.299991,-0.000679172,1.49782e-14
0.3,1,0,0.299991,-0.000679172,1.49782e-14
0.3,1.1,0,0.299991,-0.000679172,1.49782e-14
0.3,1.2,0,0.299991,-0.000676806,1.56899e-14
0.3,1.3,0,0.299989,-0.000668263,1.82602e-14
0.3,1.4,0,0.299988,-0.000659719,2.08304e-14
0.3,1.5,0,0.299987,-0.000654133,2.2511e-14
0.3,1.6,0,0.299987,-0.000654133,2.2511e-14
0.3,1.7,0,0.299986,-0.000649945,2.25083e-14
0.3,1.8,0,0.299984,-0.000639269,2.25014e-14
0.3,1.9,0,0.299983,-0.000628593,2.24946e-14
0.3,2,0,0.299982,-0.000622844,2.24909e-14
0.3,2.1,0,0.299982,-0.000622844,2.24909e-14
0.3,2.2,0,0.299981,-0.000615915,2.37917e-14
0.3,2.3,0,0.299979,-0.000602267,2.63538e-14
0.3,2.4,0,0.299978,-0.000588619,2.8916e-14
0.3,2.5,0,0.299977,-0.000582845,3e-14
0.3,2.6,0,0.299977,-0.000582845,3e-14
0.3,2.7,0,0.299976,-0.000572445,3e-14
0.3,2.8,0,0.299974,-0.000555754,3e-14
0.3,2.9,0,0.299973,-0.000539063,3e-14
0.3,3,0,0.299972,-0.000533927,3e-14
0.3,3.1,0,0.299972,-0.000533927,3e-14
0.3,3.2,0,0.299971,-0.000519463,3.18898e-14
0.3,3.3,0,0.299969,-0.000499876,3.44488e-14
0.3,3.4,0,0.299968,-0.000480289,3.70079e-14
0.3,3.5,0,0.299967,-0.000476523,3.75e-14
0.3,3.6,0,0.299967,-0.000476523,3.75e-14
0.3,3.7,0,0.299966,-0.000457519,3.9685e-14
0.3,3.8,0,0.299965,-0.000435263,4.22441e-14
0.3,3.9,0,0.299964,-0.000413006,4.48031e-14
0.3,4,0,0.299964,-0.000411294,4.5e-14
0.3,4.1,0,0.299964,-0.000411294,4.5e-14
0.3,4.2,0,0.299963,-0.000387603,4.72323e-14
0.3,4.3,0,0.299962,-0.00036316,4.95354e-14
0.3,4.4,0,0.29996,-0.000339657,5.175e-14
0.3,4.5,0,0.29996,-0.000339657,5.175e-14
0.3,4.6,0,0.29996,-0.000337426,5.19665e-14
0.3,4.7,0,0.299959,-0.000311063,5.45256e-14
0.3,4.8,0,0.299958,-0.000284699,5.70846e-14
0.3,4.9,0,0.299957,-0.000262392,5.925e-14
0.3,5,0,0.299957,-0.000262392,5.925e-14
0.3,5.1,0,0.299957,-0.000256819,5.94547e-14
0.3,5.2,0,0.299956,-0.000228955,6.04783e-14
0.3,5.3,0,0.299955,-0.00020109,6.1502e-14
0.3,5.4,0,0.299955,-0.000180728,6.225e-14
0.3,5.5,0,0.299955,-0.000180728,6.225e-14
0.3,5.6,0,0.299954,-0.000171623,6.26535e-14
0.3,5.7,0,0.299954,-0.000142752,6.39331e-14
0.3,5.8,0,0.299953,-0.000113881,6.52126e-14
0.3,5.9,0,0.299953,-9.61141e-05,6.6e-14
0.3,6,0,0.299953,-9.61141e-05,6.6e-14
0.3,6.1,0,0.299953,-8.3436e-05,6.62205e-14
0.3,6.2,0,0.299952,-5.40047e-05,6.67323e-14
0.3,6.3,0,0.299952,-2.45733e-05,6.72441e-14
0.3,6.4,0,0.299952,-9.85767e-06,6.75e-14
0.3,6.5,0,0.299952,-9.85767e-06,6.75e-14
0.3,6.6,0,0.299952,6.29706e-06,6.73602e-14
0.3,6.7,0,0.299952,3.58761e-05,6.71043e-14
0.3,6.8,0,0.299953,6.54552e-05,6.68484e-14
0.3,6.9,0,0.299953,7.68318e-05,6.675e-14
0.3,7,0,0.299953,7.68318e-05,6.675e-14
0.3,7.1,0,0.299953,9.62287e-05,6.59035e-14
0.3,7.2,0,0.299953,0.00012555,6.4624e-14
0.3,7.3,0,0.299954,0.000154871,6.33445e-14
0.3,7.4,0,0.299954,0.000162765,6.3e-14
0.3,7.5,0,0.299954,0.000162765,6.3e-14
0.3,7.6,0,0.299954,0.000184968,6.22047e-14
0.3,7.7,0,0.299955,0.000213546,6.11811e-14
0.3,7.8,0,0.299956,0.000242124,6.01575e-14
0.3,7.9,0,0.299956,0.000246521,6e-14
0.3,8,0,0.299956,0.000246521,6e-14
0.3,8.1,0,0.299956,0.000270915,6e-14
0.3,8.2,0,0.299957,0.000298254,6e-14
0.3,8.3,0,0.299958,0.000325592,6e-14
0.3,8.4,0,0.299958,0.000326644,6e-14
0.3,8.5,0,0.299958,0.00032684,6e-14
0.3,8.6,0,0.29996,0.000352317,6e-14
0.3,8.7,0,0.299961,0.000377795,6e-14
0.3,8.8,0,0.299962,0.000401313,6e-14
0.3,8.9,0,0.299962,0.000401313,6e-14
0.3,9,0,0.299962,0.00040419,6e-14
0.3,9.1,0,0.299964,0.000427561,6e-14
0.3,9.2,0,0.299965,0.000450932,6e-14
0.3,9.3,0,0.299966,0.000469809,6e-14
0.3,9.4,0,0.299966,0.000469809,6e-14
0.3,9.5,0,0.299967,0.000474825,5.93875e-14
0.3,9.6,0,0.299969,0.00049586,5.68191e-14
0.3,9.7,0,0.29997,0.000516896,5.42506e-14
0.3,9.8,0,0.299972,0.000531459,5.24725e-14
0.3,9.9,0,0.299972,0.000531459,5.24725e-14
0.3,10,0,0.299973,0.000537859,5.06615e-14
0.3,10.1,0,0.299975,0.000555946,4.55434e-14
0.3,10.2,0,0.299978,0.000574032,4.04254e-14
0.3,10.3,0,0.299979,0.000584467,3.74727e-14
0.3,10.4,0,0.299979,0.000584467,3.74727e-14
0.3,10.5,0,0.29998,0.000592414,3.63246e-14
0.3,10.6,0,0.299983,0.00060935,3.38778e-14
0.3,10.7,0,0.299985,0.000626287,3.1431e-14
0.3,10.8,0,0.299986,0.000633903,3.03308e-14
0.3,10.9,0,0.299986,0.000633903,3.03308e-14
0.3,11,0,0.299987,0.000642475,2.87617e-14
0.3,11.1,0,0.299988,0.000656107,2.62663e-14
0.3,11.2,0,0.29999,0.000669739,2.3771e-14
0.3,11.3,0,0.29999,0.00068142,2.29417e-14
0.3,11.4,0,0.29999,0.000691987,2.3065e-14
0.3,11.5,0,0.29999,0.000702554,2.31882e-14
0.3,11.6,0,0.29999,0.000706504,2.32343e-14
0.3,11.7,0,0.29999,0.000706504,2.32343e-14
0.3,11.8,0,0.29999,0.000706504,2.32343e-14
0.3,11.9,0,0.29999,0.000706504,2.32343e-14
0.3,12,0,0.299991,0.000708858,2.15398e-14
0.3,12.1,0,0.299991,0.000711469,1.96615e-14
0.3,12.2,0,0.299992,0.000714079,1.77832e-14
0.3,12.3,0,0.299992,0.000766778,1.79942e-14
0.3,12.4,0,0.299992,0.000826679,1.85055e-14
0.3,12.5,0,0.299994,0.000830044,1.42806e-14
0.3,12.6,0,0.299995,0.00083178,9.91926e-15
0.3,12.7,0,0.299996,0.000833515,5.55789e-15
0.4,0,0,0.299995,-0.00100217,0
0.4,0.1,0,0.299994,-0.000999401,-7.7484e-25
0.4,0.2,0,0.299994,-0.000996632,-1.54968e-24
0.4,0.3,0,0.299993,-0.000993863,-2.32452e-24
0.4,0.4,0,0.299993,-0.000985158,-3.01841e-24
0.4,0.5,0,0.299993,-0.000932847,7.06074e-16
0.4,0.6,0,0.299992,-0.000925652,5.78604e-15
0.4,0.7,0,0.299991,-0.000918458,1.0866e-14
0.4,0.8,0,0.299989,-0.000911263,1.5946e-14
0.4,0.9,0,0.299988,-0.000905563,1.99709e-14
0.4,1,0,0.299988,-0.000905563,1.99709e-14
0.4,1.1,0,0.299988,-0.000903394,2.06233e-14
0.4,1.2,0,0.299987,-0.00089485,2.31936e-14
0.4,1.3,0,0.299985,-0.000886307,2.57638e-14
0.4,1.4,0,0.299984,-0.000877763,2.83341e-14
0.4,1.5,0,0.299983,-0.000872177,3.00147e-14
0.4,1.6,0,0.299982,-0.000868235,3.00121e-14
0.4,1.7,0,0.29998,-0.000857559,3.00053e-14
0.4,1.8,0,0.299978,-0.000846883,2.99984e-14
0.4,1.9,0,0.299977,-0.000836207,2.99915e-14
0.4,2,0,0.299976,-0.000830459,2.99878e-14
0.4,2.1,0,0.299975,-0.000823845,3.12295e-14
0.4,2.2,0,0.299973,-0.000810197,3.37917e-14
0.4,2.3,0,0.299972,-0.000796548,3.63538e-14
0.4,2.4,0,0.29997,-0.0007829,3.8916e-14
0.4,2.5,0,0.299969,-0.000777126,4e-14
0.4,2.6,0,0.299968,-0.000767112,4e-14
0.4,2.7,0,0.299967,-0.00075042,4e-14
0.4,2.8,0,0.299965,-0.000733729,4e-14
0.4,2.9,0,0.299963,-0.000717038,4e-14
0.4,3,0,0.299963,-0.000711903,4e-14
0.4,3.1,0,0.299962,-0.000697891,4.18307e-14
0.4,3.2,0,0.29996,-0.000678304,4.43898e-14
0.4,3.3,0,0.299958,-0.000658717,4.69488e-14
0.4,3.4,0,0.299957,-0.00063913,4.95079e-14
0.4,3.5,0,0.299957,-0.000635364,5e-14
0.4,3.6,0,0.299956,-0.000616874,5.2126e-14
0.4,3.7,0,0.299954,-0.000594617,5.4685e-14
0.4,3.8,0,0.299953,-0.000572361,5.72441e-14
0.4,3.9,0,0.299952,-0.000550105,5.98031e-14
0.4,4,0,0.299952,-0.000548393,6e-14
0.4,4.1,0,0.299951,-0.000525265,6.21791e-14
0.4,4.2,0,0.29995,-0.000500822,6.44823e-14
0.4,4.3,0,0.299948,-0.000476379,6.67854e-14
0.4,4.4,0,0.299947,-0.000452876,6.9e-14
0.4,4.5,0,0.299947,-0.000451253,6.91575e-14
0.4,4.6,0,0.299946,-0.00042489,7.17165e-14
0.4,4.7,0,0.299945,-0.000398527,7.42756e-14
0.4,4.8,0,0.299944,-0.000372163,7.68346e-14
0.4,4.9,0,0.299943,-0.000349856,7.9e-14
0.4,5,0,0.299943,-0.000344926,7.91811e-14
0.4,5.1,0,0.299942,-0.000317062,8.02047e-14
0.4,5.2,0,0.299941,-0.000289197,8.12283e-14
0.4,5.3,0,0.29994,-0.000261333,8.2252e-14
0.4,5.4,0,0.299939,-0.000240971,8.3e-14
0.4,5.5,0,0.299939,-0.000232531,8.3374e-14
0.4,5.6,0,0.299939,-0.000203661,8.46535e-14
0.4,5.7,0,0.299938,-0.00017479,8.59331e-14
0.4,5.8,0,0.299937,-0.000145919,8.72126e-14
0.4,5.9,0,0.299937,-0.000128152,8.8e-14
0.4,6,0,0.299937,-0.000116153,8.82087e-14
0.4,6.1,0,0.299937,-8.67219e-05,8.87205e-14
0.4,6.2,0,0.299937,-5.72905e-05,8.92323e-14
0.4,6.3,0,0.299936,-2.78592e-05,8.97441e-14
0.4,6.4,0,0.299936,-1.31436e-05,9e-14
0.4,6.5,0,0.299936,2.32857e-06,8.98661e-14
0.4,6.6,0,0.299937,3.19076e-05,8.96102e-14
0.4,6.7,0,0.299937,6.14867e-05,8.93543e-14
0.4,6.8,0,0.299937,9.10658e-05,8.90984e-14
0.4,6.9,0,0.299937,0.000102442,8.9e-14
0.4,7,0,0.299937,0.000121163,8.81831e-14
0.4,7.1,0,0.299938,0.000150484,8.69035e-14
0.4,7.2,0,0.299938,0.000179805,8.5624e-14
0.4,7.3,0,0.299938,0.000209125,8.43445e-14
0.4,7.4,0,0.299938,0.00021702,8.4e-14
0.4,7.5,0,0.299939,0.000238563,8.32283e-14
0.4,7.6,0,0.299939,0.000267141,8.22047e-14
0.4,7.7,0,0.29994,0.00029572,8.11811e-14
0.4,7.8,0,0.299941,0.000324298,8.01575e-14
0.4,7.9,0,0.299941,0.000328695,8e-14
0.4,8,0,0.299942,0.000352458,8e-14
0.4,8.1,0,0.299943,0.000379796,8e-14
0.4,8.2,0,0.299944,0.000407135,8e-14
0.4,8.3,0,0.299945,0.000434473,8e-14
0.4,8.4,0,0.299945,0.000435525,8e-14
0.4,8.5,0,0.299946,0.000460611,8e-14
0.4,8.6,0,0.299947,0.000486089,8e-14
0.4,8.7,0,0.299948,0.000511567,8e-14
0.4,8.8,0,0.29995,0.000535085,8e-14
0.4,8.9,0,0.29995,0.000537422,8e-14
0.4,9,0,0.299951,0.000560793,8e-14
0.4,9.1,0,0.299953,0.000584164,8e-14
0.4,9.2,0,0.299954,0.000607535,8e-14
0.4,9.3,0,0.299955,0.000626411,8e-14
0.4,9.4,0,0.299955,0.000630942,7.94468e-14
0.4,9.5,0,0.299957,0.000651978,7.68783e-14
0.4,9.6,0,0.299959,0.000673013,7.43099e-14
0.4,9.7,0,0.299961,0.000694049,7.17414e-14
0.4,9.8,0,0.299962,0.000708612,6.99633e-14
0.4,9.9,0,0.299963,0.000714595,6.82704e-14
0.4,10,0,0.299966,0.000732681,6.31523e-14
0.4,10.1,0,0.299968,0.000750768,5.80343e-14
0.4,10.2,0,0.299971,0.000768855,5.29163e-14
0.4,10.3,0,0.299972,0.000779289,4.99635e-14
0.4,10.4,0,0.299973,0.000786845,4.88719e-14
0.4,10.5,0,0.299976,0.000803782,4.64251e-14
0.4,10.6,0,0.299978,0.000820718,4.39784e-14
0.4,10.7,0,0.299981,0.000837655,4.15316e-14
0.4,10.8,0,0.299982,0.000845204,4.0441e-14
0.4,10.9,0,0.299983,0.000853662,3.88928e-14
0.4,11,0,0.299984,0.000867294,3.63974e-14
0.4,11.1,0,0.299985,0.000880926,3.39021e-14
0.4,11.2,0,0.299986,0.000894558,3.14067e-14
0.4,11.3,0,0.299987,0.000906258,3.05621e-14
0.4,11.4,0,0.299987,0.000916824,3.06853e-14
0.4,11.5,0,0.299987,0.000927391,3.08086e-14
0.4,11.6,0,0.299986,0.000937958,3.09318e-14
0.4,11.7,0,0.299986,0.000942005,3.0979e-14
0.4,11.8,0,0.299986,0.000942005,3.0979e-14
0.4,11.9,0,0.299987,0.000944375,2.92735e-14
0.4,12,0,0.299988,0.000946985,2.73953e-14
0.4,12.1,0,0.299989,0.000949595,2.5517e-14
0.4,12.2,0,0.29999,0.000952206,2.36387e-14
0.4,12.3,0,0.29999,0.00100471,2.38414e-14
0.4,12.4,0,0.299991,0.00100862,1.96621e-14
0.4,12.5,0,0.299992,0.00101035,1.53007e-14
0.4,12.6,0,0.299993,0.00101209,1.09394e-14
0.4,12.7,0,0.299995,0.00101382,6.57799e-15
0.5,0,0,0.299994,-0.00117994,0
0.5,0.1,0,0.299994,-0.00117734,3.11571e-18
0.5,0.2,0,0.299993,-0.00117473,6.23142e-18
0.5,0.3,0,0.299993,-0.00117213,9.34713e-18
0.5,0.4,0,0.299992,-0.00116953,1.24628e-17
0.5,0.5,0,0.299991,-0.0011662,7.1023e-16
0.5,0.6,0,0.29999,-0.00115902,5.79561e-15
0.5,0.7,0,0.299989,-0.00115184,1.0881e-14
0.5,0.8,0,0.299988,-0.00114466,1.59664e-14
0.5,0.9,0,0.299986,-0.00113748,2.10518e-14
0.5,1,0,0.299985,-0.00112998,2.55567e-14
0.5,1.1,0,0.299984,-0.00112144,2.8127e-14
0.5,1.2,0,0.299982,-0.00111289,3.06973e-14
0.5,1.3,0,0.299981,-0.00110435,3.32675e-14
0.5,1.4,0,0.299979,-0.00109581,3.58378e-14
0.5,1.5,0,0.299978,-0.00108653,3.75159e-14
0.5,1.6,0,0.299976,-0.00107585,3.75091e-14
0.5,1.7,0,0.299974,-0.00106517,3.75022e-14
0.5,1.8,0,0.299972,-0.0010545,3.74954e-14
0.5,1.9,0,0.29997,-0.00104382,3.74885e-14
0.5,2,0,0.299969,-0.00103177,3.86673e-14
0.5,2.1,0,0.299967,-0.00101813,4.12295e-14
0.5,2.2,0,0.299965,-0.00100448,4.37917e-14
0.5,2.3,0,0.299964,-0.00099083,4.63538e-14
0.5,2.4,0,0.299962,-0.000977182,4.8916e-14
0.5,2.5,0,0.299961,-0.000961778,5e-14
0.5,2.6,0,0.299959,-0.000945087,5e-14
0.5,2.7,0,0.299957,-0.000928396,5e-14
0.5,2.8,0,0.299956,-0.000911705,5e-14
0.5,2.9,0,0.299954,-0.000895014,5e-14
0.5,3,0,0.299952,-0.000876318,5.17717e-14
0.5,3.1,0,0.299951,-0.000856731,5.43307e-14
0.5,3.2,0,0.299949,-0.000837145,5.68898e-14
0.5,3.3,0,0.299948,-0.000817558,5.94488e-14
0.5,3.4,0,0.299946,-0.000797971,6.20079e-14
0.5,3.5,0,0.299945,-0.000776228,6.45669e-14
0.5,3.6,0,0.299944,-0.000753972,6.7126e-14
0.5,3.7,0,0.299942,-0.000731715,6.9685e-14
0.5,3.8,0,0.299941,-0.000709459,7.22441e-14
0.5,3.9,0,0.29994,-0.000687203,7.48031e-14
0.5,4,0,0.299939,-0.000662928,7.7126e-14
0.5,4.1,0,0.299937,-0.000638484,7.94291e-14
0.5,4.2,0,0.299936,-0.000614041,8.17323e-14
0.5,4.3,0,0.299935,-0.000589598,8.40354e-14
0.5,4.4,0,0.299934,-0.000565081,8.63484e-14
0.5,4.5,0,0.299933,-0.000538717,8.89075e-14
0.5,4.6,0,0.299932,-0.000512354,9.14665e-14
0.5,4.7,0,0.299931,-0.000485991,9.40256e-14
0.5,4.8,0,0.299929,-0.000459627,9.65846e-14
0.5,4.9,0,0.299928,-0.000433033,9.89075e-14
0.5,5,0,0.299927,-0.000405169,9.99311e-14
0.5,5.1,0,0.299927,-0.000377304,1.00955e-13
0.5,5.2,0,0.299926,-0.00034944,1.01978e-13
0.5,5.3,0,0.299925,-0.000321576,1.03002e-13
0.5,5.4,0,0.299924,-0.00029344,1.04094e-13
0.5,5.5,0,0.299923,-0.000264569,1.05374e-13
0.5,5.6,0,0.299923,-0.000235699,1.06654e-13
0.5,5.7,0,0.299922,-0.000206828,1.07933e-13
0.5,5.8,0,0.299922,-0.000177957,1.09213e-13
0.5,5.9,0,0.299921,-0.00014887,1.10197e-13
0.5,6,0,0.299921,-0.000119439,1.10709e-13
0.5,6.1,0,0.299921,-9.00078e-05,1.1122e-13
0.5,6.2,0,0.299921,-6.05764e-05,1.11732e-13
0.5,6.3,0,0.29992,-3.11451e-05,1.12244e-13
0.5,6.4,0,0.29992,-1.63991e-06,1.12372e-13
0.5,6.5,0,0.299921,2.79392e-05,1.12116e-13
0.5,6.6,0,0.299921,5.75182e-05,1.1186e-13
0.5,6.7,0,0.299921,8.70973e-05,1.11604e-13
0.5,6.8,0,0.299921,0.000116676,1.11348e-13
0.5,6.9,0,0.299921,0.000146097,1.10463e-13
0.5,7,0,0.299922,0.000175418,1.09183e-13
0.5,7.1,0,0.299922,0.000204739,1.07904e-13
0.5,7.2,0,0.299923,0.000234059,1.06624e-13
0.5,7.3,0,0.299923,0.00026338,1.05344e-13
0.5,7.4,0,0.299923,0.000292159,1.04252e-13
0.5,7.5,0,0.299924,0.000320737,1.03228e-13
0.5,7.6,0,0.299925,0.000349315,1.02205e-13
0.5,7.7,0,0.299925,0.000377893,1.01181e-13
0.5,7.8,0,0.299926,0.000406472,1.00157e-13
0.5,7.9,0,0.299927,0.000434001,1e-13
0.5,8,0,0.299928,0.000461339,1e-13
0.5,8.1,0,0.299929,0.000488678,1e-13
0.5,8.2,0,0.29993,0.000516016,1e-13
0.5,8.3,0,0.299931,0.000543355,1e-13
0.5,8.4,0,0.299932,0.000568904,1e-13
0.5,8.5,0,0.299933,0.000594382,1e-13
0.5,8.6,0,0.299935,0.00061986,1e-13
0.5,8.7,0,0.299936,0.000645338,1e-13
0.5,8.8,0,0.299937,0.000670654,1e-13
0.5,8.9,0,0.299938,0.000694025,1e-13
0.5,9,0,0.29994,0.000717396,1e-13
0.5,9.1,0,0.299941,0.000740767,1e-13
0.5,9.2,0,0.299943,0.000764138,1e-13
0.5,9.3,0,0.299944,0.00078706,9.95061e-14
0.5,9.4,0,0.299946,0.000808095,9.69376e-14
0.5,9.5,0,0.299948,0.000829131,9.43692e-14
0.5,9.6,0,0.29995,0.000850166,9.18007e-14