/*--------------------------------*- C++ -*----------------------------------*\
| =========                 |                                                 |
| \\      /  F ield         | OpenFOAM: The Open Source CFD Toolbox           |
|  \\    /   O peration     | Version:  v1806                                 |
|   \\  /    A nd           | Web:      www.OpenFOAM.com                      |
|    \\/     M anipulation  |                                                 |
\*---------------------------------------------------------------------------*/
FoamFile
{
    version     2.0;
    format      ascii;
    class       surfaceScalarField;
    location    "210";
    object      phi;
}
// * * * * * * * * * * * * * * * * * * * * * * * * * * * * * * * * * * * * * //

dimensions      [0 3 -1 0 0 0 0];
oriented        oriented;


internalField   nonuniform List<scalar> 
4680
(
0.0750003
-0.000257211
0.0750012
-0.000771551
0.075003
-0.00128503
0.0750058
-0.00179642
0.07501
-0.00230457
0.075016
-0.00280806
0.0750244
-0.00330516
0.0750356
-0.00379368
0.0750503
-0.00427104
0.0750693
-0.00473414
0.0750934
-0.00517944
0.0751233
-0.00560293
0.0751599
-0.00600025
0.075204
-0.00636668
0.0752561
-0.00669748
0.0753168
-0.00698775
0.0753863
-0.00723315
0.0754648
-0.0074294
0.0755521
-0.00757372
-0.00766185
0.0756449
0.0750007
-0.000257922
0.0750029
-0.000773732
0.0750067
-0.00128883
0.0750125
-0.00180222
0.0750208
-0.00231289
0.0750323
-0.00281958
0.0750479
-0.00332067
0.0750683
-0.00381413
0.0750947
-0.00429745
0.0751282
-0.00476761
0.0751698
-0.0052211
0.0752208
-0.00565388
0.075282
-0.00606146
0.0753543
-0.00643898
0.0754382
-0.00678136
0.0755339
-0.00708346
0.0756411
-0.00734036
0.0757592
-0.00754748
0.0758865
-0.00770104
-0.00779791
0.0760226
0.0750011
-0.00025901
0.0750044
-0.000777035
0.0750102
-0.0012946
0.0750189
-0.00181099
0.0750315
-0.00232545
0.0750488
-0.00283692
0.0750721
-0.00334399
0.0751028
-0.00384481
0.0751424
-0.00433699
0.0751924
-0.00481761
0.0752544
-0.00528315
0.07533
-0.00572949
0.0754205
-0.00615194
0.0755268
-0.00654533
0.0756496
-0.0069041
0.0757887
-0.00722257
0.0759434
-0.00749506
0.0761123
-0.00771638
0.0762931
-0.00788183
-0.00798828
0.0764834
0.0750013
-0.000260355
0.0750054
-0.000781127
0.0750126
-0.00130178
0.0750236
-0.001822
0.0750395
-0.00234135
0.0750617
-0.00285908
0.0750917
-0.00337403
0.0751315
-0.00388461
0.0751831
-0.00438859
0.0752487
-0.00488321
0.0753305
-0.0053649
0.0754305
-0.00582947
0.0755504
-0.00627191
0.0756917
-0.00668662
0.075855
-0.00706736
0.0760401
-0.00740766
0.0762458
-0.00770079
0.0764701
-0.00794062
0.0767094
-0.00812119
-0.00823875
0.0769599
0.0750014
-0.000261799
0.0750059
-0.000785536
0.0750137
-0.00130959
0.0750258
-0.00183417
0.0750437
-0.00235923
0.0750691
-0.00288442
0.075104
-0.00340894
0.0751509
-0.00393152
0.0752125
-0.00445018
0.0752916
-0.00496236
0.0753912
-0.00546449
0.075514
-0.00595228
0.0756624
-0.00642034
0.0758384
-0.00686253
0.0760427
-0.0072717
0.0762753
-0.00764029
0.0765347
-0.00796019
0.0768179
-0.00822386
0.0771204
-0.00842366
-0.00855484
0.0774365
0.0750013
-0.000263137
0.0750054
-0.000789645
0.0750129
-0.00131701
0.0750248
-0.00184608
0.0750428
-0.00237727
0.0750692
-0.00291079
0.0751065
-0.00344622
0.0751578
-0.00398282
0.0752264
-0.00451887
0.0753163
-0.00505218
0.0754309
-0.00557915
0.0755742
-0.00609557
0.0757494
-0.00659547
0.075959
-0.0070722
0.0762047
-0.00751737
0.0764865
-0.00792206
0.0768026
-0.00827634
0.0771493
-0.00857054
0.0775207
-0.00879504
-0.00894315
0.077909
0.075001
-0.000264115
0.075004
-0.000792695
0.0750098
-0.00132277
0.0750197
-0.00185596
0.0750356
-0.00239323
0.0750603
-0.00293546
0.0750968
-0.00348273
0.075149
-0.004035
0.075221
-0.00459086
0.0753176
-0.00514883
0.0754436
-0.00570513
0.0756041
-0.00625606
0.0758033
-0.00679468
0.0760453
-0.00731422
0.0763323
-0.00780435
0.0766651
-0.00825481
0.0770418
-0.00865304
0.0774577
-0.00898643
0.0779056
-0.00924299
-0.00941231
0.0783748
0.0750003
-0.000264432
0.0750014
-0.000793784
0.075004
-0.00132538
0.0750098
-0.0018617
0.0750209
-0.00240438
0.0750406
-0.00295511
0.0750724
-0.00351454
0.075121
-0.00408367
0.0751915
-0.00466133
0.07529
-0.00524733
0.0754223
-0.00583739
0.0755955
-0.00642925
0.0758149
-0.00701409
0.076087
-0.00758633
0.0764146
-0.00813196
0.0768003
-0.00864056
0.0772421
-0.00909482
0.0777347
-0.00947898
0.0782693
-0.00977758
-0.0099738
0.0788308
0.0749993
-0.000263744
0.0749974
-0.000791873
0.0749951
-0.00132309
0.0749943
-0.00186085
0.0749974
-0.00240749
0.075008
-0.00296578
0.0750304
-0.00353692
0.0750702
-0.00412341
0.075133
-0.00472418
0.075227
-0.00534128
0.0753588
-0.00596918
0.0755385
-0.00660903
0.0757724
-0.00724796
0.0760711
-0.00788504
0.0764374
-0.00849823
0.0768783
-0.00908148
0.0773902
-0.00960667
0.0779692
-0.010058
0.0786036
-0.010412
-0.0106432
0.079273
0.0749979
-0.000261662
0.0749918
-0.0007858
0.0749827
-0.00131394
0.0749725
-0.00185061
0.0749638
-0.00239888
0.0749609
-0.00296285
0.0749682
-0.00354424
0.0749925
-0.00414769
0.0750402
-0.00477185
0.0751215
-0.00542257
0.0752439
-0.00609159
0.075422
-0.00678713
0.0756619
-0.00748785
0.0759819
-0.00820512
0.0763824
-0.00889869
0.0768809
-0.00958
0.0774673
-0.0101931
0.0781463
-0.010737
0.0788974
-0.0111631
-0.0114426
0.0796968
0.0749961
-0.00025777
0.0749846
-0.00077431
0.0749665
-0.0012958
0.0749438
-0.00182792
0.0749194
-0.00237445
0.0748976
-0.00294108
0.0748833
-0.00352999
0.0748844
-0.00414873
0.0749077
-0.00479512
0.0749661
-0.005481
0.0750675
-0.006193
0.0752328
-0.0069524
0.0754663
-0.00772141
0.0757999
-0.00853875
0.0762258
-0.0093245
0.0767848
-0.010139
0.0774476
-0.0108559
0.0782466
-0.0115359
0.0791343
-0.0120509
-0.0124055
0.0800973
0.0749939
-0.000251639
0.0749757
-0.000756099
0.0749463
-0.00126645
0.0749079
-0.00178952
0.0748633
-0.0023298
0.0748169
-0.00289472
0.0747738
-0.0034869
0.0747426
-0.0041175
0.0747305
-0.00478306
0.0747534
-0.0055039
0.074819
-0.00625863
0.0749564
-0.00708977
0.0751662
-0.00793114
0.0755013
-0.00887393
0.0759365
-0.00975965
0.0765596
-0.0107621
0.0772933
-0.0115896
0.078245
-0.0124876
0.079289
-0.0130949
-0.0135887
0.0804721
0.0749912
-0.000242846
0.074965
-0.000729886
0.0749222
-0.0012237
0.0748649
-0.00173213
0.0747955
-0.0022604
0.0747184
-0.00281769
0.0746386
-0.00340712
0.074565
-0.00404388
0.0745051
-0.00472313
0.0744769
-0.00547573
0.0744885
-0.00627018
0.0745775
-0.00717878
0.0747398
-0.00809345
0.0750571
-0.00919127
0.0754756
-0.0101781
0.0761647
-0.0114512
0.0769492
-0.0123741
0.0781085
-0.013647
0.0793177
-0.0143041
-0.0150971
0.0808261
0.0749882
-0.000231009
0.0749528
-0.000694501
0.0748946
-0.0011655
0.0748151
-0.00165267
0.0747166
-0.00216191
0.0746029
-0.00270395
0.0744784
-0.00328262
0.0743515
-0.00391697
0.0742299
-0.00460151
0.0741322
-0.00537805
0.0740678
-0.00620577
0.0740806
-0.00719156
0.0741653
-0.00817823
0.0744323
-0.00945822
0.0747973
-0.0105432
0.0755427
-0.0121966
0.0763372
-0.0131686
0.0777884
-0.0150982
0.0791379
-0.0156536
-0.0171359
0.0811767
0.0749848
-0.000215817
0.0749393
-0.000648998
0.074864
-0.00109018
0.0747598
-0.00154853
0.0746284
-0.00203051
0.0744725
-0.00254797
0.0742956
-0.00310577
0.0741045
-0.00372584
0.0739068
-0.0044038
0.0737189
-0.00519014
0.0735533
-0.0060402
0.0734529
-0.00709123
0.0734229
-0.00814821
0.0735854
-0.00962065
0.0738529
-0.0108107
0.0746084
-0.012952
0.0753587
-0.0139189
0.0771954
-0.016935
0.0786053
-0.0170634
-0.0200893
0.0815587
0.0749813
-0.000197077
0.074925
-0.000592778
0.0748315
-0.000996635
0.0747008
-0.00141788
0.0745337
-0.00186339
0.0743312
-0.00234543
0.0740955
-0.00287011
0.0738304
-0.00346075
0.0735427
-0.00411604
0.0732433
-0.00489073
0.0729486
-0.00574556
0.0726908
-0.00683341
0.0724979
-0.00795533
0.0724722
-0.00959491
0.0725922
-0.0109307
0.0732358
-0.0135956
0.0739121
-0.0145952
0.0761341
-0.019157
0.0774991
-0.0184284
-0.0246619
0.0820717
0.0749777
-0.000174753
0.0749106
-0.000525707
0.0747985
-0.000884531
0.0746407
-0.00126006
0.0744365
-0.00165925
0.0741851
-0.00209398
0.0738864
-0.00257144
0.0735403
-0.00311466
0.0731508
-0.00372655
0.0727212
-0.00446113
0.0722686
-0.00529291
0.0718069
-0.00637172
0.0713892
-0.00753767
0.0710648
-0.0092705
0.0709519
-0.0108178
0.0712558
-0.0138995
0.0718916
-0.0152311
0.0741978
-0.0214631
0.0756058
-0.0198363
-0.0319204
0.0828642
0.0749743
-0.000149007
0.0748968
-0.000448215
0.0747667
-0.000754516
0.0745825
-0.00107586
0.0743421
-0.00141881
0.0740421
-0.00179393
0.0736797
-0.00220904
0.07325
-0.00268498
0.0727522
-0.00322873
0.07218
-0.00388897
0.0715443
-0.0046572
0.0708386
-0.00566598
0.0701218
-0.0068209
0.0693862
-0.00853497
0.0688641
-0.0102957
0.0685425
-0.0135778
0.069077
-0.0157656
0.0706902
-0.0230763
0.0730038
-0.02215
-0.0420667
0.0831502
0.0749713
-0.000120263
0.0748844
-0.000361332
0.0747382
-0.000608337
0.0745301
-0.000867762
0.0742565
-0.00114522
0.0739115
-0.0014489
0.0734892
-0.00178678
0.0729795
-0.00217528
0.0723752
-0.00262441
0.0716589
-0.00317267
0.0708283
-0.00382666
0.0698537
-0.0046913
0.0687697
-0.00573696
0.0675215
-0.00728672
0.0663337
-0.00910791
0.0650759
-0.01232
0.0649019
-0.0155917
0.065025
-0.0231994
0.069983
-0.027108
-0.0507091
0.0786254
0.074969
-8.92468e-05
0.0748742
-0.000266532
0.0747147
-0.000448894
0.074487
-0.000639974
0.0741857
-0.000843994
0.0738028
-0.001066
0.0733296
-0.00131358
0.0727507
-0.00159637
0.0720526
-0.00192625
0.071206
-0.00232615
0.0701929
-0.00281351
0.0689558
-0.00345425
0.0674834
-0.00426451
0.0656573
-0.00546063
0.0635593
-0.00700989
0.0609475
-0.00970816
0.0585827
-0.0132269
0.0562588
-0.0208754
0.0606183
-0.0314676
0.0592391
-0.0493299
0.0758108
-0.0123299
0.0759917
-0.0121877
0.0761783
-0.0118267
0.0763681
-0.0112722
0.0765528
-0.0105507
0.0767311
-0.00971636
0.0768965
-0.00877337
0.0770502
-0.00781146
0.0771894
-0.0067654
-0.00580352
0.0773114
0.0762517
-0.012559
0.0764882
-0.0124242
0.0767197
-0.0120583
0.0769405
-0.011493
0.0771417
-0.0107519
0.0773232
-0.00989791
0.0774804
-0.00893051
0.0776157
-0.00794683
0.0777275
-0.00687716
-0.00589414
0.0778181
0.076799
-0.0128746
0.0771158
-0.012741
0.077416
-0.0123585
0.0776909
-0.0117679
0.0779298
-0.0109908
0.0781336
-0.0101017
0.0782985
-0.00909542
0.0784286
-0.00807691
0.0785238
-0.00697238
-0.00595816
0.0785878
0.0773725
-0.0132872
0.0777809
-0.0131494
0.0781605
-0.0127381
0.0784993
-0.0121067
0.0787852
-0.0112767
0.0790208
-0.0103372
0.0792024
-0.00927706
0.079337
-0.00821151
0.0794242
-0.00705955
-0.00600472
0.0794707
0.0779556
-0.0138063
0.0784644
-0.0136582
0.0789299
-0.0132036
0.0793375
-0.0125143
0.0796736
-0.0116128
0.0799439
-0.0106075
0.0801446
-0.00947776
0.0802869
-0.00835382
0.0803685
-0.00714113
-0.00603799
0.0804017
0.0785459
-0.0144432
0.0791652
-0.0142775
0.0797229
-0.0137613
0.0802026
-0.012994
0.0805897
-0.012
0.080895
-0.0109127
0.0811138
-0.00969657
0.0812635
-0.00850354
0.0813384
-0.00721598
-0.00605813
0.0813585
0.0791449
-0.0152133
0.0798869
-0.0150195
0.0805437
-0.0144181
0.0810981
-0.0135484
0.081536
-0.0124378
0.0818749
-0.0112516
0.0821092
-0.00993081
0.0822643
-0.00865871
0.0823293
-0.00728094
-0.00606337
0.0823345
0.0797549
-0.0161375
0.0806349
-0.0158995
0.0813981
-0.0151813
0.0820291
-0.0141795
0.0825164
-0.0129251
0.0828862
-0.0116215
0.0831319
-0.0101765
0.0832895
-0.00881633
0.08334
-0.00733146
-0.00605079
0.0833275
0.0803798
-0.0172443
0.0814158
-0.0169354
0.0822928
-0.0160583
0.0830012
-0.014888
0.0835351
-0.0134589
0.0839313
-0.0120178
0.084183
-0.0104282
0.0843385
-0.00897186
0.0843682
-0.00736112
-0.00601556
0.084333
0.0810255
-0.018573
0.0822376
-0.0181475
0.0832356
-0.0170563
0.0840208
-0.0156731
0.0845966
-0.0140347
0.0850116
-0.0124328
0.0852611
-0.0106777
0.0854062
-0.00911695
0.0854043
-0.00735919
-0.00594752
0.0853363
0.0817013
-0.020177
0.0831109
-0.019557
0.0842372
-0.0181827
0.0850959
-0.0165318
0.0857046
-0.0146434
0.0861231
-0.0128513
0.0863549
-0.0109095
0.08647
-0.00923205
0.0864145
-0.00730366
-0.00582301
0.08629
0.0824204
-0.0221253
0.0840503
-0.0211869
0.0853135
-0.0194458
0.0862354
-0.0174537
0.0868531
-0.0152612
0.0872388
-0.013237
0.0874142
-0.0110849
0.0874512
-0.00926906
0.087294
-0.00714644
-0.00558973
0.0870607
0.0832015
-0.0245008
0.0850794
-0.0230648
0.0864854
-0.0208518
0.087429
-0.0183973
0.0879843
-0.0158164
0.0882445
-0.0134972
0.0882676
-0.0111079
0.0881192
-0.00912063
0.0877649
-0.00679218
-0.00514874
0.0873239
0.0840756
-0.0273997
0.0862366
-0.0252258
0.0877395
-0.0223547
0.0885548
-0.0192126
0.0888524
-0.0161141
0.0887753
-0.0134201
0.0884418
-0.0107745
0.0879109
-0.00858976
0.0872065
-0.00608781
-0.00435458
0.0864124
0.0850605
-0.0309015
0.087507
-0.0276722
0.0888334
-0.0236811
0.0890997
-0.0194789
0.0887129
-0.0157272
0.0879031
-0.0126103
0.0868793
-0.00975066
0.0856999
-0.00741038
0.0844782
-0.00486606
-0.00307912
0.0832027
0.0860868
-0.0349166
0.0884551
-0.0300406
0.0887396
-0.0239656
0.0876131
-0.0183524
0.085847
-0.0139612
0.0837912
-0.0105544
0.0817353
-0.00769485
0.0797342
-0.00540925
0.0779692
-0.003101
-0.00135318
0.0762432
0.0865544
-0.0386068
0.0872815
-0.0307677
0.0847677
-0.0214518
0.0811293
-0.014714
0.0773478
-0.0101796
0.0738091
-0.00701579
0.0707663
-0.00465207
0.068207
-0.00284993
0.0662688
-0.00116275
0.000454382
0.0644612
0.0834168
-0.0388734
0.0794046
-0.0267555
0.0721635
-0.0142107
0.0656303
-0.0081808
0.0602549
-0.00480418
0.0560743
-0.00283527
0.0530103
-0.00158807
0.050843
-0.000682611
0.0495201
0.000160145
0.0016792
0.0482953
0.0687341
-0.028982
0.0569365
-0.0149579
0.0463676
-0.00364184
0.0396073
-0.00142046
0.0352955
-0.000492419
0.032642
-0.000181763
0.0310676
-1.36708e-05
0.0302383
0.000146681
0.0300034
0.000395079
0.00174755
0.029935
0.0302571
0.0152992
0.0116574
0.0102369
0.00974449
0.00956272
0.00954905
0.00969573
0.0100908
0.0118384
0.077527
-0.00860095
0.0776631
-0.00504389
0.0777656
-0.00168345
0.0778283
0.00064099
0.0778688
0.00227667
0.0779179
0.00397512
0.0779706
0.00391218
0.0779763
0.00532163
0.0780477
0.00476887
0.0780381
0.00569809
0.0780203
0.00490847
0.0780159
0.0042545
0.0779639
0.00394237
0.077995
-0.000213956
0.0780068
0.000620095
0.0782059
-0.00412705
0.0784528
-0.0025894
0.0786569
-0.00379955
0.0788273
-0.00128111
0.00110732
0.0779503
-0.00873313
0.0779986
-0.0050922
0.078025
-0.00170988
0.0780297
0.000636336
0.0780185
0.00228784
0.0780394
0.00395426
0.0780712
0.0038804
0.0780657
0.00532712
0.0781266
0.00470791
0.0780931
0.00573164
0.0780651
0.00493643
0.0780268
0.00429282
0.077974
0.0039952
0.0780028
-0.000242743
0.0780414
0.000581485
0.0783047
-0.00439037
0.0785985
-0.0028832
0.0788282
-0.00402927
0.0790026
-0.00145547
0.00116993
0.0786355
-0.00878085
0.0785856
-0.00504228
0.0785138
-0.00163802
0.0784292
0.000720919
0.0783423
0.00237473
0.0783138
0.00398272
0.0783035
0.00389074
0.0782766
0.00535404
0.0783115
0.00467302
0.0782398
0.00580331
0.0781833
0.00499293
0.0780895
0.0043866
0.0780244
0.00406031
0.0780383
-0.000256617
0.0781132
0.000506531
0.0784744
-0.00475154
0.0788372
-0.00324601
0.0791305
-0.00432255
0.0792984
-0.00162336
0.00130964
0.0794478
-0.00875795
0.0793109
-0.00490537
0.0791448
-0.0014719
0.07897
0.000895733
0.0788024
0.00254226
0.0787177
0.00406748
0.0786568
0.00395158
0.0786049
0.00540595
0.0786038
0.00467417
0.0784849
0.00592215
0.0783858
0.00509205
0.0782189
0.00455348
0.0781258
0.00415341
0.078108
-0.000238753
0.0782204
0.000394109
0.0786896
-0.0052208
0.0791351
-0.00369149
0.0795131
-0.00470054
0.0796801
-0.00179032
0.00154221
0.0803139
-0.00867008
0.0800988
-0.0046903
0.0798469
-0.00122004
0.0795878
0.00115488
0.0793449
0.00278517
0.0792063
0.00420605
0.0790965
0.00406143
0.0790231
0.00547928
0.0789818
0.00471549
0.0788142
0.0060898
0.0786606
0.00524558
0.0784077
0.00480644
0.0782696
0.00429148
0.078202
-0.000171177
0.0783469
0.000249268
0.0789219
-0.0057958
0.0794551
-0.00422467
0.0799321
-0.00517758
0.0801007
-0.0019589
0.00187934
0.0812019
-0.00851351
0.0809107
-0.00439909
0.0805765
-0.000885812
0.0802359
0.00149544
0.079923
0.00309811
0.0797349
0.0043941
0.0795814
0.00421494
0.0794936
0.00556712
0.0794119
0.00479717
0.0791981
0.00630362
0.0789799
0.00546379
0.0786305
0.00515584
0.0784294
0.00449259
0.0782924
-3.42353e-05
0.0784609
8.08663e-05
0.0791294
-0.0064643
0.0797486
-0.00484395
0.0803333
-0.00576227
0.080501
-0.00212661
0.00232928
0.0820989
-0.00827788
0.0817284
-0.00402857
0.0813084
-0.000465835
0.0808835
0.00192032
0.0805014
0.00348028
0.0802648
0.00463061
0.0800721
0.00440768
0.0799756
0.00566366
0.0798539
0.00491884
0.0795974
0.00656005
0.0793038
0.00575744
0.0788478
0.00561182
0.0785628
0.00477759
0.0783348
0.000193834
0.0785116
-9.60028e-05
0.0792502
-0.00720284
0.0799478
-0.00554158
0.0806422
-0.0064567
0.0808052
-0.00228955
0.00289568
0.0829964
-0.00794677
0.0825393
-0.00357149
0.082023
5.04442e-05
0.0815043
0.002439
0.0810472
0.00393742
0.0807573
0.00492054
0.0805257
0.00463918
0.0804217
0.00576768
0.0802588
0.00508176
0.0799613
0.00685754
0.0795794
0.00613934
0.0790052
0.006186
0.0786112
0.00517167
0.0782667
0.000538341
0.0784261
-0.000255473
0.0791974
-0.00797415
0.0799576
-0.00630175
0.0807579
-0.00725698
0.0809152
-0.00244687
0.00357371
0.0838812
-0.007495
0.0833245
-0.00301483
0.0826914
0.000683603
0.0820613
0.00306908
0.0815151
0.00448362
0.0811589
0.00527672
0.0808831
0.00491497
0.0807663
0.00588457
0.0805586
0.00528939
0.0802185
0.00719765
0.0797341
0.00662378
0.0790284
0.00689164
0.0784954
0.00570468
0.0780047
0.00102901
0.0781043
-0.000354986
0.0788552
-0.00872513
0.079652
-0.00709852
0.0805495
-0.00815449
0.0807113
-0.00260866
0.00434518
0.084722
-0.00688078
0.0840414
-0.00233424
0.083255
0.00147
0.082485
0.00383909
0.0818252
0.00514343
0.0813807
0.00572128
0.0810479
0.00524774
0.0809059
0.0060266
0.0806493
0.00554598
0.0802635
0.00758342
0.0796644
0.00722283
0.0788153
0.00774076
0.0781116
0.00640837
0.0774389
0.00170172
0.0774162
-0.000332224
0.078078
-0.00938695
0.0788753
-0.00789585
0.0798612
-0.00914032
0.0800584
-0.00280596
0.00517381
0.0854403
-0.00603112
0.0845909
-0.00148482
0.0835924
0.00246848
0.0826419
0.00478957
0.0818332
0.0059522
0.0812697
0.00628475
0.0808613
0.00565617
0.080678
0.00620984
0.0803723
0.00585173
0.0799423
0.00801344
0.0792267
0.00793836
0.0782298
0.00873773
0.0773271
0.0073111
0.0764306
0.00259812
0.0762048
-0.000106382
0.0766984
-0.00988058
0.0774554
-0.00865281
0.0785294
-0.0102144
0.0788231
-0.00309957
0.00600282
0.0858531
-0.00482354
0.0847601
-0.000391793
0.0834693
0.0037592
0.0822924
0.00596653
0.081295
0.00694961
0.0805811
0.00699859
0.0800793
0.00615798
0.0798438
0.00644534
0.0795025
0.00619302
0.0790453
0.00847071
0.0782342
0.00874945
0.0771025
0.00986936
0.0759836
0.00843009
0.074819
0.00376268
0.0743
0.000412613
0.07455
-0.0101306
0.0752331
-0.00933588
0.0764162
-0.0113975
0.0769005
-0.00358392
0.00675874
0.0855818
-0.00308137
0.0841456
0.00104439
0.0824828
0.00542195
0.0810512
0.00739814
0.079841
0.0081598
0.0789633
0.00787633
0.0783674
0.00675385
0.0780901
0.00672263
0.0777558
0.00652741
0.0773193
0.00890713
0.076471
0.00959778
0.075246
0.0110944
0.0739125
0.00976355
0.0724397
0.00523548
0.0715499
0.00130241
0.0715066
-0.0100872
0.072108
-0.00993731
0.0734534
-0.0127429
0.074247
-0.00437752
0.00736312
0.0839451
-0.00061414
0.0820933
0.0028962
0.0800345
0.00748075
0.0783853
0.00904734
0.0769905
0.00955461
0.0759847
0.00888218
0.0753364
0.00740215
0.0750717
0.00698732
0.0748319
0.00676719
0.07451
0.00922901
0.0737301
0.0103777
0.0724862
0.0123384
0.070965
0.0112848
0.0691648
0.00703567
0.0678663
0.00260089
0.0675351
-0.00975607
0.0680909
-0.0104931
0.0696841
-0.0143361
0.0709047
-0.00559811
0.0077521
0.0799377
0.00265094
0.077731
0.00510281
0.0754044
0.00980736
0.0737004
0.0107514
0.0722477
0.0110073
0.0712336
0.00989635
0.0706423
0.00799343
0.0705071
0.00712252
0.0705026
0.00677168
0.0704367
0.00929495
0.0698726
0.0109417
0.0687108
0.0135002
0.0670558
0.0129398
0.0649517
0.00913977
0.0632841
0.00426847
0.0627455
-0.00921745
0.0633401
-0.0110877
0.0652793
-0.0162753
0.0670031
-0.00732186
0.00789572
0.0724686
0.00642556
0.0702228
0.00734857
0.0680022
0.012028
0.0665628
0.0121908
0.0653026
0.0122674
0.0644968
0.0107022
0.0641466
0.00834363
0.0643173
0.00695177
0.0647259
0.00636309
0.0650822
0.00893872
0.0648931
0.0111308
0.0639214
0.0144718
0.0622153
0.0146459
0.0598991
0.011456
0.0580056
0.00616203
0.0574102
-0.00862207
0.058156
-0.0118335
0.0605099
-0.0186292
0.0627338
-0.00954576
0.00780856
0.0609664
0.00992039
0.0592862
0.00902869
0.05777
0.0135443
0.0570123
0.0129484
0.05628
0.0129997
0.0559586
0.0110236
0.0560757
0.00822653
0.0567488
0.00627865
0.057737
0.00537496
0.0586556
0.00802011
0.0589638
0.0108225
0.0582741
0.0151615
0.0566341
0.016286
0.0542841
0.0138059
0.0524046
0.00804153
0.0519353
-0.00815281
0.0529263
-0.0128245
0.055685
-0.0213879
0.058309
-0.0121697
0.00754232
0.0461345
0.0120812
0.045702
0.00946123
0.0455024
0.0137438
0.0457768
0.012674
0.0458857
0.0128908
0.046298
0.0106114
0.0470799
0.00744463
0.0484006
0.00495794
0.0500548
0.00372079
0.0515906
0.00648433
0.0524401
0.00997291
0.052098
0.0155037
0.0506807
0.0177032
0.0485537
0.015933
0.0469755
0.0096197
0.0467859
-0.00796323
0.0480452
-0.0140838
0.0510888
-0.0244315
0.053932
-0.015013
0.00716482
0.03007
0.0119463
0.0313078
0.00822341
0.0327512
0.0123004
0.0341804
0.0112448
0.0353105
0.0117607
0.0365903
0.00933151
0.0381285
0.00590647
0.0401203
0.00296614
0.0423933
0.00144779
0.0444819
0.00439568
0.0458286
0.00862625
0.0458823
0.01545
0.0448747
0.0187108
0.0432586
0.0175491
0.0422387
0.0106396
0.0423988
-0.00812333
0.0438531
-0.0155381
0.0469537
-0.027532
0.0497936
-0.0178529
0.00673667
0.0156404
0.00814424
0.0183654
0.00549835
0.0213401
0.00932575
0.0237777
0.00880725
0.0259366
0.00960181
0.0280498
0.00721826
0.0302882
0.00366813
0.0328183
0.000435985
0.0355293
-0.00126315
0.0379983
0.00192668
0.0397361
0.00688836
0.0402303
0.0149559
0.0398024
0.0191387
0.0389573
0.0183942
0.0386323
0.0109646
0.0391338
-0.00862489
0.040605
-0.0170093
0.0434575
-0.0303845
0.046098
-0.0204934
0.00630007
0.00348484
0.0046594
0.00464092
0.00434227
0.0061819
0.00778476
0.0073051
0.00768405
0.00844971
0.0084572
0.00945216
0.00621582
0.0104991
0.00262118
0.0115792
-0.000644075
0.0127137
-0.00239771
0.0137411
0.000899304
0.0145078
0.00612167
0.0148569
0.0146067
0.0148494
0.0191462
0.014799
0.0184447
0.0148314
0.0109322
0.0151346
-0.00892813
0.0156437
-0.0175184
0.0166092
-0.03135
0.0175961
-0.0214803
0.00610794
0.00221532
0.00244409
0.00338878
0.00316881
0.00505784
0.0061157
0.00627473
0.00646716
0.00754018
0.00719175
0.00863346
0.00512254
0.0097443
0.00151033
0.0108515
-0.00175131
0.0119872
-0.00353337
0.0130195
-0.00013303
0.0138121
0.00532908
0.0142339
0.014185
0.0143431
0.0190371
0.0144381
0.0183496
0.0145924
0.0107779
0.0149243
-0.00926009
0.0153935
-0.0179875
0.0162536
-0.0322102
0.0171521
-0.0223787
0.00591434
0.00126524
0.00117885
0.00244207
0.00199199
0.00418903
0.00436874
0.00548869
0.00516751
0.00684794
0.0058325
0.00801837
0.00395211
0.00917283
0.000355874
0.0102886
-0.00286704
0.011403
-0.00464784
0.0124216
-0.00115164
0.013227
0.00452368
0.0137145
0.0136975
0.0139454
0.0188062
0.0141819
0.0181131
0.0144596
0.0105003
0.0148093
-0.0096098
0.0152293
-0.0184075
0.0159699
-0.0329507
0.0167627
-0.0231715
0.00572722
0.000645154
0.000533692
0.00180591
0.000831228
0.00360105
0.0025736
0.00495973
0.00380883
0.00639043
0.0044018
0.00761834
0.0027242
0.00879637
-0.000822151
0.00990023
-0.00397091
0.0109725
-0.00572007
0.0119589
-0.00213807
0.0127635
0.00371906
0.0133111
0.01315
0.0136616
0.0184556
0.0140364
0.0177383
0.0144314
0.0101052
0.0147911
-0.00996945
0.0151517
-0.0187682
0.0157575
-0.0335565
0.0164334
-0.0238474
0.00554932
0.000350971
0.00018272
0.00149046
-0.000308257
0.00330641
0.000757645
0.00469944
0.00241579
0.00617731
0.00292393
0.00744135
0.00146016
0.00862229
-0.00200309
0.00969435
-0.00504297
0.0107045
-0.00673021
0.011641
-0.00307462
0.0124311
0.00292895
0.0130313
0.0125498
0.0134967
0.0179902
0.0140029
0.0172321
0.014507
0.00960116
0.0148687
-0.0103312
0.0151612
-0.0190606
0.0156195
-0.0340149
0.0161682
-0.0243962
0.00538366
0.000374813
-0.000192093
0.00150176
-0.0014352
0.00331158
-0.00105218
0.00471341
0.00101397
0.0062127
0.00142465
0.00749046
0.000182394
0.00865372
-0.00316636
0.00967518
-0.00606443
0.0106051
-0.00766015
0.0114753
-0.00394476
0.0122372
0.00216698
0.0128809
0.0119061
0.0134533
0.0174179
0.014081
0.0166045
0.0146838
0.00899838
0.0150402
-0.0106876
0.015257
-0.0192775
0.015558
-0.0343158
0.0159708
-0.0248089
0.00523361
0.000719504
-0.000911597
0.00184059
-0.00255629
0.00361692
-0.0028285
0.00500129
-0.00037041
0.00649526
-6.93212e-05
0.00776386
-0.0010862
0.00888946
-0.00429197
0.00984319
-0.00701816
0.0106772
-0.00849416
0.0114661
-0.00473368
0.0121868
0.00144628
0.0128632
0.0112297
0.013532
0.0167491
0.0142684
0.0158681
0.014958
0.00830882
0.015302
-0.0110317
0.0154378
-0.0194133
0.0155745
-0.0344525
0.0158438
-0.0250782
0.00510282
0.00139626
-0.00230785
0.00250243
-0.00366247
0.00421667
-0.00454274
0.00555693
-0.00171067
0.00701825
-0.00153064
0.00825497
-0.00232292
0.00932396
-0.00536095
0.010195
-0.00788916
0.0109201
-0.00921929
0.0116151
-0.00542871
0.0122823
0.000779103
0.0129795
0.0105325
0.0137317
0.0159969
0.0145614
0.0150383
0.0153245
0.00754577
0.0156498
-0.011357
0.0157008
-0.0194643
0.0156693
-0.034421
0.0157893
-0.0251983
0.00499528
0.00241108
-0.00471894
0.00347849
-0.00472987
0.00509902
-0.00616326
0.00636848
-0.00298013
0.00776991
-0.00293207
0.00895261
-0.00350562
0.00994744
-0.00635578
0.0107231
-0.00866486
0.0113295
-0.00982569
0.0119206
-0.00601981
0.0125234
0.000176297
0.0132288
0.00982714
0.0140493
0.0151763
0.014955
0.0141327
0.0157771
0.00672366
0.0160779
-0.0116578
0.0160421
-0.0194285
0.0158419
-0.0342209
0.0158086
-0.0251649
0.0049151
0.00375108
-0.00847002
0.00476699
-0.00574578
0.00623735
-0.00763362
0.00742494
-0.00416773
0.00873192
-0.00423905
0.00984261
-0.00461631
0.010746
-0.00725916
0.011416
-0.00933483
0.0118974
-0.0103071
0.0123777
-0.00650008
0.0129076
-0.000353688
0.0136088
0.00912602
0.014481
0.0143041
0.0154454
0.0131683
0.0163077
0.0058613
0.016577
-0.0119271
0.016459
-0.0193104
0.0160847
-0.0338466
0.0159052
-0.0249854
0.0048686
0.0246764
-0.0124401
-0.0207063
0.0274956
-0.00856496
0.0308464
-0.0109844
0.0342436
-0.00756489
0.0376249
-0.00762032
0.0407233
-0.00771475
0.0429608
-0.00949666
0.044343
-0.010717
0.0450682
-0.0110323
0.0458291
-0.00726103
0.0470777
-0.00160227
0.0493282
0.00687553
0.0524631
0.0111692
0.0560428
0.00958872
0.0589181
0.00298599
0.0596066
-0.0126156
0.0586881
-0.0183919
0.0560511
-0.0312096
0.0546158
-0.0235501
0.00499077
0.0530108
-0.0101786
-0.0552724
0.0526634
-0.00821758
0.052881
-0.011202
0.0542321
-0.00891603
0.0556733
-0.00906155
0.0571694
-0.00921087
0.0580337
-0.0103609
0.0580943
-0.0107776
0.0575103
-0.0104483
0.0569782
-0.00672894
0.057197
-0.00182113
0.0587998
0.00527277
0.0615927
0.00837625
0.0649862
0.00619521
0.0675867
0.000385546
0.0679711
-0.0130001
0.066243
-0.0166638
0.0621811
-0.0271476
0.0591742
-0.0205432
0.00564688
0.0809689
-0.00514964
-0.0859978
0.0783154
-0.0055641
0.0759788
-0.00886538
0.0752504
-0.00818767
0.0748101
-0.00862123
0.0746368
-0.00903757
0.0741768
-0.00990093
0.0731631
-0.00976388
0.0716877
-0.00897287
0.0702805
-0.00532178
0.0696464
-0.00118704
0.0704446
0.00447459
0.0724816
0.00633923
0.0751355
0.00354138
0.0770463
-0.00152533
0.0769901
-0.0129439
0.0747866
-0.0144603
0.0699868
-0.0223478
0.0657823
-0.0163387
0.00692397
0.10067
-0.000144117
-0.105675
0.097515
-0.00240943
0.0943163
-0.00566672
0.09245
-0.00632134
0.0909191
-0.00709036
0.0896325
-0.00775098
0.0882744
-0.00854286
0.0866215
-0.00811094
0.0847835
-0.00713488
0.0830766
-0.00361489
0.0820827
-0.000193126
0.082297
0.0042603
0.083538
0.00509822
0.0852451
0.00183422
0.0861913
-0.00247149
0.0855503
-0.0123029
0.0831035
-0.0120135
0.0782711
-0.0175154
0.0735489
-0.0116165
0.00869399
0.111004
0.00352708
-0.114675
0.108407
0.000188022
0.105598
-0.00285827
0.103563
-0.00428555
0.10181
-0.00533738
0.100161
-0.00610215
0.0985027
-0.00688487
0.096693
-0.00630119
0.0949277
-0.00536956
0.0933824
-0.00206965
0.0924827
0.000706576
0.0925042
0.00423882
0.0931858
0.00441665
0.0940845
0.000935447
0.0941251
-0.00251208
0.0928872
-0.0110649
0.0903243
-0.00945062
0.0859389
-0.0131301
0.0814254
-0.00710299
0.01063
0.114995
0.00589895
-0.117367
0.113146
0.00203673
0.111065
-0.000777689
0.109339
-0.00255872
0.107803
-0.00380223
0.106267
-0.0045657
0.104731
-0.00534893
0.103102
-0.00467215
0.101649
-0.00391607
0.100475
-0.000896332
0.0999016
0.00128022
0.100005
0.00413513
0.100412
0.0040098
0.100798
0.000549282
0.100235
-0.00194877
0.0985781
-0.00940805
0.0960272
-0.00689969
0.0922682
-0.00937109
0.088483
-0.00331782
0.012341
0.115753
0.00736899
-0.117223
0.114441
0.00334808
0.112982
0.00068153
0.111641
-0.001218
0.110418
-0.00257908
0.109146
-0.0032938
0.10789
-0.00409298
0.106572
-0.00335347
0.105482
-0.00282595
0.104695
-0.00011012
0.104447
0.0015288
0.104723
0.00385919
0.105038
0.00369436
0.105169
0.000418482
0.104347
-0.00112633
0.102533
-0.00759409
0.100154
-0.00452115
0.0970086
-0.0062256
0.0941451
-0.000454394
0.0135344
0.115147
0.00829399
-0.116072
0.114178
0.00431673
0.113123
0.00173658
0.112084
-0.000179302
0.111122
-0.0016173
0.110098
-0.00226963
0.109115
-0.00310944
0.108096
-0.0023346
0.107311
-0.00204104
0.106831
0.000369666
0.106801
0.00155904
0.10721
0.00344971
0.107507
0.0033973
0.107529
0.000397193
0.1067
-0.000297553
0.104941
-0.00583486
0.102884
-0.00246417
0.100276
-0.00361815
0.0982569
0.00156501
0.0141026
0.114054
0.0088914
-0.114652
0.113308
0.00506292
0.112498
0.00254699
0.111666
0.000652711
0.110891
-0.000842564
0.110055
-0.00143349
0.10928
-0.00233515
0.108499
-0.00155281
0.10793
-0.00147261
0.107657
0.00064299
0.107733
0.00148283
0.108193
0.00298977
0.108483
0.0031078
0.108453
0.000426954
0.107747
0.000407871
0.106158
-0.00424599
0.104503
-0.000808586
0.10236
-0.00147572
0.100989
0.00293619
0.0141115
0.112819
0.00927912
-0.113207
0.11223
0.00565176
0.111582
0.00319564
0.110891
0.00134381
0.11025
-0.000201391
0.109552
-0.000735748