x,y,z,U_0,U_1,U_2
0,0,0,0.3,-9.76616e-05,0
0,0.1,0,0.3,-6.97583e-05,0
0,0.2,0,0.3,-4.1855e-05,0
0,0.3,0,0.3,-1.39517e-05,0
0,0.4,0,0.3,0,0
0,0.5,0,0.3,0,0
0,0.6,0,0.3,0,0
0,0.7,0,0.3,0,0
0,0.8,0,0.3,0,0
0,0.9,0,0.3,0,0
0,1,0,0.3,0,0
0,1.1,0,0.3,0,0
0,1.2,0,0.3,0,0
0,1.3,0,0.3,0,0
0,1.4,0,0.3,0,0
0,1.5,0,0.3,0,0
0,1.6,0,0.3,0,0
0,1.7,0,0.3,0,0
0,1.8,0,0.3,0,0
0,1.9,0,0.3,0,0
0,2,0,0.3,0,0
0,2.1,0,0.3,0,0
0,2.2,0,0.3,0,0
0,2.3,0,0.3,0,0
0,2.4,0,0.3,0,0
0,2.5,0,0.3,0,0
0,2.6,0,0.3,0,0
0,2.7,0,0.3,0,0
0,2.8,0,0.3,0,0
0,2.9,0,0.3,0,0
0,3,0,0.3,0,0
0,3.1,0,0.3,0,0
0,3.2,0,0.3,0,0
0,3.3,0,0.3,0,0
0,3.4,0,0.3,0,0
0,3.5,0,0.3,0,0
0,3.6,0,0.3,0,0
0,3.7,0,0.3,0,0
0,3.8,0,0.3,0,0
0,3.9,0,0.3,0,0
0,4,0,0.3,0,0
0,4.1,0,0.3,0,0
0,4.2,0,0.3,0,0
0,4.3,0,0.3,0,0
0,4.4,0,0.3,0,0
0,4.5,0,0.3,0,0
0,4.6,0,0.3,0,0
0,4.7,0,0.3,0,0
0,4.8,0,0.3,0,0
0,4.9,0,0.3,0,0
0,5,0,0.3,0,0
0,5.1,0,0.3,0,0
0,5.2,0,0.3,0,0
0,5.3,0,0.3,0,0
0,5.4,0,0.3,0,0
0,5.5,0,0.3,0,0
0,5.6,0,0.3,0,0
0,5.7,0,0.3,0,0
0,5.8,0,0.3,0,0
0,5.9,0,0.3,0,0
0,6,0,0.3,0,0
0,6.1,0,0.3,0,0
0,6.2,0,0.3,0,0
0,6.3,0,0.3,0,0
0,6.4,0,0.3,0,0
0,6.5,0,0.3,0,0
0,6.6,0,0.3,0,0
0,6.7,0,0.3,0,0
0,6.8,0,0.3,0,0
0,6.9,0,0.3,0,0
0,7,0,0.3,0,0
0,7.1,0,0.3,0,0
0,7.2,0,0.3,0,0
0,7.3,0,0.3,0,0
0,7.4,0,0.3,0,0
0,7.5,0,0.3,0,0
0,7.6,0,0.3,0,0
0,7.7,0,0.3,0,0
0,7.8,0,0.3,0,0
0,7.9,0,0.3,0,0
0,8,0,0.3,0,0
0,8.1,0,0.3,0,0
0,8.2,0,0.3,0,0
0,8.3,0,0.3,0,0
0,8.4,0,0.3,0,0
0,8.5,0,0.3,0,0
0,8.6,0,0.3,0,0
0,8.7,0,0.3,0,0
0,8.8,0,0.3,0,0
0,8.9,0,0.3,0,0
0,9,0,0.3,0,0
0,9.1,0,0.3,0,0
0,9.2,0,0.3,0,0
0,9.3,0,0.3,0,0
0,9.4,0,0.3,0,0
0,9.5,0,0.3,0,0
0,9.6,0,0.3,0,0
0,9.7,0,0.3,0,0
0,9.8,0,0.3,0,0
0,9.9,0,0.3,0,0
0,10,0,0.3,0,0
0,10.1,0,0.3,0,0
0,10.2,0,0.3,0,0
0,10.3,0,0.3,0,0
0,10.4,0,0.3,0,0
0,10.5,0,0.3,0,0
0,10.6,0,0.3,0,0
0,10.7,0,0.3,0,0
0,10.8,0,0.3,0,0
0,10.9,0,0.3,0,0
0,11,0,0.3,0,0
0,11.1,0,0.3,0,0
0,11.2,0,0.3,0,0
0,11.3,0,0.3,0,0
0,11.4,0,0.3,0,0
0,11.5,0,0.3,0,0
0,11.6,0,0.3,0,0
0,11.7,0,0.3,0,0
0,11.8,0,0.3,0,0
0,11.9,0,0.3,0,0
0,12,0,0.3,0,0
0,12.1,0,0.3,0,0
0,12.2,0,0.3,0,0
0,12.3,0,0.3,0,0
0,12.4,0,0.3,0,0
0,12.5,0,0.300001,8.29839e-06,0
0,12.6,0,0.300003,3.20081e-05,0
0,12.7,0,0.300005,5.57178e-05,0
0.1,0,0,0.3,-0.000146908,0
0.1,0.1,0,0.300001,-0.000113506,0
0.1,0.2,0,0.3,-8.56028e-05,0
0.1,0.3,0,0.3,-5.76994e-05,0
0.1,0.4,0,0.3,-5.60168e-05,0
0.1,0.5,0,0.3,-5.60168e-05,0
0.1,0.6,0,0.3,-5.60168e-05,0
0.1,0.7,0,0.299999,-6.14599e-05,0
0.1,0.8,0,0.3,-5.45613e-05,0
0.1,0.9,0,0.3,-5.45613e-05,0
0.1,1,0,0.3,-5.45613e-05,0
0.1,1.1,0,0.299999,-5.23909e-05,0
0.1,1.2,0,0.299999,-5.23909e-05,0
0.1,1.3,0,0.299999,-5.23909e-05,0
0.1,1.4,0,0.299998,-5.91584e-05,0
0.1,1.5,0,0.299999,-4.95323e-05,0
0.1,1.6,0,0.299999,-4.95323e-05,0
0.1,1.7,0,0.299999,-4.95323e-05,0
0.1,1.8,0,0.299999,-4.60251e-05,0
0.1,1.9,0,0.299999,-4.60251e-05,0
0.1,2,0,0.299999,-4.60251e-05,0
0.1,2.1,0,0.299997,-5.54432e-05,0
0.1,2.2,0,0.299998,-4.19301e-05,0
0.1,2.3,0,0.299998,-4.19301e-05,0
0.1,2.4,0,0.299998,-4.19301e-05,0
0.1,2.5,0,0.299998,-3.73371e-05,0
0.1,2.6,0,0.299998,-3.73371e-05,0
0.1,2.7,0,0.299998,-3.73371e-05,0
0.1,2.8,0,0.299996,-5.03806e-05,0
0.1,2.9,0,0.299997,-3.23765e-05,0
0.1,3,0,0.299997,-3.23765e-05,0
0.1,3.1,0,0.299997,-3.23765e-05,0
0.1,3.2,0,0.299996,-2.72277e-05,0
0.1,3.3,0,0.299996,-2.72277e-05,0
0.1,3.4,0,0.299996,-2.72277e-05,0
0.1,3.5,0,0.299995,-4.39963e-05,0
0.1,3.6,0,0.299995,-2.21294e-05,0
0.1,3.7,0,0.299995,-2.21294e-05,0
0.1,3.8,0,0.299995,-2.21294e-05,0
0.1,3.9,0,0.299993,-1.73818e-05,0
0.1,4,0,0.299993,-1.73818e-05,0
0.1,4.1,0,0.299993,-1.73818e-05,0
0.1,4.2,0,0.299996,-3.62131e-05,0
0.1,4.3,0,0.299992,-1.33302e-05,0
0.1,4.4,0,0.299992,-1.33302e-05,0
0.1,4.5,0,0.299992,-1.33302e-05,0
0.1,4.6,0,0.299991,-1.03131e-05,0
0.1,4.7,0,0.299991,-1.03131e-05,0
0.1,4.8,0,0.299991,-1.03131e-05,0
0.1,4.9,0,0.299996,-2.67935e-05,0
0.1,5,0,0.299991,-8.56323e-06,0
0.1,5.1,0,0.299991,-8.56323e-06,0
0.1,5.2,0,0.299991,-8.56323e-06,0
0.1,5.3,0,0.299995,-8.07256e-06,0
0.1,5.4,0,0.299995,-8.07256e-06,0
0.1,5.5,0,0.299995,-8.07256e-06,0
0.1,5.6,0,0.299996,-1.55086e-05,0
0.1,5.7,0,0.300004,-8.4772e-06,0
0.1,5.8,0,0.300004,-8.4772e-06,0
0.1,5.9,0,0.300004,-8.4772e-06,0
0.1,6,0,0.300017,-9.0512e-06,0
0.1,6.1,0,0.300017,-9.0512e-06,0
0.1,6.2,0,0.300017,-9.0512e-06,0
0.1,6.3,0,0.299994,-2.637e-06,0
0.1,6.4,0,0.300035,-8.57195e-06,0
0.1,6.5,0,0.300035,-8.57195e-06,0
0.1,6.6,0,0.300035,-8.57195e-06,0
0.1,6.7,0,0.300055,-7.26491e-06,0
0.1,6.8,0,0.300055,-7.26491e-06,0
0.1,6.9,0,0.300055,-7.26491e-06,0
0.1,7,0,0.29999,9.38011e-06,0
0.1,7.1,0,0.299988,1.17613e-05,0
0.1,7.2,0,0.299988,1.30981e-05,0
0.1,7.3,0,0.299988,1.44108e-05,0
0.1,7.4,0,0.299987,1.57236e-05,0
0.1,7.5,0,0.299987,1.70315e-05,0
0.1,7.6,0,0.299987,1.83318e-05,0
0.1,7.7,0,0.299987,1.96236e-05,0
0.1,7.8,0,0.299987,2.09056e-05,0
0.1,7.9,0,0.299988,2.21927e-05,0
0.1,8,0,0.299988,2.40017e-05,0
0.1,8.1,0,0.300076,2.99688e-05,0
0.1,8.2,0,0.300076,2.99688e-05,0
0.1,8.3,0,0.300066,3.38659e-05,0
0.1,8.4,0,0.300066,3.38659e-05,0
0.1,8.5,0,0.300051,3.63287e-05,0
0.1,8.6,0,0.300053,3.65723e-05,0
0.1,8.7,0,0.300003,3.49362e-05,0
0.1,8.8,0,0.300039,3.80749e-05,0
0.1,8.9,0,0.300039,3.80749e-05,0
0.1,9,0,0.300023,3.83605e-05,0
0.1,9.1,0,0.300023,3.83605e-05,0
0.1,9.2,0,0.300007,3.8514e-05,0
0.1,9.3,0,0.300009,3.76349e-05,0
0.1,9.4,0,0.300002,4.29871e-05,0
0.1,9.5,0,0.299998,3.62053e-05,0
0.1,9.6,0,0.299998,3.62053e-05,0
0.1,9.7,0,0.299989,3.44131e-05,0
0.1,9.8,0,0.299989,3.44131e-05,0
0.1,9.9,0,0.299989,3.95822e-05,0
0.1,10,0,0.299983,3.2584e-05,0
0.1,10.1,0,0.299992,4.4152e-05,0
0.1,10.2,0,0.29998,3.09861e-05,0
0.1,10.3,0,0.29998,3.09861e-05,0
0.1,10.4,0,0.29998,2.97979e-05,0
0.1,10.5,0,0.29998,2.97979e-05,0
0.1,10.6,0,0.299991,4.50124e-05,0
0.1,10.7,0,0.299982,2.91016e-05,0
0.1,10.8,0,0.299988,4.08687e-05,0
0.1,10.9,0,0.299985,2.88915e-05,0
0.1,11,0,0.299985,2.88915e-05,0
0.1,11.1,0,0.299988,2.90949e-05,0
0.1,11.2,0,0.299988,2.90949e-05,0
0.1,11.3,0,0.299996,5.36297e-05,0
0.1,11.4,0,0.299992,2.96016e-05,0
0.1,11.5,0,0.299993,3.69936e-05,0
0.1,11.6,0,0.299995,3.02869e-05,0
0.1,11.7,0,0.299995,3.02869e-05,0
0.1,11.8,0,0.299998,3.10344e-05,0
0.1,11.9,0,0.299998,3.10344e-05,0
0.1,12,0,0.299999,6.22843e-05,0
0.1,12.1,0,0.300001,3.17592e-05,0
0.1,12.2,0,0.300001,3.3332e-05,0
0.1,12.3,0,0.300002,3.24245e-05,0
0.1,12.4,0,0.300002,3.24245e-05,0
0.1,12.5,0,0.300003,3.38075e-05,0
0.1,12.6,0,0.300006,5.75172e-05,0
0.1,12.7,0,0.300004,0.000117626,0
0.2,0,0,0.3,-0.000196154,0
0.2,0.1,0,0.300001,-0.000157254,0
0.2,0.2,0,0.300001,-0.000129351,0
0.2,0.3,0,0.3,-0.000118451,0
0.2,0.4,0,0.299999,-0.000117645,0
0.2,0.5,0,0.3,-0.000112034,0
0.2,0.6,0,0.3,-0.000112034,0
0.2,0.7,0,0.299998,-0.00012292,0
0.2,0.8,0,0.299999,-0.000109123,0
0.2,0.9,0,0.299999,-0.000109123,0
0.2,1,0,0.299998,-0.000114629,0
0.2,1.1,0,0.299998,-0.000112303,0
0.2,1.2,0,0.299999,-0.000104782,0
0.2,1.3,0,0.299999,-0.000104782,0
0.2,1.4,0,0.299995,-0.000118317,0
0.2,1.5,0,0.299998,-9.90645e-05,0
0.2,1.6,0,0.299998,-9.90645e-05,0
0.2,1.7,0,0.299997,-0.000106438,0
0.2,1.8,0,0.299996,-0.00010268,0
0.2,1.9,0,0.299998,-9.20501e-05,0
0.2,2,0,0.299998,-9.20501e-05,0
0.2,2.1,0,0.299993,-0.000110886,0
0.2,2.2,0,0.299997,-8.38603e-05,0
0.2,2.3,0,0.299997,-8.38603e-05,0
0.2,2.4,0,0.299995,-9.42111e-05,0
0.2,2.5,0,0.299994,-8.929e-05,0
0.2,2.6,0,0.299996,-7.46741e-05,0
0.2,2.7,0,0.299996,-7.46741e-05,0
0.2,2.8,0,0.299992,-0.000100761,0
0.2,2.9,0,0.299995,-6.47531e-05,0
0.2,3,0,0.299995,-6.47531e-05,0
0.2,3.1,0,0.299993,-7.86618e-05,0
0.2,3.2,0,0.299992,-7.31453e-05,0
0.2,3.3,0,0.299993,-5.44555e-05,0
0.2,3.4,0,0.299993,-5.44555e-05,0
0.2,3.5,0,0.299991,-8.79926e-05,0
0.2,3.6,0,0.29999,-4.42588e-05,0
0.2,3.7,0,0.29999,-4.42588e-05,0
0.2,3.8,0,0.29999,-6.11227e-05,0
0.2,3.9,0,0.299989,-5.6036e-05,0
0.2,4,0,0.299987,-3.47636e-05,0
0.2,4.1,0,0.299987,-3.47636e-05,0
0.2,4.2,0,0.299991,-7.24261e-05,0
0.2,4.3,0,0.299983,-2.66603e-05,0
0.2,4.4,0,0.299983,-2.66603e-05,0
0.2,4.5,0,0.299987,-4.37435e-05,0
0.2,4.6,0,0.299986,-4.05109e-05,0
0.2,4.7,0,0.299981,-2.06262e-05,0
0.2,4.8,0,0.299981,-2.06262e-05,0
0.2,4.9,0,0.299993,-5.35869e-05,0
0.2,5,0,0.299983,-1.71265e-05,0
0.2,5.1,0,0.299983,-1.71265e-05,0
0.2,5.2,0,0.299988,-2.90325e-05,0
0.2,5.3,0,0.299992,-2.85067e-05,0
0.2,5.4,0,0.29999,-1.61451e-05,0
0.2,5.5,0,0.29999,-1.61451e-05,0
0.2,5.6,0,0.299993,-3.10171e-05,0
0.2,5.7,0,0.300007,-1.69544e-05,0
0.2,5.8,0,0.300007,-1.69544e-05,0
0.2,5.9,0,0.3,-1.76463e-05,0
0.2,6,0,0.300015,-1.82613e-05,0
0.2,6.1,0,0.300035,-1.81024e-05,0
0.2,6.2,0,0.300035,-1.81024e-05,0
0.2,6.3,0,0.299988,-5.27399e-06,0
0.2,6.4,0,0.30007,-1.71439e-05,0
0.2,6.5,0,0.30007,-1.71439e-05,0
0.2,6.6,0,0.30003,-5.31474e-06,0
0.2,6.7,0,0.300051,-3.91434e-06,0
0.2,6.8,0,0.300109,-1.45298e-05,0
0.2,6.9,0,0.300109,-1.45298e-05,0
0.2,7,0,0.299979,1.87602e-05,0
0.2,7.1,0,0.299977,2.35227e-05,0
0.2,7.2,0,0.299976,2.61963e-05,0
0.2,7.3,0,0.299975,2.88215e-05,0
0.2,7.4,0,0.299974,3.14472e-05,0
0.2,7.5,0,0.299974,3.4063e-05,0
0.2,7.6,0,0.299974,3.66636e-05,0
0.2,7.7,0,0.299974,3.92473e-05,0
0.2,7.8,0,0.299975,4.18112e-05,0
0.2,7.9,0,0.299975,4.43854e-05,0
0.2,8,0,0.299976,4.80035e-05,0
0.2,8.1,0,0.300152,5.99376e-05,0
0.2,8.2,0,0.300076,5.7372e-05,0
0.2,8.3,0,0.300132,6.77317e-05,0
0.2,8.4,0,0.300132,6.77317e-05,0
0.2,8.5,0,0.300042,6.71775e-05,0
0.2,8.6,0,0.300107,7.31445e-05,0
0.2,8.7,0,0.299997,6.95618e-05,0
0.2,8.8,0,0.300077,7.61499e-05,0
0.2,8.9,0,0.300046,7.63454e-05,0
0.2,9,0,0.300045,7.67198e-05,0
0.2,9.1,0,0.300047,7.67211e-05,0
0.2,9.2,0,0.300005,8.04978e-05,0
0.2,9.3,0,0.300019,7.52699e-05,0
0.2,9.4,0,0.300001,8.8483e-05,0
0.2,9.5,0,0.299995,7.24107e-05,0
0.2,9.6,0,0.299997,7.95275e-05,0
0.2,9.7,0,0.29998,7.23531e-05,0
0.2,9.8,0,0.299977,6.88261e-05,0
0.2,9.9,0,0.299989,9.15143e-05,0
0.2,10,0,0.299965,6.5168e-05,0
0.2,10.1,0,0.299992,9.89278e-05,0
0.2,10.2,0,0.29996,6.19723e-05,0
0.2,10.3,0,0.299968,7.26263e-05,0
0.2,10.4,0,0.299968,7.07302e-05,0
0.2,10.5,0,0.299959,5.95957e-05,0
0.2,10.6,0,0.299991,0.000104637,0
0.2,10.7,0,0.299963,5.82032e-05,0
0.2,10.8,0,0.299987,0.000102503,0
0.2,10.9,0,0.299969,5.77829e-05,0
0.2,11,0,0.299973,6.62228e-05,0
0.2,11.1,0,0.299982,7.75236e-05,0
0.2,11.2,0,0.299977,5.81899e-05,0
0.2,11.3,0,0.299995,0.000118523,0
0.2,11.4,0,0.299984,5.92032e-05,0
0.2,11.5,0,0.299992,0.000103166,0
0.2,11.6,0,0.299991,6.05739e-05,0
0.2,11.7,0,0.299991,6.37183e-05,0
0.2,11.8,0,0.299997,8.82554e-05,0
0.2,11.9,0,0.299997,6.20688e-05,0
0.2,12,0,0.299998,0.000130364,0
0.2,12.1,0,0.300002,6.35184e-05,0
0.2,12.2,0,0.3,0.000102053,0
0.2,12.3,0,0.300005,6.48491e-05,0
0.2,12.4,0,0.300005,6.48491e-05,0
0.2,12.5,0,0.300003,9.7863e-05,0
0.2,12.6,0,0.300008,8.30263e-05,0
0.2,12.7,0,0.300002,0.000179533,0
0.3,0,0,0.299999,-0.0002454,0
0.3,0.1,0,0.3,-0.000205714,0
0.3,0.2,0,0.300001,-0.000173098,0
0.3,0.3,0,0.299999,-0.000180511,0
0.3,0.4,0,0.299999,-0.000179705,0
0.3,0.5,0,0.3,-0.00016805,0
0.3,0.6,0,0.299999,-0.000172716,0
0.3,0.7,0,0.299996,-0.00018438,0
0.3,0.8,0,0.299998,-0.000169597,0
0.3,0.9,0,0.299999,-0.000163684,0
0.3,1,0,0.299996,-0.00017512,0
0.3,1.1,0,0.299996,-0.000172794,0
0.3,1.2,0,0.299998,-0.000157173,0
0.3,1.3,0,0.299997,-0.000162973,0
0.3,1.4,0,0.299993,-0.000177475,0
0.3,1.5,0,0.299996,-0.000156848,0
0.3,1.6,0,0.299998,-0.000148597,0
0.3,1.7,0,0.299994,-0.000163911,0
0.3,1.8,0,0.299993,-0.000160153,0
0.3,1.9,0,0.299997,-0.000138075,0
0.3,2,0,0.299995,-0.000146148,0
0.3,2.1,0,0.29999,-0.00016633,0
0.3,2.2,0,0.299994,-0.000137373,0
0.3,2.3,0,0.299995,-0.00012579,0
0.3,2.4,0,0.299991,-0.000147288,0
0.3,2.5,0,0.29999,-0.000142367,0
0.3,2.6,0,0.299994,-0.000112011,0
0.3,2.7,0,0.299992,-0.000123191,0
0.3,2.8,0,0.299988,-0.000151142,0
0.3,2.9,0,0.299991,-0.000112562,0
0.3,3,0,0.299992,-9.71296e-05,0
0.3,3.1,0,0.299989,-0.000126017,0
0.3,3.2,0,0.299987,-0.0001205,0
0.3,3.3,0,0.299989,-8.16832e-05,0
0.3,3.4,0,0.299988,-9.60562e-05,0
0.3,3.5,0,0.299986,-0.000131989,0
0.3,3.6,0,0.299985,-8.51313e-05,0
0.3,3.7,0,0.299985,-6.63882e-05,0
0.3,3.8,0,0.299986,-0.000101413,0
0.3,3.9,0,0.299984,-9.63265e-05,0
0.3,4,0,0.29998,-5.21454e-05,0
0.3,4.1,0,0.299982,-6.82865e-05,0
0.3,4.2,0,0.299987,-0.000108639,0
0.3,4.3,0,0.299978,-5.96044e-05,0
0.3,4.4,0,0.299975,-3.99905e-05,0
0.3,4.5,0,0.299983,-7.54709e-05,0
0.3,4.6,0,0.299982,-7.22384e-05,0
0.3,4.7,0,0.299972,-3.09393e-05,0
0.3,4.8,0,0.299977,-4.50653e-05,0
0.3,4.9,0,0.299989,-8.03804e-05,0
0.3,5,0,0.299979,-4.13156e-05,0
0.3,5.1,0,0.299974,-2.56897e-05,0
0.3,5.2,0,0.299984,-5.04175e-05,0
0.3,5.3,0,0.299988,-4.98918e-05,0
0.3,5.4,0,0.299986,-2.42177e-05,0
0.3,5.5,0,0.299987,-3.05914e-05,0
0.3,5.6,0,0.29999,-4.65257e-05,0
0.3,5.7,0,0.300005,-3.14585e-05,0
0.3,5.8,0,0.300011,-2.54316e-05,0
0.3,5.9,0,0.299996,-2.68686e-05,0
0.3,6,0,0.30001,-2.74836e-05,0
0.3,6.1,0,0.300052,-2.71536e-05,0
0.3,6.2,0,0.300032,-2.16557e-05,0
0.3,6.3,0,0.299982,-7.91099e-06,0
0.3,6.4,0,0.30007,-2.06287e-05,0
0.3,6.5,0,0.300106,-2.57158e-05,0
0.3,6.6,0,0.300022,-1.1476e-06,0
0.3,6.7,0,0.300042,2.52805e-07,0
0.3,6.8,0,0.300164,-2.17947e-05,0
0.3,6.9,0,0.300108,-7.52756e-06,0
0.3,7,0,0.299969,2.81403e-05,0
0.3,7.1,0,0.299965,3.5284e-05,0
0.3,7.2,0,0.299964,3.92944e-05,0
0.3,7.3,0,0.299963,4.32323e-05,0
0.3,7.4,0,0.299962,4.71708e-05,0
0.3,7.5,0,0.299961,5.10945e-05,0
0.3,7.6,0,0.299961,5.49954e-05,0
0.3,7.7,0,0.299961,5.88709e-05,0
0.3,7.8,0,0.299962,6.27169e-05,0
0.3,7.9,0,0.299963,6.65781e-05,0
0.3,8,0,0.299965,7.20052e-05,0
0.3,8.1,0,0.300228,8.99064e-05,0
0.3,8.2,0,0.300065,8.44351e-05,0
0.3,8.3,0,0.300128,9.53015e-05,0
0.3,8.4,0,0.300141,9.92867e-05,0
0.3,8.5,0,0.300034,9.80263e-05,0
0.3,8.6,0,0.30016,0.000109717,0
0.3,8.7,0,0.299991,0.000104187,0
0.3,8.8,0,0.300116,0.000114225,0
0.3,8.9,0,0.300042,0.000114691,0
0.3,9,0,0.30004,0.000115065,0
0.3,9.1,0,0.300055,0.000117279,0
0.3,9.2,0,0.300002,0.000122482,0
0.3,9.3,0,0.300028,0.000112905,0
0.3,9.4,0,0.3,0.000133979,0
0.3,9.5,0,0.299993,0.000109802,0
0.3,9.6,0,0.299996,0.000128355,0
0.3,9.7,0,0.29998,0.000121181,0
0.3,9.8,0,0.299971,0.000111067,0
0.3,9.9,0,0.29999,0.000143446,0
0.3,10,0,0.299948,9.7752e-05,0
0.3,10.1,0,0.299993,0.000153704,0
0.3,10.2,0,0.299946,9.97916e-05,0
0.3,10.3,0,0.299968,0.000129967,0
0.3,10.4,0,0.299968,0.000128071,0
0.3,10.5,0,0.299945,9.79608e-05,0
0.3,10.6,0,0.29999,0.000164261,0
0.3,10.7,0,0.299945,8.73048e-05,0
0.3,10.8,0,0.299986,0.000164137,0
0.3,10.9,0,0.29996,0.000101304,0
0.3,11,0,0.299971,0.000129608,0
0.3,11.1,0,0.299981,0.000140909,0
0.3,11.2,0,0.299966,9.18547e-05,0
0.3,11.3,0,0.299994,0.000183415,0
0.3,11.4,0,0.299976,8.88048e-05,0
0.3,11.5,0,0.29999,0.000169339,0
0.3,11.6,0,0.299988,0.000112621,0
0.3,11.7,0,0.29999,0.000130952,0
0.3,11.8,0,0.299995,0.000155489,0
0.3,11.9,0,0.299995,9.31032e-05,0
0.3,12,0,0.299996,0.000198445,0
0.3,12.1,0,0.300002,9.52776e-05,0
0.3,12.2,0,0.299998,0.000170773,0
0.3,12.3,0,0.300004,0.000125075,0
0.3,12.4,0,0.300004,0.000131277,0
0.3,12.5,0,0.300002,0.000167027,0
0.3,12.6,0,0.300011,0.000108535,0
0.3,12.7,0,0.300001,0.000241441,0
0.4,0,0,0.299999,-0.000294646,0
0.4,0.1,0,0.3,-0.00025496,0
0.4,0.2,0,0.3,-0.000231234,0
0.4,0.3,0,0.299999,-0.000242571,0
0.4,0.4,0,0.299998,-0.000241764,0
0.4,0.5,0,0.3,-0.000228815,0
0.4,0.6,0,0.299998,-0.000234176,0
0.4,0.7,0,0.299995,-0.00024584,0
0.4,0.8,0,0.299997,-0.000231057,0
0.4,0.9,0,0.299998,-0.000222904,0
0.4,1,0,0.299995,-0.000235611,0
0.4,1.1,0,0.299994,-0.000233285,0
0.4,1.2,0,0.299997,-0.000215928,0
0.4,1.3,0,0.299995,-0.000222132,0
0.4,1.4,0,0.299991,-0.000236633,0
0.4,1.5,0,0.299994,-0.000216006,0
0.4,1.6,0,0.299995,-0.000204368,0
0.4,1.7,0,0.299991,-0.000221384,0
0.4,1.8,0,0.299991,-0.000217626,0
0.4,1.9,0,0.299994,-0.000193095,0
0.4,2,0,0.299992,-0.000201591,0
0.4,2.1,0,0.299987,-0.000221773,0
0.4,2.2,0,0.29999,-0.000192816,0
0.4,2.3,0,0.299992,-0.000176479,0
0.4,2.4,0,0.299987,-0.000200366,0
0.4,2.5,0,0.299987,-0.000195444,0
0.4,2.6,0,0.29999,-0.000161716,0
0.4,2.7,0,0.299988,-0.000173572,0
0.4,2.8,0,0.299983,-0.000201523,0
0.4,2.9,0,0.299987,-0.000162942,0
0.4,3,0,0.299988,-0.000141275,0
0.4,3.1,0,0.299984,-0.000173372,0
0.4,3.2,0,0.299983,-0.000167856,0
0.4,3.3,0,0.299984,-0.000124725,0
0.4,3.4,0,0.299983,-0.000140053,0
0.4,3.5,0,0.299981,-0.000175985,0
0.4,3.6,0,0.299981,-0.000129128,0
0.4,3.7,0,0.29998,-0.000102787,0
0.4,3.8,0,0.299981,-0.000141704,0
0.4,3.9,0,0.299979,-0.000136617,0
0.4,4,0,0.299975,-8.75268e-05,0
0.4,4.1,0,0.299977,-0.0001045,0
0.4,4.2,0,0.299982,-0.000144852,0
0.4,4.3,0,0.299974,-9.58175e-05,0
0.4,4.4,0,0.29997,-6.77756e-05,0
0.4,4.5,0,0.299979,-0.000107198,0
0.4,4.6,0,0.299978,-0.000103966,0
0.4,4.7,0,0.299967,-5.80779e-05,0
0.4,4.8,0,0.299973,-7.18588e-05,0
0.4,4.9,0,0.299985,-0.000107174,0
0.4,5,0,0.299975,-6.81091e-05,0
0.4,5.1,0,0.29997,-4.43272e-05,0
0.4,5.2,0,0.299981,-7.18026e-05,0
0.4,5.3,0,0.299985,-7.12769e-05,0
0.4,5.4,0,0.299982,-4.27501e-05,0
0.4,5.5,0,0.299983,-4.60999e-05,0
0.4,5.6,0,0.299986,-6.20342e-05,0
0.4,5.7,0,0.300001,-4.6967e-05,0
0.4,5.8,0,0.300009,-3.44942e-05,0
0.4,5.9,0,0.299991,-3.60909e-05,0
0.4,6,0,0.300006,-3.67059e-05,0
0.4,6.1,0,0.300052,-3.63392e-05,0
0.4,6.2,0,0.300026,-2.42927e-05,0
0.4,6.3,0,0.299976,-1.0548e-05,0
0.4,6.4,0,0.300064,-2.32657e-05,0
0.4,6.5,0,0.300107,-2.42785e-05,0
0.4,6.6,0,0.300013,3.01955e-06,0
0.4,6.7,0,0.300034,4.41995e-06,0
0.4,6.8,0,0.300169,-2.00773e-05,0
0.4,6.9,0,0.300098,1.85255e-06,0
0.4,7,0,0.299958,3.75204e-05,0
0.4,7.1,0,0.299954,4.70454e-05,0
0.4,7.2,0,0.299952,5.23925e-05,0
0.4,7.3,0,0.29995,5.76431e-05,0
0.4,7.4,0,0.299949,6.28944e-05,0
0.4,7.5,0,0.299948,6.81259e-05,0
0.4,7.6,0,0.299948,7.33271e-05,0
0.4,7.7,0,0.299948,7.84946e-05,0
0.4,7.8,0,0.299949,8.36225e-05,0
0.4,7.9,0,0.29995,8.87708e-05,0
0.4,8,0,0.299953,9.60069e-05,0
0.4,8.1,0,0.300233,0.000115051,0
0.4,8.2,0,0.300055,0.000111498,0
0.4,8.3,0,0.300117,0.000122365,0
0.4,8.4,0,0.300133,0.000130135,0
0.4,8.5,0,0.300025,0.000128875,0
0.4,8.6,0,0.300175,0.000145026,0
0.4,8.7,0,0.299984,0.000138813,0
0.4,8.8,0,0.300111,0.00014896,0
0.4,8.9,0,0.300038,0.000153036,0
0.4,9,0,0.300036,0.00015341,0
0.4,9.1,0,0.300052,0.000159263,0
0.4,9.2,0,0.3,0.000164466,0
0.4,9.3,0,0.300032,0.000154433,0
0.4,9.4,0,0.299999,0.000179475,0
0.4,9.5,0,0.299992,0.000155298,0
0.4,9.6,0,0.299996,0.000177183,0
0.4,9.7,0,0.29998,0.000170008,0
0.4,9.8,0,0.299971,0.000162999,0
0.4,9.9,0,0.29999,0.000195378,0
0.4,10,0,0.29994,0.000140948,0
0.4,10.1,0,0.299993,0.000208479,0
0.4,10.2,0,0.299946,0.000154567,0
0.4,10.3,0,0.299968,0.000187308,0
0.4,10.4,0,0.299968,0.000185412,0
0.4,10.5,0,0.299945,0.000157585,0
0.4,10.6,0,0.29999,0.000223886,0
0.4,10.7,0,0.299935,0.00013201,0
0.4,10.8,0,0.299986,0.000225772,0
0.4,10.9,0,0.299959,0.000162938,0
0.4,11,0,0.29997,0.000192993,0
0.4,11.1,0,0.29998,0.000204294,0
0.4,11.2,0,0.299965,0.000156748,0
0.4,11.3,0,0.299992,0.000248308,0
0.4,11.4,0,0.299971,0.000136066,0
0.4,11.5,0,0.299989,0.000235511,0
0.4,11.6,0,0.299987,0.000178794,0
0.4,11.7,0,0.299988,0.000198185,0
0.4,11.8,0,0.299994,0.000222722,0
0.4,11.9,0,0.299994,0.000160001,0
0.4,12,0,0.299995,0.000266525,0
0.4,12.1,0,0.300002,0.000150607,0
0.4,12.2,0,0.299997,0.000239494,0
0.4,12.3,0,0.300003,0.000193796,0
0.4,12.4,0,0.300003,0.000200441,0
0.4,12.5,0,0.300001,0.000236191,0
0.4,12.6,0,0.30001,0.000163473,0
0.4,12.7,0,0.299999,0.000303349,0
0.5,0,0,0.299998,-0.000343892,0
0.5,0.1,0,0.3,-0.000304207,0
0.5,0.2,0,0.299999,-0.000297221,0
0.5,0.3,0,0.299998,-0.000304631,0
0.5,0.4,0,0.299998,-0.000303824,0
0.5,0.5,0,0.299998,-0.000294763,0
0.5,0.6,0,0.299997,-0.000295636,0
0.5,0.7,0,0.299994,-0.0003073,0
0.5,0.8,0,0.299996,-0.000292517,0
0.5,0.9,0,0.299995,-0.000288323,0
0.5,1,0,0.299993,-0.000296102,0
0.5,1.1,0,0.299992,-0.000293776,0
0.5,1.2,0,0.299994,-0.000281253,0
0.5,1.3,0,0.299992,-0.00028129,0
0.5,1.4,0,0.299988,-0.000295792,0
0.5,1.5,0,0.299992,-0.000275164,0
0.5,1.6,0,0.299991,-0.000268717,0
0.5,1.7,0,0.299988,-0.000278856,0
0.5,1.8,0,0.299988,-0.000275099,0
0.5,1.9,0,0.29999,-0.000257295,0
0.5,2,0,0.299988,-0.000257034,0
0.5,2.1,0,0.299983,-0.000277216,0
0.5,2.2,0,0.299987,-0.000248259,0
0.5,2.3,0,0.299987,-0.000239208,0
0.5,2.4,0,0.299983,-0.000253443,0
0.5,2.5,0,0.299983,-0.000248522,0
0.5,2.6,0,0.299985,-0.00022411,0
0.5,2.7,0,0.299984,-0.000223953,0
0.5,2.8,0,0.299979,-0.000251903,0
0.5,2.9,0,0.299982,-0.000213323,0
0.5,3,0,0.299982,-0.00020149,0
0.5,3.1,0,0.29998,-0.000220727,0
0.5,3.2,0,0.299978,-0.000215211,0
0.5,3.3,0,0.299979,-0.000184058,0
0.5,3.4,0,0.299979,-0.000184049,0
0.5,3.5,0,0.299977,-0.000219981,0
0.5,3.6,0,0.299976,-0.000173124,0
0.5,3.7,0,0.299976,-0.000158697,0
0.5,3.8,0,0.299976,-0.000181994,0
0.5,3.9,0,0.299975,-0.000176907,0
0.5,4,0,0.299972,-0.000141268,0
0.5,4.1,0,0.299973,-0.000140713,0
0.5,4.2,0,0.299978,-0.000181065,0
0.5,4.3,0,0.29997,-0.000132031,0
0.5,4.4,0,0.299969,-0.000115848,0
0.5,4.5,0,0.299975,-0.000138926,0
0.5,4.6,0,0.299974,-0.000135693,0
0.5,4.7,0,0.299967,-0.000101577,0
0.5,4.8,0,0.29997,-9.86523e-05,0
0.5,4.9,0,0.299982,-0.000133967,0
0.5,5,0,0.299971,-9.49026e-05,0
0.5,5.1,0,0.29997,-7.87339e-05,0
0.5,5.2,0,0.299978,-9.31877e-05,0
0.5,5.3,0,0.299982,-9.2662e-05,0
0.5,5.4,0,0.29998,-6.94466e-05,0
0.5,5.5,0,0.29998,-6.16085e-05,0
0.5,5.6,0,0.299983,-7.75428e-05,0
0.5,5.7,0,0.299998,-6.24756e-05,0
0.5,5.8,0,0.299999,-4.87389e-05,0
0.5,5.9,0,0.299987,-4.53132e-05,0
0.5,6,0,0.300001,-4.59282e-05,0
0.5,6.1,0,0.300031,-4.098e-05,0
0.5,6.2,0,0.30002,-2.69297e-05,0
0.5,6.3,0,0.29997,-1.3185e-05,0
0.5,6.4,0,0.300058,-2.59027e-05,0
0.5,6.5,0,0.300069,-1.58721e-05,0
0.5,6.6,0,0.300005,7.18669e-06,0
0.5,6.7,0,0.300026,8.58709e-06,0
0.5,6.8,0,0.300114,-4.02086e-06,0
0.5,6.9,0,0.300087,1.12327e-05,0
0.5,7,0,0.299948,4.69006e-05,0
0.5,7.1,0,0.299943,5.88067e-05,0
0.5,7.2,0,0.29994,6.54907e-05,0
0.5,7.3,0,0.299938,7.20539e-05,0
0.5,7.4,0,0.299936,7.8618e-05,0
0.5,7.5,0,0.299935,8.51574e-05,0
0.5,7.6,0,0.299935,9.16589e-05,0
0.5,7.7,0,0.299935,9.81182e-05,0
0.5,7.8,0,0.299936,0.000104528,0
0.5,7.9,0,0.299938,0.000110963,0
0.5,8,0,0.299941,0.000120009,0
0.5,8.1,0,0.300161,0.000137043,0
0.5,8.2,0,0.300044,0.000138561,0
0.5,8.3,0,0.300107,0.000149428,0
0.5,8.4,0,0.300124,0.000160984,0
0.5,8.5,0,0.300017,0.000159724,0
0.5,8.6,0,0.300116,0.00017478,0
0.5,8.7,0,0.299978,0.000173439,0
0.5,8.8,0,0.300082,0.00018373,0
0.5,8.9,0,0.300034,0.000191381,0
0.5,9,0,0.300032,0.000191756,0
0.5,9.1,0,0.30005,0.000201246,0
0.5,9.2,0,0.299997,0.000206449,0
0.5,9.3,0,0.300019,0.000204278,0
0.5,9.4,0,0.299998,0.000224971,0
0.5,9.5,0,0.299992,0.000205494,0
0.5,9.6,0,0.299996,0.00022601,0
0.5,9.7,0,0.29998,0.000218836,0
0.5,9.8,0,0.299972,0.000215698,0
0.5,9.9,0,0.299991,0.00024731,0
0.5,10,0,0.299958,0.000215072,0
0.5,10.1,0,0.299994,0.000263255,0
0.5,10.2,0,0.299951,0.000214951,0
0.5,10.3,0,0.299968,0.000244649,0
0.5,10.4,0,0.299968,0.000242753,0
0.5,10.5,0,0.299949,0.00022307,0
0.5,10.6,0,0.29999,0.00028351,0
0.5,10.7,0,0.299953,0.000224167,0
0.5,10.8,0,0.299985,0.000287406,0
0.5,10.9,0,0.299959,0.000226408,0
0.5,11,0,0.299969,0.000256378,0
0.5,11.1,0,0.299979,0.000267679,0
0.5,11.2,0,0.299967,0.000234408,0
0.5,11.3,0,0.299991,0.000313201,0
0.5,11.4,0,0.299976,0.000237529,0
0.5,11.5,0,0.299987,0.000301684,0
0.5,11.6,0,0.299985,0.000244966,0
0.5,11.7,0,0.299987,0.000265419,0
0.5,11.8,0,0.299992,0.000289956,0
0.5,11.9,0,0.299992,0.000247336,0
0.5,12,0,0.299994,0.000334605,0
0.5,12.1,0,0.299999,0.000250144,0
0.5,12.2,0,0.299996,0.000308215,0
0.5,12.3,0,0.300002,0.000262516,0
0.5,12.4,0,0.300002,0.000269605,0
0.5,12.5,0,0.3,0.000305355,0
0.5,12.6,0,0.300006,0.000255568,0
0.5,12.7,0,0.299998,0.000365257,0
0.6,0,0,0.299998,-0.000393138,0
0.6,0.1,0,0.299999,-0.000365225,0
0.6,0.2,0,0.299998,-0.000364779,0
0.6,0.3,0,0.299997,-0.00036669,0
0.6,0.4,0,0.299997,-0.000365884,0
0.6,0.5,0,0.299996,-0.000362266,0
0.6,0.6,0,0.299995,-0.00036098,0
0.6,0.7,0,0.299993,-0.000368759,0
0.6,0.8,0,0.299994,-0.000357789,0
0.6,0.9,0,0.299993,-0.000355712,0
0.6,1,0,0.299991,-0.000356593,0
0.6,1.1,0,0.299991,-0.000354267,0
0.6,1.2,0,0.29999,-0.000348511,0
0.6,1.3,0,0.299989,-0.000345656,0
0.6,1.4,0,0.299986,-0.00035495,0
0.6,1.5,0,0.299988,-0.000339427,0
0.6,1.6,0,0.299987,-0.000335816,0
0.6,1.7,0,0.299985,-0.000336329,0
0.6,1.8,0,0.299985,-0.000332572,0
0.6,1.9,0,0.299985,-0.000324186,0
0.6,2,0,0.299984,-0.000319837,0
0.6,2.1,0,0.29998,-0.000332659,0
0.6,2.2,0,0.299982,-0.000310869,0
0.6,2.3,0,0.299981,-0.000305799,0
0.6,2.4,0,0.29998,-0.00030652,0
0.6,2.5,0,0.299979,-0.000301599,0
0.6,2.6,0,0.299979,-0.00029023,0
0.6,2.7,0,0.299978,-0.000284452,0
0.6,2.8,0,0.299975,-0.000302284,0
0.6,2.9,0,0.299977,-0.000273333,0
0.6,3,0,0.299976,-0.00026685,0
0.6,3.1,0,0.299975,-0.000268083,0
0.6,3.2,0,0.299974,-0.000262566,0
0.6,3.3,0,0.299974,-0.000248182,0
0.6,3.4,0,0.299974,-0.000240984,0
0.6,3.5,0,0.299972,-0.000263978,0
0.6,3.6,0,0.299972,-0.000228795,0
0.6,3.7,0,0.299972,-0.000220854,0
0.6,3.8,0,0.299972,-0.000222285,0
0.6,3.9,0,0.29997,-0.000217198,0
0.6,4,0,0.299969,-0.00020039,0
0.6,4.1,0,0.29997,-0.000191653,0
0.6,4.2,0,0.299973,-0.000217278,0
0.6,4.3,0,0.299968,-0.00018007,0
0.6,4.4,0,0.299969,-0.000170458,0
0.6,4.5,0,0.299971,-0.000170653,0
0.6,4.6,0,0.29997,-0.000167421,0
0.6,4.7,0,0.299968,-0.000149785,0
0.6,4.8,0,0.299969,-0.000139212,0
0.6,4.9,0,0.299978,-0.000160761,0
0.6,5,0,0.299971,-0.000129939,0
0.6,5.1,0,0.299972,-0.000118349,0
0.6,5.2,0,0.299974,-0.000114573,0
0.6,5.3,0,0.299978,-0.000114047,0
0.6,5.4,0,0.299978,-9.82676e-05,0
0.6,5.5,0,0.299977,-8.56751e-05,0
0.6,5.6,0,0.299979,-9.30513e-05,0
0.6,5.7,0,0.299989,-7.84631e-05,0
0.6,5.8,0,0.299987,-6.49926e-05,0
0.6,5.9,0,0.299982,-5.45355e-05,0
0.6,6,0,0.299997,-5.51505e-05,0
0.6,6.1,0,0.300003,-4.37881e-05,0
0.6,6.2,0,0.3,-2.96767e-05,0
0.6,6.3,0,0.299964,-1.5822e-05,0
0.6,6.4,0,0.300024,-2.03503e-05,0
0.6,6.5,0,0.300019,-5.77001e-06,0
0.6,6.6,0,0.299996,1.13538e-05,0
0.6,6.7,0,0.300017,1.27542e-05,0
0.6,6.8,0,0.300041,1.67913e-05,0
0.6,6.9,0,0.300036,2.79619e-05,0
0.6,7,0,0.299937,5.62807e-05,0
0.6,7.1,0,0.299931,7.0568e-05,0
0.6,7.2,0,0.299928,7.85888e-05,0
0.6,7.3,0,0.299925,8.64646e-05,0
0.6,7.4,0,0.299923,9.43416e-05,0
0.6,7.5,0,0.299922,0.000102189,0
0.6,7.6,0,0.299922,0.000109991,0
0.6,7.7,0,0.299922,0.000117742,0
0.6,7.8,0,0.299924,0.000125434,0
0.6,7.9,0,0.299926,0.000133156,0
0.6,8,0,0.299929,0.00014401,0
0.6,8.1,0,0.300063,0.000158139,0
0.6,8.2,0,0.300034,0.000165624,0
0.6,8.3,0,0.300053,0.000174758,0
0.6,8.4,0,0.30006,0.00018684,0
0.6,8.5,0,0.300008,0.000190573,0
0.6,8.6,0,0.300048,0.000203683,0
0.6,8.7,0,0.299972,0.000208064,0
0.6,8.8,0,0.300033,0.000218626,0
0.6,8.9,0,0.30003,0.000229726,0
0.6,9,0,0.300017,0.000231604,0
0.6,9.1,0,0.300023,0.000243217,0
0.6,9.2,0,0.299995,0.000248433,0
0.6,9.3,0,0.300007,0.000254123,0
0.6,9.4,0,0.299997,0.000270467,0
0.6,9.5,0,0.299993,0.000263612,0
0.6,9.6,0,0.299996,0.000274838,0
0.6,9.7,0,0.299983,0.000272137,0
0.6,9.8,0,0.299984,0.000282044,0
0.6,9.9,0,0.299991,0.000299242,0
0.6,10,0,0.299976,0.000289195,0
0.6,10.1,0,0.299994,0.000318031,0
0.6,10.2,0,0.299971,0.000296081,0
0.6,10.3,0,0.29997,0.000304268,0
0.6,10.4,0,0.29997,0.00030295,0
0.6,10.5,0,0.299969,0.000310237,0
0.6,10.6,0,0.299989,0.000343135,0
0.6,10.7,0,0.29997,0.000316324,0
0.6,10.8,0,0.299984,0.00034904,0
0.6,10.9,0,0.299973,0.000322535,0
0.6,11,0,0.299972,0.000328123,0
0.6,11.1,0,0.299978,0.000331063,0
0.6,11.2,0,0.299976,0.000333591,0
0.6,11.3,0,0.299989,0.000378094,0
0.6,11.4,0,0.299981,0.000338993,0
0.6,11.5,0,0.299985,0.000367856,0
0.6,11.6,0,0.299986,0.000344155,0
0.6,11.7,0,0.299986,0.000347541,0
0.6,11.8,0,0.299991,0.00035719,0
0.6,11.9,0,0.299991,0.000351615,0
0.6,12,0,0.299992,0.000402685,0
0.6,12.1,0,0.299995,0.000355185,0
0.6,12.2,0,0.299995,0.000376936,0
0.6,12.3,0,0.299999,0.000358206,0
0.6,12.4,0,0.299999,0.00035962,0
0.6,12.5,0,0.299999,0.000374519,0
0.6,12.6,0,0.300001,0.000361131,0
0.6,12.7,0,0.299996,0.000427164,0
0.7,0,0,0.299998,-0.000442384,0
0.7,0.1,0,0.299998,-0.000432783,0
0.7,0.2,0,0.299997,-0.000432337,0
0.7,0.3,0,0.299996,-0.000431892,0
0.7,0.4,0,0.299996,-0.000431054,0
0.7,0.5,0,0.299995,-0.000429769,0
0.7,0.6,0,0.299993,-0.000428483,0
0.7,0.7,0,0.299992,-0.000430219,0
0.7,0.8,0,0.299991,-0.000425178,0
0.7,0.9,0,0.29999,-0.000423102,0
0.7,1,0,0.299989,-0.000421026,0
0.7,1.1,0,0.299988,-0.000418625,0
0.7,1.2,0,0.299987,-0.00041577,0
0.7,1.3,0,0.299985,-0.000412914,0
0.7,1.4,0,0.299984,-0.000414109,0
0.7,1.5,0,0.299984,-0.000406526,0
0.7,1.6,0,0.299983,-0.000402915,0
0.7,1.7,0,0.299981,-0.000399303,0
0.7,1.8,0,0.299981,-0.000395426,0
0.7,1.9,0,0.29998,-0.000391077,0
0.7,2,0,0.299979,-0.000386728,0
0.7,2.1,0,0.299977,-0.000388102,0
0.7,2.2,0,0.299977,-0.000377459,0
0.7,2.3,0,0.299976,-0.000372389,0
0.7,2.4,0,0.299975,-0.000367319,0
0.7,2.5,0,0.299974,-0.000362129,0
0.7,2.6,0,0.299973,-0.000356351,0
0.7,2.7,0,0.299972,-0.000350573,0
0.7,2.8,0,0.299971,-0.000352664,0
0.7,2.9,0,0.299971,-0.000338692,0
0.7,3,0,0.29997,-0.000332209,0
0.7,3.1,0,0.29997,-0.000325726,0
0.7,3.2,0,0.299969,-0.000319503,0
0.7,3.3,0,0.299969,-0.000312306,0
0.7,3.4,0,0.299968,-0.000305108,0
0.7,3.5,0,0.299968,-0.000307974,0
0.7,3.6,0,0.299967,-0.000290952,0
0.7,3.7,0,0.299967,-0.000283011,0
0.7,3.8,0,0.299967,-0.000275071,0
0.7,3.9,0,0.299967,-0.000268249,0
0.7,4,0,0.299967,-0.000259512,0
0.7,4.1,0,0.299968,-0.000250774,0
0.7,4.2,0,0.299969,-0.000253491,0
0.7,4.3,0,0.299968,-0.000234681,0
0.7,4.4,0,0.299968,-0.000225069,0
0.7,4.5,0,0.299969,-0.000215457,0
0.7,4.6,0,0.299969,-0.000208565,0
0.7,4.7,0,0.29997,-0.000197993,0
0.7,4.8,0,0.299971,-0.00018742,0
0.7,4.9,0,0.299975,-0.000187554,0
0.7,5,0,0.299973,-0.000169554,0
0.7,5.1,0,0.299973,-0.000157965,0
0.7,5.2,0,0.299974,-0.000146375,0
0.7,5.3,0,0.299976,-0.000139681,0
0.7,5.4,0,0.299975,-0.000127089,0
0.7,5.5,0,0.299975,-0.000114496,0
0.7,5.6,0,0.299975,-0.00010856,0
0.7,5.7,0,0.299978,-9.47168e-05,0
0.7,5.8,0,0.299976,-8.12463e-05,0
0.7,5.9,0,0.299974,-6.77757e-05,0
0.7,6,0,0.299979,-6.07075e-05,0
0.7,6.1,0,0.299976,-4.65962e-05,0
0.7,6.2,0,0.299972,-3.24848e-05,0
0.7,6.3,0,0.299958,-1.8459e-05,0
0.7,6.4,0,0.299974,-1.02482e-05,0
0.7,6.5,0,0.299969,4.33208e-06,0
0.7,6.6,0,0.299964,1.89124e-05,0
0.7,6.7,0,0.299972,2.64328e-05,0
0.7,6.8,0,0.299967,3.76035e-05,0