/*--------------------------------*- C++ -*----------------------------------*\
| =========                 |                                                 |
| \\      /  F ield         | OpenFOAM: The Open Source CFD Toolbox           |
|  \\    /   O peration     | Version:  v1806                                 |
|   \\  /    A nd           | Web:      www.OpenFOAM.com                      |
|    \\/     M anipulation  |                                                 |
\*---------------------------------------------------------------------------*/
FoamFile
{
    version     2.0;
    format      ascii;
    class       surfaceScalarField;
    location    "30";
    object      phi;
}
// * * * * * * * * * * * * * * * * * * * * * * * * * * * * * * * * * * * * * //

dimensions      [0 3 -1 0 0 0 0];
oriented        oriented;


internalField   nonuniform List<scalar> 
4680
(
0.104992
-0.000796014
0.104985
-0.00238488
0.104984
-0.00376867
0.104934
-0.00580049
0.104813
-0.00867347
0.104704
-0.0110537
0.104666
-0.012421
0.104563
-0.0146478
0.104175
-0.0195676
0.103468
-0.0260363
0.102624
-0.0310905
0.101689
-0.0338176
0.100278
-0.0368798
0.0977131
-0.0437645
0.0934784
-0.0551763
0.0875538
-0.0685036
0.0803619
-0.0801359
0.072484
-0.0878215
0.064401
-0.0913039
-0.0913251
0.0561937
0.104985
-0.000780899
0.104958
-0.00235795
0.104934
-0.00374511
0.104851
-0.00571687
0.104661
-0.00848406
0.104449
-0.0108418
0.104299
-0.0122702
0.104086
-0.0144355
0.103559
-0.0190408
0.102629
-0.0251055
0.10143
-0.0298915
0.10003
-0.0324175
0.0981663
-0.0350166
0.0953729
-0.040971
0.0913299
-0.0511333
0.0860664
-0.0632401
0.079883
-0.0739525
0.0731662
-0.0811046
0.0662792
-0.0844169
-0.0847673
0.0597214
0.10498
-0.000760493
0.104935
-0.00231365
0.10488
-0.00368943
0.10475
-0.00558693
0.104501
-0.00823567
0.10421
-0.01055
0.103944
-0.0120049
0.103591
-0.0140822
0.102931
-0.0183805
0.101872
-0.0240467
0.100499
-0.0285184
0.0988893
-0.030808
0.0969158
-0.033043
0.0942438
-0.038299
0.0905291
-0.0474186
0.0856447
-0.0583558
0.0797743
-0.068082
0.0733055
-0.0746358
0.0666026
-0.077714
-0.0778826
0.0597179
0.104975
-0.000735816
0.104912
-0.00225082
0.104825
-0.00360154
0.104656
-0.00541795
0.104358
-0.00793778
0.103989
-0.0101812
0.103615
-0.0116311
0.103148
-0.013615
0.102386
-0.0176185
0.101213
-0.0228742
0.0996993
-0.0270044
0.0979648
-0.0290735
0.0959459
-0.0310242
0.0933341
-0.0356872
0.0897979
-0.0438824
0.0852508
-0.0538087
0.0798941
-0.0627254
0.0740447
-0.0687864
0.0680061
-0.0716755
-0.0720259
0.0621495
0.104971
-0.000706709
0.104891
-0.00217122
0.104775
-0.00348485
0.104569
-0.0052119
0.104224
-0.0075929
0.103789
-0.00974622
0.103327
-0.0111694
0.102762
-0.0130499
0.101902
-0.0167584
0.100637
-0.0216095
0.0990491
-0.0254164
0.0972702
-0.0272946
0.0952426
-0.0289965
0.0926825
-0.0331271
0.0892917
-0.0404916
0.0849813
-0.0494983
0.0799005
-0.0576445
0.0743432
-0.0632291
0.068593
-0.0659253
-0.066184
0.0627511
0.104967
-0.000673527
0.104872
-0.0020764
0.104728
-0.00334094
0.104488
-0.00497159
0.104102
-0.00720666
0.103609
-0.0092534
0.10307
-0.0106309
0.102421
-0.0124011
0.101484
-0.0158208
0.100153
-0.0202787
0.0985101
-0.0237735
0.0966912
-0.0254757
0.0946637
-0.0269691
0.0921878
-0.0306512
0.0889898
-0.0372936
0.0849687
-0.0454772
0.0802437
-0.0529196
0.0750632
-0.0580485
0.0696775
-0.0605397
-0.0608393
0.0643328
0.104963
-0.000636592
0.104854
-0.00196739
0.104685
-0.0031721
0.104414
-0.00470033
0.10399
-0.0067825
0.103446
-0.0087092
0.102842
-0.0100275
0.102123
-0.0116818
0.101118
-0.014816
0.0997323
-0.0188928
0.0980533
-0.0220945
0.0962252
-0.0236476
0.0942264
-0.0249702
0.0918277
-0.0282525
0.088757
-0.034223
0.0849119
-0.041632
0.0804037
-0.0484114
0.0754804
-0.0531252
0.0703835
-0.0554428
-0.0557104
0.0652546
0.104959
-0.000596066
0.104837
-0.00184526
0.104646
-0.00298066
0.104346
-0.00440062
0.103887
-0.00632371
0.103298
-0.00811978
0.102638
-0.0093672
0.101857
-0.0109007
0.100797
-0.0137566
0.0993706
-0.0174662
0.0976635
-0.0203874
0.095823
-0.021807
0.0938434
-0.0229906
0.0915221
-0.0259312
0.0886015
-0.0313024
0.0849754
-0.0380059
0.0807273
-0.0441633
0.0760777
-0.0484756
0.0712435
-0.0506086
-0.0508718
0.0664049
0.104956
-0.00055212
0.104822
-0.00171113
0.10461
-0.00276849
0.104284
-0.00407459
0.103793
-0.00583347
0.103163
-0.00748979
0.102452
-0.00865597
0.101617
-0.0100659
0.100511
-0.0126503
0.0990487
-0.0160038
0.0973182
-0.018657
0.095474
-0.0199628
0.0935203
-0.0210369
0.0912644
-0.0236754
0.0884507
-0.0284887
0.0849801
-0.0345354
0.0809294
-0.0401126
0.0765196
-0.0440658
0.0719495
-0.0460385
-0.0462886
0.0673662
0.104953
-0.000504949
0.104808
-0.00156593
0.104576
-0.00253723
0.104226
-0.00372432
0.103707
-0.0053143
0.10304
-0.00682256
0.102283
-0.00789886
0.1014
-0.00918346
0.100252
-0.0115022
0.0987569
-0.0145087
0.0970028
-0.0169029
0.095149
-0.0181089
0.0932107
-0.0190987
0.091017
-0.0214816
0.0883194
-0.0257911
0.0850213
-0.0312373
0.0811718
-0.0362631
0.076991
-0.039885
0.0726589
-0.0417063
-0.0419635
0.0683338
0.10495
-0.00045473
0.104794
-0.00141053
0.104546
-0.00228842
0.104173
-0.00335155
0.103627
-0.00476821
0.102925
-0.00612124
0.102127
-0.00710001
0.1012
-0.00825679
0.100012
-0.0103141
0.0984842
-0.0129812
0.0967056
-0.0151242
0.0948391
-0.0162425
0.0929085
-0.017168
0.0907586
-0.0193317
0.0881427
-0.0231752
0.0849797
-0.0280742
0.0812996
-0.032583
0.077347
-0.0359324
0.0732674
-0.0376268
-0.037922
0.0692259
0.104947
-0.000401643
0.104782
-0.00124573
0.104517
-0.00202343
0.104123
-0.00295786
0.103552
-0.00419707
0.102819
-0.00538819
0.101981
-0.00626205
0.101013
-0.0072883
0.099786
-0.00908729
0.0982249
-0.01142
0.0964162
-0.0133156
0.0945272
-0.0143534
0.0925897
-0.0152306
0.0904672
-0.0172092
0.0879137
-0.0206217
0.0848716
-0.0250321
0.0813398
-0.0290512
0.077617
-0.0322096
0.07379
-0.0337997
-0.0342045
0.0700725
0.104944
-0.00034587
0.104771
-0.00107231
0.104491
-0.00174363
0.104078
-0.0025448
0.103483
-0.00360245
0.102721
-0.0046254
0.101846
-0.00538751
0.100837
-0.00627979
0.0995713
-0.00782114
0.0979724
-0.00982108
0.096127
-0.0114702
0.0942051
-0.0124314
0.0922446
-0.0132701
0.0901247
-0.0150893
0.0875987
-0.0180956
0.0846464
-0.0220799
0.0812265
-0.0256314
0.077746
-0.028729
0.0741755
-0.0302292
-0.0308883
0.0708593
0.104942
-0.000287617
0.104761
-0.000891065
0.104467
-0.00145033
0.104036
-0.00211386
0.10342
-0.00298599
0.102629
-0.00383488
0.10172
-0.00447851
0.100673
-0.00523218
0.0993659
-0.00651434
0.0977249
-0.00818013
0.0958354
-0.00958068
0.0938666
-0.0104626
0.0918619
-0.0112654
0.0897127
-0.0129401
0.0871744
-0.0155574
0.0842713
-0.0191767
0.0809111
-0.0222712
0.0776859
-0.0255038
0.0743474
-0.0268907
-0.0281232
0.0715823
0.10494
-0.000227118
0.104751
-0.000702831
0.104446
-0.00114494
0.103999
-0.00166671
0.103362
-0.00234943
0.102546
-0.00301862
0.101605
-0.00353723
0.100519
-0.00414662
0.0991706
-0.00516585
0.097483
-0.00649255
0.0955412
-0.00763892
0.0935102
-0.0084316
0.0914384
-0.0091936
0.0892183
-0.01072
0.0866185
-0.0129576
0.0837017
-0.0162599
0.0803329
-0.0189024
0.0773634
-0.0225342
0.0741758
-0.0237031
-0.0261937
0.0722463
0.104938
-0.000164654
0.104743
-0.000508503
0.104427
-0.000828979
0.103966
-0.00120521
0.103311
-0.00169472
0.102471
-0.00217897
0.1015
-0.0025663
0.100379
-0.00302479
0.098988
-0.0037752
0.0972499
-0.00475448
0.0952488
-0.00563778
0.09314
-0.00632277
0.0909772
-0.00703084
0.0886362
-0.00837904
0.0859157
-0.0102371
0.0828827
-0.013227
0.0794306
-0.0154503
0.0766701
-0.0197737
0.0734963
-0.0205293
-0.0255946
0.0728971
0.104936
-0.000100571
0.104736
-0.000309064
0.104412
-0.00050414
0.103938
-0.000731511
0.103267
-0.0010242
0.102407
-0.00131879
0.10141
-0.00156906
0.100255
-0.00186945
0.0988229
-0.00234341
0.0970325
-0.00296413
0.0949668
-0.00357205
0.0927666
-0.00412259
0.0904901
-0.00475433
0.0879747
-0.00586361
0.0850693
-0.00733176
0.0817565
-0.0099141
0.0781315
-0.0118253
0.0753761
-0.0170183
0.0721416
-0.0172949
-0.0272411
0.0737882
0.104935
-3.52971e-05
0.104731
-0.000105603
0.104399
-0.000172291
0.103916
-0.000248073
0.103232
-0.000340703
0.102355
-0.000441573
0.101336
-0.000549614
0.100151
-0.000684864
0.0986815
-0.00087364
0.0968402
-0.00112283
0.0947079
-0.00143975
0.0924089
-0.00182366
0.0899998
-0.00234515
0.0872626
-0.00312644
0.0841015
-0.00417065
0.0803217
-0.00613434
0.0763764
-0.00788005
0.0729867
-0.0136285
0.0698144
-0.0141226
-0.0327513
0.0753246
0.104934
3.06409e-05
0.104728
0.000100746
0.104391
0.000164485
0.103901
0.000242225
0.103208
0.000352396
0.102318
0.000448468
0.101281
0.000486883
0.100073
0.000523011
0.098571
0.000628463
0.0966838
0.000764416
0.0944877
0.00075634
0.0920924
0.000571677
0.0895429
0.000204278
0.0865601
-0.000143644
0.083063
-0.00067351
0.0786602
-0.0017315
0.0741126
-0.00333252
0.0692463
-0.00876224
0.0663527
-0.0112289
-0.0409094
0.0745107
0.104934
9.65169e-05
0.104725
0.000309431
0.104387
0.000503111
0.103893
0.000735685
0.103195
0.00105115
0.102297
0.00134638
0.10125
0.00153396
0.100027
0.00174599
0.0985011
0.00215398
0.096578
0.00268752
0.0943255
0.0030088
0.0918463
0.00305093
0.0891559
0.00289472
0.0859592
0.00305301
0.0820485
0.00323722
0.0769655
0.00335148
0.0712662
0.00236675
0.0647313
-0.00222738
0.0630719
-0.00956952
0.0630257
-0.0408632
0.0544681
-0.0200703
0.0528609
-0.0200042
0.0512626
-0.0198697
0.0496831
-0.0197225
0.0481262
-0.0195614
0.0465953
-0.0193883
0.0450951
-0.0192054
0.0436302
-0.0190143
0.0422062
-0.0188164
-0.0186029
0.040806
0.0582506
-0.0185995
0.0567113
-0.0184649
0.0551934
-0.0183518
0.0536927
-0.0182217
0.0522106
-0.0180793
0.0507484
-0.0179261
0.0493059
-0.0177629
0.0478823
-0.0175907
0.0464761
-0.0174102
-0.0172265
0.0450997
0.0582614
-0.0171431
0.0568834
-0.0170868
0.0555185
-0.0169869
0.0541725
-0.0168757
0.0528456
-0.0167524
0.0515379
-0.0166184
0.0502502
-0.0164753
0.0489836
-0.0163241
0.0477389
-0.0161656
-0.0159965
0.0465089
0.0608425
-0.0158361
0.0594995
-0.0157439
0.0581669
-0.0156543
0.0568424
-0.0155512
0.0555276
-0.0154375
0.0542237
-0.0153145
0.0529317
-0.0151832
0.051652
-0.0150444
0.0503852
-0.0148988
-0.014748
0.0491367
0.0614854
-0.0145703
0.0602551
-0.0145136
0.0590331
-0.0144323
0.0578222
-0.0143402
0.0566226
-0.014238
0.0554346
-0.0141266
0.0542588
-0.0140073
0.0530955
-0.0138811
0.0519452
-0.0137485
-0.0136086
0.0508058
0.0631515
-0.013389
0.0619594
-0.0133216
0.0607739
-0.0132468
0.0595947
-0.013161
0.0584227
-0.0130659
0.0572587
-0.0129626
0.0561034
-0.012852
0.0549571
-0.0127348
0.0538202
-0.0126117
-0.0124828
0.0526945
0.0641262
-0.0122605
0.0630102
-0.0122056
0.061899
-0.0121356
0.0607937
-0.0120558
0.0596947
-0.011967
0.0586023
-0.0118702
0.0575166
-0.0117663
0.0564381
-0.0116562
0.055367
-0.0115405
-0.0114188
0.0543029
0.0653359
-0.0111915
0.064266
-0.0111357
0.0632
-0.0110696
0.0621381
-0.0109939
0.0610807
-0.0109096
0.0600281
-0.0108176
0.0589807
-0.0107188
0.0579384
-0.010614
0.0569015
-0.0105036
-0.0103875
0.0558702
0.066352
-0.0101773
0.0653415
-0.0101252
0.0643333
-0.0100614
0.0633279
-0.00998841
0.0623252
-0.00990693
0.0613255
-0.00981787
0.0603287
-0.00972204
0.0593349
-0.00962016
0.0583441
-0.00951278
-0.00939944
0.057356
0.0673764
-0.00921985
0.0664196
-0.00916837
0.0654643
-0.00910613
0.0645104
-0.00903448
0.0635577
-0.0089543
0.0626063
-0.00886638
0.0616557
-0.00877149
0.0607059
-0.00867033
0.0597565
-0.00856344
-0.00845022
0.0588073
0.0683314
-0.00832534
0.0674378
-0.00827472
0.0665443
-0.00821267
0.0656506
-0.00814083
0.0647563
-0.00805998
0.0638608
-0.0079709
0.0629637
-0.00787433
0.0620643
-0.00777099
0.0611624
-0.00766145
-0.00754484
0.060257
0.0692522
-0.00750503
0.0684318
-0.00745439
0.0676105
-0.00739135
0.0667872
-0.00731749
0.0659608
-0.00723363
0.0651304
-0.00714052
0.064295
-0.00703893
0.0634537
-0.00692963
0.0626055
-0.00681325
-0.00668865
0.0617493
0.0701331
-0.00677883
0.0694067
-0.00672791
0.0686776
-0.00666224
0.0679439
-0.00658381
0.0672037
-0.00649352
0.0664554
-0.00639217
0.0656971
-0.0062806
0.0649272
-0.00615972
0.0641442
-0.0060303
-0.00589105
0.0633466
0.0709847
-0.00618125
0.0703859
-0.00612914
0.0697817
-0.00605804
0.0691687
-0.00597079
0.0685436
-0.00586846
0.0679033
-0.00575185
0.0672447
-0.005622
0.066565
-0.00548006
0.0658619
-0.00532717
-0.00516233
0.0651332
0.0718414
-0.00577634
0.071427
-0.0057148
0.0709996
-0.00563061
0.0705537
-0.00552486
0.0700841
-0.00539884
0.0695855
-0.00525331
0.0690531
-0.00508959
0.0684824
-0.00490939
0.0678698
-0.00471455
-0.00450539
0.0672129
0.0727893
-0.00566849
0.0726509
-0.00557638
0.0724778
-0.00545754
0.0722607
-0.00530779
0.0719912
-0.00512933
0.0716614
-0.00492344
0.0712643
-0.00469248
0.0707943
-0.00443943
0.0702471
-0.00416732
-0.00387911
0.0696208
0.0740152
-0.00589555
0.0742075
-0.00576863
0.0743131
-0.00556312
0.0743232
-0.00531797
0.0742267
-0.00503279
0.0740139
-0.00471065
0.0736789
-0.00435748
0.0732186
-0.00397911
0.0726316
-0.00358031
-0.00316601
0.0719185
0.0759467
-0.0065177
0.0762492
-0.00607112
0.0763306
-0.00564453
0.0762057
-0.00519303
0.0758868
-0.00471388
0.0753875
-0.00421133
0.0747221
-0.00369207
0.0739031
-0.0031602
0.0729394
-0.00261654
-0.00205955
0.0718329
0.0745947
-0.00660169
0.0742374
-0.00571377
0.0734722
-0.00487935
0.0723878
-0.00410861
0.0710647
-0.0033908
0.0695833
-0.00272995
0.0680144
-0.00212315
0.0664126
-0.00155841
0.0648115
-0.00101547
-0.000465495
0.0632175
0.056424
0.0507103
0.0458309
0.0417223
0.0383315
0.0356015
0.0334784
0.03192
0.0309045
0.030439
0.030602
-0.136484
0.0224989
-0.121471
0.0162992
-0.10575
0.0117308
-0.0904253
0.0084525
-0.0762525
0.00613529
-0.0636404
0.00450507
-0.0527278
0.00335428
-0.0434669
0.00253486
-0.0357043
0.00194462
-0.029242
0.00151416
-0.0238765
0.0011966
-0.0194192
0.000960171
-0.0157037
0.000783211
-0.0125878
0.000650864
-0.00995056
0.000552908
-0.00768952
0.000482376
-0.00571694
0.000434687
-0.00395865
0.000406696
-0.00237314
-0.00107659
0.0355378
-0.126922
0.0273317
-0.113265
0.0206314
-0.0990493
0.0153761
-0.0851701
0.0113942
-0.0722706
0.00845008
-0.0606963
0.00630344
-0.0505812
0.00474603
-0.0419095
0.0036142
-0.0345725
0.00278675
-0.0284145
0.00217694
-0.0232667
0.00172379
-0.018966
0.00138474
-0.0153647
0.00113016
-0.0123332
0.000939371
-0.00975977
0.000797994
-0.00754814
0.000696169
-0.00561512
0.000627405
-0.00388988
0.000587364
-0.0023331
-0.00105978
0.0373554
-0.117769
0.0295572
-0.105467
0.0230878
-0.09258
0.0178531
-0.0799354
0.0137114
-0.0681289
0.0105026
-0.0574874
0.00805623
-0.0481348
0.0062093
-0.0400626
0.00482039
-0.0331836
0.00377549
-0.0273696
0.002987
-0.0224782
0.00238968
-0.0183687
0.00193578
-0.0149108
0.00159073
-0.0119882
0.00132968
-0.00949872
0.0011349
-0.00735336
0.000994021
-0.00547424
0.000898777
-0.00379464
0.000843446
-0.00227777
-0.00103598
0.0401824
-0.108814
0.0323526
-0.0976368
0.0257281
-0.0859554
0.0202735
-0.0744809
0.0158832
-0.0637386
0.0124117
-0.0540159
0.00970355
-0.0454267
0.00760989
-0.0379689
0.00599906
-0.0315727
0.00476151
-0.0261321
0.00381012
-0.0215268
0.00307769
-0.0176363
0.00251349
-0.0143466
0.00207975
-0.0115544
0.00174865
-0.00916762
0.00149995
-0.00710466
0.00131927
-0.00529357
0.00119686
-0.00367223
0.00112567
-0.00220658
-0.00100499
0.0422959
-0.100304
0.0346659
-0.0900068
0.0280392
-0.0793287
0.0224552
-0.0688968
0.0178654
-0.0591489
0.0141667
-0.0503172
0.0112292
-0.0424891
0.00891878
-0.0356585
0.00711185
-0.0297658
0.00570231
-0.0247226
0.00460356
-0.0204281
0.00374724
-0.0167799
0.00308056
-0.0136799
0.00256344
-0.0110373
0.00216582
-0.00877
0.00186549
-0.00680433
0.00164646
-0.00507454
0.00149766
-0.00352342
0.00141084
-0.00211976
-0.000966892
0.04438
-0.09199
0.0368234
-0.0824501
0.0301536
-0.072659
0.0244377
-0.0631808
0.0196667
-0.0543779
0.0157667
-0.0464172
0.0126272
-0.0393497
0.010126
-0.0331573
0.00814556
-0.0277854
0.0065827
-0.0231597
0.00535138
-0.0191968
0.00438249
-0.015811
0.00362183
-0.0129192
0.00302759
-0.0104431
0.00256798
-0.00831039
0.00221923
-0.00645558
0.00196399
-0.0048193
0.00179008
-0.00334951
0.00168818
-0.00201787
-0.000921863
0.0462701
-0.0839572
0.0387997
-0.0749797
0.0320769
-0.0659363
0.0262304
-0.0573343
0.0212918
-0.0494392
0.0172119
-0.0423374
0.0138949
-0.0360327
0.0112266
-0.030489
0.00909396
-0.0256527
0.00739563
-0.0214614
0.00604618
-0.0178473
0.00497608
-0.0147409
0.00413019
-0.0120733
0.00346546
-0.00977833
0.00294881
-0.00779374
0.00255522
-0.006062
0.00226625
-0.00453033
0.00206874
-0.003152
0.00195248
-0.00190161
-0.000870154
0.0480412
-0.0761282
0.0406179
-0.0675564
0.0338232
-0.0591415
0.027841
-0.0513521
0.0227435
-0.0443417
0.0185021
-0.038096
0.0150301
-0.0325608
0.0122175
-0.0276764
0.00995311
-0.0233883
0.00813684
-0.0196451
0.00668359
-0.0163941
0.00552372
-0.0135811
0.00460152
-0.0111511
0.00387317
-0.00904998
0.00330467
-0.00722524
0.00287007
-0.00562739
0.00255004
-0.0042103
0.00233062
-0.00293258
0.00220086
-0.00177185
-0.0008121
0.0497203
-0.0684925
0.0423096
-0.0601458
0.0354085
-0.0522404
0.0292755
-0.0452191
0.024023
-0.0390892
0.0196362
-0.0337092
0.0160307
-0.0289553
0.0130958
-0.0247415
0.0107201
-0.0210126
0.00880327
-0.0177283
0.00726054
-0.0148513
0.00602238
-0.0123429
0.00503293
-0.0101617
0.00424799
-0.00826504
0.00363301
-0.00661026
0.00316138
-0.00515577
0.00281313
-0.00386205
0.00257366
-0.00269311
0.00243139
-0.00162958
-0.000748105
0.0513344
-0.0610196
0.0438913
-0.0527026
0.036841
-0.0451901
0.0305356
-0.0389137
0.0251289
-0.0336824
0.0206118
-0.0291921
0.0168943
-0.0252378
0.0138595
-0.0217067
0.0113926
-0.0185457
0.00939261
-0.0157283
0.00777469
-0.0132334
0.00646974
-0.011038
0.00542216
-0.00911412
0.00458777
-0.00743065
0.0039318
-0.00595428
0.00342727
-0.00465124
0.00305377
-0.00348855
0.00279621
-0.00243555
0.00264255
-0.00147592
-0.000678636
0.0529197
-0.0536824
0.0453841
-0.045167
0.0381253
-0.0379314
0.0316183
-0.0324067
0.0260565
-0.0281206
0.0214253
-0.024561
0.0176183
-0.0214308
0.0145065
-0.0185949
0.0119691
-0.0160083
0.0099032
-0.0136624
0.00822431
-0.0115545
0.00686402
-0.00967766
0.00576744
-0.00801754
0.00489077
-0.00655398
0.00419937
-0.00526287
0.00366616
-0.00411804
0.00327048
-0.00309287
0.00299689
-0.00216196
0.00283305
-0.00131208
-0.000604215
0.0545094
-0.0464424
0.0468005
-0.0374581
0.0392568
-0.0303877
0.0325139
-0.0256638
0.0267973
-0.022404
0.0220713
-0.0198349
0.0181999
-0.0175594
0.0150353
-0.0154303
0.0124484
-0.0134213
0.010334
-0.011548
0.00860824
-0.00982877
0.00720395
-0.00827336
0.00606739
-0.00688099
0.0051556
-0.00564219
0.00443435
-0.00454162
0.00387672
-0.0035604
0.00346198
-0.00267813
0.00317452
-0.0018745
0.00300179
-0.00113935
-0.000525402
0.0561375
-0.0392334
0.0481415
-0.0294621
0.0402163
-0.0224624
0.0332026
-0.01865
0.0273378
-0.0165392
0.0225426
-0.0150397
0.0186362
-0.013653
0.0154451
-0.0122392
0.0128302
-0.0108064
0.0106847
-0.00940255
0.00892592
-0.00807
0.0074887
-0.00683615
0.00632105
-0.00571334
0.00538119
-0.00470233
0.00463564
-0.00379608
0.00405785
-0.00298262
0.00362723
-0.00224751
0.00332809
-0.00157535
0.00314784
-0.000959098
-0.000442784
0.0578226
-0.0319228
0.0493773
-0.0210168
0.0409575
-0.0140427
0.0336498
-0.0113423
0.027658
-0.0105475
0.0228308
-0.0102125
0.0189246
-0.00974675
0.0157356
-0.0090502
0.013115
-0.00818578
0.0109556
-0.00724317
0.00917731
-0.00629174
0.00771795
-0.00537679
0.00652782
-0.00452321
0.00556678
-0.00374129
0.0048024
-0.0030317
0.0042087
-0.00238892
0.00376538
-0.00180419
0.00345678
-0.00126675
0.00327041
-0.000772727
-0.000356961
0.0595242
-0.0242341
0.0504086
-0.0119012
0.0413853
-0.00501949
0.0337982
-0.00375519
0.0277304
-0.00447968
0.0229261
-0.00540817
0.0190634
-0.00588404
0.015908
-0.00589485
0.0133043
-0.00558203
0.0111478
-0.00508669
0.00936301
-0.00450696
0.00789178
-0.00390556
0.00668745
-0.00331888
0.00571192
-0.00276576
0.00493405
-0.00225383
0.00432862
-0.00178348
0.00387576
-0.00135134
0.00355993
-0.000950921
0.0033689
-0.000581696
-0.000268531
0.0610203
-0.0156336
0.050986
-0.00186687
0.0413193
0.00464721
0.0335573
0.00400675
0.0275182
0.00155942
0.022819
-0.000708905
0.0190529
-0.00211802
0.0159653
-0.00280724
0.0134009
-0.00301758
0.0112633
-0.0029491
0.00948415
-0.00272781
0.00801071
-0.00243213
0.00680004
-0.00210821
0.00581643
-0.00178215
0.00503025
-0.00146765
0.00441717
-0.0011704
0.00395791
-0.000892072
0.00363706
-0.000630073
0.00344287
-0.000387504
-0.000178066
0.0616204
-0.00533548
0.0505718
0.00918173
0.040446
0.014773
0.0327946
0.0116581
0.026978
0.00737599
0.0225024
0.00376666
0.0188969
0.0014875
0.0159128
0.000176892
0.0134089
-0.000513682
0.0113048
-0.00084505
0.00954238
-0.000965359
0.00807565
-0.000965395
0.00686599
-0.000898543
0.00588038
-0.00079654
0.00509088
-0.000678143
0.00447412
-0.000553644
0.00401152
-0.000429474
0.00368783
-0.000306379
0.00349203
-0.000191705
-8.608e-05
0.0593885
0.00710897
0.0480163
0.0205539
0.038272
0.0245173
0.0313373
0.0185928
0.0260723
0.012641
0.021982
0.00785698
0.0186064
0.00486302
0.0157575
0.00302582
0.0133337
0.00191011
0.0112759
0.00121275
0.00953985
0.000770713
0.00808782
0.000486634
0.00688595
0.000303332
0.00590408
0.000185331
0.00511601
0.000109927
0.00449942
6.29436e-05
0.00403649
3.34523e-05
0.00371207
1.80457e-05
0.00351627
4.09707e-06
6.98854e-06
0.0508721
0.0194543
0.0417099
0.0297161
0.0342852
0.031942
0.0290734
0.0238047
0.0248056
0.0169088
0.0212806
0.011382
0.0181992
0.00794441
0.0155145
0.00571051
0.0131834
0.00424121
0.0111811
0.00321509
0.00947915
0.00247266
0.00804873
0.00191705
0.00686078
0.00149128
0.005888
0.00115811
0.00510591
0.000892021
0.00449319
0.000675658
0.00403284
0.000493805
0.00370978
0.000341102
0.00351554
0.000198344
0.000100693
0.0316674
0.0182259
0.0307078
0.0306757
0.0286007
0.0340491
0.0261794
0.026226
0.0232996
0.0197886
0.0204593
0.0142223
0.0177061
0.0106976
0.0151981
0.00821844
0.0129664
0.00647295
0.0110255
0.00515598
0.00936362
0.00413454
0.0079607
0.00331997
0.00679221
0.00265976
0.00583348
0.00211684
0.00506164
0.00166387
0.00445632
0.00128098
0.00400131
0.000948811
0.00368163
0.000660785
0.00348973
0.000390245
0.000193462
0.00591551
0.0123104
0.00686117
0.0297301
0.0072466
0.0336637
0.00695006
0.0265225
0.00639547
0.0203432
0.00568341
0.0149344
0.00495867
0.0114223
0.0042722
0.00890492
0.00365371
0.00709144
0.00311125
0.00569845
0.00264494
0.00460085
0.00225024
0.00371467
0.00192097
0.00298903
0.00165053
0.00238729
0.00143259
0.0018818
0.0012617
0.00145188
0.00113291
0.0010776
0.00104311
0.000750586
0.000987094
0.00044626
0.000216938
0.00469147
0.00761892
0.00608498
0.0283365
0.00685509
0.0328936
0.00673258
0.026645
0.00628284
0.0207929
0.0056146
0.0156026
0.00491441
0.0121225
0.00424046
0.00957887
0.00362985
0.00770205
0.00309255
0.00623575
0.00262995
0.00506344
0.00223802
0.00410661
0.00191087
0.00331618
0.00164207
0.00265609
0.0014254
0.00209847
0.00125549
0.00162179
0.00112738
0.00120571
0.00103817
0.000839796
0.000982314
0.000502114
0.000240005
0.00364174
0.00397718
0.00541102
0.0265673
0.00648913
0.0318155
0.0065355
0.0265986
0.00617458
0.0211539
0.00554818
0.016229
0.00487002
0.0128007
0.00420799
0.0102409
0.00360489
0.00830515
0.00307266
0.00676798
0.00261378
0.00552232
0.00222468
0.00449571
0.00189974
0.00364111
0.00163268
0.00292315
0.00141737
0.00231377
0.00124851
0.00179066
0.00112116
0.00133305
0.00103251
0.000928446
0.000977046
0.000557582
0.00026298
0.00278933
0.00118785
0.0048291
0.0245275
0.00616187
0.0304827
0.00635483
0.0264057
0.0060724
0.0214363
0.00548358
0.0168178
0.00482555
0.0134587
0.00417469
0.0108918
0.0035788
0.00890104
0.00305158
0.0072952
0.00259646
0.00597744
0.00221028
0.00488189
0.00188766
0.00396374
0.00162243
0.00318838
0.00140857
0.00252764
0.00124082
0.0019584
0.00111432
0.00145956
0.00102627
0.0010165
0.000971206
0.000612643
0.000285834
0.0021292
-0.000941344
0.00434323
0.0223135
0.00587771
0.0289482
0.00619283
0.0260906
0.00597723
0.0216519
0.00542123
0.0173738
0.00478117
0.0140988
0.00414065
0.0115323
0.00355163
0.00949006
0.00302934
0.00781748
0.00257802
0.00642876
0.00219484
0.00526507
0.00187462
0.00428396
0.00161132
0.00345168
0.00139899
0.00273997
0.00123245
0.00212494
0.00110684
0.00158517
0.00101943
0.0011039
0.000964801
0.000667274
0.000308543
0.00165012
-0.00259147
0.00395533
0.0200083
0.00563973
0.0272638
0.00605115
0.0256791
0.00588987
0.0218132
0.00536145
0.0179023
0.00473702
0.0147232
0.00410592
0.0121634
0.0035234
0.0100726
0.00300596
0.00833492
0.00255845
0.00687627
0.00217835
0.00564517
0.00186064
0.00460167
0.00159937
0.00371295
0.00138866
0.00295068
0.00122339
0.00229022
0.00109873
0.00170982
0.00101201
0.00119062
0.000957833
0.00072145
0.000331083
0.0013379
-0.00392937
0.00366577
0.0176804
0.00544968
0.0254799
0.00593088
0.0251979
0.00581088
0.0219332
0.0053045
0.0184086
0.00469322
0.0153345
0.00407055
0.012786
0.00349415
0.010649
0.00298146
0.00884762
0.00253778
0.00731994
0.00216084
0.00602212
0.00184572
0.00491679
0.00158657
0.0039721
0.00137757
0.00315968
0.00121364
0.00245415
0.00109
0.00183346
0.00100401
0.00127662
0.000950306
0.00077515
0.00035343
0.00117876
-0.00510813
0.00347416
0.015385
0.00530827
0.0236458
0.00583268
0.0246735
0.00574065
0.0220252
0.00525057
0.0188987
0.00464986
0.0159352
0.0040346
0.0134013
0.0034639
0.0112197
0.00295583
0.00935568
0.00251602
0.00775976
0.0021423
0.00639584
0.00182987
0.00522922
0.00157293
0.00422903
0.00136573
0.00336688
0.00120321
0.00261667
0.00108065
0.00195602
0.000995426
0.00136185
0.000942224
0.000828352
0.000375562
0.00116165
-0.00626978
0.00338011
0.0131665
0.00521555
0.0218104
0.00575678
0.0241323
0.00567937
0.0221026
0.00519976
0.0193783
0.00460698
0.016528
0.00399809
0.0140102
0.00343266
0.0117851
0.00292911
0.00985923
0.00249316
0.00819572
0.00212274
0.00676626
0.00181309
0.00553886
0.00155847
0.00448365
0.00135314
0.00357221
0.00119211
0.0027777
0.00107069
0.00207743
0.000986273
0.00144627
0.000933591
0.000881034
0.000397453
0.00127655
-0.00754633
0.00339004
0.011053
0.00516789
0.0200325
0.00570585
0.0235943
0.00562639
0.0221821
0.00515259
0.0198521
0.00456466
0.0171159
0.00396115
0.0146137
0.00340049
0.0123458
0.00290132
0.0103584
0.00246922
0.00862781
0.00210216
0.00713332
0.00179538
0.00584565
0.00154315
0.00473588
0.00133978
0.00377558
0.0011803
0.00293718
0.0010601
0.00219763
0.000976475
0.00152989
0.000924471
0.000933037
0.000419307
0.00403169
-0.00882276
-0.00275526
0.00844587
0.00663886
0.0121065
0.0163719
0.0133315
0.0223693
0.013035
0.0224786
0.0119445
0.0209426
0.0105634
0.018497
0.00916329
0.0160138
0.00786125
0.0136478
0.00670447
0.0115152
0.00570375
0.00962853
0.00485441
0.00798266
0.00414497
0.00655509
0.00356195
0.0053189
0.00309214
0.00424539
0.00272361
0.0033057
0.00244653
0.00247472
0.00225249
0.00172393
0.00213553
0.00105
0.00047416
0.00867837
-0.00386545
-0.0136357
0.0103757
0.0049415
0.0127069
0.0140407
0.0134274
0.0216488
0.012901
0.0230051
0.0117369
0.0221067
0.0103387
0.0198951
0.0089484
0.0174041
0.00766548
0.0149307
0.00653073
0.0126499
0.0055517
0.0106076
0.00472229
0.00881207
0.00403039
0.00724699
0.00346233
0.00588696
0.00300491
0.00470281
0.00264631
0.00366431
0.0023769
0.00274412
0.00218828
0.00191255
0.0020751
0.00116318
0.000527742
0.0152941
0.00676763
-0.0259272
0.0133875
0.00684808
0.0138121
0.0136161
0.013738
0.0217229
0.0128598
0.0238833
0.0115571
0.0234094
0.0101166
0.0213357
0.00872441
0.0187963
0.00745662
0.0161985
0.00634297
0.0137636
0.00538615
0.0115644
0.00457776
0.00962047
0.00390465
0.00792009
0.00335276
0.00643886
0.00290879
0.00514677
0.00256101
0.00401209
0.00229992
0.00300522
0.00211736
0.00209511
0.00200781
0.00127273
0.000579254
0.0221785
0.0205178
-0.0359287
0.016955
0.0120716
0.0152507
0.0153204
0.0142006
0.022773
0.0128802
0.0252037
0.0113956
0.024894
0.00989274
0.0228386
0.00848998
0.0201991
0.00723409
0.0174544
0.00614098
0.0148567
0.00520703
0.0124983
0.00442079
0.0104067
0.00376773
0.00857315
0.00323321
0.00697338
0.00280377
0.00557622
0.00246771
0.00434815
0.00221562
0.00325731
0.00203961
0.00227112
0.00193405
0.00137829
0.00062858
0.0279033
0.0346859
-0.0420714
0.0204202
0.0195547
0.0167959
0.0189447
0.0147285
0.0248404
0.0129276
0.0270045
0.0112383
0.0265833
0.00966128
0.0244156
0.00824264
0.0216177
0.00699695
0.0187001
0.00592449
0.0159292
0.00501436
0.0134084
0.00425155
0.0111695
0.00361988
0.00920482
0.00310396
0.0074893
0.0026901
0.00599008
0.00236663
0.00467162
0.00212423
0.00349971
0.00195525
0.0024401
0.001854
0.00147954
0.00067561
0.0319255
0.0476098
-0.0448493
0.023303
0.0281772
0.0182232
0.0240245
0.0152327
0.027831
0.0129663
0.0292709
0.0110702
0.0284794
0.00941578
0.02607
0.00797964
0.0230539
0.00674407
0.0199357
0.00569314
0.0169801
0.00480816
0.0142934
0.00407023
0.0119075
0.00346133
0.00981372
0.00296527
0.00798536
0.00256807
0.00638728
0.00225805
0.00498164
0.00202601
0.00373175
0.00186451
0.00260159
0.00176789
0.00157616
0.000720247
0.0343254
0.0586803
-0.0453959
0.0253973
0.0371052
0.0193732
0.0300486
0.0156386
0.0315656
0.0129638
0.0319456
0.010877
0.0305662
0.0091498
0.0277972
0.0076981
0.0245056
0.00647422
0.0211595
0.00544651
0.0180078
0.0045884
0.0151515
0.00387699
0.0126189
0.00329235
0.0103984
0.00281743
0.00846029
0.00243795
0.00676675
0.00214226
0.00527733
0.00192122
0.00395279
0.00176766
0.00275516
0.00167595
0.00166787
0.000762398
0.0354393
0.0679608
-0.0447199
0.0267026
0.0458419
0.0201686
0.0365826
0.0158965
0.0358378
0.0128947
0.0349474
0.0106465
0.0328145
0.00885739
0.0295863
0.00739522
0.0259677
0.0061862
0.0223686
0.00518419
0.0190098
0.00435507
0.0159807
0.00367203
0.0133019
0.00311322
0.0109572
0.00266075
0.00891275
0.00230008
0.00712741
0.00201955
0.00555787
0.00181015
0.00416219
0.00166495
0.00290036
0.00157842
0.0017544
0.000801974
0.0356359
0.0758212
-0.0434962
0.0273236
0.0541543
0.020598
0.0433081
0.0159817
0.0404541
0.0127418
0.0381873
0.0103688
0.0351874
0.00853337
0.0314218
0.00706844
0.0274327
0.00587887
0.0235581
0.00490581
0.0199829
0.0041082
0.0167783
0.00345555
0.0139545
0.00292423
0.0114885
0.00249557
0.00934141
0.00215479
0.0074682
0.00189025
0.0058224
0.00169312
0.00435932
0.00155668
0.0030368
0.00147558
0.0018355
0.00083889
0.0352235
0.0826966
-0.0420989
0.0273978
0.0619799
0.0206892
0.0500167
0.0158889
0.0452545
0.0124951