x,y,z,U_0,U_1,U_2
0,0,0,3.01622,-0.0338952,8.69952e-12
0,0.1,0,3.0129,-0.026956,6.91852e-12
0,0.2,0,3.00958,-0.0200168,5.13751e-12
0,0.3,0,3.00626,-0.0130777,3.35651e-12
0,0.4,0,3.00294,-0.0061385,1.5755e-12
0,0.5,0,3,-9.30985e-19,4.32094e-28
0,0.6,0,3,-1.11718e-18,5.18513e-28
0,0.7,0,3,-1.30338e-18,6.04932e-28
0,0.8,0,3,-1.48958e-18,6.91351e-28
0,0.9,0,3,-1.67577e-18,7.77769e-28
0,1,0,3,-2.16981e-18,3.92432e-28
0,1.1,0,3,-2.3868e-18,4.31676e-28
0,1.2,0,3,-2.60378e-18,4.70919e-28
0,1.3,0,3,-2.82076e-18,5.10162e-28
0,1.4,0,3,-3.03774e-18,5.49405e-28
0,1.5,0,3,-3.32424e-18,-7.80409e-28
0,1.6,0,3,-3.54585e-18,-8.32436e-28
0,1.7,0,3,-3.76747e-18,-8.84463e-28
0,1.8,0,3,-3.98908e-18,-9.36491e-28
0,1.9,0,3,-4.2107e-18,-9.88518e-28
0,2,0,3,-3.8571e-18,-2.35939e-27
0,2.1,0,3,-4.04995e-18,-2.47736e-27
0,2.2,0,3,-4.24281e-18,-2.59533e-27
0,2.3,0,3,-4.43566e-18,-2.7133e-27
0,2.4,0,3,-4.62852e-18,-2.83127e-27
0,2.5,0,3,-4.18366e-18,-4.58555e-27
0,2.6,0,3,-4.35101e-18,-4.76898e-27
0,2.7,0,3,-4.51835e-18,-4.9524e-27
0,2.8,0,3,-4.6857e-18,-5.13582e-27
0,2.9,0,3,-4.85305e-18,-5.31924e-27
0,3,0,3,-4.5243e-18,-9.27916e-27
0,3.1,0,3,-4.67511e-18,-9.58846e-27
0,3.2,0,3,-4.82592e-18,-9.89777e-27
0,3.3,0,3,-4.97673e-18,-1.02071e-26
0,3.4,0,3,-5.12754e-18,-1.05164e-26
0,3.5,0,3,-4.30693e-18,-1.27029e-26
0,3.6,0,3,-4.42999e-18,-1.30658e-26
0,3.7,0,3,-4.55305e-18,-1.34287e-26
0,3.8,0,3,-4.6761e-18,-1.37917e-26
0,3.9,0,3,-4.79916e-18,-1.41546e-26
0,4,0,3,-4.20465e-18,-1.72513e-26
0,4.1,0,3,-4.30976e-18,-1.76826e-26
0,4.2,0,3,-4.41488e-18,-1.81139e-26
0,4.3,0,3,-4.51999e-18,-1.85452e-26
0,4.4,0,3,-3.74121e-18,-1.97125e-26
0,4.5,0,3,-3.82624e-18,-2.01605e-26
0,4.6,0,3,-3.91127e-18,-2.06085e-26
0,4.7,0,3,-3.99629e-18,-2.10565e-26
0,4.8,0,3,-4.08132e-18,-2.15045e-26
0,4.9,0,3,-3.3873e-18,-1.77078e-26
0,5,0,3,-3.45643e-18,-1.80692e-26
0,5.1,0,3,-3.52556e-18,-1.84306e-26
0,5.2,0,3,-3.59469e-18,-1.87919e-26
0,5.3,0,3,-3.66382e-18,-1.91533e-26
0,5.4,0,3,-2.18682e-18,-1.65482e-26
0,5.5,0,3,-2.22732e-18,-1.68546e-26
0,5.6,0,3,-2.26782e-18,-1.71611e-26
0,5.7,0,3,-2.30832e-18,-1.74675e-26
0,5.8,0,3,-2.34881e-18,-1.7774e-26
0,5.9,0,3,-2.12683e-19,-1.23734e-26
0,6,0,3,-2.16287e-19,-1.25831e-26
0,6.1,0,3,-2.19892e-19,-1.27928e-26
0,6.2,0,3,-2.23497e-19,-1.30025e-26
0,6.3,0,3,-2.27102e-19,-1.32123e-26
0,6.4,0,3,1.85826e-18,-5.54042e-27
0,6.5,0,3,1.8873e-18,-5.62699e-27
0,6.6,0,3,1.91634e-18,-5.71356e-27
0,6.7,0,3,1.94537e-18,-5.80012e-27
0,6.8,0,3,1.97441e-18,-5.88669e-27
0,6.9,0,3,3.57537e-18,4.36991e-27
0,7,0,3,3.62719e-18,4.43325e-27
0,7.1,0,3,3.679e-18,4.49658e-27
0,7.2,0,3,3.73082e-18,4.55991e-27
0,7.3,0,3,3.78264e-18,4.62324e-27
0,7.4,0,3,6.90761e-18,1.26196e-26
0,7.5,0,3,7.00096e-18,1.27901e-26
0,7.6,0,3,7.0943e-18,1.29606e-26
0,7.7,0,3,7.18765e-18,1.31312e-26
0,7.8,0,3,7.281e-18,1.33017e-26
0,7.9,0,3,9.72677e-18,1.61975e-26
0,8,0,3,9.84989e-18,1.64026e-26
0,8.1,0,3,9.97302e-18,1.66076e-26
0,8.2,0,3,1.00961e-17,1.68126e-26
0,8.3,0,3,1.02193e-17,1.70176e-26
0,8.4,0,3,1.16328e-17,2.10499e-26
0,8.5,0,3,1.17713e-17,2.13005e-26
0,8.6,0,3,1.19098e-17,2.15511e-26
0,8.7,0,3,1.20483e-17,2.18017e-26
0,8.8,0,3,1.61623e-17,2.46299e-26
0,8.9,0,3,1.6346e-17,2.49097e-26
0,9,0,3,1.65296e-17,2.51896e-26
0,9.1,0,3,1.67133e-17,2.54695e-26
0,9.2,0,3,1.6897e-17,2.57494e-26
0,9.3,0,3,1.83792e-17,2.5424e-26
0,9.4,0,3,1.85768e-17,2.56973e-26
0,9.5,0,3,1.87745e-17,2.59707e-26
0,9.6,0,3,1.89721e-17,2.62441e-26
0,9.7,0,3,1.91697e-17,2.65175e-26
0,9.8,0,3,2.13249e-17,2.36652e-26
0,9.9,0,3,2.15425e-17,2.39067e-26
0,10,0,3,2.17601e-17,2.41482e-26
0,10.1,0,3,2.19777e-17,2.43897e-26
0,10.2,0,3,2.21953e-17,2.46312e-26
0,10.3,0,3,2.58073e-17,1.82339e-26
0,10.4,0,3,2.60579e-17,1.8411e-26
0,10.5,0,3,2.63085e-17,1.8588e-26
0,10.6,0,3,2.6559e-17,1.8765e-26
0,10.7,0,3,2.68096e-17,1.8942e-26
0,10.8,0,3,2.84399e-17,1.41317e-26
0,10.9,0,3,2.87033e-17,1.42626e-26
0,11,0,3,2.89666e-17,1.43934e-26
0,11.1,0,3,2.92299e-17,1.45243e-26
0,11.2,0,3,2.94933e-17,1.46551e-26
0,11.3,0,3,2.93654e-17,9.64148e-27
0,11.4,0,3,2.96253e-17,9.7268e-27
0,11.5,0,3,2.98852e-17,9.81213e-27
0,11.6,0,3,3.01451e-17,9.89745e-27
0,11.7,0,3,3.04049e-17,9.98277e-27
0,11.8,0,3,3.06648e-17,1.00681e-26
0,11.9,0,3,3.09247e-17,1.01534e-26
0,12,0,3,3.11845e-17,1.02387e-26
0,12.1,0,3,3.14444e-17,1.03241e-26
0,12.2,0,3,3.17043e-17,1.04094e-26
0,12.3,0,3.00038,-0.00197894,2.01665e-12
0,12.4,0,3.00081,-0.00421601,4.29633e-12
0,12.5,0,3.00124,-0.00645307,6.57602e-12
0,12.6,0,3.00167,-0.00869013,8.8557e-12
0,12.7,0,3.0021,-0.0109272,1.11354e-11
0.1,0,0,3.01251,-0.0349616,1.04196e-11
0.1,0.1,0,3.01151,-0.0343412,1.04025e-11
0.1,0.2,0,3.00819,-0.0274021,8.62146e-12
0.1,0.3,0,3.00487,-0.0204629,6.84046e-12
0.1,0.4,0,3.00155,-0.0135237,5.05945e-12
0.1,0.5,0,2.99846,-0.00728445,3.44699e-12
0.1,0.6,0,2.99759,-0.00715158,3.31923e-12
0.1,0.7,0,2.99759,-0.00715158,3.31923e-12
0.1,0.8,0,2.99759,-0.00715158,3.31923e-12
0.1,0.9,0,2.99759,-0.00715158,3.31923e-12
0.1,1,0,2.99779,-0.00741788,2.91113e-12
0.1,1.1,0,2.99848,-0.00833397,1.50728e-12
0.1,1.2,0,2.99848,-0.00833397,1.50728e-12
0.1,1.3,0,2.99848,-0.00833397,1.50728e-12
0.1,1.4,0,2.99848,-0.00833397,1.50728e-12
0.1,1.5,0,2.99892,-0.00839626,2.80347e-13
0.1,1.6,0,2.99974,-0.00851196,-1.9983e-12
0.1,1.7,0,2.99974,-0.00851196,-1.9983e-12
0.1,1.8,0,2.99974,-0.00851196,-1.9983e-12
0.1,1.9,0,2.99974,-0.00851196,-1.9983e-12
0.1,2,0,3.00011,-0.00799007,-3.19488e-12
0.1,2.1,0,3.00053,-0.0074073,-4.53105e-12
0.1,2.2,0,3.00053,-0.0074073,-4.53105e-12
0.1,2.3,0,3.00053,-0.0074073,-4.53105e-12
0.1,2.4,0,3.00053,-0.0074073,-4.53105e-12
0.1,2.5,0,3.00099,-0.00682871,-6.01567e-12
0.1,2.6,0,3.00132,-0.00642755,-7.045e-12
0.1,2.7,0,3.00132,-0.00642755,-7.045e-12
0.1,2.8,0,3.00132,-0.00642755,-7.045e-12
0.1,2.9,0,3.00132,-0.00642755,-7.045e-12
0.1,3,0,3.00139,-0.00597745,-1.04714e-11
0.1,3.1,0,3.00143,-0.00579241,-1.188e-11
0.1,3.2,0,3.00143,-0.00579241,-1.188e-11
0.1,3.3,0,3.00143,-0.00579241,-1.188e-11
0.1,3.4,0,3.00143,-0.00579241,-1.188e-11
0.1,3.5,0,3.00052,-0.00491105,-1.35831e-11
0.1,3.6,0,3.00033,-0.00472639,-1.394e-11
0.1,3.7,0,3.00033,-0.00472639,-1.394e-11
0.1,3.8,0,3.00033,-0.00472639,-1.394e-11
0.1,3.9,0,3.00033,-0.00472639,-1.394e-11
0.1,4,0,2.99969,-0.00407535,-1.64203e-11
0.1,4.1,0,2.99966,-0.00403737,-1.6565e-11
0.1,4.2,0,2.99966,-0.00403737,-1.6565e-11
0.1,4.3,0,2.99966,-0.00403737,-1.6565e-11
0.1,4.4,0,2.99966,-0.00400699,-1.65903e-11
0.1,4.5,0,2.99965,-0.00326579,-1.72075e-11
0.1,4.6,0,2.99965,-0.00326579,-1.72075e-11
0.1,4.7,0,2.99965,-0.00326579,-1.72075e-11
0.1,4.8,0,2.99965,-0.00326579,-1.72075e-11
0.1,4.9,0,2.99955,-0.00316963,-1.66835e-11
0.1,5,0,2.99902,-0.00265514,-1.38803e-11
0.1,5.1,0,2.99902,-0.00265514,-1.38803e-11
0.1,5.2,0,2.99902,-0.00265514,-1.38803e-11
0.1,5.3,0,2.99902,-0.00265514,-1.38803e-11
0.1,5.4,0,2.99907,-0.00235207,-1.32988e-11
0.1,5.5,0,2.99921,-0.00155543,-1.17702e-11
0.1,5.6,0,2.99921,-0.00155543,-1.17702e-11
0.1,5.7,0,2.99921,-0.00155543,-1.17702e-11
0.1,5.8,0,2.99921,-0.00155543,-1.17702e-11
0.1,5.9,0,2.99956,-0.000997563,-1.03076e-11
0.1,6,0,3.00009,-0.000138455,-8.055e-12
0.1,6.1,0,3.00009,-0.000138455,-8.055e-12
0.1,6.2,0,3.00009,-0.000138455,-8.055e-12
0.1,6.3,0,3.00009,-0.000138455,-8.055e-12
0.1,6.4,0,3.00007,0.000503184,-5.63413e-12
0.1,6.5,0,3.00005,0.00111521,-3.325e-12
0.1,6.6,0,3.00005,0.00111521,-3.325e-12
0.1,6.7,0,3.00005,0.00111521,-3.325e-12
0.1,6.8,0,3.00005,0.00111521,-3.325e-12
0.1,6.9,0,2.99984,0.0016664,3.01772e-13
0.1,7,0,2.99972,0.00199022,2.4325e-12
0.1,7.1,0,2.99972,0.00199022,2.4325e-12
0.1,7.2,0,2.99972,0.00199022,2.4325e-12
0.1,7.3,0,2.99972,0.00199022,2.4325e-12
0.1,7.4,0,2.99867,0.00318339,5.51252e-12
0.1,7.5,0,2.99831,0.0035853,6.55e-12
0.1,7.6,0,2.99831,0.0035853,6.55e-12
0.1,7.7,0,2.99831,0.0035853,6.55e-12
0.1,7.8,0,2.99831,0.0035853,6.55e-12
0.1,7.9,0,2.99806,0.00457592,7.69764e-12
0.1,8,0,2.99802,0.00472901,7.875e-12
0.1,8.1,0,2.99802,0.00472901,7.875e-12
0.1,8.2,0,2.99802,0.00472901,7.875e-12
0.1,8.3,0,2.99802,0.00472901,7.875e-12
0.1,8.4,0,3.00035,0.00530977,9.59744e-12
0.1,8.5,0,3.00039,0.00531906,9.625e-12
0.1,8.6,0,3.00039,0.00531906,9.625e-12
0.1,8.7,0,3.00039,0.00531906,9.625e-12
0.1,8.8,0,3.00043,0.00545569,9.71358e-12
0.1,8.9,0,3.00086,0.00705424,1.075e-11
0.1,9,0,3.00086,0.00705424,1.075e-11
0.1,9.1,0,3.00086,0.00705424,1.075e-11
0.1,9.2,0,3.00086,0.00705424,1.075e-11
0.1,9.3,0,3.00043,0.00715981,1.07008e-11
0.1,9.4,0,2.99865,0.00759055,1.05e-11
0.1,9.5,0,2.99865,0.00759055,1.05e-11
0.1,9.6,0,2.99865,0.00759055,1.05e-11
0.1,9.7,0,2.99865,0.00759055,1.05e-11
0.1,9.8,0,2.99832,0.00783219,1.01142e-11
0.1,9.9,0,2.99759,0.00835777,9.275e-12
0.1,10,0,2.99759,0.00835777,9.275e-12
0.1,10.1,0,2.99759,0.00835777,9.275e-12
0.1,10.2,0,2.99759,0.00835777,9.275e-12
0.1,10.3,0,2.99807,0.00890594,8.2029e-12
0.1,10.4,0,2.99868,0.00962355,6.79942e-12
0.1,10.5,0,2.99868,0.00962355,6.79942e-12
0.1,10.6,0,2.99868,0.00962355,6.79942e-12
0.1,10.7,0,2.99868,0.00962355,6.79942e-12
0.1,10.8,0,2.99907,0.00989402,5.8218e-12
0.1,10.9,0,2.99939,0.0101143,5.02574e-12
0.1,11,0,2.99939,0.0101143,5.02574e-12
0.1,11.1,0,2.99939,0.0101143,5.02574e-12
0.1,11.2,0,2.99939,0.0101143,5.02574e-12
0.1,11.3,0,2.99897,0.0100253,3.85541e-12
0.1,11.4,0,2.99876,0.0099813,3.27714e-12
0.1,11.5,0,2.99876,0.0099813,3.27714e-12
0.1,11.6,0,2.99876,0.0099813,3.27714e-12
0.1,11.7,0,2.99876,0.0099813,3.27714e-12
0.1,11.8,0,2.99876,0.0099813,3.27714e-12
0.1,11.9,0,2.99876,0.0099813,3.27714e-12
0.1,12,0,2.99876,0.0099813,3.27714e-12
0.1,12.1,0,2.99876,0.0099813,3.27714e-12
0.1,12.2,0,2.99844,0.0101001,3.11315e-12
0.1,12.3,0,2.99877,0.00815111,5.09326e-12
0.1,12.4,0,2.9992,0.00591404,7.37295e-12
0.1,12.5,0,2.99963,0.00367698,9.65263e-12
0.1,12.6,0,3.00006,0.00143991,1.19323e-11
0.1,12.7,0,3.0002,0.00149937,1.27983e-11
0.2,0,0,3.00879,-0.0360279,1.21397e-11
0.2,0.1,0,3.00781,-0.0354542,1.21356e-11
0.2,0.2,0,3.00679,-0.0347873,1.21054e-11
0.2,0.3,0,3.00347,-0.0278481,1.03244e-11
0.2,0.4,0,3.00015,-0.020909,8.5434e-12
0.2,0.5,0,2.99704,-0.0145865,6.91091e-12
0.2,0.6,0,2.99604,-0.0144339,6.76421e-12
0.2,0.7,0,2.99518,-0.0143032,6.63846e-12
0.2,0.8,0,2.99518,-0.0143032,6.63846e-12
0.2,0.9,0,2.99518,-0.0143032,6.63846e-12
0.2,1,0,2.99537,-0.0145541,6.25388e-12
0.2,1.1,0,2.99629,-0.0157746,4.3835e-12
0.2,1.2,0,2.99696,-0.0166679,3.01456e-12
0.2,1.3,0,2.99696,-0.0166679,3.01456e-12
0.2,1.4,0,2.99696,-0.0166679,3.01456e-12
0.2,1.5,0,2.99739,-0.016729,1.81117e-12
0.2,1.6,0,2.99869,-0.0169125,-1.80132e-12
0.2,1.7,0,2.99948,-0.0170239,-3.99659e-12
0.2,1.8,0,2.99948,-0.0170239,-3.99659e-12
0.2,1.9,0,2.99948,-0.0170239,-3.99659e-12
0.2,2,0,2.99985,-0.016502,-5.19317e-12
0.2,2.1,0,3.00066,-0.0153713,-7.78576e-12
0.2,2.2,0,3.00106,-0.0148146,-9.06211e-12
0.2,2.3,0,3.00106,-0.0148146,-9.06211e-12
0.2,2.4,0,3.00106,-0.0148146,-9.06211e-12
0.2,2.5,0,3.00153,-0.014236,-1.05467e-11
0.2,2.6,0,3.00233,-0.0132331,-1.31201e-11
0.2,2.7,0,3.00263,-0.0128551,-1.409e-11
0.2,2.8,0,3.00263,-0.0128551,-1.409e-11
0.2,2.9,0,3.00263,-0.0128551,-1.409e-11
0.2,3,0,3.00271,-0.012405,-1.75164e-11
0.2,3.1,0,3.00282,-0.0117549,-2.24656e-11
0.2,3.2,0,3.00285,-0.0115848,-2.376e-11
0.2,3.3,0,3.00285,-0.0115848,-2.376e-11
0.2,3.4,0,3.00285,-0.0115848,-2.376e-11
0.2,3.5,0,3.00195,-0.0107035,-2.54631e-11
0.2,3.6,0,3.00082,-0.00961226,-2.75718e-11
0.2,3.7,0,3.00066,-0.00945277,-2.788e-11
0.2,3.8,0,3.00066,-0.00945277,-2.788e-11
0.2,3.9,0,3.00066,-0.00945277,-2.788e-11
0.2,4,0,3.00002,-0.00880173,-3.03603e-11
0.2,4.1,0,2.99933,-0.00809644,-3.30473e-11
0.2,4.2,0,2.99931,-0.00807474,-3.313e-11
0.2,4.3,0,2.99931,-0.00807474,-3.313e-11
0.2,4.4,0,2.99931,-0.00804436,-3.31553e-11
0.2,4.5,0,2.9993,-0.00725456,-3.3813e-11
0.2,4.6,0,2.9993,-0.00653158,-3.4415e-11
0.2,4.7,0,2.9993,-0.00653158,-3.4415e-11
0.2,4.8,0,2.9993,-0.00653158,-3.4415e-11
0.2,4.9,0,2.9992,-0.00643542,-3.3891e-11
0.2,5,0,2.99855,-0.00581034,-3.04852e-11
0.2,5.1,0,2.99803,-0.00531027,-2.77605e-11
0.2,5.2,0,2.99803,-0.00531027,-2.77605e-11
0.2,5.3,0,2.99803,-0.00531027,-2.77605e-11
0.2,5.4,0,2.99809,-0.0050072,-2.7179e-11
0.2,5.5,0,2.99828,-0.00388152,-2.50192e-11
0.2,5.6,0,2.99842,-0.00311085,-2.35405e-11
0.2,5.7,0,2.99842,-0.00311085,-2.35405e-11
0.2,5.8,0,2.99842,-0.00311085,-2.35405e-11
0.2,5.9,0,2.99876,-0.00255299,-2.20778e-11
0.2,6,0,2.99967,-0.00110255,-1.82748e-11
0.2,6.1,0,3.00018,-0.00027691,-1.611e-11
0.2,6.2,0,3.00018,-0.00027691,-1.611e-11
0.2,6.3,0,3.00018,-0.00027691,-1.611e-11
0.2,6.4,0,3.00016,0.000364729,-1.36891e-11
0.2,6.5,0,3.00012,0.00164801,-8.8474e-12
0.2,6.6,0,3.0001,0.00223042,-6.65e-12
0.2,6.7,0,3.0001,0.00223042,-6.65e-12
0.2,6.8,0,3.0001,0.00223042,-6.65e-12
0.2,6.9,0,2.99989,0.00278161,-3.02323e-12
0.2,7,0,2.99955,0.00367728,2.87028e-12
0.2,7.1,0,2.99944,0.00398044,4.865e-12
0.2,7.2,0,2.99944,0.00398044,4.865e-12
0.2,7.3,0,2.99944,0.00398044,4.865e-12
0.2,7.4,0,2.99838,0.00517361,7.94502e-12
0.2,7.5,0,2.99694,0.00680637,1.21598e-11
0.2,7.6,0,2.99662,0.0071706,1.31e-11
0.2,7.7,0,2.99662,0.0071706,1.31e-11
0.2,7.8,0,2.99662,0.0071706,1.31e-11
0.2,7.9,0,2.99637,0.00816122,1.42476e-11
0.2,8,0,2.99606,0.00933195,1.56039e-11
0.2,8.1,0,2.99603,0.00945803,1.575e-11
0.2,8.2,0,2.99603,0.00945803,1.575e-11
0.2,8.3,0,2.99603,0.00945803,1.575e-11
0.2,8.4,0,2.99837,0.0100388,1.74724e-11
0.2,8.5,0,3.00078,0.0106381,1.925e-11
0.2,8.6,0,3.00078,0.0106381,1.925e-11
0.2,8.7,0,3.00078,0.0106381,1.925e-11
0.2,8.8,0,3.00082,0.0107747,1.93386e-11
0.2,8.9,0,3.0013,0.0125509,2.04902e-11
0.2,9,0,3.00172,0.0141085,2.15e-11
0.2,9.1,0,3.00172,0.0141085,2.15e-11
0.2,9.2,0,3.00172,0.0141085,2.15e-11
0.2,9.3,0,3.00129,0.0142141,2.14508e-11
0.2,9.4,0,2.99902,0.014763,2.11949e-11
0.2,9.5,0,2.9973,0.0151811,2.1e-11
0.2,9.6,0,2.9973,0.0151811,2.1e-11
0.2,9.7,0,2.9973,0.0151811,2.1e-11
0.2,9.8,0,2.99696,0.0154227,2.06142e-11
0.2,9.9,0,2.99588,0.0162081,1.93602e-11
0.2,10,0,2.99519,0.0167155,1.855e-11
0.2,10.1,0,2.99519,0.0167155,1.855e-11
0.2,10.2,0,2.99519,0.0167155,1.855e-11
0.2,10.3,0,2.99566,0.0172637,1.74779e-11
0.2,10.4,0,2.99677,0.0185594,1.49438e-11
0.2,10.5,0,2.99737,0.0192471,1.35988e-11
0.2,10.6,0,2.99737,0.0192471,1.35988e-11
0.2,10.7,0,2.99737,0.0192471,1.35988e-11
0.2,10.8,0,2.99776,0.0195176,1.26212e-11
0.2,10.9,0,2.99848,0.0200199,1.08056e-11
0.2,11,0,2.99879,0.0202285,1.00515e-11
0.2,11.1,0,2.99879,0.0202285,1.00515e-11
0.2,11.2,0,2.99879,0.0202285,1.00515e-11
0.2,11.3,0,2.99837,0.0201395,8.88115e-12
0.2,11.4,0,2.99772,0.0200034,7.09124e-12
0.2,11.5,0,2.99753,0.0199626,6.55427e-12
0.2,11.6,0,2.99753,0.0199626,6.55427e-12
0.2,11.7,0,2.99753,0.0199626,6.55427e-12
0.2,11.8,0,2.99753,0.0199626,6.55427e-12
0.2,11.9,0,2.99753,0.0199626,6.55427e-12
0.2,12,0,2.99753,0.0199626,6.55427e-12
0.2,12.1,0,2.99721,0.0200782,6.39467e-12
0.2,12.2,0,2.99684,0.0202162,6.20433e-12
0.2,12.3,0,2.99717,0.0182812,8.16987e-12
0.2,12.4,0,2.9976,0.0160441,1.04496e-11
0.2,12.5,0,2.99802,0.013807,1.27292e-11
0.2,12.6,0,2.99817,0.0138048,1.36332e-11
0.2,12.7,0,2.9983,0.0139259,1.44612e-11
0.3,0,0,3.00508,-0.0370943,1.38598e-11
0.3,0.1,0,3.00409,-0.0365206,1.38557e-11
0.3,0.2,0,3.00311,-0.0359468,1.38515e-11
0.3,0.3,0,3.00208,-0.0352334,1.38084e-11
0.3,0.4,0,2.99876,-0.0282942,1.20274e-11
0.3,0.5,0,2.99562,-0.0218886,1.03748e-11
0.3,0.6,0,2.99462,-0.021736,1.02281e-11
0.3,0.7,0,2.99362,-0.0215834,1.00814e-11
0.3,0.8,0,2.99278,-0.0214547,9.95769e-12
0.3,0.9,0,2.99278,-0.0214547,9.95769e-12
0.3,1,0,2.99295,-0.0216903,9.59664e-12
0.3,1.1,0,2.99387,-0.0229109,7.72626e-12
0.3,1.2,0,2.99478,-0.0241314,5.85588e-12
0.3,1.3,0,2.99544,-0.0250019,4.52184e-12
0.3,1.4,0,2.99544,-0.0250019,4.52184e-12
0.3,1.5,0,2.99586,-0.0250618,3.34199e-12
0.3,1.6,0,2.99716,-0.0252452,-2.70493e-13
0.3,1.7,0,2.99846,-0.0254287,-3.88298e-12
0.3,1.8,0,2.99921,-0.0255359,-5.99489e-12
0.3,1.9,0,2.99921,-0.0255359,-5.99489e-12
0.3,2,0,2.99959,-0.025014,-7.19147e-12
0.3,2.1,0,3.0004,-0.0238832,-9.78406e-12
0.3,2.2,0,3.00121,-0.0227525,-1.23766e-11
0.3,2.3,0,3.0016,-0.0222219,-1.35932e-11
0.3,2.4,0,3.0016,-0.0222219,-1.35932e-11
0.3,2.5,0,3.00206,-0.0216433,-1.50778e-11
0.3,2.6,0,3.00286,-0.0206404,-1.76511e-11
0.3,2.7,0,3.00366,-0.0196375,-2.02244e-11
0.3,2.8,0,3.00395,-0.0192827,-2.1135e-11
0.3,2.9,0,3.00395,-0.0192827,-2.1135e-11
0.3,3,0,3.00402,-0.0188326,-2.45614e-11
0.3,3.1,0,3.00414,-0.0181824,-2.95106e-11
0.3,3.2,0,3.00425,-0.0175323,-3.44598e-11
0.3,3.3,0,3.00428,-0.0173772,-3.564e-11
0.3,3.4,0,3.00428,-0.0173772,-3.564e-11
0.3,3.5,0,3.00337,-0.0164959,-3.73431e-11
0.3,3.6,0,3.00225,-0.0154047,-3.94518e-11
0.3,3.7,0,3.00113,-0.0143135,-4.15605e-11
0.3,3.8,0,3.00099,-0.0141792,-4.182e-11
0.3,3.9,0,3.00099,-0.0141792,-4.182e-11
0.3,4,0,3.00035,-0.0135281,-4.43003e-11
0.3,4.1,0,2.99966,-0.0128228,-4.69873e-11
0.3,4.2,0,2.99897,-0.0121175,-4.96743e-11
0.3,4.3,0,2.99897,-0.0121121,-4.9695e-11
0.3,4.4,0,2.99897,-0.0120817,-4.97203e-11
0.3,4.5,0,2.99896,-0.0112919,-5.0378e-11
0.3,4.6,0,2.99895,-0.0105021,-5.10356e-11
0.3,4.7,0,2.99894,-0.00979738,-5.16225e-11
0.3,4.8,0,2.99894,-0.00979738,-5.16225e-11
0.3,4.9,0,2.99884,-0.00970121,-5.10985e-11
0.3,5,0,2.9982,-0.00907613,-4.76927e-11
0.3,5.1,0,2.99755,-0.00845105,-4.42868e-11
0.3,5.2,0,2.99705,-0.00796541,-4.16408e-11
0.3,5.3,0,2.99705,-0.00796541,-4.16408e-11
0.3,5.4,0,2.9971,-0.00766234,-4.10593e-11
0.3,5.5,0,2.9973,-0.00653665,-3.88994e-11
0.3,5.6,0,2.9975,-0.00541096,-3.67396e-11
0.3,5.7,0,2.99763,-0.00466628,-3.53107e-11
0.3,5.8,0,2.99763,-0.00466628,-3.53107e-11
0.3,5.9,0,2.99797,-0.00410842,-3.38481e-11
0.3,6,0,2.99887,-0.00265797,-3.0045e-11
0.3,6.1,0,2.99978,-0.00120753,-2.6242e-11
0.3,6.2,0,3.00027,-0.000415365,-2.4165e-11
0.3,6.3,0,3.00027,-0.000415365,-2.4165e-11
0.3,6.4,0,3.00025,0.000226274,-2.17441e-11
0.3,6.5,0,3.00021,0.00150955,-1.69024e-11
0.3,6.6,0,3.00017,0.00279283,-1.20607e-11
0.3,6.7,0,3.00015,0.00334563,-9.975e-12
0.3,6.8,0,3.00015,0.00334563,-9.975e-12
0.3,6.9,0,2.99994,0.00389682,-6.34823e-12
0.3,7,0,2.9996,0.00479249,-4.54724e-13
0.3,7.1,0,2.99926,0.00568817,5.43878e-12
0.3,7.2,0,2.99916,0.00597066,7.2975e-12
0.3,7.3,0,2.99916,0.00597066,7.2975e-12
0.3,7.4,0,2.9981,0.00716383,1.03775e-11
0.3,7.5,0,2.99666,0.00879659,1.45923e-11
0.3,7.6,0,2.99522,0.0104293,1.8807e-11
0.3,7.7,0,2.99493,0.0107559,1.965e-11
0.3,7.8,0,2.99493,0.0107559,1.965e-11
0.3,7.9,0,2.99468,0.0117465,2.07976e-11
0.3,8,0,2.99438,0.0129172,2.21539e-11
0.3,8.1,0,2.99407,0.014088,2.35102e-11
0.3,8.2,0,2.99405,0.014187,2.3625e-11
0.3,8.3,0,2.99405,0.014187,2.3625e-11
0.3,8.4,0,2.99639,0.0147678,2.53474e-11
0.3,8.5,0,2.99882,0.0153718,2.71388e-11
0.3,8.6,0,3.00117,0.0159572,2.8875e-11
0.3,8.7,0,3.00117,0.0159572,2.8875e-11
0.3,8.8,0,3.00121,0.0160938,2.89636e-11
0.3,8.9,0,3.00169,0.01787,3.01152e-11
0.3,9,0,3.00218,0.0196461,3.12667e-11
0.3,9.1,0,3.00259,0.0211627,3.225e-11
0.3,9.2,0,3.00259,0.0211627,3.225e-11
0.3,9.3,0,3.00215,0.0212683,3.22008e-11
0.3,9.4,0,2.99988,0.0218173,3.19449e-11
0.3,9.5,0,2.99762,0.0223663,3.1689e-11
0.3,9.6,0,2.99594,0.0227716,3.15e-11
0.3,9.7,0,2.99594,0.0227716,3.15e-11
0.3,9.8,0,2.99561,0.0230133,3.11142e-11
0.3,9.9,0,2.99453,0.0237986,2.98602e-11
0.3,10,0,2.99345,0.024584,2.86063e-11
0.3,10.1,0,2.99278,0.0250733,2.7825e-11
0.3,10.2,0,2.99278,0.0250733,2.7825e-11
0.3,10.3,0,2.99325,0.0256215,2.67529e-11
0.3,10.4,0,2.99437,0.0269172,2.42188e-11
0.3,10.5,0,2.99548,0.0282128,2.16848e-11
0.3,10.6,0,2.99605,0.0288706,2.03983e-11
0.3,10.7,0,2.99605,0.0288706,2.03983e-11
0.3,10.8,0,2.99644,0.0291411,1.94206e-11
0.3,10.9,0,2.99717,0.0296434,1.76051e-11
0.3,11,0,2.99789,0.0301457,1.57895e-11
0.3,11.1,0,2.99818,0.0303428,1.50772e-11
0.3,11.2,0,2.99818,0.0303428,1.50772e-11
0.3,11.3,0,2.99776,0.0302538,1.39069e-11
0.3,11.4,0,2.99712,0.0301177,1.2117e-11
0.3,11.5,0,2.99647,0.0299816,1.03271e-11
0.3,11.6,0,2.99629,0.0299439,9.83141e-12
0.3,11.7,0,2.99629,0.0299439,9.83141e-12
0.3,11.8,0,2.99629,0.0299439,9.83141e-12
0.3,11.9,0,2.99629,0.0299439,9.83141e-12
0.3,12,0,2.99599,0.0300564,9.6762e-12
0.3,12.1,0,2.99561,0.0301943,9.48586e-12
0.3,12.2,0,2.99524,0.0303322,9.29551e-12
0.3,12.3,0,2.99556,0.0284112,1.12465e-11
0.3,12.4,0,2.99599,0.0261741,1.35262e-11
0.3,12.5,0,2.99614,0.0261103,1.44681e-11
0.3,12.6,0,2.99627,0.0262314,1.52961e-11
0.3,12.7,0,2.9964,0.0263525,1.61242e-11
0.4,0,0,3.00136,-0.0381607,1.55799e-11
0.4,0.1,0,3.00038,-0.037587,1.55758e-11
0.4,0.2,0,2.9994,-0.0370132,1.55716e-11
0.4,0.3,0,2.99842,-0.0364395,1.55675e-11
0.4,0.4,0,2.99737,-0.0356794,1.55113e-11
0.4,0.5,0,2.9942,-0.0291906,1.38388e-11
0.4,0.6,0,2.9932,-0.029038,1.3692e-11
0.4,0.7,0,2.9922,-0.0288855,1.35453e-11
0.4,0.8,0,2.9912,-0.0287329,1.33986e-11
0.4,0.9,0,2.99037,-0.0286063,1.32769e-11
0.4,1,0,2.99053,-0.0288266,1.29394e-11
0.4,1.1,0,2.99145,-0.0300471,1.1069e-11
0.4,1.2,0,2.99236,-0.0312676,9.19863e-12
0.4,1.3,0,2.99328,-0.0324881,7.32825e-12
0.4,1.4,0,2.99392,-0.0333359,6.02912e-12
0.4,1.5,0,2.99433,-0.0333946,4.87281e-12
0.4,1.6,0,2.99563,-0.033578,1.26033e-12
0.4,1.7,0,2.99693,-0.0337614,-2.35216e-12
0.4,1.8,0,2.99822,-0.0339449,-5.96464e-12
0.4,1.9,0,2.99895,-0.0340478,-7.99319e-12
0.4,2,0,2.99933,-0.033526,-9.18977e-12
0.4,2.1,0,3.00014,-0.0323952,-1.17824e-11
0.4,2.2,0,3.00095,-0.0312644,-1.43749e-11
0.4,2.3,0,3.00177,-0.0301337,-1.69675e-11
0.4,2.4,0,3.00213,-0.0296292,-1.81242e-11
0.4,2.5,0,3.00259,-0.0290506,-1.96088e-11
0.4,2.6,0,3.00339,-0.0280477,-2.21822e-11
0.4,2.7,0,3.00419,-0.0270448,-2.47555e-11
0.4,2.8,0,3.00499,-0.0260419,-2.73288e-11
0.4,2.9,0,3.00526,-0.0257102,-2.818e-11
0.4,3,0,3.00534,-0.0252601,-3.16064e-11
0.4,3.1,0,3.00545,-0.02461,-3.65556e-11
0.4,3.2,0,3.00556,-0.0239598,-4.15048e-11
0.4,3.3,0,3.00568,-0.0233097,-4.6454e-11
0.4,3.4,0,3.0057,-0.0231696,-4.752e-11
0.4,3.5,0,3.0048,-0.0222883,-4.92231e-11
0.4,3.6,0,3.00368,-0.0211971,-5.13318e-11
0.4,3.7,0,3.00255,-0.0201059,-5.34405e-11
0.4,3.8,0,3.00143,-0.0190147,-5.55491e-11
0.4,3.9,0,3.00132,-0.0189055,-5.576e-11
0.4,4,0,3.00068,-0.0182545,-5.82403e-11
0.4,4.1,0,2.99999,-0.0175492,-6.09273e-11
0.4,4.2,0,2.9993,-0.0168439,-6.36143e-11
0.4,4.3,0,2.99862,-0.0161495,-6.626e-11
0.4,4.4,0,2.99862,-0.0161191,-6.62853e-11
0.4,4.5,0,2.99862,-0.0153293,-6.6943e-11
0.4,4.6,0,2.99861,-0.0145395,-6.76006e-11
0.4,4.7,0,2.9986,-0.0137497,-6.82583e-11
0.4,4.8,0,2.99859,-0.0130632,-6.883e-11
0.4,4.9,0,2.99849,-0.012967,-6.8306e-11
0.4,5,0,2.99785,-0.0123419,-6.49002e-11
0.4,5.1,0,2.9972,-0.0117168,-6.14943e-11
0.4,5.2,0,2.99655,-0.0110918,-5.80885e-11
0.4,5.3,0,2.99606,-0.0106205,-5.5521e-11
0.4,5.4,0,2.99612,-0.0103175,-5.49395e-11
0.4,5.5,0,2.99631,-0.00919179,-5.27797e-11
0.4,5.6,0,2.99651,-0.0080661,-5.06198e-11
0.4,5.7,0,2.99671,-0.00694041,-4.846e-11
0.4,5.8,0,2.99684,-0.0062217,-4.7081e-11
0.4,5.9,0,2.99718,-0.00566384,-4.56183e-11
0.4,6,0,2.99808,-0.0042134,-4.18153e-11
0.4,6.1,0,2.99898,-0.00276296,-3.80123e-11
0.4,6.2,0,2.99988,-0.00131251,-3.42093e-11
0.4,6.3,0,3.00036,-0.00055382,-3.222e-11
0.4,6.4,0,3.00034,8.78191e-05,-2.97991e-11
0.4,6.5,0,3.0003,0.0013711,-2.49574e-11
0.4,6.6,0,3.00025,0.00265438,-2.01157e-11
0.4,6.7,0,3.00021,0.00393766,-1.52739e-11
0.4,6.8,0,3.0002,0.00446084,-1.33e-11
0.4,6.9,0,2.99999,0.00501203,-9.67323e-12
0.4,7,0,2.99965,0.0059077,-3.77972e-12
0.4,7.1,0,2.99931,0.00680338,2.11378e-12
0.4,7.2,0,2.99897,0.00769906,8.00728e-12
0.4,7.3,0,2.99887,0.00796087,9.73e-12
0.4,7.4,0,2.99782,0.00915405,1.281e-11
0.4,7.5,0,2.99638,0.0107868,1.70248e-11
0.4,7.6,0,2.99494,0.0124196,2.12395e-11
0.4,7.7,0,2.9935,0.0140523,2.54543e-11
0.4,7.8,0,2.99324,0.0143412,2.62e-11
0.4,7.9,0,2.99299,0.0153318,2.73476e-11
0.4,8,0,2.99269,0.0165025,2.87039e-11
0.4,8.1,0,2.99238,0.0176733,3.00602e-11
0.4,8.2,0,2.99208,0.018844,3.14165e-11
0.4,8.3,0,2.99206,0.0189161,3.15e-11
0.4,8.4,0,2.9944,0.0194968,3.32224e-11
0.4,8.5,0,2.99683,0.0201008,3.50138e-11
0.4,8.6,0,2.99926,0.0207048,3.68051e-11
0.4,8.7,0,3.00156,0.0212762,3.85e-11
0.4,8.8,0,3.0016,0.0214129,3.85886e-11
0.4,8.9,0,3.00208,0.023189,3.97402e-11
0.4,9,0,3.00257,0.0249652,4.08917e-11
0.4,9.1,0,3.00305,0.0267414,4.20433e-11
0.4,9.2,0,3.00345,0.028217,4.3e-11
0.4,9.3,0,3.00301,0.0283225,4.29508e-11
0.4,9.4,0,3.00075,0.0288715,4.26949e-11
0.4,9.5,0,2.99848,0.0294205,4.2439e-11
0.4,9.6,0,2.99621,0.0299695,4.21831e-11
0.4,9.7,0,2.99459,0.0303622,4.2e-11
0.4,9.8,0,2.99426,0.0306038,4.16142e-11
0.4,9.9,0,2.99318,0.0313892,4.03602e-11
0.4,10,0,2.9921,0.0321745,3.91063e-11
0.4,10.1,0,2.99102,0.0329599,3.78524e-11
0.4,10.2,0,2.99037,0.0334311,3.71e-11
0.4,10.3,0,2.99085,0.0339792,3.60279e-11
0.4,10.4,0,2.99196,0.0352749,3.34938e-11
0.4,10.5,0,2.99308,0.0365706,3.09598e-11
0.4,10.6,0,2.99419,0.0378663,2.84257e-11
0.4,10.7,0,2.99473,0.0384942,2.71977e-11
0.4,10.8,0,2.99512,0.0387647,2.62201e-11
0.4,10.9,0,2.99585,0.039267,2.44045e-11
0.4,11,0,2.99658,0.0397693,2.25889e-11
0.4,11.1,0,2.99731,0.0402716,2.07733e-11
0.4,11.2,0,2.99757,0.040457,2.0103e-11
0.4,11.3,0,2.99715,0.040368,1.89326e-11
0.4,11.4,0,2.99651,0.0402319,1.71427e-11
0.4,11.5,0,2.99587,0.0400958,1.53528e-11
0.4,11.6,0,2.99522,0.0399598,1.35629e-11
0.4,11.7,0,2.99506,0.0399252,1.31085e-11
0.4,11.8,0,2.99506,0.0399252,1.31085e-11
0.4,11.9,0,2.99476,0.0400345,1.29577e-11
0.4,12,0,2.99439,0.0401724,1.27674e-11
0.4,12.1,0,2.99401,0.0403103,1.2577e-11
0.4,12.2,0,2.99363,0.0404482,1.23867e-11
0.4,12.3,0,2.99395,0.0385413,1.43231e-11
0.4,12.4,0,2.99411,0.0384157,1.5303e-11
0.4,12.5,0,2.99424,0.0385368,1.6131e-11
0.4,12.6,0,2.99437,0.038658,1.6959e-11
0.4,12.7,0,2.9945,0.0387791,1.77871e-11
0.5,0,0,2.99764,-0.0392271,1.73e-11
0.5,0.1,0,2.99668,-0.0386899,1.72827e-11
0.5,0.2,0,2.99572,-0.0381527,1.72655e-11
0.5,0.3,0,2.99475,-0.0376155,1.72482e-11
0.5,0.4,0,2.99379,-0.0370782,1.72309e-11
0.5,0.5,0,2.99286,-0.0365751,1.72166e-11
0.5,0.6,0,2.99183,-0.0363891,1.71047e-11
0.5,0.7,0,2.99079,-0.0362032,1.69929e-11
0.5,0.8,0,2.98978,-0.0360349,1.68626e-11
0.5,0.9,0,2.98878,-0.0358824,1.67158e-11
0.5,1,0,2.98811,-0.0359628,1.62821e-11
0.5,1.1,0,2.98903,-0.0371833,1.44118e-11
0.5,1.2,0,2.98995,-0.0384038,1.25414e-11
0.5,1.3,0,2.99086,-0.0396243,1.0671e-11
0.5,1.4,0,2.99178,-0.0408449,8.80063e-12
0.5,1.5,0,2.9928,-0.0417274,6.40364e-12
0.5,1.6,0,2.9941,-0.0419108,2.79115e-12
0.5,1.7,0,2.9954,-0.0420942,-8.21333e-13
0.5,1.8,0,2.99669,-0.0422776,-4.43382e-12
0.5,1.9,0,2.99799,-0.042461,-8.0463e-12
0.5,2,0,2.99907,-0.0420379,-1.11881e-11
0.5,2.1,0,2.99988,-0.0409072,-1.37806e-11
0.5,2.2,0,3.00069,-0.0397764,-1.63732e-11
0.5,2.3,0,3.0015,-0.0386457,-1.89658e-11
0.5,2.4,0,3.00232,-0.0375149,-2.15584e-11
0.5,2.5,0,3.00312,-0.0364579,-2.41399e-11
0.5,2.6,0,3.00392,-0.035455,-2.67132e-11
0.5,2.7,0,3.00473,-0.0344521,-2.92865e-11
0.5,2.8,0,3.00553,-0.0334492,-3.18599e-11
0.5,2.9,0,3.00633,-0.0324463,-3.44332e-11
0.5,3,0,3.00665,-0.0316877,-3.86514e-11
0.5,3.1,0,3.00677,-0.0310375,-4.36006e-11
0.5,3.2,0,3.00688,-0.0303874,-4.85498e-11
0.5,3.3,0,3.00699,-0.0297372,-5.3499e-11
0.5,3.4,0,3.00711,-0.0290871,-5.84482e-11
0.5,3.5,0,3.00622,-0.0280807,-6.11031e-11
0.5,3.6,0,3.0051,-0.0269895,-6.32118e-11
0.5,3.7,0,3.00398,-0.0258983,-6.53205e-11
0.5,3.8,0,3.00286,-0.0248071,-6.74291e-11
0.5,3.9,0,3.00174,-0.0237159,-6.95378e-11
0.5,4,0,3.00102,-0.0229809,-7.21803e-11
0.5,4.1,0,3.00032,-0.0222756,-7.48673e-11
0.5,4.2,0,2.99963,-0.0215703,-7.75543e-11
0.5,4.3,0,2.99894,-0.020865,-8.02413e-11
0.5,4.4,0,2.99828,-0.0201565,-8.28503e-11
0.5,4.5,0,2.99827,-0.0193667,-8.3508e-11
0.5,4.6,0,2.99826,-0.0185769,-8.41656e-11
0.5,4.7,0,2.99826,-0.0177871,-8.48233e-11
0.5,4.8,0,2.99825,-0.0169973,-8.5481e-11
0.5,4.9,0,2.99814,-0.0162328,-8.55135e-11
0.5,5,0,2.99749,-0.0156077,-8.21077e-11
0.5,5.1,0,2.99685,-0.0149826,-7.87018e-11
0.5,5.2,0,2.9962,-0.0143576,-7.5296e-11
0.5,5.3,0,2.99555,-0.0137325,-7.18901e-11
0.5,5.4,0,2.99513,-0.0129726,-6.88198e-11
0.5,5.5,0,2.99533,-0.0118469,-6.66599e-11
0.5,5.6,0,2.99553,-0.0107212,-6.45001e-11
0.5,5.7,0,2.99573,-0.00959555,-6.23402e-11
0.5,5.8,0,2.99592,-0.00846986,-6.01804e-11
0.5,5.9,0,2.99639,-0.00721927,-5.73886e-11
0.5,6,0,2.99729,-0.00576882,-5.35855e-11
0.5,6.1,0,2.99819,-0.00431838,-4.97825e-11
0.5,6.2,0,2.99909,-0.00286794,-4.59795e-11
0.5,6.3,0,2.99999,-0.0014175,-4.21765e-11
0.5,6.4,0,3.00042,-5.06361e-05,-3.78541e-11
0.5,6.5,0,3.00038,0.00123264,-3.30124e-11
0.5,6.6,0,3.00034,0.00251592,-2.81707e-11
0.5,6.7,0,3.0003,0.0037992,-2.33289e-11
0.5,6.8,0,3.00026,0.00508248,-1.84872e-11
0.5,6.9,0,3.00004,0.00612724,-1.29982e-11
0.5,7,0,2.9997,0.00702291,-7.10472e-12
0.5,7.1,0,2.99936,0.00791859,-1.21122e-12
0.5,7.2,0,2.99902,0.00881427,4.68228e-12
0.5,7.3,0,2.99868,0.00970995,1.05758e-11
0.5,7.4,0,2.99754,0.0111443,1.52425e-11
0.5,7.5,0,2.9961,0.012777,1.94573e-11
0.5,7.6,0,2.99466,0.0144098,2.3672e-11
0.5,7.7,0,2.99322,0.0160425,2.78868e-11
0.5,7.8,0,2.99178,0.0176753,3.21016e-11
0.5,7.9,0,2.9913,0.0189171,3.38976e-11
0.5,8,0,2.991,0.0200878,3.52539e-11
0.5,8.1,0,2.9907,0.0212586,3.66102e-11
0.5,8.2,0,2.99039,0.0224293,3.79665e-11
0.5,8.3,0,2.99009,0.0236,3.93228e-11
0.5,8.4,0,2.99242,0.0242258,4.10974e-11
0.5,8.5,0,2.99485,0.0248298,4.28888e-11
0.5,8.6,0,2.99728,0.0254338,4.46801e-11
0.5,8.7,0,2.99971,0.0260378,4.64715e-11
0.5,8.8,0,3.00199,0.0267319,4.82136e-11
0.5,8.9,0,3.00247,0.0285081,4.93652e-11
0.5,9,0,3.00296,0.0302843,5.05167e-11
0.5,9.1,0,3.00344,0.0320604,5.16683e-11
0.5,9.2,0,3.00392,0.0338366,5.28199e-11
0.5,9.3,0,3.00388,0.0353768,5.37008e-11
0.5,9.4,0,3.00161,0.0359258,5.34449e-11
0.5,9.5,0,2.99934,0.0364747,5.3189e-11
0.5,9.6,0,2.99708,0.0370237,5.29331e-11
0.5,9.7,0,2.99481,0.0375727,5.26772e-11
0.5,9.8,0,2.99291,0.0381944,5.21142e-11
0.5,9.9,0,2.99183,0.0389797,5.08602e-11
0.5,10,0,2.99075,0.0397651,4.96063e-11
0.5,10.1,0,2.98967,0.0405504,4.83524e-11
0.5,10.2,0,2.98859,0.0413358,4.70984e-11
0.5,10.3,0,2.98844,0.042337,4.53029e-11
0.5,10.4,0,2.98955,0.0436327,4.27688e-11
0.5,10.5,0,2.99067,0.0449284,4.02348e-11
0.5,10.6,0,2.99178,0.046224,3.77007e-11
0.5,10.7,0,2.9929,0.0475197,3.51667e-11
0.5,10.8,0,2.99381,0.0483882,3.30195e-11
0.5,10.9,0,2.99453,0.0488905,3.12039e-11
0.5,11,0,2.99526,0.0493928,2.93883e-11
0.5,11.1,0,2.99599,0.0498951,2.75727e-11
0.5,11.2,0,2.99672,0.0503974,2.57572e-11
0.5,11.3,0,2.99655,0.0504823,2.39584e-11
0.5,11.4,0,2.9959,0.0503462,2.21685e-11