/*--------------------------------*- C++ -*----------------------------------*\
| =========                 |                                                 |
| \\      /  F ield         | OpenFOAM: The Open Source CFD Toolbox           |
|  \\    /   O peration     | Version:  v1806                                 |
|   \\  /    A nd           | Web:      www.OpenFOAM.com                      |
|    \\/     M anipulation  |                                                 |
\*---------------------------------------------------------------------------*/
FoamFile
{
    version     2.0;
    format      ascii;
    class       volVectorField;
    location    "20";
    object      U;
}
// * * * * * * * * * * * * * * * * * * * * * * * * * * * * * * * * * * * * * //

dimensions      [0 1 -1 0 0 0 0];


internalField   nonuniform List<vector> 
2400
(
(0.299439 -0.0126504 0)
(0.29522 -0.0177732 0)
(0.301548 -0.00491927 0)
(0.308049 -0.0374006 0)
(0.296492 -0.115214 0)
(0.262111 -0.190592 0)
(0.21501 -0.231378 0)
(0.166396 -0.236997 0)
(0.123086 -0.221321 0)
(0.088107 -0.196414 0)
(0.0618039 -0.169053 0)
(0.0430253 -0.142636 0)
(0.030045 -0.118776 0)
(0.0212016 -0.0980704 0)
(0.0151835 -0.0805406 0)
(0.0110572 -0.0659193 0)
(0.00819165 -0.0538267 0)
(0.00617217 -0.043866 0)
(0.00472267 -0.0356625 0)
(0.00364863 -0.0289068 0)
(0.299372 -0.0112628 0)
(0.295092 -0.017951 0)
(0.300528 -0.00896659 0)
(0.304578 -0.0367174 0)
(0.29185 -0.101263 0)
(0.260718 -0.164103 0)
(0.219939 -0.199602 0)
(0.177638 -0.20663 0)
(0.138462 -0.195867 0)
(0.104813 -0.17685 0)
(0.0775515 -0.15491 0)
(0.0565605 -0.132824 0)
(0.0410307 -0.112125 0)
(0.0298307 -0.0935987 0)
(0.0218521 -0.0775256 0)
(0.0161823 -0.0638664 0)
(0.0121359 -0.0524094 0)
(0.00922625 -0.042872 0)
(0.00710859 -0.0349526 0)
(0.00556428 -0.0283848 0)
(0.299383 -0.0103915 0)
(0.295519 -0.017952 0)
(0.299305 -0.00968555 0)
(0.301396 -0.0337717 0)
(0.28916 -0.0945898 0)
(0.259712 -0.156594 0)
(0.220106 -0.191995 0)
(0.178847 -0.198497 0)
(0.141261 -0.187225 0)
(0.109626 -0.168295 0)
(0.0840823 -0.147143 0)
(0.0639594 -0.126296 0)
(0.0484228 -0.106949 0)
(0.0366282 -0.0896517 0)
(0.0277815 -0.0745812 0)
(0.0211893 -0.0616918 0)
(0.0162853 -0.0508064 0)
(0.0126336 -0.0416874 0)
(0.00989656 -0.0340705 0)
(0.00784669 -0.0277241 0)
(0.299474 -0.0095028 0)
(0.295677 -0.0174683 0)
(0.298196 -0.0107884 0)
(0.298894 -0.0322781 0)
(0.287179 -0.0855154 0)
(0.260415 -0.139071 0)
(0.224666 -0.170382 0)
(0.186811 -0.177823 0)
(0.150873 -0.169992 0)
(0.119265 -0.154828 0)
(0.0930292 -0.136861 0)
(0.0720691 -0.118489 0)
(0.0556884 -0.101032 0)
(0.0430399 -0.0851798 0)
(0.0333407 -0.0712112 0)
(0.0259322 -0.0591557 0)
(0.0202819 -0.0488971 0)
(0.0159766 -0.0402474 0)
(0.0126817 -0.0329781 0)
(0.0101722 -0.0268898 0)
(0.299492 -0.00870153 0)
(0.295823 -0.0169234 0)
(0.297415 -0.0110832 0)
(0.297115 -0.0294976 0)
(0.285999 -0.0781144 0)
(0.26042 -0.129057 0)
(0.22566 -0.159196 0)
(0.189214 -0.165932 0)
(0.155255 -0.158086 0)
(0.125367 -0.143839 0)
(0.0999796 -0.127434 0)
(0.0790618 -0.110796 0)
(0.062243 -0.0949343 0)
(0.0489354 -0.0804206 0)
(0.0385052 -0.0675272 0)
(0.0303754 -0.0563159 0)
(0.0240573 -0.0467121 0)
(0.0191624 -0.0385677 0)
(0.0153593 -0.0316822 0)
(0.012428 -0.0258875 0)
(0.299522 -0.00792326 0)
(0.29603 -0.0161215 0)
(0.296645 -0.0111291 0)
(0.295594 -0.0273393 0)
(0.285203 -0.0705802 0)
(0.261558 -0.115731 0)
(0.22922 -0.142982 0)
(0.194541 -0.150175 0)
(0.161391 -0.144304 0)
(0.131824 -0.132216 0)
(0.106521 -0.117791 0)
(0.0854344 -0.102922 0)
(0.0682093 -0.0886029 0)
(0.0543376 -0.0753895 0)
(0.0432733 -0.0635609 0)
(0.0345061 -0.0532051 0)
(0.0275894 -0.0442803 0)
(0.0221618 -0.0366725 0)
(0.0178958 -0.030202 0)
(0.0145826 -0.0247321 0)
(0.29958 -0.0071975 0)
(0.296109 -0.0152335 0)
(0.296113 -0.010804 0)
(0.29468 -0.024808 0)
(0.284509 -0.0638018 0)
(0.261568 -0.105492 0)
(0.230419 -0.130847 0)
(0.197388 -0.137405 0)
(0.165785 -0.131993 0)
(0.137186 -0.121133 0)
(0.112267 -0.108265 0)
(0.0911419 -0.0949716 0)
(0.0736043 -0.0820943 0)
(0.0592594 -0.07013 0)
(0.0476467 -0.0593487 0)
(0.0383179 -0.0498536 0)
(0.0308661 -0.0416269 0)
(0.0249598 -0.0345829 0)
(0.0202747 -0.0285549 0)
(0.0166211 -0.0234396 0)
(0.299622 -0.00649964 0)
(0.296204 -0.0141725 0)
(0.295677 -0.0103617 0)
(0.293776 -0.0225398 0)
(0.284278 -0.0570541 0)
(0.262936 -0.0942647 0)
(0.233254 -0.117362 0)
(0.201175 -0.123905 0)
(0.170228 -0.119576 0)
(0.142099 -0.110136 0)
(0.11741 -0.098772 0)
(0.0962503 -0.086953 0)
(0.0784582 -0.0754375 0)
(0.0637147 -0.0646752 0)
(0.0516285 -0.0549219 0)
(0.0418066 -0.046289 0)
(0.0338786 -0.0387752 0)
(0.0275454 -0.0323191 0)
(0.0224839 -0.0267581 0)
(0.0185351 -0.0220267 0)
(0.299657 -0.00582198 0)
(0.296283 -0.0130695 0)
(0.295332 -0.00972107 0)
(0.293184 -0.020131 0)
(0.284091 -0.050796 0)
(0.263531 -0.084374 0)
(0.234908 -0.105349 0)
(0.203981 -0.111363 0)
(0.173953 -0.107625 0)
(0.146392 -0.0993393 0)
(0.121957 -0.0893319 0)
(0.100791 -0.0788845 0)
(0.0827957 -0.0686585 0)
(0.067717 -0.0590541 0)
(0.0552229 -0.0503087 0)
(0.0449695 -0.0425364 0)
(0.0366194 -0.035747 0)
(0.0299091 -0.0299007 0)
(0.0245123 -0.0248291 0)
(0.0203183 -0.0205125 0)
(0.299687 -0.00517627 0)
(0.296362 -0.0118657 0)
(0.295058 -0.00894665 0)
(0.292688 -0.0178726 0)
(0.284047 -0.0447633 0)
(0.264447 -0.0744772 0)
(0.236815 -0.0932919 0)
(0.206708 -0.0989367 0)
(0.177316 -0.0958633 0)
(0.150185 -0.0886831 0)
(0.125961 -0.0799404 0)
(0.104799 -0.0707794 0)
(0.0866399 -0.0617787 0)
(0.0712794 -0.0532914 0)
(0.0584348 -0.0455337 0)
(0.0478052 -0.0386186 0)
(0.0390821 -0.0325627 0)
(0.0320422 -0.0273468 0)
(0.0263489 -0.0227854 0)
(0.0219662 -0.0189187 0)
(0.29971 -0.00454868 0)
(0.296433 -0.0106055 0)
(0.294839 -0.00808794 0)
(0.292316 -0.0156287 0)
(0.284069 -0.0389715 0)
(0.265226 -0.0650872 0)
(0.238429 -0.0817748 0)
(0.209065 -0.0868956 0)
(0.180246 -0.0843368 0)
(0.15349 -0.0781561 0)
(0.129452 -0.070593 0)
(0.108303 -0.0626464 0)
(0.090011 -0.0548157 0)
(0.0744141 -0.0474086 0)
(0.061269 -0.0406188 0)
(0.0503129 -0.0345564 0)
(0.0412609 -0.0292409 0)
(0.0339362 -0.024676 0)
(0.0279815 -0.0206451 0)
(0.0234758 -0.0172717 0)
(0.299725 -0.00394209 0)
(0.296502 -0.009297 0)
(0.294667 -0.00714361 0)
(0.292026 -0.0134475 0)
(0.284134 -0.033411 0)
(0.26596 -0.0559605 0)
(0.239876 -0.0704959 0)
(0.211128 -0.0750677 0)
(0.18278 -0.0729799 0)
(0.156339 -0.0677361 0)
(0.132461 -0.0612854 0)
(0.111326 -0.0544925 0)
(0.092927 -0.0477839 0)
(0.0771322 -0.0414239 0)
(0.0637306 -0.0355835 0)
(0.0524924 -0.0303682 0)
(0.0431503 -0.0257984 0)
(0.0355829 -0.0219059 0)
(0.0293959 -0.0184265 0)
(0.0248459 -0.0156031 0)
(0.299732 -0.00335403 0)
(0.29657 -0.00794631 0)
(0.294529 -0.00614086 0)
(0.291803 -0.0113182 0)
(0.28422 -0.028035 0)
(0.266608 -0.0471031 0)
(0.241126 -0.0594888 0)
(0.212892 -0.0634568 0)
(0.184934 -0.0617748 0)
(0.158753 -0.0574073 0)
(0.135009 -0.0520124 0)
(0.113889 -0.0463227 0)
(0.0954032 -0.0406953 0)
(0.0794439 -0.0353535 0)
(0.0658246 -0.0304447 0)
(0.0543441 -0.0260705 0)
(0.0447448 -0.02225 0)
(0.0369732 -0.0190529 0)
(0.0305744 -0.0161485 0)
(0.0260762 -0.013953 0)
(0.299731 -0.00278268 0)
(0.296635 -0.00656208 0)
(0.294419 -0.00509232 0)
(0.291633 -0.00923401 0)
(0.28431 -0.0228198 0)
(0.267158 -0.0384635 0)
(0.242176 -0.0486886 0)
(0.214364 -0.0520125 0)
(0.186722 -0.0506903 0)
(0.160751 -0.0471527 0)
(0.137115 -0.0427683 0)
(0.11601 -0.0381405 0)
(0.097453 -0.0335602 0)
(0.0813583 -0.0292114 0)
(0.0675558 -0.0252178 0)
(0.0558688 -0.0216779 0)
(0.046039 -0.0186079 0)
(0.0380971 -0.0161304 0)
(0.0314933 -0.0138312 0)
(0.0271655 -0.0123729 0)
(0.299722 -0.00222645 0)
(0.296699 -0.00514879 0)
(0.294328 -0.0040108 0)
(0.291504 -0.00718809 0)
(0.28439 -0.0177339 0)
(0.267599 -0.0300021 0)
(0.243021 -0.0380601 0)
(0.215546 -0.0407054 0)
(0.188153 -0.0397035 0)
(0.162347 -0.0369576 0)
(0.138796 -0.0335474 0)
(0.1177 -0.0299484 0)
(0.0990876 -0.0263872 0)
(0.0828835 -0.02301 0)
(0.0689291 -0.0199164 0)
(0.0570681 -0.0172028 0)
(0.0470279 -0.0148814 0)
(0.0389423 -0.0131475 0)
(0.0321195 -0.0114962 0)
(0.0281055 -0.010929 0)
(0.299705 -0.00168359 0)
(0.296761 -0.00370893 0)
(0.294246 -0.00290734 0)
(0.291407 -0.00517106 0)
(0.284449 -0.0127476 0)
(0.267923 -0.0216809 0)
(0.24366 -0.0275657 0)
(0.216443 -0.0295046 0)
(0.189235 -0.0287917 0)
(0.163553 -0.0268079 0)
(0.140063 -0.0243439 0)
(0.118973 -0.0217482 0)
(0.100316 -0.019184 0)
(0.0840264 -0.0167608 0)
(0.0699491 -0.0145528 0)
(0.0579446 -0.0126564 0)
(0.0477079 -0.0110761 0)
(0.0394938 -0.0101057 0)
(0.0324065 -0.00916464 0)
(0.0288599 -0.0097068 0)
(0.299681 -0.00115319 0)
(0.296817 -0.00224517 0)
(0.294165 -0.00178994 0)
(0.291335 -0.00317046 0)
(0.28448 -0.00783134 0)
(0.268125 -0.0134623 0)
(0.244092 -0.0171699 0)
(0.217058 -0.0183817 0)
(0.189976 -0.0179339 0)
(0.164375 -0.01669 0)
(0.140925 -0.0151521 0)
(0.119836 -0.0135413 0)
(0.101145 -0.0119577 0)
(0.0847932 -0.0104748 0)
(0.0706208 -0.0091389 0)
(0.0585027 -0.00804862 0)
(0.0480781 -0.00719399 0)
(0.0397331 -0.00699511 0)
(0.0322872 -0.00684885 0)
(0.0293161 -0.0088099 0)
(0.299652 -0.000631677 0)
(0.296864 -0.000758732 0)
(0.294073 -0.000671921 0)
(0.291281 -0.00117313 0)
(0.284475 -0.00295728 0)
(0.268205 -0.0053115 0)
(0.244321 -0.00683695 0)
(0.217396 -0.00730773 0)
(0.19038 -0.00710893 0)
(0.16482 -0.00659032 0)
(0.141387 -0.00596589 0)
(0.120295 -0.00532869 0)
(0.10158 -0.00471509 0)
(0.0851885 -0.00416284 0)
(0.0709493 -0.00368664 0)
(0.0587491 -0.00338969 0)
(0.0481435 -0.00323349 0)
(0.0396419 -0.00378891 0)
(0.0316665 -0.00452261 0)
(0.0291526 -0.00825121 0)
(0.299623 -9.92455e-05 0)
(0.296891 0.000758529 0)
(0.293957 0.000417757 0)
(0.291241 0.000831986 0)
(0.284437 0.00189446 0)
(0.268176 0.00279254 0)
(0.244358 0.003459 0)
(0.217458 0.00374337 0)
(0.190446 0.00370394 0)
(0.164888 0.00350489 0)
(0.141449 0.00322122 0)
(0.120349 0.00288941 0)
(0.101622 0.00253812 0)
(0.0852152 0.00216472 0)
(0.0709391 0.00179349 0)
(0.058693 0.00130957 0)
(0.0479188 0.000817373 0)
(0.0392142 -0.000437918 0)
(0.0304541 -0.00207479 0)
(0.0276018 -0.00769871 0)
(0.299593 0.000388308 0)
(0.296867 0.00234098 0)
(0.293805 0.00150145 0)
(0.291223 0.00286048 0)
(0.284379 0.00676669 0)
(0.268066 0.0108857 0)
(0.244222 0.013735 0)
(0.217246 0.0147851 0)
(0.190164 0.0145169 0)
(0.164564 0.0136036 0)
(0.1411 0.0124118 0)
(0.119992 0.0111099 0)
(0.101267 0.00979411 0)
(0.0848726 0.00849509 0)
(0.0705931 0.00728847 0)
(0.0583486 0.00603221 0)
(0.047434 0.00497109 0)
(0.038479 0.00310572 0)
(0.0286684 0.000763538 0)
(0.023042 -0.00742058 0)
(0.00320509 -0.0257715 0)
(0.00312093 -0.0251252 0)
(0.00304166 -0.0244922 0)
(0.00296407 -0.0238727 0)
(0.00288821 -0.0232663 0)
(0.00281451 -0.022673 0)
(0.00274323 -0.0220925 0)
(0.00267471 -0.0215245 0)
(0.00260909 -0.0209688 0)
(0.00254435 -0.0204248 0)
(0.0049006 -0.0252917 0)
(0.0047639 -0.0246556 0)
(0.00463067 -0.0240345 0)
(0.00450185 -0.0234277 0)
(0.00437735 -0.0228346 0)
(0.00425683 -0.0222549 0)
(0.00414002 -0.0216882 0)
(0.00402658 -0.0211343 0)
(0.00391629 -0.0205932 0)
(0.00380992 -0.020065 0)
(0.00694701 -0.0247453 0)
(0.00676398 -0.0241312 0)
(0.0065869 -0.0235297 0)
(0.00641512 -0.0229403 0)
(0.00624837 -0.0223631 0)
(0.00608645 -0.0217978 0)
(0.00592918 -0.0212442 0)
(0.00577638 -0.020702 0)
(0.00562781 -0.0201711 0)
(0.00548318 -0.0196512 0)
(0.00905535 -0.0240064 0)
(0.00882707 -0.0234118 0)
(0.00860502 -0.0228295 0)
(0.00838895 -0.0222592 0)
(0.00817871 -0.0217007 0)
(0.00797412 -0.0211538 0)
(0.00777502 -0.0206182 0)
(0.0075812 -0.0200939 0)
(0.00739248 -0.0195806 0)
(0.00720889 -0.0190782 0)
(0.0111087 -0.0231214 0)
(0.0108386 -0.0225508 0)
(0.0105756 -0.0219916 0)
(0.0103192 -0.0214436 0)
(0.0100693 -0.0209065 0)
(0.00982576 -0.0203803 0)
(0.00958827 -0.0198646 0)
(0.00935667 -0.0193594 0)
(0.00913074 -0.0188646 0)
(0.00891041 -0.01838 0)
(0.0130793 -0.0220922 0)
(0.0127707 -0.0215473 0)
(0.0124696 -0.0210129 0)
(0.0121757 -0.020489 0)
(0.0118888 -0.0199753 0)
(0.0116086 -0.0194717 0)
(0.0113351 -0.018978 0)
(0.0110678 -0.0184942 0)
(0.0108067 -0.0180201 0)
(0.0105517 -0.0175557 0)
(0.0149531 -0.0209343 0)
(0.0146097 -0.0204167 0)
(0.014274 -0.0199088 0)
(0.0139459 -0.0194104 0)
(0.013625 -0.0189215 0)
(0.0133113 -0.0184419 0)
(0.0130043 -0.0179716 0)
(0.012704 -0.0175103 0)
(0.0124102 -0.0170582 0)
(0.0121226 -0.0166151 0)
(0.0167243 -0.0196602 0)
(0.0163501 -0.0191707 0)
(0.0159834 -0.0186899 0)
(0.0156244 -0.0182179 0)
(0.0152729 -0.0177544 0)
(0.0149284 -0.0172995 0)
(0.0145908 -0.0168531 0)
(0.01426 -0.0164151 0)
(0.0139356 -0.0159856 0)
(0.0136176 -0.0155646 0)
(0.01839 -0.0182849 0)
(0.0179893 -0.0178234 0)
(0.0175956 -0.0173697 0)
(0.0172094 -0.0169237 0)
(0.0168305 -0.0164854 0)
(0.0164585 -0.0160549 0)
(0.0160931 -0.0156322 0)
(0.0157342 -0.0152173 0)
(0.0153815 -0.0148102 0)
(0.0150351 -0.0144112 0)
(0.0199502 -0.0168249 0)
(0.019528 -0.0163902 0)
(0.0191117 -0.015962 0)
(0.0187025 -0.0155407 0)
(0.0182999 -0.0151261 0)
(0.0179035 -0.0147186 0)
(0.0175131 -0.0143181 0)
(0.0171286 -0.0139248 0)
(0.0167496 -0.013539 0)
(0.0163763 -0.0131607 0)
(0.0214089 -0.0152993 0)
(0.0209712 -0.0148883 0)
(0.0205372 -0.0144828 0)
(0.0201093 -0.014083 0)
(0.0196871 -0.013689 0)
(0.0192698 -0.0133012 0)
(0.0188572 -0.0129198 0)
(0.0184493 -0.0125452 0)
(0.0180458 -0.0121777 0)
(0.0176467 -0.0118174 0)
(0.0227748 -0.0137303 0)
(0.0223286 -0.0133382 0)
(0.0218828 -0.0129501 0)
(0.0214417 -0.0125664 0)
(0.0210043 -0.0121875 0)
(0.0205698 -0.0118139 0)
(0.0201378 -0.0114461 0)
(0.0197084 -0.0110847 0)
(0.0192815 -0.0107302 0)
(0.018857 -0.0103831 0)
(0.0240625 -0.012146 0)
(0.023617 -0.0117649 0)
(0.0231668 -0.0113859 0)
(0.0227187 -0.0110097 0)
(0.0222716 -0.0106369 0)
(0.021824 -0.0102684 0)
(0.0213756 -0.00990507 0)
(0.0209263 -0.00954786 0)
(0.0204762 -0.00919762 0)
(0.020025 -0.00885525 0)
(0.0252924 -0.010582 0)
(0.0248596 -0.0102002 0)
(0.0244146 -0.00981773 0)
(0.0239682 -0.00943565 0)
(0.0235183 -0.00905499 0)
(0.0230629 -0.00867713 0)
(0.0226013 -0.00830355 0)
(0.0221333 -0.00793577 0)
(0.021659 -0.00757529 0)
(0.021178 -0.00722365 0)
(0.0264847 -0.00908749 0)
(0.0260808 -0.00868883 0)
(0.0256542 -0.00828489 0)
(0.0252209 -0.00787732 0)
(0.0247779 -0.00746776 0)
(0.0243216 -0.00705833 0)
(0.0238509 -0.00665134 0)
(0.0233653 -0.00624918 0)
(0.0228649 -0.00585434 0)
(0.022348 -0.00546943 0)
(0.0276275 -0.00772436 0)
(0.0272726 -0.00728614 0)
(0.026881 -0.00683487 0)
(0.0264761 -0.00637315 0)
(0.0260531 -0.00590352 0)
(0.0256067 -0.00542905 0)
(0.0251349 -0.00495302 0)
(0.0246363 -0.0044789 0)
(0.0241099 -0.00401053 0)
(0.023551 -0.00355257 0)
(0.0285885 -0.00657687 0)
(0.0282985 -0.00607151 0)
(0.0279553 -0.00554218 0)
(0.0275922 -0.00499333 0)
(0.0272033 -0.00442843 0)
(0.0267814 -0.00385067 0)
(0.026323 -0.0032627 0)
(0.0258247 -0.00266701 0)
(0.0252813 -0.00206656 0)
(0.0246794 -0.00146752 0)
(0.0288243 -0.00566618 0)
(0.0285695 -0.00506197 0)
(0.0282471 -0.00441849 0)
(0.0279082 -0.00374704 0)
(0.0275504 -0.00305184 0)
(0.0271679 -0.00233196 0)
(0.0267581 -0.00158317 0)
(0.026317 -0.000800218 0)
(0.0258295 2.06793e-05 0)
(0.0252521 0.000876818 0)
(0.0267209 -0.0047309 0)
(0.0263486 -0.00403517 0)
(0.0259237 -0.00331258 0)
(0.0255231 -0.00258927 0)
(0.0251616 -0.00186558 0)
(0.0248406 -0.00112375 0)
(0.0245573 -0.000333506 0)
(0.0243028 0.000545688 0)
(0.0240529 0.00156363 0)
(0.0237086 0.00277286 0)
(0.0171787 -0.00289887 0)
(0.0162398 -0.00216388 0)
(0.0154617 -0.00157351 0)
(0.0148493 -0.00107904 0)
(0.0144073 -0.000631938 0)
(0.0141321 -0.000177528 0)
(0.0140317 0.000353826 0)
(0.0141436 0.001064 0)
(0.0145407 0.00211806 0)
(0.0152047 0.00379902 0)
(0.00238353 -0.0191607 0)
(0.00213717 -0.017331 0)
(0.00192849 -0.015652 0)
(0.00174575 -0.0141108 0)
(0.00158348 -0.0126958 0)
(0.00143903 -0.0113959 0)
(0.00131048 -0.0102006 0)
(0.0011963 -0.00910019 0)
(0.00109523 -0.00808529 0)
(0.00100615 -0.00714701 0)
(0.000928093 -0.00627686 0)
(0.000860175 -0.00546678 0)
(0.000801629 -0.0047091 0)
(0.000751781 -0.00399656 0)
(0.000710055 -0.00332232 0)
(0.000675977 -0.00268043 0)
(0.000649175 -0.00206757 0)
(0.00062936 -0.00148869 0)
(0.000615893 -0.000972393 0)
(0.000607647 -0.000606078 0)
(0.00357032 -0.01884 0)
(0.00323611 -0.0170513 0)
(0.00293225 -0.0154048 0)
(0.00265869 -0.0138914 0)
(0.00241353 -0.0125006 0)
(0.00219429 -0.0112223 0)
(0.00199867 -0.0100465 0)
(0.00182466 -0.0089637 0)
(0.00167048 -0.00796491 0)
(0.00153453 -0.00704136 0)
(0.00141535 -0.00618474 0)
(0.00131164 -0.0053871 0)
(0.00122225 -0.00464093 0)
(0.00114616 -0.00393906 0)
(0.0010825 -0.00327481 0)
(0.00103055 -0.00264236 0)
(0.000989766 -0.00203848 0)
(0.000959724 -0.0014681 0)
(0.000939246 -0.000959526 0)
(0.000925915 -0.000598935 0)
(0.00514934 -0.0184426 0)
(0.00467466 -0.0166888 0)
(0.00424682 -0.0150775 0)
(0.00386106 -0.0135969 0)
(0.00351363 -0.0122361 0)
(0.00320138 -0.0109853 0)
(0.00292159 -0.00983479 0)
(0.00267183 -0.00877538 0)
(0.00244989 -0.00779814 0)
(0.00225372 -0.0068945 0)
(0.00208144 -0.00605629 0)
(0.00193131 -0.00527573 0)
(0.00180177 -0.00454541 0)
(0.00169145 -0.00385836 0)
(0.00159914 -0.00320806 0)
(0.00152384 -0.00258883 0)
(0.0014648 -0.00199757 0)
(0.00142135 -0.00143915 0)
(0.00139166 -0.000941206 0)
(0.00137198 -0.000587979 0)
(0.00678586 -0.0179104 0)
(0.00618046 -0.0162095 0)
(0.00563005 -0.0146442 0)
(0.00513081 -0.0132052 0)
(0.00467896 -0.0118829 0)
(0.00427115 -0.0106677 0)
(0.00390447 -0.00955023 0)
(0.00357621 -0.00852156 0)
(0.00328383 -0.00757291 0)
(0.00302493 -0.00669585 0)
(0.00279721 -0.00588235 0)
(0.00259857 -0.00512477 0)
(0.00242704 -0.0044159 0)
(0.00228088 -0.00374893 0)
(0.00215856 -0.00311755 0)
(0.0020588 -0.00251629 0)
(0.00198057 -0.00194216 0)
(0.00192299 -0.00139989 0)
(0.00188353 -0.000916211 0)
(0.00185719 -0.000572743 0)
(0.00840133 -0.0172532 0)
(0.00766821 -0.0156114 0)
(0.00699853 -0.0141002 0)
(0.00638841 -0.0127113 0)
(0.00583412 -0.0114357 0)
(0.00533231 -0.0102642 0)
(0.00488002 -0.00918776 0)
(0.00447438 -0.00819756 0)
(0.00411259 -0.00728492 0)
(0.00379188 -0.00644151 0)
(0.0035096 -0.00565943 0)
(0.00326323 -0.00493117 0)
(0.00305041 -0.00424972 0)
(0.00286904 -0.00360849 0)
(0.00271723 -0.00300138 0)
(0.0025934 -0.00242316 0)
(0.00249626 -0.00187099 0)
(0.00242466 -0.00134937 0)
(0.00237546 -0.00088389 0)
(0.00234245 -0.00055294 0)
(0.00996155 -0.0164755 0)
(0.00910693 -0.0149002 0)
(0.0083224 -0.0134505 0)
(0.0076048 -0.012119 0)
(0.00695085 -0.0108977 0)
(0.00635754 -0.00977765 0)
(0.00582196 -0.00874996 0)
(0.00534117 -0.00780575 0)
(0.00491212 -0.00693636 0)
(0.00453169 -0.00613351 0)
(0.00419682 -0.00538936 0)
(0.00390454 -0.00469658 0)
(0.00365209 -0.00404833 0)
(0.00343695 -0.00343827 0)
(0.00325688 -0.00286056 0)
(0.00310998 -0.00231023 0)
(0.00299465 -0.00178459 0)
(0.00290951 -0.0012879 0)
(0.00285085 -0.000844399 0)
(0.00281131 -0.000528655 0)
(0.0114559 -0.0155842 0)
(0.0104849 -0.0140809 0)
(0.00958939 -0.0126986 0)
(0.00876737 -0.0114315 0)
(0.00801646 -0.0102718 0)
(0.00733417 -0.00921076 0)
(0.00671787 -0.00823941 0)
(0.00616455 -0.00734866 0)
(0.00567087 -0.00652972 0)
(0.00523333 -0.00577423 0)
(0.00484838 -0.00507441 0)
(0.00451256 -0.00442307 0)
(0.00422262 -0.00381358 0)
(0.00397561 -0.00323987 0)
(0.0037689 -0.00269642 0)
(0.00360023 -0.00217855 0)
(0.00346772 -0.00168374 0)
(0.00336976 -0.00121598 0)
(0.00330207 -0.000798022 0)
(0.00325628 -0.000500053 0)
(0.0128788 -0.014585 0)
(0.0117958 -0.0131574 0)
(0.0107925 -0.0118477 0)
(0.00986839 -0.0106512 0)
(0.00902269 -0.00956019 0)
(0.00825378 -0.00856585 0)
(0.00755937 -0.00765859 0)
(0.00693637 -0.00682889 0)
(0.00638108 -0.00606761 0)
(0.00588947 -0.00536625 0)
(0.0054574 -0.00471703 0)
(0.00508083 -0.00411291 0)
(0.00475596 -0.00354752 0)
(0.00447934 -0.00301509 0)
(0.00424791 -0.00251046 0)
(0.00405907 -0.00202932 0)
(0.00391063 -0.00156933 0)
(0.00380072 -0.00113423 0)
(0.0037246 -0.000745128 0)
(0.00367294 -0.000467354 0)
(0.0142279 -0.0134826 0)
(0.013036 -0.0121326 0)
(0.0119264 -0.0108997 0)
(0.0109014 -0.00977972 0)
(0.00996233 -0.00876483 0)
(0.00910881 -0.00784516 0)
(0.00833892 -0.00701011 0)
(0.00764937 -0.0062493 0)
(0.0070359 -0.00555305 0)
(0.00649377 -0.00491259 0)
(0.00601806 -0.00432014 0)
(0.00560402 -0.00376882 0)
(0.00524719 -0.00325257 0)
(0.00494359 -0.00276604 0)
(0.00468971 -0.00230447 0)
(0.00448255 -0.00186396 0)
(0.00431963 -0.00144244 0)
(0.00419885 -0.00104339 0)
(0.00411503 -0.000686193 0)
(0.00405797 -0.000430849 0)
(0.0155037 -0.0122806 0)
(0.0142035 -0.0110079 0)
(0.0129867 -0.009855 0)
(0.0118601 -0.00881776 0)
(0.010828 -0.00788698 0)
(0.00989142 -0.00705077 0)
(0.0090488 -0.00629675 0)
(0.00829626 -0.00561317 0)
(0.00762865 -0.00498956 0)
(0.00704017 -0.0044168 0)
(0.00652491 -0.00388713 0)
(0.00607721 -0.00339394 0)
(0.0056919 -0.00293157 0)
(0.00536436 -0.00249516 0)
(0.0050906 -0.0020805 0)
(0.00486724 -0.00168415 0)
(0.00469152 -0.00130436 0)
(0.0045611 -0.000944384 0)
(0.00447044 -0.000621798 0)
(0.00440855 -0.000390893 0)
(0.0167098 -0.0109801 0)
(0.0152976 -0.00978161 0)
(0.0139691 -0.00871161 0)
(0.0127375 -0.00776428 0)
(0.0116113 -0.00692713 0)
(0.0105929 -0.00618469 0)
(0.00968065 -0.00552165 0)
(0.0088694 -0.00492436 0)
(0.00815251 -0.00438131 0)
(0.0075227 -0.00388307 0)
(0.00697273 -0.00342201 0)
(0.00649587 -0.00299193 0)
(0.00608606 -0.00258776 0)
(0.00573805 -0.00220527 0)
(0.00544734 -0.00184089 0)
(0.00521018 -0.00149176 0)
(0.00502352 -0.00115652 0)
(0.00488487 -0.000838235 0)
(0.00478832 -0.00055261 0)
(0.00472226 -0.000347896 0)
(0.0178541 -0.00957773 0)
(0.0163192 -0.00844755 0)
(0.0148685 -0.00746397 0)
(0.0135251 -0.00661614 0)
(0.012302 -0.005885 0)
(0.0112031 -0.00524903 0)
(0.0102251 -0.00468861 0)
(0.00936057 -0.00418761 0)
(0.00860052 -0.00373342 0)
(0.00793552 -0.00331646 0)
(0.00735664 -0.0029295 0)
(0.00685584 -0.00256705 0)
(0.00642613 -0.00222486 0)
(0.00606155 -0.00189953 0)
(0.00575715 -0.00158825 0)
(0.00550882 -0.00128889 0)
(0.0053133 -0.00100054 0)
(0.00516793 -0.000726096 0)
(0.00506655 -0.000479377 0)
(0.00499704 -0.000302315 0)
(0.0189495 -0.0080632 0)
(0.0172696 -0.00699234 0)
(0.0156778 -0.00610137 0)
(0.0142109 -0.00536755 0)
(0.0128871 -0.00475967 0)
(0.0117095 -0.00424656 0)
(0.0106713 -0.00380269 0)
(0.0097609 -0.00340907 0)
(0.00896559 -0.00305228 0)
(0.00827303 -0.00272309 0)
(0.00767218 -0.0024152 0)
(0.00715353 -0.00212423 0)
(0.0067091 -0.00184709 0)
(0.00633231 -0.00158145 0)
(0.00601778 -0.00132547 0)
(0.00576115 -0.00107782 0)
(0.00555898 -0.000838148 0)
(0.00540852 -0.000609214 0)
(0.00530345 -0.000402912 0)
(0.00523125 -0.000254646 0)
(0.0200153 -0.00641382 0)
(0.0181486 -0.00539136 0)
(0.0163843 -0.00460588 0)
(0.014777 -0.00400979 0)
(0.0133481 -0.00355039 0)
(0.0120963 -0.0031818 0)
(0.0110067 -0.00287115 0)
(0.0100609 -0.002597 0)
(0.00924076 -0.00234607 0)
(0.00853013 -0.00211049 0)
(0.00791558 -0.00188569 0)
(0.00738607 -0.00166908 0)
(0.00693274 -0.00145914 0)
(0.00654847 -0.00125489 0)
(0.00622763 -0.00105566 0)
(0.0059657 -0.000861009 0)
(0.0057592 -0.000671201 0)
(0.00560535 -0.000488908 0)
(0.00549776 -0.00032407 0)
(0.00542367 -0.000205408 0)
(0.0210717 -0.0045872 0)
(0.018946 -0.00360371 0)
(0.0169628 -0.00295077 0)
(0.0151944 -0.00253224 0)
(0.0136593 -0.0022586 0)
(0.0123433 -0.002063 0)
(0.0112171 -0.00190507 0)
(0.010251 -0.00176283 0)
(0.00941967 -0.00162533 0)
(0.00870273 -0.0014878 0)
(0.00808417 -0.00134867 0)
(0.00755166 -0.00120792 0)
(0.0070957 -0.00106613 0)
(0.00670897 -0.000923975 0)
(0.00638576 -0.000782066 0)
(0.00612162 -0.000640971 0)
(0.00591314 -0.000501597 0)
(0.00575763 -0.000366529 0)
(0.0056487 -0.000243728 0)
(0.0055735 -0.000155121 0)
(0.0221204 -0.00250621 0)
(0.0196184 -0.00156881 0)
(0.0173598 -0.0011041 0)
(0.0154143 -0.000927982 0)
(0.0137836 -0.000892745 0)
(0.0124257 -0.000905648 0)
(0.0112868 -0.000921354 0)
(0.0103221 -0.000922114 0)
(0.00949752 -0.000903258 0)
(0.00878842 -0.000865796 0)
(0.00817685 -0.000812738 0)
(0.00764982 -0.000747565 0)
(0.0071978 -0.000673436 0)
(0.00681368 -0.000592904 0)
(0.00649205 -0.000507972 0)
(0.00622873 -0.000420231 0)
(0.00602056 -0.00033122 0)
(0.00586504 -0.000243414 0)
(0.00575593 -0.000162754 0)
(0.00568038 -0.000104279 0)
(0.0230498 -8.02923e-05 0)
(0.0200187 0.000787579 0)
(0.017459 0.000971689 0)
(0.0153561 0.000801455 0)
(0.0136704 0.00052459 0)
(0.0123147 0.00026252 0)
(0.0112017 5.46315e-05 0)
(0.0102682 -9.54697e-05 0)
(0.0094725 -0.000195669 0)
(0.00878743 -0.000256278 0)
(0.00819469 -0.000286809 0)
(0.00768181 -0.000294864 0)
(0.00724017 -0.000286336 0)
(0.00686353 -0.000265757 0)
(0.00654718 -0.000236517 0)
(0.00628751 -0.00020118 0)
(0.00608177 -0.000161853 0)
(0.0059278 -0.000120828 0)
(0.0058196 -8.19796e-05 0)
(0.00574433 -5.3307e-05 0)
(0.0234892 0.00293205 0)
(0.0197967 0.00355546 0)
(0.0170316 0.00327632 0)
(0.0148809 0.00260571 0)
(0.0132497 0.0019349 0)
(0.0119815 0.00139099 0)
(0.0109529 0.000984103 0)
(0.0100894 0.000688768 0)
(0.00934822 0.000477034 0)
(0.00870397 0.00032599 0)
(0.00814133 0.000218601 0)
(0.00765067 0.000142756 0)
(0.00722531 8.9814e-05 0)
(0.00686047 5.35211e-05 0)
(0.00655265 2.93467e-05 0)
(0.00629907 1.39674e-05 0)
(0.00609761 4.86685e-06 0)
(0.00594652 6.63724e-08 0)
(0.00584027 -2.21105e-06 0)
(0.00576578 -2.50898e-06 0)
(0.0222013 0.00609502 0)
(0.0180205 0.00640411 0)
(0.0156374 0.00556548 0)
(0.0138008 0.00428633 0)
(0.0124602 0.00320433 0)
(0.0114149 0.00239356 0)
(0.0105474 0.00181358 0)
(0.00979741 0.00139759 0)
(0.00913592 0.00109429 0)
(0.00854773 0.000867866 0)
(0.00802485 0.000694779 0)
(0.00756257 0.000559269 0)
(0.00715768 0.000450686 0)
(0.00680775 0.00036172 0)
(0.00651082 0.000287192 0)
(0.00626517 0.000223371 0)
(0.00606941 0.000167548 0)
(0.00592223 0.000118287 0)
(0.00581894 7.55921e-05 0)
(0.00574551 4.8207e-05 0)
(0.0167532 0.0104219 0)
(0.0138199 0.00932297 0)
(0.0130511 0.00753473 0)
(0.0120741 0.00555482 0)
(0.0113421 0.00416173 0)
(0.0106643 0.00317305 0)
(0.0100277 0.00249192 0)
(0.0094239 0.00200419 0)
(0.0088581 0.0016422 0)
(0.00833414 0.00136207 0)
(0.00785561 0.00113752 0)
(0.00742467 0.000951834 0)
(0.00704241 0.000794177 0)
(0.00670908 0.000657194 0)
(0.00642445 0.00053569 0)
(0.00618789 0.000425975 0)
(0.00599882 0.000325317 0)
(0.00585596 0.000233324 0)
(0.00575702 0.000150362 0)
(0.00568459 0.000100433 0)
(0.0072687 0.00784293 0)
(0.00876849 0.00877327 0)
(0.010558 0.00745127 0)
(0.0106447 0.005676 0)
(0.0105219 0.00440088 0)
(0.0101364 0.00346485 0)
(0.00966844 0.00280631 0)
(0.00916154 0.00232002 0)
(0.00865636 0.00194701 0)
(0.00817194 0.00164807 0)
(0.00772061 0.00140013 0)
(0.00730909 0.00118844 0)
(0.00694112 0.00100343 0)
(0.00661852 0.000838517 0)
(0.00634205 0.000688968 0)
(0.00611164 0.00055139 0)
(0.00592731 0.000423238 0)
(0.00578695 0.000304889 0)
(0.00569274 0.000197524 0)
(0.00561943 0.000129948 0)
(0.00455184 0.00596319 0)
(0.00700736 0.00812073 0)
(0.00955608 0.00717015 0)
(0.0100532 0.00562362 0)
(0.0101751 0.00444945 0)
(0.00991 0.00356511 0)
(0.00951202 0.0029294 0)
(0.00904534 0.00245059 0)
(0.00856547 0.00207625 0)
(0.00809767 0.00177101 0)
(0.00765788 0.0015139 0)
(0.00725469 0.00129144 0)
(0.00689291 0.00109481 0)
(0.00657502 0.000917871 0)
(0.00630217 0.000756148 0)
(0.0060745 0.000606407 0)
(0.0058923 0.00046625 0)
(0.00575315 0.000336256 0)
(0.00566082 0.000218701 0)
(0.00558741 0.00014179 0)
(0.00286101 0.00458371 0)
(0.0057104 0.00729363 0)
(0.00871253 0.00673588 0)
(0.00953345 0.00548789 0)
(0.00985781 0.00445082 0)
(0.0096975 0.0036404 0)
(0.00936135 0.00303812 0)
(0.00893083 0.00257255 0)
(0.00847401 0.00219996 0)
(0.00802159 0.0018902 0)
(0.00759265 0.00162501 0)
(0.00719739 0.00139249 0)
(0.00684162 0.00118471 0)
(0.00652834 0.000996085 0)
(0.00625906 0.000822451 0)
(0.00603415 0.000660749 0)
(0.0058541 0.000508782 0)
(0.00571627 0.000367214 0)
(0.00562556 0.000239758 0)
(0.00555238 0.000153288 0)
(0.00184474 0.00362911 0)
(0.00479849 0.00641379 0)
(0.00804612 0.00621896 0)
(0.00909988 0.00529136 0)
(0.0095782 0.00441605 0)
(0.00950302 0.00369529 0)
(0.00921846 0.00313483 0)
(0.00881907 0.00268712 0)
(0.00838257 0.00231883 0)
(0.00794403 0.00200605 0)
(0.00752511 0.0017337 0)
(0.00713734 0.00149172 0)
(0.00678732 0.00127323 0)
(0.00647853 0.00107322 0)
(0.0062128 0.000887913 0)
(0.00599064 0.000714442 0)
(0.00581274 0.000550837 0)
(0.00567633 0.000397805 0)
(0.00558704 0.000260517 0)
(0.00551431 0.000164844 0)
(0.00129172 0.00288015 0)
(0.00421515 0.00552149 0)
(0.00756185 0.00565602 0)
(0.00876014 0.00505301 0)
(0.00934196 0.00435454 0)
(0.00932958 0.00373415 0)
(0.00908492 0.00322171 0)
(0.00871088 0.00279542 0)
(0.0082916 0.00243347 0)
(0.00786528 0.0021189 0)
(0.00745543 0.00184016 0)
(0.00707463 0.00158925 0)
(0.00673009 0.0013604 0)
(0.00642567 0.0011493 0)
(0.00616341 0.000952543 0)
(0.005944 0.000767487 0)
(0.00576825 0.000592404 0)
(0.00563336 0.000428038 0)
(0.00554533 0.000280989 0)
(0.00547321 0.000176395 0)
(0.00108702 0.00222495 0)
(0.00392252 0.00463708 0)
(0.00725813 0.00507333 0)
(0.00851747 0.00479088 0)
(0.00915235 0.0042758 0)
(0.00917915 0.00376166 0)
(0.00896183 0.00330113 0)
(0.0086069 0.00289866 0)
(0.00820146 0.00254453 0)
(0.00778554 0.00222908 0)
(0.00738376 0.00194459 0)
(0.00700938 0.00168517 0)
(0.00667002 0.0014463 0)
(0.00636981 0.00122435 0)
(0.00611096 0.00101635 0)
(0.00589428 0.000819882 0)
(0.00572067 0.000633477 0)
(0.00558737 0.000457909 0)
(0.00550048 0.000301203 0)
(0.00542911 0.000187859 0)
(0.00118711 0.00159574 0)
(0.00389874 0.00377608 0)
(0.00712972 0.00449456 0)
(0.00837154 0.00452251 0)
(0.00901038 0.00418949 0)
(0.00905261 0.00378276 0)
(0.00884978 0.00337561 0)
(0.00850751 0.00299817 0)
(0.00811241 0.0026527 0)
(0.00770498 0.00233701 0)
(0.00731022 0.00204719 0)
(0.00694167 0.00177961 0)
(0.00660717 0.00153097 0)
(0.006311 0.0012984 0)
(0.00605549 0.00107934 0)
(0.00584151 0.000871628 0)
(0.00567002 0.000674049 0)
(0.00553839 0.000487415 0)
(0.00545252 0.000321178 0)
(0.00538202 0.000199189 0)
(0.00161268 0.000929025 0)
(0.00413852 0.0029537 0)
(0.00716911 0.00394199 0)