/*--------------------------------*- C++ -*----------------------------------*\
| =========                 |                                                 |
| \\      /  F ield         | OpenFOAM: The Open Source CFD Toolbox           |
|  \\    /   O peration     | Version:  v1806                                 |
|   \\  /    A nd           | Web:      www.OpenFOAM.com                      |
|    \\/     M anipulation  |                                                 |
\*---------------------------------------------------------------------------*/
FoamFile
{
    version     2.0;
    format      ascii;
    class       volScalarField;
    location    "8";
    object      p;
}
// * * * * * * * * * * * * * * * * * * * * * * * * * * * * * * * * * * * * * //

dimensions      [0 2 -2 0 0 0 0];


internalField   nonuniform List<scalar> 
24000
(
16.1329
15.2093
14.6322
14.2052
13.8062
13.4304
13.0831
12.7608
12.4551
12.158
11.8635
11.5672
11.266
10.958
10.6421
10.3177
9.9852
9.64539
9.29978
8.95062
15.9096
15.1388
14.6065
14.1914
13.8015
13.4303
13.0839
12.7614
12.4561
12.1602
11.8673
11.5727
11.2729
10.9656
10.6497
10.3248
9.99104
9.64944
9.30151
8.94966
15.8532
15.1215
14.6047
14.1944
13.8086
13.4412
13.0976
12.777
12.4734
12.1792
11.888
11.5948
11.2958
10.9887
10.672
10.3453
10.0087
9.66312
9.31028
8.95275
15.7942
15.0882
14.5898
14.1899
13.8108
13.4488
13.1099
12.7936
12.4934
12.2024
11.9138
11.6228
11.3251
11.0183
10.7007
10.3715
10.0308
9.67971
9.31989
8.95418
15.7653
15.0754
14.5891
14.1971
13.8233
13.4659
13.131
12.8186
12.5219
12.2343
11.9485
11.6598
11.3634
11.0567
10.7376
10.4051
10.0592
9.70066
9.33157
8.95503
15.7497
15.0698
14.5903
14.2048
13.8367
13.485
13.1551
12.8479
12.5556
12.2724
11.9901
11.7044
11.4095
11.1032
10.7822
10.4459
10.0934
9.72573
9.3449
8.95448
15.7451
15.0745
14.599
14.2195
13.8563
13.5104
13.1853
12.8838
12.5961
12.3185
12.0399
11.7582
11.465
11.1597
10.8364
10.4959
10.1353
9.75658
9.36105
8.95303
15.7483
15.0878
14.6131
14.2395
13.8804
13.541
13.2204
12.926
12.643
12.3724
12.0978
11.8218
11.5302
11.2272
10.9011
10.5569
10.1862
9.79463
9.38068
8.95064
15.7576
15.1085
14.6323
14.2647
13.9089
13.577
13.2604
12.9748
12.6962
12.435
12.164
11.8965
11.6059
11.3082
10.9778
10.6318
10.2478
9.84288
9.40492
8.94792
15.772
15.1348
14.6557
14.2946
13.9414
13.6181
13.3047
13.03
12.755
12.5062
12.238
11.9829
11.6924
11.4046
11.0675
10.7243
10.3215
9.90591
9.43413
8.94602
15.7907
15.1645
14.6828
14.3281
13.977
13.6631
13.3527
13.0903
12.8189
12.585
12.3194
12.0808
11.7896
11.5173
11.1711
10.8378
10.4085
9.99021
9.46761
8.94944
15.8129
15.1955
14.7125
14.3635
14.0149
13.7104
13.4035
13.1539
12.8868
12.6692
12.4073
12.1881
11.8973
11.6453
11.2903
10.9739
10.5119
10.1022
9.50412
8.96889
15.8383
15.2257
14.7427
14.3997
14.054
13.7584
13.4557
13.2186
12.9573
12.7561
12.5003
12.3009
12.0146
11.7848
11.4268
11.1316
10.6406
10.2498
9.54769
9.02337
15.8674
15.2535
14.7726
14.4363
14.0937
13.8064
13.5086
13.2834
13.0292
12.8438
12.597
12.4163
12.1389
11.9289
11.5781
11.3022
10.8
10.4382
9.62377
9.14807
15.9028
15.2778
14.8023
14.4732
14.1356
13.8549
13.5638
13.3495
13.1046
12.9343
12.6984
12.5363
12.2699
12.0748
11.7364
11.46
10.9695
10.6253
9.76473
9.37463
15.9471
15.2982
14.8342
14.5099
14.183
13.9047
13.6269
13.4181
13.1919
13.0311
12.8173
12.6681
12.4199
12.2376
11.9
11.6015
11.1361
10.633
9.7469
9.58573
15.9959
15.314
14.8709
14.5443
14.2358
13.9535
13.6993
13.4863
13.2941
13.1291
12.9616
12.8067
12.6155
12.4229
12.1275
11.7971
11.2869
10.5761
9.7274
9.02703
16.0409
15.3253
14.9103
14.5761
14.2924
13.9971
13.7764
13.5514
13.406
13.2268
13.1238
12.9531
12.8491
12.6384
12.4451
12.0861
11.5901
10.7605
9.7087
7.76238
16.0691
15.3396
14.9453
14.6106
14.3433
14.0407
13.8497
13.6192
13.5159
13.3328
13.2912
13.1219
13.1071
12.9093
12.8445
12.5083
12.1308
11.2185
9.34822
6.57749
16.0917
15.3473
14.9777
14.6385
14.39
14.0787
13.9206
13.6821
13.6279
13.4395
13.4732
13.3057
13.4101
13.2256
13.3668
13.0401
13.0716
11.9232
10.3773
7.94833
15.8749
15.1708
14.6258
14.2043
13.8134
13.4412
13.0926
12.7677
12.4599
12.1613
11.8656
11.5684
11.2666
10.9583
10.6421
10.3177
9.98521
9.64556
9.30017
8.95127
15.654
15.1065
14.6095
14.1937
13.8098
13.4428
13.0957
12.7706
12.4631
12.1657
11.8715
11.5757
11.275
10.9671
10.6508
10.3257
9.99196
9.65039
9.30254
8.95078
15.5976
15.09
14.6095
14.1978
13.8171
13.4538
13.1098
12.7869
12.4812
12.1855
11.8931
11.5989
11.299
10.9911
10.674
10.347
10.0102
9.66462
9.31173
8.95412
15.5379
15.0559
14.5945
14.1935
13.8192
13.4613
13.122
12.8034
12.5011
12.2086
11.919
11.6269
11.3284
11.021
10.7029
10.3734
10.0326
9.68132
9.32139
8.95554
15.5085
15.0428
14.5938
14.2009
13.832
13.4786
13.1434
12.8286
12.5298
12.2406
11.9537
11.664
11.3668
11.0594
10.7399
10.4071
10.061
9.70236
9.33317
8.95649
15.4925
15.037
14.5948
14.2086
13.8451
13.4976
13.1674
12.8578
12.5634
12.2787
11.9952
11.7085
11.4128
11.1059
10.7845
10.4479
10.0953
9.72745
9.34659
8.95603
15.4875
15.0418
14.6032
14.2232
13.8647
13.5231
13.1975
12.8939
12.6039
12.3249
12.045
11.7624
11.4683
11.1624
10.8388
10.4979
10.1373
9.75831
9.36289
8.95471
15.4903
15.0552
14.617
14.243
13.8887
13.5539
13.2324
12.9362
12.6506
12.3791
12.1027
11.8261
11.5333
11.23
10.9034
10.5588
10.1883
9.79624
9.3828
8.9524
15.4995
15.0764
14.6356
14.2682
13.9171
13.5903
13.272
12.9852
12.7035
12.4421
12.1685
11.9013
11.6086
11.3115
10.9796
10.634
10.2499
9.84426
9.40769
8.94964
15.5139
15.1032
14.6583
14.2983
13.9495
13.6317
13.3159
13.0408
12.7622
12.5139
12.2422
11.9885
11.6943
11.409
11.0683
10.7276
10.3229
9.90725
9.43784
8.94738
15.5328
15.1334
14.6845
14.332
13.985
13.6771
13.3636
13.1016
12.8259
12.5935
12.3232
12.0877
11.7907
11.5237
11.1701
10.8435
10.4075
9.99258
9.47154
8.9492
15.5554
15.1646
14.7131
14.3677
14.023
13.7247
13.4142
13.1656
12.8938
12.6786
12.411
12.1964
11.8979
11.6543
11.2872
10.983
10.5059
10.1068
9.50464
8.96495
15.5809
15.1949
14.7424
14.4039
14.0619
13.7725
13.4662
13.2303
12.9643
12.7657
12.5041
12.3102
12.0153
11.7962
11.4223
11.145
10.6276
10.2567
9.53887
9.01078
15.6099
15.2221
14.772
14.4397
14.1013
13.8195
13.5188
13.2937
13.0357
12.8515
12.6007
12.4232
12.1396
11.9394
11.574
11.3206
10.7812
10.4469
9.59596
9.11026
15.6456
15.2449
14.8025
14.4749
14.1433
13.8661
13.5747
13.3564
13.1116
12.9356
12.702
12.5337
12.2694
12.0745
11.7283
11.4754
10.9498
10.6511
9.68866
9.26856
15.691
15.263
14.8361
14.5098
14.1912
13.9141
13.6396
13.4224
13.2018
13.0283
12.8263
12.6555
12.4244
12.213
11.8866
11.5885
11.073
10.7186
9.64512
9.34673
15.7415
15.2766
14.8732
14.5438
14.2445
13.9626
13.7123
13.4914
13.3045
13.1294
12.9719
12.8008
12.6279
12.4048
12.129
11.7557
11.2041
10.5795
9.49087
8.81528
15.7882
15.2866
14.9097
14.5771
14.3021
14.0063
13.7882
13.5579
13.4144
13.2296
13.1281
12.9511
12.8517
12.6294
12.4529
12.0636
11.5619
10.6859
9.23835
7.38195
15.8137
15.3018
14.9437
14.6129
14.3522
14.0515
13.8588
13.6284
13.5197
13.3396
13.2871
13.1257
13.092
12.9058
12.8148
12.4803
12.108
11.0876
9.00411
5.77688
15.8341
15.3088
14.9759
14.6397
14.3995
14.0884
13.9293
13.6895
13.6313
13.4427
13.4687
13.3035
13.3957
13.2178
13.3371
13.0305
12.9997
11.8593
10.1783
7.22666
15.7702
15.1619
14.636
14.2111
13.8258
13.4569
13.1061
12.7766
12.4652
12.1646
11.8678
11.5697
11.2672
10.9584
10.642
10.3174
9.98491
9.64523
9.29987
8.95104
15.5524
15.1022
14.6242
14.2047
13.8241
13.4608
13.1129
12.7839
12.4724
12.1722
11.8762
11.5791
11.2773
10.9687
10.652
10.3266
9.99259
9.65096
9.30311
8.95135
15.4966
15.0861
14.6254
14.2101
13.8317
13.472
13.1277
12.8011
12.4912
12.1927
11.8986
11.6031
11.3023
10.9937
10.6759
10.3485
10.0116
9.66586
9.31291
8.95522
15.4367
15.0517
14.6107
14.2064
13.8339
13.4795
13.14
12.8177
12.5115
12.2161
11.9247
11.6314
11.332
11.0237
10.705
10.3752
10.0342
9.68282
9.3228
8.95682
15.4071
15.0383
14.6101
14.2142
13.8469
13.497
13.1617
12.8433
12.5403
12.2481
11.9595
11.6685
11.3703
11.0622
10.7421
10.409
10.0627
9.70396
9.33467
8.95786
15.391
15.0325
14.6108
14.2217
13.8599
13.5159
13.1855
12.8725
12.5739
12.2862
12.001
11.7129
11.4164
11.1086
10.7868
10.4497
10.097
9.72904
9.34809
8.95742
15.3858
15.0373
14.6187
14.2362
13.8794
13.5418
13.2156
12.9085
12.6144
12.3325
12.0507
11.7668
11.4718
11.1649
10.8411
10.4996
10.139
9.75981
9.36433
8.95607
15.3886
15.0512
14.6318
14.2558
13.9034
13.5731
13.2502
12.9508
12.6609
12.3868
12.1083
11.8304
11.5367
11.2323
10.9057
10.5601
10.19
9.7974
9.38414
8.95362
15.3979
15.0728
14.6496
14.2809
13.9318
13.6102
13.2894
13.0001
12.7134
12.4502
12.1739
11.9057
11.6116
11.3136
10.9818
10.6345
10.2518
9.84443
9.40907
8.95044
15.4127
15.0998
14.6714
14.311
13.9641
13.6525
13.3327
13.056
12.7713
12.5227
12.2468
11.9936
11.6965
11.4113
11.0697
10.7271
10.3248
9.90481
9.4397
8.94681
15.4321
15.1299
14.6968
14.345
13.9996
13.6985
13.3796
13.1173
12.8342
12.6031
12.3266
12.0935
11.791
11.5265
11.1694
10.8429
10.408
9.98599
9.47426
8.94396
15.4552
15.1608
14.7247
14.3809
14.0375
13.7466
13.4297
13.1818
12.9015
12.6886
12.4133
12.2026
11.8957
11.6576
11.2821
10.9831
10.5019
10.0968
9.50613
8.94718
15.4808
15.1906
14.7538
14.417
14.0765
13.7947
13.4818
13.2467
12.9721
12.776
12.5059
12.3162
12.011
11.7987
11.4115
11.1441
10.6133
10.2419
9.53131
8.97056
15.5092
15.2171
14.7837
14.4515
14.1159
13.841
13.5351
13.3098
13.0445
12.862
12.6034
12.4298
12.1357
11.9417
11.5579
11.3142
10.749
10.4186
9.55776
9.03014
15.5443
15.2381
14.8155
14.4841
14.1574
13.8846
13.5914
13.37
13.1205
12.9453
12.7056
12.5413
12.2678
12.0814
11.7136
11.4725
10.9008
10.5891
9.58786
9.11981
15.5912
15.2532
14.8511
14.5163
14.2053
13.9284
13.6562
13.4317
13.2097
13.0309
12.8257
12.6575
12.4166
12.2237
11.8729
11.6142
11.0233
10.666
9.53664
9.10303
15.6458
15.2646
14.8884
14.5506
14.2601
13.9758
13.7291
13.5003
13.3126
13.131
12.969
12.7987
12.6085
12.4024
12.0913
11.7717
11.151
10.6339
9.37852
8.63235
15.6944
15.2758
14.9226
14.5862
14.3183
14.0222
13.8058
13.5698
13.4253
13.2373
13.1309
12.9583
12.8364
12.6364
12.388
12.0531
11.4278
10.6537
9.19158
7.54411
15.7189
15.2925
14.954
14.6247
14.3665
14.0717
13.8728
13.6441
13.526
13.3511
13.2857
13.1325
13.0786
12.9029
12.7694
12.4428
11.9135
10.9775
8.94051
5.89584
15.7346
15.2995
14.9838
14.6515
14.4135
14.109
13.9429
13.7048
13.6369
13.4511
13.4657
13.2987
13.3855
13.1803
13.3131
12.921
12.9251
11.7857
10.166
6.53476
15.69
15.1456
14.6377
14.2134
13.8322
13.4667
13.1155
12.7834
12.4697
12.1678
11.8701
11.5714
11.2683
10.9591
10.6424
10.3177
9.98508
9.64539
9.30004
8.95125
15.4735
15.0864
14.6282
14.2101
13.8314
13.4714
13.1242
12.7932
12.4793
12.1775
11.8805
11.5826
11.28
10.9707
10.6537
10.328
9.99387
9.65209
9.30416
8.95238
15.418
15.0703
14.6303
14.2165
13.8391
13.4827
13.1395
12.811
12.4986
12.1984
11.9033
11.6071
11.3056
10.9965
10.6782
10.3504
10.0133
9.66749
9.31445
8.95666
15.358
15.0357
14.6159
14.2132
13.8416
13.4903
13.152
12.8279
12.5191
12.2219
11.9296
11.6356
11.3355
11.0266
10.7075
10.3773
10.0361
9.68468
9.32454
8.95842
15.3284
15.0222
14.6154
14.2213
13.8548
13.508
13.1738
12.8537
12.5481
12.2541
11.9645
11.6728
11.374
11.0652
10.7447
10.4112
10.0648
9.7059
9.33648
8.95952
15.3122
15.0162
14.6159
14.2288
13.8677
13.5269
13.1976
12.8828
12.5817
12.2922
12.006
11.7172
11.42
11.1115
10.7893
10.4519
10.099
9.73097
9.34988
8.95909
15.307
15.021
14.6235
14.2433
13.8873
13.553
13.2276
12.9188
12.6222
12.3385
12.0558
11.7709
11.4755
11.1677
10.8436
10.5017
10.1411
9.76167
9.36605
8.95772
15.3099
15.035
14.6362
14.2627
13.9113
13.5848
13.2621
12.9611
12.6685
12.3929
12.1134
11.8345
11.5404
11.2348
10.9083
10.5618
10.1921
9.799
9.38567
8.95518
15.3193
15.0566
14.6535
14.2875
13.9396
13.6225
13.3009
13.0105
12.7206
12.4568
12.1787
11.9099
11.6152
11.3157
10.9847
10.6353
10.2541
9.84524
9.41041
8.95173
15.3344
15.0835
14.6749
14.3175
13.9718
13.6655
13.3435
13.0669
12.7778
12.53
12.2507
11.9983
11.6991
11.4135
11.0725
10.7267
10.3278
9.90329
9.44115
8.94708
15.3543
15.1131
14.7
14.3515
14.0072
13.7121
13.3897
13.1286
12.8398
12.6112
12.3291
12.0992
11.7917
11.5299
11.1708
10.8422
10.4116
9.97999
9.47675
8.94078
15.3779
15.1435
14.7278
14.3874
14.0451
13.7602
13.4392
13.1931
12.9062
12.6972
12.414
12.2093
11.8935
11.6632
11.2801
10.9843
10.5042
10.0872
9.51146
8.93414
15.4043
15.1726
14.7573
14.4229
14.0843
13.8081
13.4915
13.258
12.9766
12.7844
12.5055
12.3234
12.0054
11.8064
11.4037
11.1488
10.6082
10.2308
9.53799
8.93871
15.4335
15.1983
14.7882
14.4562
14.1245
13.8535
13.5461
13.3203
13.0506
12.8699
12.6038
12.437
12.1286
11.951
11.5429
11.3222
10.7291
10.4043
9.55296
8.96998
15.4692
15.2171
14.8221
14.4866
14.1666
13.8946
13.6043
13.3784
13.1287
12.9518
12.71
12.5483
12.2651
12.0925
11.6971
11.486
10.8604
10.5716
9.54595
9.01847
15.5172
15.228
14.8592
14.517
14.215
13.934
13.6706
13.4366
13.2199
13.0339
12.8332
12.6618
12.421
12.2342
11.8681
11.6322
10.9821
10.6623
9.46116
8.95306
15.5737
15.2391
14.8954
14.5503
14.2718
13.9793
13.7447
13.5024
13.326
13.1309
12.9821
12.7993
12.6234
12.4043
12.1065
11.7804
11.1365
10.647
9.29563
8.56613
15.6223
15.2555
14.9272
14.5891
14.329
14.0309
13.8205
13.577
13.4384
13.242
13.1456
12.9622
12.8571
12.6382
12.4237
12.036
11.4577
10.6268
9.19429
7.79461
15.6434
15.2782
14.9546
14.6331
14.3734
14.0887
13.8828
13.6617
13.5338
13.3683
13.2918
13.1475
13.0853
12.9037
12.7716
12.3772
11.9344
10.7874
9.17146
6.41653
15.6524
15.2876
14.9807
14.6612
14.4164
14.1288
13.9474
13.7256
13.6379
13.4713
13.4623
13.3157
13.3745
13.1774
13.2904
12.8353
12.9046
11.5266
10.8666
5.84775
15.6513
15.1378
14.6398
14.2155
13.8357
13.4719
13.1209
12.7876
12.4724
12.1697
11.8715
11.5724
11.269
10.9596
10.6427
10.3179
9.9853
9.64559
9.30025
8.95146
15.4353
15.0789
14.6316
14.2141
13.8355
13.477
13.1305
12.7986
12.4833
12.1805
11.883
11.5846
11.2816
10.972
10.6547
10.3289
9.9947
9.65283
9.30485
8.95304
15.3801
15.0629
14.6343
14.2209
13.8433
13.4884
13.146
12.8168
12.503
12.2017
11.9061
11.6094
11.3075
10.998
10.6795
10.3515
10.0143
9.66842
9.31534
8.95748
15.3201
15.0281
14.6201
14.2178
13.8459
13.496
13.1585
12.8338
12.5236
12.2254
11.9325
11.6381
11.3376
11.0283
10.7088
10.3785
10.0372
9.68571
9.32551
8.95931
15.2905
15.0145
14.6196
14.226
13.8592
13.5138
13.1804
12.8597
12.5528
12.2576
11.9674
11.6752
11.376
11.0669
10.7461
10.4125
10.0659
9.70697
9.33747
8.96043
15.2742
15.0085
14.62
14.2336
13.8722
13.5327
13.2042
12.8888
12.5863
12.2957
12.0089
11.7196
11.4221
11.1132
10.7908
10.4532
10.1002
9.73204
9.35087
8.96
15.269
15.0132
14.6275
14.2481
13.8918
13.5589
13.2342
12.9248
12.6268
12.3421
12.0588
11.7733
11.4775
11.1693
10.8451
10.5029
10.1422
9.76271
9.36698
8.95861
15.2718
15.0272
14.6399
14.2676
13.9158
13.5909
13.2686
12.967
12.673
12.3966
12.1164
11.8368
11.5425
11.2362
10.9098
10.5627
10.1932
9.79991
9.38648
8.95601
15.2813
15.0489
14.657
14.2923
13.944
13.6291
13.3072
13.0165
12.7249
12.4606
12.1815
11.9122
11.6172
11.3168
10.9864
10.6358
10.2553
9.84573
9.41105
8.95242
15.2965
15.0758
14.6782
14.3222
13.9761
13.6725
13.3495
13.0731
12.7817
12.5342
12.253
12.0009
11.7008
11.4146
11.0742
10.7263
10.3293
9.90254
9.44168
8.94724
15.3166
15.1052
14.7032
14.3561
14.0114
13.7193
13.3953
13.135
12.8431
12.6159
12.3306
12.1025
11.7925
11.5317
11.172
10.8415
10.4135
9.97637
9.47779
8.93904
15.3404
15.1352
14.7309
14.3918
14.0492
13.7674
13.4445
13.1996
12.909
12.7022
12.4146
12.2134
11.8929
11.6664
11.2796
10.9847
10.5052
10.0807
9.5136
8.92709
15.3672
15.1641
14.7605
14.4269
14.0886
13.8152
13.4969
13.2643
12.9793
12.7894
12.5055
12.3281
12.0038
11.811
11.4001
11.1517
10.606
10.2238
9.53882
8.92018
15.3972
15.1894
14.792
14.4596
14.1291
13.86
13.5522
13.3261
13.0541
12.8747
12.6043
12.4421
12.1268
11.9568
11.5367
11.3274
10.7199
10.398
9.54624
8.93549
15.4335
15.2074
14.8271
14.4893
14.1718
13.9002
13.612
13.3836
13.1335
12.9562
12.7131
12.5532
12.2647
12.0993
11.6908
11.4935
10.843
10.5664
9.52053
8.96678
15.4823
15.2163
14.8655
14.5192
14.2215
13.9393
13.6797
13.4414
13.2272
13.0375
12.8397
12.6663
12.4257
12.2409
11.8672
11.6413
10.9666
10.663
9.42438
8.89642
15.5396
15.227
14.9008
14.5518
14.2803
13.9835
13.7565
13.5056
13.3386
13.1329
12.9962
12.8022
12.6372
12.4096
12.1169
11.7839
11.1323
10.6549
9.27967
8.55675
15.5881
15.2456
14.9317
14.5917
14.3367
14.0366
13.8322
13.5824
13.4523
13.247
13.1656
12.9672
12.8881
12.641
12.4658
12.0358
11.4824
10.6245
9.20742
7.90638
15.6082
15.2722
14.9575
14.6394
14.3793
14.0997
13.8916
13.6738
13.5438
13.382
13.3066
13.1653
13.1112
12.925
12.8217
12.3954
12.0146
10.7569
9.31932
6.68054
15.6151
15.2836
14.9818
14.6691
14.4205
14.1421
13.9525
13.7396
13.6411
13.4864
13.4655
13.3317
13.3797
13.1899
13.3009
12.825
12.9667
11.4612
11.1918
5.43548
15.6513
15.1378
14.6398
14.2155
13.8357
13.4719
13.1209
12.7876
12.4724
12.1697
11.8715
11.5724
11.269
10.9596
10.6427
10.3179
9.9853
9.64559
9.30025
8.95146
15.4353
15.0789
14.6316
14.2141
13.8355
13.477
13.1305
12.7986
12.4833
12.1805
11.883
11.5846
11.2816
10.972
10.6547
10.3289
9.9947
9.65283
9.30485
8.95304
15.3801
15.0629
14.6343
14.2209
13.8433
13.4884
13.146
12.8168
12.503
12.2017
11.9061
11.6094
11.3075
10.998
10.6795
10.3515
10.0143
9.66842
9.31534
8.95748
15.3201
15.0281
14.6201
14.2178
13.8459
13.496
13.1585
12.8338
12.5236
12.2254
11.9325
11.6381
11.3376
11.0283
10.7088
10.3785
10.0372
9.68571
9.32551
8.95931
15.2905
15.0145
14.6196
14.226
13.8592
13.5138
13.1804
12.8597
12.5528
12.2576
11.9674
11.6752
11.376
11.0669
10.7461
10.4125
10.0659
9.70697
9.33747
8.96043
15.2742
15.0085
14.62
14.2336
13.8722
13.5327
13.2042
12.8888
12.5863
12.2957
12.0089
11.7196
11.4221
11.1132
10.7908
10.4532
10.1002
9.73204
9.35087
8.96
15.269
15.0132
14.6275
14.2481
13.8918
13.5589
13.2342
12.9248
12.6268
12.3421
12.0588
11.7733
11.4775
11.1693
10.8451
10.5029
10.1422
9.76271
9.36698
8.95861
15.2718
15.0272
14.6399
14.2676
13.9158
13.5909
13.2686
12.967
12.673
12.3966
12.1164
11.8368
11.5425
11.2362
10.9098
10.5627
10.1932
9.79991
9.38648
8.95601
15.2813
15.0489
14.657
14.2923
13.944
13.6291
13.3072
13.0165
12.7249
12.4606
12.1815
11.9122
11.6172
11.3168
10.9864
10.6358
10.2553
9.84573
9.41105
8.95242
15.2965
15.0758
14.6782
14.3222
13.9761
13.6725
13.3495
13.0731
12.7817
12.5342
12.253
12.0009
11.7008
11.4146
11.0742
10.7263
10.3293
9.90254
9.44169
8.94724
15.3166
15.1052
14.7032
14.3561
14.0114
13.7193
13.3953
13.135
12.8431
12.6159
12.3306
12.1025
11.7925
11.5317
11.172
10.8415
10.4135
9.97637
9.47779
8.93904
15.3404
15.1352
14.7309
14.3918
14.0492
13.7674
13.4445
13.1996
12.909
12.7022
12.4146
12.2134
11.8929
11.6664
11.2796
10.9847
10.5052
10.0807
9.5136
8.92709
15.3672
15.1641
14.7605
14.4269
14.0886
13.8152
13.4969
13.2643
12.9793
12.7894
12.5055
12.3281
12.0038
11.811
11.4001
11.1517
10.606
10.2238
9.53882
8.92019
15.3972
15.1894
14.792
14.4596
14.1291
13.86
13.5522
13.3261
13.0541
12.8747
12.6043
12.4421
12.1268
11.9568
11.5367
11.3274
10.7199
10.398
9.54624
8.9355
15.4335
15.2074
14.8271
14.4893
14.1718
13.9002
13.612
13.3836
13.1335
12.9562
12.7131
12.5532
12.2647
12.0993
11.6908
11.4935
10.843
10.5664
9.52053
8.96679
15.4823
15.2163
14.8655
14.5192
14.2215
13.9393
13.6797
13.4414
13.2272
13.0375
12.8397
12.6663
12.4257
12.2409
11.8672
11.6413
10.9666
10.663
9.42438
8.89644
15.5396
15.227
14.9008
14.5518
14.2803
13.9835
13.7565
13.5056
13.3386
13.1329
12.9962
12.8022
12.6372
12.4096
12.1169
11.7839
11.1323
10.6549
9.27969
8.55679
15.5881
15.2456
14.9317
14.5917
14.3367
14.0366
13.8322
13.5824
13.4523
13.247
13.1656
12.9672
12.8881
12.641
12.4658
12.0358
11.4824
10.6245
9.2074
7.90642
15.6082
15.2721
14.9575
14.6394
14.3793
14.0997
13.8916
13.6738
13.5438
13.382
13.3066
13.1653
13.1112
12.925
12.8217
12.3955
12.0147
10.7569
9.31936
6.68049
15.6151
15.2836
14.9818
14.6691
14.4205
14.1421
13.9525
13.7396
13.6411
13.4864
13.4655
13.3317
13.3798
13.1899
13.301
12.8251
12.9667
11.4614
11.1918
5.43567
15.69
15.1456
14.6377
14.2134
13.8322
13.4667
13.1155
12.7834
12.4697
12.1678
11.8701
11.5714
11.2683
10.9591
10.6424
10.3177
9.98508
9.64539
9.30004
8.95125
15.4735
15.0864
14.6282
14.2101
13.8314
13.4714
13.1242
12.7932
12.4793
12.1775
11.8805
11.5826
11.28
10.9707
10.6537
10.328
9.99387
9.65209
9.30416
8.95238
15.418
15.0703
14.6303
14.2165
13.8391
13.4827
13.1395
12.811
12.4986
12.1984
11.9033
11.6071
11.3056
10.9965
10.6782
10.3504
10.0133
9.66749
9.31445
8.95666
15.358
15.0357
14.6159
14.2132
13.8416
13.4903
13.152
12.8279
12.5191
12.2219
11.9296
11.6356
11.3355
11.0266
10.7075
10.3773
10.0361
9.68468
9.32454
8.95842
15.3284
15.0222
14.6154
14.2213
13.8548
13.508
13.1738
12.8537
12.5481
12.2541
11.9645
11.6728
11.374
11.0652
10.7447
10.4112
10.0648
9.7059
9.33648
8.95952
15.3122
15.0162
14.6159
14.2288
13.8677
13.5269
13.1976
12.8828
12.5817
12.2922
12.006
11.7172
11.42
11.1115
10.7893
10.4519
10.099
9.73097
9.34988
8.95909
15.307
15.021
14.6235
14.2433
13.8873
13.553
13.2276
12.9188
12.6222
12.3385
12.0558
11.7709
11.4755
11.1677
10.8436
10.5017
10.1411
9.76167
9.36605
8.95772
15.3099
15.035
14.6362
14.2627
13.9113
13.5848
13.2621
12.9611
12.6685
12.3929
12.1134
11.8345
11.5404
11.2348
10.9083
10.5618
10.1921
9.799
9.38567
8.95518
15.3193
15.0566
14.6535
14.2875
13.9396
13.6225
13.3009
13.0105
12.7206
12.4568
12.1787
11.9099
11.6152
11.3157
10.9847
10.6353
10.2541
9.84524
9.41041
8.95173
15.3344
15.0835
14.6749
14.3175
13.9718
13.6655
13.3435
13.0669
12.7778
12.53
12.2507
11.9983
11.6991
11.4135
11.0725
10.7267
10.3278
9.90329
9.44115
8.94708
15.3543
15.1131
14.7
14.3515
14.0072
13.7121
13.3897
13.1286
12.8398
12.6112
12.3291
12.0992
11.7917
11.5299
11.1708
10.8422
10.4116
9.98
9.47675
8.94078
15.3779
15.1435
14.7278
14.3874
14.0451
13.7602
13.4392
13.1931
12.9062
12.6972
12.414
12.2093
11.8935
11.6632
11.2801
10.9843
10.5042
10.0872
9.51146
8.93414
15.4043
15.1726
14.7573
14.4229
14.0843
13.8081
13.4915
13.258
12.9766
12.7844
12.5055
12.3233
12.0054
11.8064
11.4037
11.1488
10.6082
10.2308
9.53799
8.93872
15.4335
15.1983
14.7882
14.4562
14.1245
13.8535
13.5461
13.3203
13.0506
12.8699
12.6038
12.4369
12.1286
11.951
11.5429
11.3222
10.7291
10.4044
9.55296
8.97
15.4692
15.2171
14.8221
14.4866
14.1666
13.8946
13.6044
13.3784
13.1287
12.9518
12.71
12.5483
12.2651
12.0924
11.6971
11.486
10.8604
10.5717
9.54595
9.01851
15.5172
15.228
14.8592
14.517
14.215
13.934
13.6706
13.4366
13.2199
13.0339
12.8332
12.6618
12.421
12.2341
11.8681
11.6322
10.9821
10.6623
9.46115
8.95312
15.5737
15.2391
14.8954
14.5503
14.2718
13.9793
13.7447
13.5024
13.326
13.1309
12.9821
12.7993
12.6234
12.4043
12.1065
11.7804
11.1364
10.6471
9.29559
8.56627
15.6223
15.2555
14.9272
14.5891
14.329
14.0309
13.8205
13.577
13.4384
13.242
13.1456
12.9622
12.8571
12.6382
12.4237
12.036
11.4576
10.6267
9.19418
7.79469
15.6434
15.2782
14.9546
14.6331
14.3734
14.0887
13.8828
13.6617
13.5338
13.3683
13.2918
13.1476
13.0853
12.9037
12.7716
12.3772
11.9345
10.7874
9.17131
6.41647
15.6524
15.2876
14.9807
14.6612
14.4164
14.1288
13.9474
13.7256
13.6379
13.4713
13.4623
13.3157
13.3745
13.1774
13.2905
12.8353
12.9047
11.5268
10.8666
5.84826
15.7702
15.1619
14.636
14.2111
13.8258
13.4569
13.1061
12.7766
12.4652
12.1646
11.8678
11.5697
11.2672
10.9584
10.642
10.3174
9.98491
9.64523
9.29987
8.95104
15.5524
15.1022
14.6242
14.2047
13.8241
13.4608
13.1129
12.7839
12.4724
12.1722
11.8762
11.5791
11.2773
10.9687
10.652
10.3266
9.99259
9.65096
9.30311
8.95135
15.4966
15.0861
14.6254
14.2101
13.8317
13.472
13.1277
12.8011
12.4912
12.1927
11.8986
11.6031
11.3023
10.9937
10.6759
10.3485
10.0116
9.66586
9.31291
8.95522
15.4367
15.0517
14.6107
14.2064
13.8339
13.4795
13.14
12.8177
12.5115
12.2161
11.9247
11.6314
11.332
11.0237
10.705
10.3752
10.0342
9.68282
9.3228
8.95682
15.4071
15.0383
14.6101
14.2142
13.8469
13.497
13.1617
12.8433
12.5403
12.2481
11.9595
11.6685
11.3703
11.0622
10.7421
10.409
10.0627
9.70396
9.33467
8.95786
15.391
15.0325
14.6108
14.2217
13.8599
13.5159
13.1855
12.8725
12.5739
12.2862
12.001
11.7129
11.4164
11.1086
10.7868
10.4497
10.097
9.72904
9.34809
8.95742
15.3858
15.0373
14.6187
14.2362
13.8794
13.5418
13.2156
12.9085
12.6144
12.3325
12.0507
11.7668
11.4718
11.1649
10.8411
10.4996
10.139
9.75981
9.36433
8.95607
15.3886
15.0512
14.6318
14.2558
13.9034
13.5731
13.2502
12.9508
12.6609
12.3868
12.1083
11.8304
11.5367
11.2323
10.9057
10.5601
10.19
9.7974
9.38414
8.95362
15.3979
15.0728
14.6496
14.2809
13.9318
13.6102
13.2894
13.0001
12.7134
12.4502
12.1739
11.9057
11.6116
11.3136
10.9818
10.6345
10.2518
9.84443
9.40907
8.95044
15.4127
15.0998
14.6714
14.311
13.9641
13.6525
13.3327
13.056
12.7713
12.5227
12.2468
11.9936
11.6965
11.4113
11.0697
10.7271
10.3248
9.90482
9.43971
8.94681
15.4321
15.1299
14.6968
14.345
13.9996
13.6985
13.3796
13.1173
12.8342
12.6031
12.3266
12.0935
11.791
11.5265
11.1694
10.8429
10.408
9.986
9.47426
8.94396
15.4552
15.1608
14.7247
14.3809
14.0375
13.7466
13.4297
13.1818
12.9015
12.6886
12.4133
12.2026
11.8957
11.6576
11.2821
10.9831
10.5019
10.0968
9.50613
8.94718
15.4808
15.1906
14.7538
14.417
14.0765
13.7947
13.4818
13.2467
12.9721
12.776
12.5059
12.3162
12.011
11.7987
11.4115
11.1442
10.6133
10.2419
9.53131
8.97058
15.5092
15.2171
14.7837
14.4515
14.1159
13.841
13.5351
13.3098
13.0446
12.862
12.6034
12.4298
12.1357
11.9417
11.5578
11.3142
10.749
10.4186
9.55776
9.03017
15.5443
15.2381
14.8155
14.4841
14.1574
13.8846
13.5914
13.37
13.1205
12.9453
12.7056
12.5412
12.2678
12.0814
11.7136
11.4724
10.9008
10.5892
9.58786
9.11986
15.5912
15.2532
14.8511
14.5163
14.2053
13.9284
13.6562
13.4317
13.2097
13.0309
12.8257
12.6575
12.4165
12.2237
11.8728
11.6142
11.0233
10.666
9.53663
9.10311
15.6458
15.2646
14.8884
14.5506
14.2601
13.9758
13.7291
13.5003
13.3126
13.131
12.969
12.7987
12.6085
12.4024
12.0912
11.7716
11.1509
10.6339
9.37848
8.63248
15.6944
15.2758
14.9226
14.5862
14.3183
14.0222
13.8058
13.5698
13.4253
13.2373
13.1309
12.9583
12.8364
12.6364
12.388
12.0531
11.4277
10.6537
9.19147
7.54424
15.7189
15.2925
14.954
14.6247
14.3665
14.0717
13.8728
13.6441
13.526
13.3511
13.2857
13.1325
13.0786
12.903
12.7694
12.4428
11.9134
10.9775
8.94023
5.8959
15.7346
15.2995
14.9838
14.6515
14.4135
14.109
13.9429
13.7048
13.6369
13.4511
13.4657
13.2987
13.3855
13.1803
13.3132
12.921
12.9251
11.7858
10.166
6.53578
15.8749
15.1708
14.6258
14.2043
13.8134
13.4412
13.0926
12.7677
12.4599
12.1613
11.8656
11.5684
11.2666
10.9583
10.6421
10.3177
9.98521
9.64556
9.30017
8.95127
15.654
15.1065
14.6095
14.1937
13.8098
13.4428
13.0957
12.7706
12.4631
12.1657
11.8715
11.5757
11.275
10.9671
10.6508
10.3257
9.99196
9.65039
9.30254
8.95078
15.5976
15.09
14.6095
14.1978
13.8171
13.4538
13.1098
12.7869
12.4812
12.1855
11.8931
11.5989
11.299
10.9911
10.674
10.347
10.0102
9.66462
9.31173
8.95412
15.5379
15.0559
14.5945
14.1935
13.8192
13.4613
13.122
12.8034
12.5011
12.2086
11.919
11.6269
11.3284
11.021
10.7029
10.3734
10.0326
9.68132
9.32139
8.95554
15.5085
15.0428
14.5938
14.2009
13.832
13.4786
13.1434
12.8286
12.5298
12.2406
11.9537
11.664
11.3668
11.0594
10.7399
10.4071
10.061
9.70236
9.33317
8.95649
15.4925
15.037
14.5948
14.2086
13.8451
13.4976
13.1674
12.8578
12.5634
12.2787
11.9952
11.7085
11.4128
11.1059
10.7845
10.4479
10.0953
9.72745
9.34659
8.95603
15.4875
15.0418
14.6032
14.2232
13.8647
13.5231
13.1975
12.8939
12.6039
12.3249
12.045
11.7624
11.4683
11.1624
10.8388
10.4979
10.1373
9.75831
9.36289
8.95471
15.4903
15.0552
14.617
14.243
13.8887
13.5539
13.2324
12.9362
12.6506
12.3791
12.1027
11.8261
11.5333
11.23
10.9034
10.5588
10.1883
9.79624
9.3828
8.9524
15.4995
15.0764
14.6356
14.2682
13.9171
13.5903
13.272
12.9852
12.7036
12.4421
12.1685
11.9013
11.6086
11.3115
10.9796
10.634
10.2499
9.84426
9.40769
8.94964
15.5139
15.1032
14.6583
14.2983
13.9495
13.6317
13.3159
13.0408
12.7622
12.5139
12.2422
11.9885
11.6943
11.409
11.0683
10.7276
10.3229
9.90726
9.43785
8.94738
15.5328
15.1334
14.6845
14.332
13.985
13.6771
13.3636
13.1016
12.8259
12.5935
12.3232
12.0877
11.7907
11.5237
11.1701
10.8435
10.4075
9.99259
9.47154
8.9492
15.5554
15.1647
14.7131
14.3677
14.023
13.7247
13.4142
13.1656
12.8938
12.6786
12.411
12.1964
11.8979
11.6543
11.2872
10.983
10.5059
10.1068
9.50464
8.96496
15.5809
15.1949
14.7424
14.4039
14.0619
13.7726
13.4662
13.2303
12.9643
12.7657
12.5041
12.3102
12.0153
11.7962
11.4223
11.145
10.6276
10.2567
9.53888
9.0108
15.6099
15.2221
14.772
14.4397
14.1014
13.8195
13.5188
13.2937
13.0357
12.8514
12.6007
12.4232
12.1396
11.9393
11.574
11.3206
10.7811
10.4469
9.59597
9.11031
15.6456
15.2449
14.8025
14.4749
14.1433
13.8661
13.5747
13.3564
13.1116
12.9356
12.702
12.5337
12.2694
12.0744
11.7283
11.4754
10.9498
10.6511
9.68866
9.26862
15.691
15.263
14.8361
14.5098
14.1912
13.9141
13.6396
13.4224
13.2018
13.0283
12.8263
12.6555
12.4244
12.213
11.8865
11.5885
11.0729
10.7186
9.64508
9.34683
15.7415
15.2766
14.8732
14.5438
14.2445
13.9626
13.7123
13.4914
13.3045
13.1294
12.9719
12.8008
12.6279
12.4048
12.129
11.7557
11.204
10.5795
9.49077
8.81543
15.7882
15.2866
14.9097
14.5771
14.3021
14.0063
13.7882
13.5579
13.4144
13.2296
13.1281
12.9511
12.8517
12.6294
12.4529
12.0636
11.5618
10.6859
9.23821
7.38197
15.8137
15.3018
14.9437
14.6129
14.3522
14.0515
13.8588
13.6284
13.5197
13.3396
13.2871
13.1257
13.092
12.9058
12.8148
12.4803
12.108
11.0876
9.00391
5.7769
15.8341
15.3088
14.9759
14.6397
14.3995
14.0884
13.9293
13.6895
13.6313
13.4427
13.4687
13.3035
13.3957
13.2178
13.3371
13.0305
12.9998
11.8594
10.1784
7.22777
16.1329
15.2093
14.6322
14.2052
13.8062
13.4304
13.0831
12.7608
12.4551
12.158
11.8635
11.5672
11.266
10.958
10.6421
10.3177
9.9852
9.64539
9.29978
8.95062
15.9096
15.1388
14.6065
14.1914
13.8015
13.4303
13.0839
12.7614
12.4561
12.1602
11.8673
11.5727
11.2729
10.9656
10.6497
10.3248
9.99104
9.64944
9.30151
8.94966
15.8532
15.1215
14.6047
14.1944
13.8086
13.4412
13.0976
12.777
12.4734
12.1792
11.888
11.5948
11.2958
10.9887
10.672
10.3453
10.0087
9.66312
9.31028
8.95275
15.7942
15.0882
14.5898
14.1899
13.8108
13.4488
13.1099
12.7936
12.4934
12.2024
11.9138
11.6228
11.3251
11.0183
10.7007
10.3715
10.0308
9.67971
9.31989
8.95418
15.7653
15.0754
14.5891
14.1971
13.8233
13.4659
13.131
12.8186
12.5219
12.2343
11.9485
11.6598
11.3634