x,y,z,U_0,U_1,U_2
0,0,0,3.00965,0.0201566,0
0,0.1,0,3.00579,0.012094,0
0,0.2,0,3.00193,0.00403133,0
0,0.3,0,3,0,0
0,0.4,0,3,0,0
0,0.5,0,3,0,0
0,0.6,0,3,0,0
0,0.7,0,3,0,0
0,0.8,0,3,0,0
0,0.9,0,3,0,0
0,1,0,3,0,0
0,1.1,0,3,0,0
0,1.2,0,3,0,0
0,1.3,0,3,0,0
0,1.4,0,3,0,0
0,1.5,0,3,0,0
0,1.6,0,3,0,0
0,1.7,0,3,0,0
0,1.8,0,3,0,0
0,1.9,0,3,0,0
0,2,0,3,0,0
0,2.1,0,3,0,0
0,2.2,0,3,0,0
0,2.3,0,3,0,0
0,2.4,0,3,0,0
0,2.5,0,3,0,0
0,2.6,0,3,0,0
0,2.7,0,3,0,0
0,2.8,0,3,0,0
0,2.9,0,3,0,0
0,3,0,3,0,0
0,3.1,0,3,0,0
0,3.2,0,3,0,0
0,3.3,0,3,0,0
0,3.4,0,3,0,0
0,3.5,0,3,0,0
0,3.6,0,3,0,0
0,3.7,0,3,0,0
0,3.8,0,3,0,0
0,3.9,0,3,0,0
0,4,0,3,0,0
0,4.1,0,3,0,0
0,4.2,0,3,0,0
0,4.3,0,3,0,0
0,4.4,0,3,0,0
0,4.5,0,3,0,0
0,4.6,0,3,0,0
0,4.7,0,3,0,0
0,4.8,0,3,0,0
0,4.9,0,3,0,0
0,5,0,3,0,0
0,5.1,0,3,0,0
0,5.2,0,3,0,0
0,5.3,0,3,0,0
0,5.4,0,3,0,0
0,5.5,0,3,0,0
0,5.6,0,3,0,0
0,5.7,0,3,0,0
0,5.8,0,3,0,0
0,5.9,0,3,0,0
0,6,0,3,0,0
0,6.1,0,3,0,0
0,6.2,0,3,0,0
0,6.3,0,3,0,0
0,6.4,0,3,0,0
0,6.5,0,3,0,0
0,6.6,0,3,0,0
0,6.7,0,3,0,0
0,6.8,0,3,0,0
0,6.9,0,3,0,0
0,7,0,3,0,0
0,7.1,0,3,0,0
0,7.2,0,3,0,0
0,7.3,0,3,0,0
0,7.4,0,3,0,0
0,7.5,0,3,0,0
0,7.6,0,3,0,0
0,7.7,0,3,0,0
0,7.8,0,3,0,0
0,7.9,0,3,0,0
0,8,0,3,0,0
0,8.1,0,3,0,0
0,8.2,0,3,0,0
0,8.3,0,3,0,0
0,8.4,0,3,0,0
0,8.5,0,3,0,0
0,8.6,0,3,0,0
0,8.7,0,3,0,0
0,8.8,0,3,0,0
0,8.9,0,3,0,0
0,9,0,3,0,0
0,9.1,0,3,0,0
0,9.2,0,3,0,0
0,9.3,0,3,0,0
0,9.4,0,3,0,0
0,9.5,0,3,0,0
0,9.6,0,3,0,0
0,9.7,0,3,0,0
0,9.8,0,3,0,0
0,9.9,0,3,0,0
0,10,0,3,0,0
0,10.1,0,3,0,0
0,10.2,0,3,0,0
0,10.3,0,3,0,0
0,10.4,0,3,0,0
0,10.5,0,3,0,0
0,10.6,0,3,0,0
0,10.7,0,3,0,0
0,10.8,0,3,0,0
0,10.9,0,3,0,0
0,11,0,3,0,0
0,11.1,0,3,0,0
0,11.2,0,3,0,0
0,11.3,0,3,0,0
0,11.4,0,3,0,0
0,11.5,0,3,0,0
0,11.6,0,3,0,0
0,11.7,0,3,0,0
0,11.8,0,3,0,0
0,11.9,0,3,0,0
0,12,0,3,0,0
0,12.1,0,3,0,0
0,12.2,0,3,0,0
0,12.3,0,3,0,0
0,12.4,0,3,0,0
0,12.5,0,3.00334,-0.00613677,0
0,12.6,0,3.00728,-0.0133565,0
0,12.7,0,3.01122,-0.0205762,0
0.1,0,0,3.01051,-0.00161504,0
0.1,0.1,0,3.01071,0.0223712,0
0.1,0.2,0,3.00685,0.0143086,0
0.1,0.3,0,3.00662,0.00960086,0
0.1,0.4,0,3.00662,0.00960086,0
0.1,0.5,0,3.0018,-0.0163963,0
0.1,0.6,0,3.00958,0.00940754,0
0.1,0.7,0,3.00958,0.00940754,0
0.1,0.8,0,3.0076,0.00666246,0
0.1,0.9,0,3.0076,0.00666246,0
0.1,1,0,3.0004,-0.0145858,0
0.1,1.1,0,3.00126,0.00889785,0
0.1,1.2,0,3.00126,0.00889785,0
0.1,1.3,0,3.0038,0.00480028,0
0.1,1.4,0,3.0038,0.00480028,0
0.1,1.5,0,3.00095,-0.0129671,0
0.1,1.6,0,3.00881,0.00623185,0
0.1,1.7,0,3.00881,0.00623185,0
0.1,1.8,0,3.00222,0.00373742,0
0.1,1.9,0,3.00222,0.00373742,0
0.1,2,0,3.00051,-0.0113659,0
0.1,2.1,0,3.00311,0.00561898,0
0.1,2.2,0,3.00311,0.00561898,0
0.1,2.3,0,3.00494,0.00206695,0
0.1,2.4,0,3.00494,0.00206695,0
0.1,2.5,0,3.00011,-0.00982041,0
0.1,2.6,0,3.0029,0.00431068,0
0.1,2.7,0,3.0029,0.00431068,0
0.1,2.8,0,3.00344,0.00202725,0
0.1,2.9,0,3.00344,0.00202725,0
0.1,3,0,3.00019,-0.00853552,0
0.1,3.1,0,3.00332,0.00278397,0
0.1,3.2,0,3.00332,0.00278397,0
0.1,3.3,0,3.00306,0.00189954,0
0.1,3.4,0,3.00306,0.00189954,0
0.1,3.5,0,3.00009,-0.00721393,0
0.1,3.6,0,3.00306,0.00190247,0
0.1,3.7,0,3.00306,0.00190247,0
0.1,3.8,0,3.00293,0.00152322,0
0.1,3.9,0,3.00293,0.00152322,0
0.1,4,0,3.00001,-0.00588583,0
0.1,4.1,0,3.00286,0.00135206,0
0.1,4.2,0,3.00286,0.00135206,0
0.1,4.3,0,3.00278,0.00113107,0
0.1,4.4,0,3.00278,0.00113107,0
0.1,4.5,0,2.99996,-0.00459388,0
0.1,4.6,0,3.00272,0.000943188,0
0.1,4.7,0,3.00272,0.000943188,0
0.1,4.8,0,3.00266,0.000766022,0
0.1,4.9,0,3.00266,0.000766022,0
0.1,5,0,2.99994,-0.00336262,0
0.1,5.1,0,3.00262,0.000626498,0
0.1,5.2,0,2.99993,-0.00283153,0
0.1,5.3,0,3.00259,0.000521818,0
0.1,5.4,0,2.99992,-0.00233308,0
0.1,5.5,0,3.00257,0.000420206,0
0.1,5.6,0,2.99992,-0.00183742,0
0.1,5.7,0,3.00255,0.000319012,0
0.1,5.8,0,2.99991,-0.0013424,0
0.1,5.9,0,3.00254,0.000221578,0
0.1,6,0,2.99991,-0.000848252,0
0.1,6.1,0,3.00253,0.0001267,0
0.1,6.2,0,2.99991,-0.000354792,0
0.1,6.3,0,3.00253,3.40006e-05,0
0.1,6.4,0,2.99991,0.000137852,0
0.1,6.5,0,3.00254,-5.7908e-05,0
0.1,6.6,0,2.99991,0.000628851,0
0.1,6.7,0,3.00255,-0.000146536,0
0.1,6.8,0,2.99991,0.00112153,0
0.1,6.9,0,3.00258,-0.000232799,0
0.1,7,0,2.99991,0.00166601,0
0.1,7.1,0,3.00261,-0.000361255,0
0.1,7.2,0,3.00261,-0.000361255,0
0.1,7.3,0,3.00085,0.00134062,0
0.1,7.4,0,3.00266,-0.000536862,0
0.1,7.5,0,3.00266,-0.000536862,0
0.1,7.6,0,3.00183,0.000463997,0
0.1,7.7,0,3.00271,-0.000716545,0
0.1,7.8,0,3.00271,-0.000716545,0
0.1,7.9,0,3.00277,-0.00091092,0
0.1,8,0,3.00277,-0.00091092,0
0.1,8.1,0,3.00252,-0.000440337,0
0.1,8.2,0,3.00283,-0.00109386,0
0.1,8.3,0,3.00283,-0.00109386,0
0.1,8.4,0,3.00161,0.00159339,0
0.1,8.5,0,3.00293,-0.00138486,0
0.1,8.6,0,3.00293,-0.00138486,0
0.1,8.7,0,3.00068,0.0042543,0
0.1,8.8,0,3.00296,-0.00149449,0
0.1,8.9,0,3.00296,-0.00149449,0
0.1,9,0,3.00038,0.00562223,0
0.1,9.1,0,3.00318,-0.00209508,0
0.1,9.2,0,3.00318,-0.00209508,0
0.1,9.3,0,3.00148,0.00323167,0
0.1,9.4,0,3.00308,-0.00176599,0
0.1,9.5,0,3.00308,-0.00176599,0
0.1,9.6,0,3.00272,-0.00110642,0
0.1,9.7,0,3.00339,-0.00344785,0
0.1,9.8,0,3.00339,-0.00344785,0
0.1,9.9,0,3.00404,-0.00153331,0
0.1,10,0,3.00404,-0.00153331,0
0.1,10.1,0,3.00331,0.000768112,0
0.1,10.2,0,3.0021,-0.00560846,0
0.1,10.3,0,3.0021,-0.00560846,0
0.1,10.4,0,3.00098,0.00307669,0
0.1,10.5,0,3.00522,-0.00194374,0
0.1,10.6,0,3.00522,-0.00194374,0
0.1,10.7,0,3.00112,0.00988708,0
0.1,10.8,0,3.00593,-0.00636908,0
0.1,10.9,0,3.00593,-0.00636908,0
0.1,11,0,3.00085,0.00845572,0
0.1,11.1,0,2.99989,-0.00484554,0
0.1,11.2,0,2.99989,-0.00484554,0
0.1,11.3,0,3.00398,0.000855576,0
0.1,11.4,0,3.00682,-0.00832597,0
0.1,11.5,0,3.00682,-0.00832597,0
0.1,11.6,0,3.00932,-0.00334417,0
0.1,11.7,0,3.01018,-0.00501385,0
0.1,11.8,0,3.01018,-0.00501385,0
0.1,11.9,0,3.00423,-0.0105533,0
0.1,12,0,3.00423,-0.0105533,0
0.1,12.1,0,3.00344,-0.00208716,0
0.1,12.2,0,3.00378,-0.00978415,0
0.1,12.3,0,3.00378,-0.00978415,0
0.1,12.4,0,3.00237,0.00815054,0
0.1,12.5,0,3.00903,-0.0165642,0
0.1,12.6,0,3.01296,-0.023784,0
0.1,12.7,0,3.0114,0.00114832,0
0.2,0,0,3.01136,-0.0233867,0
0.2,0.1,0,3.01563,0.0326485,0
0.2,0.2,0,3.00987,0.00501151,0
0.2,0.3,0,3.01015,0.000100872,0
0.2,0.4,0,3.01324,0.0192017,0
0.2,0.5,0,3.00359,-0.0327926,0
0.2,0.6,0,3.01916,0.0188151,0
0.2,0.7,0,3.01309,0.00143805,0
0.2,0.8,0,3.01051,-0.00213055,0
0.2,0.9,0,3.01519,0.0133249,0
0.2,1,0,3.0008,-0.0291715,0
0.2,1.1,0,3.00252,0.0177957,0
0.2,1.2,0,3.00238,0.00190192,0
0.2,1.3,0,3.00568,-0.00342492,0
0.2,1.4,0,3.00759,0.00960055,0
0.2,1.5,0,3.00191,-0.0259343,0
0.2,1.6,0,3.01762,0.0124637,0
0.2,1.7,0,3.01155,-0.000341217,0
0.2,1.8,0,3.00298,-0.00358398,0
0.2,1.9,0,3.00444,0.00747483,0
0.2,2,0,3.00101,-0.0227318,0
0.2,2.1,0,3.00623,0.011238,0
0.2,2.2,0,3.00446,-0.000221416,0
0.2,2.3,0,3.00683,-0.00483906,0
0.2,2.4,0,3.00988,0.0041339,0
0.2,2.5,0,3.00022,-0.0196408,0
0.2,2.6,0,3.0058,0.00862135,0
0.2,2.7,0,3.00393,-0.000891036,0
0.2,2.8,0,3.00464,-0.0038595,0
0.2,2.9,0,3.00689,0.00405449,0
0.2,3,0,3.00038,-0.017071,0
0.2,3.1,0,3.00664,0.00556794,0
0.2,3.2,0,3.00436,-0.00186487,0
0.2,3.3,0,3.00403,-0.00301464,0
0.2,3.4,0,3.00613,0.00379907,0
0.2,3.5,0,3.00018,-0.0144279,0
0.2,3.6,0,3.00612,0.00380494,0
0.2,3.7,0,3.004,-0.00208092,0
0.2,3.8,0,3.00383,-0.00257394,0
0.2,3.9,0,3.00586,0.00304645,0
0.2,4,0,3.00002,-0.0117717,0
0.2,4.1,0,3.00572,0.00270412,0
0.2,4.2,0,3.0037,-0.00189764,0
0.2,4.3,0,3.00361,-0.00218493,0
0.2,4.4,0,3.00557,0.00226214,0
0.2,4.5,0,2.99993,-0.00918777,0
0.2,4.6,0,3.00544,0.00188638,0
0.2,4.7,0,3.0035,-0.00154537,0
0.2,4.8,0,3.00343,-0.00177568,0
0.2,4.9,0,3.00533,0.00153204,0
0.2,5,0,2.99988,-0.00672524,0
0.2,5.1,0,3.00525,0.001253,0
0.2,5.2,0,2.99986,-0.00566307,0
0.2,5.3,0,3.00519,0.00104364,0
0.2,5.4,0,2.99985,-0.00466616,0
0.2,5.5,0,3.00513,0.000840412,0
0.2,5.6,0,2.99984,-0.00367484,0
0.2,5.7,0,3.0051,0.000638025,0
0.2,5.8,0,2.99983,-0.00268479,0
0.2,5.9,0,3.00508,0.000443157,0
0.2,6,0,2.99982,-0.0016965,0
0.2,6.1,0,3.00506,0.000253399,0
0.2,6.2,0,2.99982,-0.000709585,0
0.2,6.3,0,3.00506,6.80012e-05,0
0.2,6.4,0,2.99982,0.000275705,0
0.2,6.5,0,3.00508,-0.000115816,0
0.2,6.6,0,2.99982,0.0012577,0
0.2,6.7,0,3.00511,-0.000293073,0
0.2,6.8,0,2.99982,0.00224305,0
0.2,6.9,0,3.00515,-0.000465598,0
0.2,7,0,2.99983,0.00333202,0
0.2,7.1,0,3.00522,-0.000722511,0
0.2,7.2,0,3.00505,-0.000558062,0
0.2,7.3,0,3.00077,0.00365753,0
0.2,7.4,0,3.00531,-0.00107372,0
0.2,7.5,0,3.00421,0.000362243,0
0.2,7.6,0,3.00176,0.00348583,0
0.2,7.7,0,3.00542,-0.00143309,0
0.2,7.8,0,3.00335,0.0018815,0
0.2,7.9,0,3.00278,0.00269589,0
0.2,8,0,3.00553,-0.00182184,0
0.2,8.1,0,3.00248,0.00401339,0
0.2,8.2,0,3.00385,0.00131602,0
0.2,8.3,0,3.00567,-0.00218772,0
0.2,8.4,0,3.00158,0.00675151,0
0.2,8.5,0,3.005,-0.000875708,0
0.2,8.6,0,3.00585,-0.00276973,0
0.2,8.7,0,3.0007,0.0101747,0
0.2,8.8,0,3.00593,-0.00298898,0
0.2,8.9,0,3.00593,-0.00298898,0
0.2,9,0,3.00039,0.0122378,0
0.2,9.1,0,3.00637,-0.00419016,0
0.2,9.2,0,3.00583,-0.00252028,0
0.2,9.3,0,3.00161,0.0106549,0
0.2,9.4,0,3.00616,-0.00353198,0
0.2,9.5,0,3.00459,0.00160384,0
0.2,9.6,0,3.00277,0.00705104,0
0.2,9.7,0,3.00678,-0.00689569,0
0.2,9.8,0,3.00404,0.00370743,0
0.2,9.9,0,3.00479,0.00589067,0
0.2,10,0,3.00809,-0.00306662,0
0.2,10.1,0,3.00374,0.0106419,0
0.2,10.2,0,3.00334,-0.0032042,0
0.2,10.3,0,3.00421,-0.0112169,0
0.2,10.4,0,3.00102,0.0134377,0
0.2,10.5,0,3.00953,-0.00172875,0
0.2,10.6,0,3.01044,-0.00388748,0
0.2,10.7,0,3.00171,0.0212969,0
0.2,10.8,0,3.01185,-0.0127382,0
0.2,10.9,0,3.01185,-0.0127382,0
0.2,11,0,3.00199,0.0208414,0
0.2,11.1,0,2.99978,-0.00969108,0
0.2,11.2,0,2.99988,-0.00451508,0
0.2,11.3,0,3.00419,0.0138908,0
0.2,11.4,0,3.01365,-0.0166519,0
0.2,11.5,0,3.00956,-0.00253841,0
0.2,11.6,0,3.00967,0.0106763,0
0.2,11.7,0,3.02036,-0.0100277,0
0.2,11.8,0,3.01205,0.00967323,0
0.2,11.9,0,3.00654,-0.00189001,0
0.2,12,0,3.00846,-0.0211066,0
0.2,12.1,0,3.00518,0.014169,0
0.2,12.2,0,3.00673,-0.00906083,0
0.2,12.3,0,3.00756,-0.0195683,0
0.2,12.4,0,3.00401,0.0256271,0
0.2,12.5,0,3.01446,-0.0252783,0
0.2,12.6,0,3.01865,-0.0342114,0
0.2,12.7,0,3.01158,0.0228729,0
0.3,0,0,3.01221,-0.0451584,0
0.3,0.1,0,3.01893,0.0301062,0
0.3,0.2,0,3.01208,-0.0126746,0
0.3,0.3,0,3.01236,-0.0175852,0
0.3,0.4,0,3.01793,0.0184037,0
0.3,0.5,0,3.00539,-0.0491889,0
0.3,0.6,0,3.02562,0.0179011,0
0.3,0.7,0,3.014,-0.0139787,0
0.3,0.8,0,3.01143,-0.0175473,0
0.3,0.9,0,3.01991,0.0114881,0
0.3,1,0,3.0012,-0.0437573,0
0.3,1.1,0,3.00344,0.0173001,0
0.3,1.2,0,3.00344,-0.0119056,0
0.3,1.3,0,3.00674,-0.0172325,0
0.3,1.4,0,3.01025,0.00729386,0
0.3,1.5,0,3.00286,-0.0389014,0
0.3,1.6,0,3.02329,0.0110159,0
0.3,1.7,0,3.01169,-0.0124021,0
0.3,1.8,0,3.00312,-0.0156449,0
0.3,1.9,0,3.00597,0.00517092,0
0.3,2,0,3.00152,-0.0340977,0
0.3,2.1,0,3.0083,0.010063,0
0.3,2.2,0,3.00505,-0.010973,0
0.3,2.3,0,3.00742,-0.0155906,0
0.3,2.4,0,3.01288,0.0014459,0
0.3,2.5,0,3.00033,-0.0294612,0
0.3,2.6,0,3.00758,0.0072796,0
0.3,2.7,0,3.00416,-0.0101695,0
0.3,2.8,0,3.00487,-0.0131379,0
0.3,2.9,0,3.00903,0.00185663,0
0.3,3,0,3.00057,-0.0256066,0
0.3,3.1,0,3.00871,0.00382412,0
0.3,3.2,0,3.00442,-0.0096992,0
0.3,3.3,0,3.00409,-0.010849,0
0.3,3.4,0,3.008,0.00205322,0
0.3,3.5,0,3.00027,-0.0216418,0
0.3,3.6,0,3.008,0.00206085,0
0.3,3.7,0,3.00402,-0.00858681,0
0.3,3.8,0,3.00385,-0.00907983,0
0.3,3.9,0,3.00762,0.00160605,0
0.3,4,0,3.00003,-0.0176575,0
0.3,4.1,0,3.00744,0.00116103,0
0.3,4.2,0,3.00369,-0.00711952,0
0.3,4.3,0,3.00359,-0.00740681,0
0.3,4.4,0,3.00723,0.00110323,0
0.3,4.5,0,2.99989,-0.0137816,0
0.3,4.6,0,3.00706,0.000614735,0
0.3,4.7,0,3.00345,-0.00550466,0
0.3,4.8,0,3.00338,-0.00573498,0
0.3,4.9,0,3.0069,0.000646607,0
0.3,5,0,2.99982,-0.0100879,0
0.3,5.1,0,3.00787,0.0018795,0
0.3,5.2,0,2.99979,-0.0084946,0
0.3,5.3,0,3.00778,0.00156546,0
0.3,5.4,0,2.99977,-0.00699924,0
0.3,5.5,0,3.0077,0.00126062,0
0.3,5.6,0,2.99975,-0.00551226,0
0.3,5.7,0,3.00764,0.000957037,0
0.3,5.8,0,2.99974,-0.00402719,0
0.3,5.9,0,3.00762,0.000664735,0
0.3,6,0,2.99974,-0.00254476,0
0.3,6.1,0,3.0076,0.000380099,0
0.3,6.2,0,2.99973,-0.00106438,0
0.3,6.3,0,3.0076,0.000102002,0
0.3,6.4,0,2.99973,0.000413557,0
0.3,6.5,0,3.00762,-0.000173724,0
0.3,6.6,0,2.99973,0.00188655,0
0.3,6.7,0,3.00766,-0.000439609,0
0.3,6.8,0,2.99973,0.00336458,0
0.3,6.9,0,3.00773,-0.000698397,0
0.3,7,0,2.99974,0.00499803,0
0.3,7.1,0,3.00589,0.000374441,0
0.3,7.2,0,3.00497,0.00175885,0
0.3,7.3,0,3.00069,0.00597445,0
0.3,7.4,0,3.00693,-0.000534161,0
0.3,7.5,0,3.00414,0.00338408,0
0.3,7.6,0,3.00168,0.00650767,0
0.3,7.7,0,3.00803,-0.00201846,0
0.3,7.8,0,3.00329,0.00561041,0
0.3,7.9,0,3.00272,0.0064248,0
0.3,8,0,3.0083,-0.00273276,0
0.3,8.1,0,3.00244,0.00846712,0
0.3,8.2,0,3.00381,0.00576975,0
0.3,8.3,0,3.00808,-0.00234927,0
0.3,8.4,0,3.00156,0.0119096,0
0.3,8.5,0,3.00498,0.00428241,0
0.3,8.6,0,3.00735,-0.000566035,0
0.3,8.7,0,3.00072,0.0160951,0
0.3,8.8,0,3.0061,0.00254118,0
0.3,8.9,0,3.00643,0.00227489,0
0.3,9,0,3.00041,0.0188533,0
0.3,9.1,0,3.00764,-0.00101302,0
0.3,9.2,0,3.00597,0.00490299,0
0.3,9.3,0,3.00175,0.0180782,0
0.3,9.4,0,3.00847,-0.00287975,0
0.3,9.5,0,3.00465,0.0097613,0
0.3,9.6,0,3.00283,0.0152085,0
0.3,9.7,0,3.01017,-0.0103435,0
0.3,9.8,0,3.00425,0.0125938,0
0.3,9.9,0,3.00499,0.0147771,0
0.3,10,0,3.01213,-0.00459993,0
0.3,10.1,0,3.00417,0.0205156,0
0.3,10.2,0,3.00377,0.00666954,0
0.3,10.3,0,3.00577,-0.0126229,0
0.3,10.4,0,3.00106,0.0237987,0
0.3,10.5,0,3.00957,0.00863226,0
0.3,10.6,0,3.01285,0.00225122,0
0.3,10.7,0,3.0023,0.0327068,0
0.3,10.8,0,3.01333,-0.00429145,0
0.3,10.9,0,3.01324,-0.00133961,0
0.3,11,0,3.00313,0.033227,0
0.3,11.1,0,3.00029,-0.00607218,0
0.3,11.2,0,3.00009,0.0085201,0
0.3,11.3,0,3.0044,0.0269259,0
0.3,11.4,0,3.01949,-0.0217925,0
0.3,11.5,0,3.00992,0.011482,0
0.3,11.6,0,3.01003,0.0246967,0
0.3,11.7,0,3.03054,-0.0150415,0
0.3,11.8,0,3.01371,0.0248928,0
0.3,11.9,0,3.00819,0.0133295,0
0.3,12,0,3.0126,-0.0307192,0
0.3,12.1,0,3.00691,0.0304251,0
0.3,12.2,0,3.00846,0.0071953,0
0.3,12.3,0,3.01053,-0.0190699,0
0.3,12.4,0,3.00565,0.0431037,0
0.3,12.5,0,3.0161,-0.00780173,0
0.3,12.6,0,3.02037,-0.021512,0
0.3,12.7,0,3.01176,0.0445974,0
0.4,0,0,3.01307,-0.0669301,0
0.4,0.1,0,3.01951,0.00553816,0
0.4,0.2,0,3.01429,-0.0303606,0
0.4,0.3,0,3.01456,-0.0352713,0
0.4,0.4,0,3.01928,-0.000721268,0
0.4,0.5,0,3.00719,-0.0655852,0
0.4,0.6,0,3.02655,-0.000977647,0
0.4,0.7,0,3.01491,-0.0293955,0
0.4,0.8,0,3.01234,-0.0329641,0
0.4,0.9,0,3.01964,-0.0053056,0
0.4,1,0,3.0016,-0.0583431,0
0.4,1.1,0,3.00382,0.000443784,0
0.4,1.2,0,3.0045,-0.0257132,0
0.4,1.3,0,3.0078,-0.03104,0
0.4,1.4,0,3.01093,-0.00753406,0
0.4,1.5,0,3.00381,-0.0518686,0
0.4,1.6,0,3.02337,-0.00378047,0
0.4,1.7,0,3.01183,-0.024463,0
0.4,1.8,0,3.00326,-0.0277057,0
0.4,1.9,0,3.00627,-0.00777483,0
0.4,2,0,3.00202,-0.0454636,0
0.4,2.1,0,3.00855,-0.00293997,0
0.4,2.2,0,3.00564,-0.0217245,0
0.4,2.3,0,3.00801,-0.0263422,0
0.4,2.4,0,3.01256,-0.00965636,0
0.4,2.5,0,3.00044,-0.0392816,0
0.4,2.6,0,3.00742,-0.00389973,0
0.4,2.7,0,3.00439,-0.0194479,0
0.4,2.8,0,3.0051,-0.0224164,0
0.4,2.9,0,3.0089,-0.00780946,0
0.4,3,0,3.00076,-0.0341421,0
0.4,3.1,0,3.00857,-0.00577323,0
0.4,3.2,0,3.00449,-0.0175335,0
0.4,3.3,0,3.00415,-0.0186833,0
0.4,3.4,0,3.00779,-0.00613409,0
0.4,3.5,0,3.00036,-0.0288557,0
0.4,3.6,0,3.00778,-0.00599391,0
0.4,3.7,0,3.00405,-0.0150927,0
0.4,3.8,0,3.00388,-0.0155857,0
0.4,3.9,0,3.00734,-0.00508269,0
0.4,4,0,3.00004,-0.0235433,0
0.4,4.1,0,3.00716,-0.00538219,0
0.4,4.2,0,3.00367,-0.0123414,0
0.4,4.3,0,3.00357,-0.0126287,0
0.4,4.4,0,3.00691,-0.00412595,0
0.4,4.5,0,2.99985,-0.0183755,0
0.4,4.6,0,3.00674,-0.0044694,0
0.4,4.7,0,3.0034,-0.00946396,0
0.4,4.8,0,3.00332,-0.00969428,0
0.4,4.9,0,3.00657,-0.00318855,0
0.4,5,0,2.99975,-0.0134505,0
0.4,5.1,0,3.00646,-0.00307937,0
0.4,5.2,0,2.99972,-0.0113261,0
0.4,5.3,0,3.00638,-0.00256892,0
0.4,5.4,0,2.99969,-0.00933233,0
0.4,5.5,0,3.0063,-0.00207736,0
0.4,5.6,0,2.99967,-0.00734968,0
0.4,5.7,0,3.00624,-0.00158733,0
0.4,5.8,0,2.99966,-0.00536958,0
0.4,5.9,0,3.00622,-0.00108904,0
0.4,6,0,2.99965,-0.00339301,0
0.4,6.1,0,3.0062,-0.000585534,0
0.4,6.2,0,2.99964,-0.00141917,0
0.4,6.3,0,3.0062,-7.77035e-05,0
0.4,6.4,0,2.99964,0.000551409,0
0.4,6.5,0,3.00622,0.000430258,0
0.4,6.6,0,2.99964,0.00251541,0
0.4,6.7,0,3.00625,0.000946442,0
0.4,6.8,0,2.99964,0.0044861,0
0.4,6.9,0,3.00631,0.00150865,0
0.4,7,0,2.99965,0.00666403,0
0.4,7.1,0,3.0058,0.00204045,0
0.4,7.2,0,3.00489,0.00407576,0
0.4,7.3,0,3.0006,0.00829136,0
0.4,7.4,0,3.00651,0.00221978,0
0.4,7.5,0,3.00406,0.00640591,0
0.4,7.6,0,3.00161,0.0095295,0
0.4,7.7,0,3.00667,0.00307012,0
0.4,7.8,0,3.00323,0.00933932,0
0.4,7.9,0,3.00266,0.0101537,0
0.4,8,0,3.00684,0.00390101,0
0.4,8.1,0,3.0024,0.0129209,0
0.4,8.2,0,3.00377,0.0102235,0
0.4,8.3,0,3.00705,0.00475537,0
0.4,8.4,0,3.00154,0.0170677,0
0.4,8.5,0,3.00496,0.00944053,0
0.4,8.6,0,3.00734,0.00541177,0
0.4,8.7,0,3.00074,0.0220155,0
0.4,8.8,0,3.00612,0.00846159,0
0.4,8.9,0,3.00645,0.00889043,0
0.4,9,0,3.00042,0.0254689,0
0.4,9.1,0,3.00765,0.00560252,0
0.4,9.2,0,3.00611,0.0123262,0
0.4,9.3,0,3.00189,0.0255015,0
0.4,9.4,0,3.00788,0.00689381,0
0.4,9.5,0,3.0047,0.0179188,0
0.4,9.6,0,3.00288,0.023366,0
0.4,9.7,0,3.00865,0.00403859,0
0.4,9.8,0,3.00446,0.0214802,0
0.4,9.9,0,3.0052,0.0236635,0
0.4,10,0,3.01062,0.0104057,0
0.4,10.1,0,3.00459,0.0303893,0
0.4,10.2,0,3.00419,0.0165433,0
0.4,10.3,0,3.00541,0.00140496,0
0.4,10.4,0,3.0011,0.0341597,0
0.4,10.5,0,3.00961,0.0189933,0
0.4,10.6,0,3.01344,0.0136611,0
0.4,10.7,0,3.00289,0.0441167,0
0.4,10.8,0,3.01392,0.00711841,0
0.4,10.9,0,3.01438,0.011046,0
0.4,11,0,3.00427,0.0456126,0
0.4,11.1,0,3.00143,0.0064703,0
0.4,11.2,0,3.00029,0.0215553,0
0.4,11.3,0,3.00461,0.0399611,0
0.4,11.4,0,3.01743,-0.000916449,0
0.4,11.5,0,3.01027,0.0255025,0
0.4,11.6,0,3.01038,0.0387172,0
0.4,11.7,0,3.02688,0.009327,0
0.4,11.8,0,3.01536,0.0401123,0
0.4,11.9,0,3.00984,0.0285491,0
0.4,12,0,3.01314,-0.00248097,0
0.4,12.1,0,3.00864,0.0466812,0
0.4,12.2,0,3.0102,0.0234514,0
0.4,12.3,0,3.01192,0.00160461,0
0.4,12.4,0,3.00729,0.0605803,0
0.4,12.5,0,3.01774,0.00967485,0
0.4,12.6,0,3.02055,0.000212515,0
0.4,12.7,0,3.01194,0.0663219,0
0.5,0,0,3.01392,-0.0887018,0
0.5,0.1,0,3.01765,-0.0441968,0
0.5,0.2,0,3.0165,-0.0480467,0
0.5,0.3,0,3.01677,-0.0529573,0
0.5,0.4,0,3.01667,-0.0444045,0
0.5,0.5,0,3.00898,-0.0819815,0
0.5,0.6,0,3.01968,-0.0421983,0
0.5,0.7,0,3.01582,-0.0448123,0
0.5,0.8,0,3.01325,-0.0483809,0
0.5,0.9,0,3.01336,-0.0419706,0
0.5,1,0,3.002,-0.0729288,0
0.5,1.1,0,3.00402,-0.0368474,0
0.5,1.2,0,3.00556,-0.0395207,0
0.5,1.3,0,3.00886,-0.0448475,0
0.5,1.4,0,3.00915,-0.039109,0
0.5,1.5,0,3.00476,-0.0648357,0
0.5,1.6,0,3.01565,-0.0350403,0
0.5,1.7,0,3.01197,-0.0365239,0
0.5,1.8,0,3.0034,-0.0397666,0
0.5,1.9,0,3.0047,-0.034939,0
0.5,2,0,3.00253,-0.0568296,0
0.5,2.1,0,3.00653,-0.0306764,0
0.5,2.2,0,3.00623,-0.0324761,0
0.5,2.3,0,3.0086,-0.0370938,0
0.5,2.4,0,3.00832,-0.0322953,0
0.5,2.5,0,3.00055,-0.0491021,0
0.5,2.6,0,3.00486,-0.0273093,0
0.5,2.7,0,3.00462,-0.0287264,0
0.5,2.8,0,3.00533,-0.0316949,0
0.5,2.9,0,3.00588,-0.0276507,0
0.5,3,0,3.00096,-0.0426776,0
0.5,3.1,0,3.00551,-0.0249271,0
0.5,3.2,0,3.00455,-0.0253679,0
0.5,3.3,0,3.00422,-0.0265176,0
0.5,3.4,0,3.00488,-0.0230819,0
0.5,3.5,0,3.00045,-0.0360696,0
0.5,3.6,0,3.00483,-0.0216162,0
0.5,3.7,0,3.00407,-0.0215986,0
0.5,3.8,0,3.0039,-0.0220916,0
0.5,3.9,0,3.00444,-0.0189976,0
0.5,4,0,3.00005,-0.0294291,0
0.5,4.1,0,3.00429,-0.017842,0
0.5,4.2,0,3.00365,-0.0175633,0
0.5,4.3,0,3.00356,-0.0178506,0
0.5,4.4,0,3.00407,-0.0150728,0
0.5,4.5,0,2.99981,-0.0229694,0
0.5,4.6,0,3.00393,-0.0139658,0
0.5,4.7,0,3.00335,-0.0134233,0
0.5,4.8,0,3.00327,-0.0136536,0
0.5,4.9,0,3.00379,-0.0112765,0
0.5,5,0,2.99969,-0.0168131,0
0.5,5.1,0,3.00371,-0.00990002,0
0.5,5.2,0,2.99965,-0.0141577,0
0.5,5.3,0,3.00364,-0.00825535,0
0.5,5.4,0,2.99962,-0.0116654,0
0.5,5.5,0,3.00357,-0.00666807,0
0.5,5.6,0,2.99959,-0.0091871,0
0.5,5.7,0,3.00353,-0.00508616,0
0.5,5.8,0,2.99957,-0.00671198,0
0.5,5.9,0,3.0035,-0.00350127,0
0.5,6,0,2.99956,-0.00424126,0
0.5,6.1,0,3.00349,-0.00191528,0
0.5,6.2,0,2.99955,-0.00177396,0
0.5,6.3,0,3.00348,-0.000328644,0
0.5,6.4,0,2.99955,0.000689262,0
0.5,6.5,0,3.0035,0.00125487,0
0.5,6.6,0,2.99955,0.00314426,0
0.5,6.7,0,3.00352,0.00284335,0
0.5,6.8,0,2.99956,0.00560763,0
0.5,6.9,0,3.00355,0.00452899,0
0.5,7,0,2.99956,0.00833004,0
0.5,7.1,0,3.00361,0.00579731,0
0.5,7.2,0,3.00362,0.00728183,0
0.5,7.3,0,3.00052,0.0106083,0
0.5,7.4,0,3.0037,0.00809539,0
0.5,7.5,0,3.00372,0.00970311,0
0.5,7.6,0,3.00153,0.0125513,0
0.5,7.7,0,3.00383,0.0105374,0
0.5,7.8,0,3.00318,0.0130682,0
0.5,7.9,0,3.00261,0.0138826,0
0.5,8,0,3.00398,0.0129946,0
0.5,8.1,0,3.00236,0.0173746,0
0.5,8.2,0,3.00373,0.0146772,0
0.5,8.3,0,3.00415,0.0154611,0
0.5,8.4,0,3.00152,0.0222259,0
0.5,8.5,0,3.00432,0.0161366,0
0.5,8.6,0,3.00442,0.0178752,0
0.5,8.7,0,3.00076,0.027936,0
0.5,8.8,0,3.00451,0.0188639,0
0.5,8.9,0,3.0045,0.0204492,0
0.5,9,0,3.00044,0.0320844,0
0.5,9.1,0,3.00494,0.0207345,0
0.5,9.2,0,3.00521,0.0225766,0
0.5,9.3,0,3.00202,0.0329247,0
0.5,9.4,0,3.00499,0.0242405,0
0.5,9.5,0,3.00476,0.0260762,0
0.5,9.6,0,3.00293,0.0315234,0
0.5,9.7,0,3.00552,0.0245303,0
0.5,9.8,0,3.00466,0.0303666,0
0.5,9.9,0,3.00541,0.0325498,0
0.5,10,0,3.00721,0.0306992,0
0.5,10.1,0,3.00502,0.0402631,0
0.5,10.2,0,3.00462,0.026417,0
0.5,10.3,0,3.00377,0.0272482,0
0.5,10.4,0,3.00113,0.0445207,0
0.5,10.5,0,3.00814,0.0336883,0
0.5,10.6,0,3.0094,0.0360805,0
0.5,10.7,0,3.00348,0.0555265,0
0.5,10.8,0,3.01132,0.0310314,0
0.5,10.9,0,3.01257,0.0332569,0
0.5,11,0,3.00541,0.0579983,0
0.5,11.1,0,3.00289,0.0367367,0
0.5,11.2,0,3.00077,0.0382181,0
0.5,11.3,0,3.00482,0.0529963,0
0.5,11.4,0,3.01117,0.0344651,0
0.5,11.5,0,3.01063,0.0395229,0
0.5,11.6,0,3.01074,0.0527376,0
0.5,11.7,0,3.01871,0.0435808,0
0.5,11.8,0,3.01701,0.0553318,0
0.5,11.9,0,3.01149,0.0437686,0
0.5,12,0,3.01229,0.039548,0
0.5,12.1,0,3.01037,0.0629373,0
0.5,12.2,0,3.01172,0.042338,0
0.5,12.3,0,3.01151,0.0451215,0
0.5,12.4,0,3.00893,0.0780569,0
0.5,12.5,0,3.01697,0.0412532,0
0.5,12.6,0,3.01757,0.0437218,0
0.5,12.7,0,3.01212,0.0880465,0
0.6,0,0,3.01478,-0.110473,0
0.6,0.1,0,3.01579,-0.0939319,0
0.6,0.2,0,3.01545,-0.0913719,0
0.6,0.3,0,3.01512,-0.0914411,0
0.6,0.4,0,3.01405,-0.0880877,0
0.6,0.5,0,3.01078,-0.0983778,0
0.6,0.6,0,3.01281,-0.0834189,0
0.6,0.7,0,3.01051,-0.0808722,0
0.6,0.8,0,3.0084,-0.0807963,0
0.6,0.9,0,3.00707,-0.0786356,0
0.6,1,0,3.0024,-0.0875146,0
0.6,1.1,0,3.00422,-0.0741385,0
0.6,1.2,0,3.00593,-0.0721151,0
0.6,1.3,0,3.00764,-0.072869,0
0.6,1.4,0,3.00736,-0.070684,0
0.6,1.5,0,3.00572,-0.0778028,0
0.6,1.6,0,3.00794,-0.0663002,0
0.6,1.7,0,3.00583,-0.0639439,0
0.6,1.8,0,3.00217,-0.0639102,0
0.6,1.9,0,3.00312,-0.0621032,0
0.6,2,0,3.00304,-0.0681955,0
0.6,2.1,0,3.00452,-0.0584129,0
0.6,2.2,0,3.00474,-0.0568156,0
0.6,2.3,0,3.00533,-0.0573552,0
0.6,2.4,0,3.00408,-0.0549342,0
0.6,2.5,0,3.00066,-0.0589225,0
0.6,2.6,0,3.0023,-0.0507188,0
0.6,2.7,0,3.00262,-0.0493097,0
0.6,2.8,0,3.00296,-0.0494235,0
0.6,2.9,0,3.00285,-0.0474919,0
0.6,3,0,3.00115,-0.0512131,0
0.6,3.1,0,3.00244,-0.0440809,0
0.6,3.2,0,3.00211,-0.0422578,0
0.6,3.3,0,3.0019,-0.0416427,0
0.6,3.4,0,3.00197,-0.0400297,0
0.6,3.5,0,3.00054,-0.0432836,0
0.6,3.6,0,3.00189,-0.0372385,0
0.6,3.7,0,3.00172,-0.0353976,0
0.6,3.8,0,3.00159,-0.0345248,0
0.6,3.9,0,3.00155,-0.0329126,0
0.6,4,0,3.00006,-0.035315,0
0.6,4.1,0,3.00142,-0.0303017,0
0.6,4.2,0,3.00136,-0.0285755,0
0.6,4.3,0,3.00128,-0.0276524,0
0.6,4.4,0,3.00123,-0.0260196,0
0.6,4.5,0,2.99978,-0.0275633,0
0.6,4.6,0,3.00112,-0.0234621,0
0.6,4.7,0,3.00109,-0.0218122,0
0.6,4.8,0,3.00104,-0.0209158,0
0.6,4.9,0,3.00101,-0.0193644,0
0.6,5,0,2.99963,-0.0201757,0
0.6,5.1,0,3.00095,-0.0167207,0
0.6,5.2,0,2.99958,-0.0169892,0
0.6,5.3,0,3.0009,-0.0139418,0
0.6,5.4,0,2.99954,-0.0139985,0
0.6,5.5,0,3.00085,-0.0112588,0
0.6,5.6,0,2.99951,-0.0110245,0
0.6,5.7,0,3.00081,-0.00858499,0
0.6,5.8,0,2.99949,-0.00805437,0
0.6,5.9,0,3.00079,-0.00591349,0
0.6,6,0,2.99947,-0.00508951,0
0.6,6.1,0,3.00078,-0.00324502,0
0.6,6.2,0,2.99946,-0.00212875,0
0.6,6.3,0,3.00077,-0.000579585,0
0.6,6.4,0,2.99946,0.000827114,0
0.6,6.5,0,3.00077,0.00207948,0
0.6,6.6,0,2.99946,0.00377311,0
0.6,6.7,0,3.00078,0.00474027,0
0.6,6.8,0,2.99947,0.00672915,0
0.6,6.9,0,3.0008,0.00754932,0
0.6,7,0,2.99948,0.00999605,0
0.6,7.1,0,3.00083,0.0101415,0
0.6,7.2,0,3.00084,0.011626,0
0.6,7.3,0,3.00044,0.0129252,0
0.6,7.4,0,3.00089,0.013971,0
0.6,7.5,0,3.00091,0.0155787,0
0.6,7.6,0,3.00095,0.0163921,0
0.6,7.7,0,3.00098,0.0180047,0
0.6,7.8,0,3.00102,0.0196173,0
0.6,7.9,0,3.00107,0.020435,0
0.6,8,0,3.00111,0.0220881,0
0.6,8.1,0,3.00115,0.0237412,0
0.6,8.2,0,3.00121,0.0245603,0
0.6,8.3,0,3.00125,0.0261668,0
0.6,8.4,0,3.0013,0.0277733,0
0.6,8.5,0,3.00139,0.0286,0
0.6,8.6,0,3.00149,0.0303386,0
0.6,8.7,0,3.00078,0.0338564,0
0.6,8.8,0,3.00158,0.0328943,0
0.6,8.9,0,3.00157,0.0344797,0
0.6,9,0,3.00045,0.0386999,0
0.6,9.1,0,3.0019,0.0368684,0
0.6,9.2,0,3.00218,0.0387105,0
0.6,9.3,0,3.00216,0.040348,0
0.6,9.4,0,3.0021,0.0415872,0
0.6,9.5,0,3.00192,0.0432617,0
0.6,9.6,0,3.00204,0.0433595,0
0.6,9.7,0,3.00239,0.045022,0
0.6,9.8,0,3.00273,0.0466845,0
0.6,9.9,0,3.0033,0.0487408,0
0.6,10,0,3.0038,0.0509926,0
0.6,10.1,0,3.0043,0.0532444,0
0.6,10.2,0,3.00302,0.0519801,0
0.6,10.3,0,3.00213,0.0530914,0
0.6,10.4,0,3.00117,0.0548818,0
0.6,10.5,0,3.00355,0.057403,0
0.6,10.6,0,3.00481,0.0597951,0
0.6,10.7,0,3.00407,0.0669364,0
0.6,10.8,0,3.00712,0.061196,0
0.6,10.9,0,3.00837,0.0634214,0
0.6,11,0,3.00655,0.0703839,0
0.6,11.1,0,3.00434,0.067003,0
0.6,11.2,0,3.00222,0.0684844,0
0.6,11.3,0,3.00457,0.0675996,0
0.6,11.4,0,3.00491,0.0698467,0
0.6,11.5,0,3.00524,0.0720938,0
0.6,11.6,0,3.00758,0.0750999,0
0.6,11.7,0,3.01053,0.0778346,0
0.6,11.8,0,3.01349,0.0805694,0
0.6,11.9,0,3.01126,0.0792128,0
0.6,12,0,3.01145,0.0815769,0
0.6,12.1,0,3.01163,0.0839411,0
0.6,12.2,0,3.01132,0.0858548,0
0.6,12.3,0,3.0111,0.0886383,0
0.6,12.4,0,3.01057,0.0955334,0
0.6,12.5,0,3.0131,0.0908818,0
0.6,12.6,0,3.01371,0.0933504,0
0.6,12.7,0,3.0123,0.109771,0
0.7,0,0,3.01113,-0.140298,0
0.7,0.1,0,3.01406,-0.144651,0
0.7,0.2,0,3.01372,-0.142092,0
0.7,0.3,0,3.01266,-0.134445,0
0.7,0.4,0,3.01159,-0.131092,0
0.7,0.5,0,3.00781,-0.124043,0
0.7,0.6,0,3.00627,-0.125009,0
0.7,0.7,0,3.00397,-0.122462,0
0.7,0.8,0,3.00142,-0.116944,0
0.7,0.9,0,3.00009,-0.114783,0
0.7,1,0,3.0002,-0.111016,0
0.7,1.1,0,3.00395,-0.111895,0
0.7,1.2,0,3.00566,-0.109871,0
0.7,1.3,0,3.00709,-0.104041,0
0.7,1.4,0,3.00682,-0.101856,0
0.7,1.5,0,3.00295,-0.0988938,0
0.7,1.6,0,2.99969,-0.0980286,0
0.7,1.7,0,2.99758,-0.0956723,0
0.7,1.8,0,2.99996,-0.0903946,0
0.7,1.9,0,3.00091,-0.0885876,0
0.7,2,0,3.00111,-0.0870571,0
0.7,2.1,0,3.00343,-0.0867485,0
0.7,2.2,0,3.00365,-0.0851512,0
0.7,2.3,0,3.00073,-0.0797118,0
0.7,2.4,0,2.99948,-0.0772908,0
0.7,2.5,0,2.99856,-0.0753872,0
0.7,2.6,0,2.99951,-0.0740215,0
0.7,2.7,0,2.99982,-0.0726124,0
0.7,2.8,0,3.00033,-0.0695725,0
0.7,2.9,0,3.00023,-0.0676409,0
0.7,3,0,2.99905,-0.0654044,0
0.7,3.1,0,2.99907,-0.0628852,0
0.7,3.2,0,2.99873,-0.0610621,0
0.7,3.3,0,2.99914,-0.0588593,0
0.7,3.4,0,2.99921,-0.0572462,0
0.7,3.5,0,2.99854,-0.0553305,0
0.7,3.6,0,2.99888,-0.0526797,0
0.7,3.7,0,2.99871,-0.0508388,0
0.7,3.8,0,2.99871,-0.0485329,0
0.7,3.9,0,2.99867,-0.0469207,0
0.7,4,0,2.9981,-0.0452235,0
0.7,4.1,0,2.99856,-0.0427122,0
0.7,4.2,0,2.99849,-0.040986,0
0.7,4.3,0,2.99844,-0.0386126,0
0.7,4.4,0,2.99839,-0.0369798,0
0.7,4.5,0,2.99785,-0.0353349,0
0.7,4.6,0,2.99831,-0.0329518,0
0.7,4.7,0,2.99828,-0.0313018,0
0.7,4.8,0,2.99826,-0.0289726,0
0.7,4.9,0,2.99823,-0.0274212,0
0.7,5,0,2.99773,-0.0258699,0
0.7,5.1,0,2.9982,-0.0235112,0
0.7,5.2,0,2.99769,-0.0217904,0
0.7,5.3,0,2.99816,-0.0196257,0
0.7,5.4,0,2.99766,-0.0179615,0
0.7,5.5,0,2.99812,-0.0158492,0
0.7,5.6,0,2.99763,-0.0141507,0
0.7,5.7,0,2.9981,-0.0120835,0
0.7,5.8,0,2.99761,-0.0103445,0
0.7,5.9,0,2.99808,-0.00832519,0
0.7,6,0,2.9976,-0.00654498,0
0.7,6.1,0,2.99807,-0.00457461,0
0.7,6.2,0,2.99759,-0.0027504,0
0.7,6.3,0,2.99806,-0.000829865,0
0.7,6.4,0,2.99758,0.00103877,0
0.7,6.5,0,2.99805,0.00290508,0
0.7,6.6,0,2.99758,0.0048166,0
0.7,6.7,0,2.99805,0.00663452,0
0.7,6.8,0,2.99759,0.00860376,0
0.7,6.9,0,2.99805,0.0105205,0
0.7,7,0,2.9976,0.0127907,0
0.7,7.1,0,2.99805,0.0144367,0
0.7,7.2,0,2.99806,0.0159212,0
0.7,7.3,0,2.99791,0.0181755,0
0.7,7.4,0,2.99807,0.0198416,0
0.7,7.5,0,2.9981,0.0214493,0
0.7,7.6,0,2.99811,0.0238623,0
0.7,7.7,0,2.99814,0.0254749,0
0.7,7.8,0,2.99818,0.0270875,0
0.7,7.9,0,2.9982,0.0295079,0
0.7,8,0,2.99825,0.031161,0
0.7,8.1,0,2.99829,0.0328141,0
0.7,8.2,0,2.99832,0.0353071,0
0.7,8.3,0,2.99836,0.0369136,0
0.7,8.4,0,2.9984,0.0385201,0
0.7,8.5,0,2.99844,0.0409644,0
0.7,8.6,0,2.99854,0.042703,0
0.7,8.7,0,2.99837,0.0449047,0
0.7,8.8,0,2.99872,0.0470909,0
0.7,8.9,0,2.99871,0.0486763,0
0.7,9,0,2.99816,0.0509953,0
0.7,9.1,0,2.99867,0.0527235,0
0.7,9.2,0,2.99895,0.0545657,0
0.7,9.3,0,2.99971,0.0575785,0
0.7,9.4,0,2.99961,0.0592862,0
0.7,9.5,0,2.99943,0.0609607,0
0.7,9.6,0,2.99828,0.0635042,0
0.7,9.7,0,2.99862,0.0651667,0
0.7,9.8,0,2.99897,0.0668292,0
0.7,9.9,0,3.00045,0.0691228,0
0.7,10,0,3.00096,0.0713746,0
0.7,10.1,0,3.00146,0.0736265,0
0.7,10.2,0,3.00142,0.0782348,0
0.7,10.3,0,3.00054,0.0793461,0
0.7,10.4,0,2.99955,0.0803716,0
0.7,10.5,0,2.99798,0.0801445,0
0.7,10.6,0,2.99924,0.0825366,0
0.7,10.7,0,3.00078,0.0866066,0
0.7,10.8,0,3.00392,0.0924067,0
0.7,10.9,0,3.00517,0.0946321,0
0.7,11,0,3.00624,0.0948563,0
0.7,11.1,0,3.00628,0.0965495,0
0.7,11.2,0,3.00416,0.0980309,0
0.7,11.3,0,2.99675,0.103365,0
0.7,11.4,0,2.99708,0.105612,0
0.7,11.5,0,2.99742,0.10786,0
0.7,11.6,0,2.99982,0.108756,0
0.7,11.7,0,3.00277,0.11149,0
0.7,11.8,0,3.00573,0.114225,0
0.7,11.9,0,3.01122,0.122002,0
0.7,12,0,3.0114,0.124366,0
0.7,12.1,0,3.01159,0.126731,0
0.7,12.2,0,3.01028,0.128427,0
0.7,12.3,0,3.01007,0.131211,0
0.7,12.4,0,3.00904,0.133173,0
0.7,12.5,0,3.0095,0.141593,0
0.7,12.6,0,3.01011,0.144061,0
0.7,12.7,0,3.00858,0.139712,0
0.8,0,0,3.00297,-0.178176,0
0.8,0.1,0,3.01247,-0.196356,0
0.8,0.2,0,3.01084,-0.190716,0
0.8,0.3,0,3.00919,-0.175566,0
0.8,0.4,0,3.00927,-0.173416,0
0.8,0.5,0,3.00007,-0.158978,0
0.8,0.6,0,3.00005,-0.166968,0
0.8,0.7,0,2.99772,-0.162761,0
0.8,0.8,0,2.99399,-0.152179,0
0.8,0.9,0,2.9924,-0.150413,0
0.8,1,0,2.99541,-0.143433,0
0.8,1.1,0,3.00321,-0.150115,0
0.8,1.2,0,3.00398,-0.146579,0
0.8,1.3,0,3.00656,-0.134788,0
0.8,1.4,0,3.0075,-0.132626,0
0.8,1.5,0,2.99646,-0.128109,0