/*--------------------------------*- C++ -*----------------------------------*\
| =========                 |                                                 |
| \\      /  F ield         | OpenFOAM: The Open Source CFD Toolbox           |
|  \\    /   O peration     | Version:  v1806                                 |
|   \\  /    A nd           | Web:      www.OpenFOAM.com                      |
|    \\/     M anipulation  |                                                 |
\*---------------------------------------------------------------------------*/
FoamFile
{
    version     2.0;
    format      ascii;
    class       surfaceScalarField;
    location    "330";
    object      phi;
}
// * * * * * * * * * * * * * * * * * * * * * * * * * * * * * * * * * * * * * //

dimensions      [0 3 -1 0 0 0 0];
oriented        oriented;


internalField   nonuniform List<scalar> 
13505
(
-1.51914e-07
0.0205263
-0.0283077
-0.034686
0.0424676
1.27784e-14
0.0205225
-0.0283102
-0.0346697
0.0424572
1.51913e-07
0.0205225
-0.0283102
-0.0346697
0.0424572
0.0205263
-0.0283077
-0.034686
0.0424676
-5.76935e-09
-0.0464871
0.0105258
0.0359614
3.79169e-14
-0.0464812
0.0105111
0.0359701
5.77009e-09
-0.0464812
0.0105111
0.0359701
-0.0464871
0.0105258
0.0359614
-2.15002e-07
-0.0259606
5.80255e-13
-0.0259588
2.15003e-07
-0.0259588
-0.0259606
-5.91712e-09
0.0039765
-0.0051271
-0.00190693
0.00305754
-1.07918e-12
0.00397388
-0.00512583
-0.00190915
0.0030611
5.92401e-09
0.00397388
-0.00512583
-0.00190915
0.0030611
0.0039765
-0.0051271
-0.00190693
0.00305754
4.0065e-08
0.00804278
-0.0206647
0.0194789
-0.00685706
9.81901e-14
0.00804123
-0.0206606
0.0194739
-0.00685452
-4.00576e-08
0.00804123
-0.0206606
0.0194739
-0.00685452
0.00804278
-0.0206647
0.0194789
-0.00685706
3.44227e-08
0.0024022
0.00961704
2.2958e-12
0.00240095
0.00961419
-3.4428e-08
0.00240095
0.00961419
0.0024022
0.00961704
4.85191e-08
0.0169196
-0.0375525
-0.0279174
0.0485502
2.01944e-12
0.0169209
-0.0375517
-0.027913
0.0485439
-4.85163e-08
0.0169209
-0.0375517
-0.027913
0.0485439
0.0169196
-0.0375525
-0.0279174
0.0485502
6.63711e-08
-0.0461437
0.0549863
0.00807696
2.05566e-13
-0.0461427
0.0549774
0.00808623
-6.63727e-08
-0.0461427
0.0549774
0.00808623
-0.0461437
0.0549863
0.00807696
3.06512e-08
-0.000938907
-0.0451339
-7.08728e-05
2.78402e-12
-0.000932697
-0.0451283
-8.16777e-05
-3.06535e-08
-0.000932697
-0.0451283
-8.16777e-05
-0.000938907
-0.0451339
-7.08728e-05
1.02627e-08
0.0119136
-0.050405
3.24282e-12
0.0119203
-0.0504047
-1.02496e-08
0.0119203
-0.0504047
0.0119136
-0.050405
1.46727e-08
-0.0462289
0.030225
-1.10523e-13
-0.0462222
0.0302295
-1.4668e-08
-0.0462222
0.0302295
-0.0462289
0.030225
-6.845e-09
-0.00318472
0.00438866
-0.00672236
0.00551841
2.61246e-14
-0.00318482
0.00438967
-0.00672422
0.00551936
6.84323e-09
-0.00318482
0.00438967
-0.00672422
0.00551936
-0.00318472
0.00438866
-0.00672236
0.00551841
9.06127e-09
0.00548709
-0.000743197
-0.00792862
4.51915e-13
0.00548816
-0.000743199
-0.00792978
-9.06898e-09
0.00548816
-0.000743199
-0.00792978
0.00548709
-0.000743197
-0.00792862
1.55464e-08
-0.0160936
0.0232209
-0.0405737
0.0334464
1.06584e-13
-0.0160938
0.0232234
-0.0405701
0.0334406
-1.55451e-08
-0.0160938
0.0232234
-0.0405701
0.0334406
-0.0160936
0.0232209
-0.0405737
0.0334464
1.04314e-07
0.0329162
-0.0459878
-0.00302219
1.02215e-13
0.0329272
-0.0459914
-0.00302952
-1.04313e-07
0.0329272
-0.0459914
-0.00302952
0.0329162
-0.0459878
-0.00302219
5.19868e-08
0.0490494
0.00708766
-2.18627e-13
0.0490577
0.00709296
-5.19854e-08
0.0490577
0.00709296
0.0490494
0.00708766
1.30955e-08
0.00105074
-0.00531549
-0.00275743
0.00702216
-2.7881e-13
0.00105059
-0.00531638
-0.00275643
0.00702223
-1.30926e-08
0.00105059
-0.00531638
-0.00275643
0.00702223
0.00105074
-0.00531549
-0.00275743
0.00702216
1.35947e-08
-0.00537679
0.0069915
-0.000563978
-1.25358e-12
-0.0053775
0.00699181
-0.000563704
-1.35967e-08
-0.0053775
0.00699181
-0.000563704
-0.00537679
0.0069915
-0.000563978
-2.26006e-10
-0.00759193
-0.00310035
-5.56087e-13
-0.00759378
-0.0031001
2.2083e-10
-0.00759378
-0.0031001
-0.00759193
-0.00310035
5.57545e-09
-0.0238168
0.0283325
-0.0490945
0.0445787
-4.16013e-13
-0.023805
0.0283284
-0.0490954
0.044572
-5.57411e-09
-0.023805
0.0283284
-0.0490954
0.044572
-0.0238168
0.0283325
-0.0490945
0.0445787
3.81093e-08
0.0412667
-0.0609099
-0.00417363
-1.64331e-12
0.0412631
-0.0609079
-0.00416007
-3.81068e-08
0.0412631
-0.0609079
-0.00416007
0.0412667
-0.0609099
-0.00417363
1.21213e-07
0.064888
0.00471105
-7.51171e-13
0.0648936
0.00469799
-1.21212e-07
0.0648936
0.00469799
0.064888
0.00471105
-3.47024e-09
-0.00146331
0.00381239
-0.0039936
0.00164453
3.18019e-13
-0.00146267
0.00381192
-0.00399328
0.00164403
3.46373e-09
-0.00146267
0.00381192
-0.00399328
0.00164403
-0.00146331
0.00381239
-0.0039936
0.00164453
1.74936e-08
-0.00487602
0.00062755
0.00278514
-4.30956e-13
-0.00487653
0.000628037
0.00278584
-1.74972e-08
-0.00487653
0.000628037
0.00278584
-0.00487602
0.00062755
0.00278514
1.14914e-08
-0.00176783
0.00172679
0.00385342
2.47609e-12
-0.00176846
0.00172704
0.00385335
-1.14948e-08
-0.00176846
0.00172704
0.00385335
-0.00176783
0.00172679
0.00385342
-4.52345e-08
-0.0094494
0.0107713
0.0148109
-0.0161328
-8.99441e-14
-0.00944536
0.0107714
0.0148079
-0.016134
4.52298e-08
-0.00944536
0.0107714
0.0148079
-0.016134
-0.0094494
0.0107713
0.0148109
-0.0161328
2.48142e-08
0.0105747
-0.00456894
-0.0154552
-4.98271e-12
0.0105751
-0.00456679
-0.0154536
-2.48198e-08
0.0105751
-0.00456679
-0.0154536
0.0105747
-0.00456894
-0.0154552
8.64661e-10
0.00907736
0.00917419
-0.00748027
7.25715e-13
0.0090763
0.00917631
-0.00748123
-8.6149e-10
0.0090763
0.00917631
-0.00748123
0.00907736
0.00917419
-0.00748027
4.00607e-08
0.00806516
0.00753696
-0.00652479
2.1807e-12
0.00806652
0.00753603
-0.00652621
-4.00488e-08
0.00806652
0.00753603
-0.00652621
0.00806516
0.00753696
-0.00652479
-3.58798e-08
0.0743738
-0.0619203
-0.0486336
0.0361801
7.88202e-13
0.0743737
-0.0619284
-0.0486235
0.0361781
3.58824e-08
0.0743737
-0.0619284
-0.0486235
0.0361781
0.0743738
-0.0619203
-0.0486336
0.0361801
-2.05514e-07
0.0267852
-0.0133212
-3.35396e-13
0.0267845
-0.013319
2.05511e-07
0.0267845
-0.013319
0.0267852
-0.0133212
-1.25395e-08
0.0366089
0.00594943
-0.035378
-0.00718039
9.09335e-13
0.0366041
0.00594844
-0.0353721
-0.00718046
1.25395e-08
0.0366041
0.00594844
-0.0353721
-0.00718046
0.0366089
0.00594943
-0.035378
-0.00718039
-1.12517e-08
0.00102103
0.010117
0.025471
4.74471e-13
0.00102238
0.0101204
0.0254613
1.12496e-08
0.00102238
0.0101204
0.0254613
0.00102103
0.010117
0.025471
-1.08129e-07
0.0277943
0.0136692
-0.0355139
5.25745e-13
0.0277891
0.0136739
-0.0355147
1.0813e-07
0.0277891
0.0136739
-0.0355147
0.0277943
0.0136692
-0.0355139
6.83319e-09
0.0147382
0.0140771
-1.3929e-12
0.0147363
0.0140752
-6.83369e-09
0.0147363
0.0140752
0.0147382
0.0140771
-1.6305e-07
-0.0533956
0.0536946
-0.00277381
0.00247495
9.88364e-14
-0.0533906
0.053688
-0.00277696
0.0024794
1.63049e-07
-0.0533906
0.053688
-0.00277696
0.0024794
-0.0533956
0.0536946
-0.00277381
0.00247495
-2.06402e-08
0.000764204
-0.0600767
0.0535878
0.00572476
4.17143e-13
0.000763119
-0.0600683
0.0535887
0.00571643
2.06398e-08
0.000763119
-0.0600683
0.0535887
0.00571643
0.000764204
-0.0600767
0.0535878
0.00572476
2.73452e-08
-0.0641333
0.0115019
4.24611e-13
-0.0641228
0.0114953
-2.73454e-08
-0.0641228
0.0114953
-0.0641333
0.0115019
5.79041e-08
0.0378708
0.00403202
0.0117918
1.97616e-12
0.0378725
0.00402803
0.0117875
-5.79054e-08
0.0378725
0.00402803
0.0117875
0.0378708
0.00403202
0.0117918
1.14803e-07
0.0305894
0.0209504
-1.55063e-12
0.0305956
0.020951
-1.14807e-07
0.0305956
0.020951
0.0305894
0.0209504
-1.10709e-07
-0.0348354
-0.0433415
0.0140437
4.62056e-13
-0.0348394
-0.0433273
0.0140439
1.10708e-07
-0.0348394
-0.0433273
0.0140439
-0.0348354
-0.0433415
0.0140437
-3.96191e-08
-0.0430185
-0.0123006
0.0204837
3.84646e-13
-0.0430268
-0.012299
0.0204863
3.96191e-08
-0.0430268
-0.012299
0.0204863
-0.0430185
-0.0123006
0.0204837
-5.58552e-08
0.0136548
0.00176508
-0.0584383
2.38299e-13
0.0136482
0.00176486
-0.0584399
5.58554e-08
0.0136482
0.00176486
-0.0584399
0.0136548
0.00176508
-0.0584383
-7.84351e-08
-0.0636563
0.00801423
4.50421e-13
-0.0636404
0.00801397
7.84356e-08
-0.0636404
0.00801397
-0.0636563
0.00801423
-9.59271e-08
0.0123192
-0.0623206
3.15278e-13
0.0123196
-0.0623118
9.59279e-08
0.0123196
-0.0623118
0.0123192
-0.0623206
-1.71806e-07
-0.0494177
0.00982486
8.83322e-13
-0.0494121
0.00982994
1.71807e-07
-0.0494121
0.00982994
-0.0494177
0.00982486
-7.56825e-08
-0.0544606
0.00680807
3.58249e-13
-0.0544514
0.0068041
7.56827e-08
-0.0544514
0.0068041
-0.0544606
0.00680807
-1.95564e-07
0.0541836
-0.0033694
1.30103e-12
0.0541782
-0.00336664
1.95562e-07
0.0541782
-0.00336664
0.0541836
-0.0033694
2.5294e-08
0.0170199
7.89383e-13
0.0170217
-2.52948e-08
0.0170217
0.0170199
-1.08111e-07
-0.0385985
0.0248631
5.87242e-13
-0.0385817
0.0248629
1.08108e-07
-0.0385817
0.0248629
-0.0385985
0.0248631
4.39379e-09
-0.0491444
0.0145779
-1.3129e-12
-0.0491333
0.0145796
-4.39616e-09
-0.0491333
0.0145796
-0.0491444
0.0145779
-4.63852e-08
-0.0569763
0.0103069
6.68198e-13
-0.0569662
0.0103123
4.63834e-08
-0.0569662
0.0103123
-0.0569763
0.0103069
-1.0974e-07
-0.0574183
0.011944
1.13456e-12
-0.0574134
0.0119424
1.09739e-07
-0.0574134
0.0119424
-0.0574183
0.011944
-4.56914e-08
-0.0557009
0.0123263
6.79509e-13
-0.0556972
0.0123276
4.56913e-08
-0.0556972
0.0123276
-0.0557009
0.0123263
-1.2198e-07
-0.0583113
0.0106248
5.36676e-13
-0.0583091
0.0106258
1.21981e-07
-0.0583091
0.0106258
-0.0583113
0.0106248
-2.21038e-08
-0.0503377
0.00434564
4.14956e-13
-0.0503361
0.00434657
2.21047e-08
-0.0503361
0.00434657
-0.0503377
0.00434564
-1.05986e-07
-0.00109206
0.012196
-0.0614415
1.48959e-13
-0.00108991
0.0121956
-0.0614419
1.05986e-07
-0.00108991
0.0121956
-0.0614419
-0.00109206
0.012196
-0.0614415
-8.81651e-08
-0.00286317
-0.0605494
1.95797e-13
-0.00285841
-0.0605434
8.81654e-08
-0.00285841
-0.0605434
-0.00286317
-0.0605494
-1.67807e-09
-0.000247978
-0.0610535
1.25271e-13
-0.000249015
-0.0610493
1.67815e-09
-0.000249015
-0.0610493
-0.000247978
-0.0610535
-6.90657e-08
-0.0604657
0.00575716
5.11009e-14
-0.0604596
0.00575912
6.90657e-08
-0.0604596
0.00575912
-0.0604657
0.00575716
-1.96685e-09
-0.00491658
0.0237222
2.37517e-12
-0.00492108
0.0237272
1.96717e-09
-0.00492108
0.0237272
-0.00491658
0.0237222
-4.06176e-08
-0.0446752
0.06037
0.0267728
8.46385e-13
-0.0446877
0.0603709
0.0267739
4.0621e-08
-0.0446877
0.0603709
0.0267739
-0.0446752
0.06037
0.0267728
6.91021e-08
-0.0458211
0.0260089
1.17615e-12
-0.0458197
0.025995
-6.90992e-08
-0.0458197
0.025995
-0.0458211
0.0260089
-1.00468e-08
-0.0503858
0.0191427
1.32338e-12
-0.0503791
0.019139
1.00466e-08
-0.0503791
0.019139
-0.0503858
0.0191427
-9.7428e-08
-0.0548784
0.0147996
1.3939e-12
-0.0548759
0.0148091
9.74264e-08
-0.0548759
0.0148091
-0.0548784
0.0147996
-1.02552e-07
-0.0577002
0.0147659
1.16059e-12
-0.0577038
0.0147701
1.02552e-07
-0.0577038
0.0147701
-0.0577002
0.0147659
-7.90771e-08
-0.0585717
0.0131979
7.98972e-13
-0.0585785
0.0132023
7.90779e-08
-0.0585785
0.0132023
-0.0585717
0.0131979
-6.88317e-08
-0.0581629
0.010216
5.58243e-13
-0.0581704
0.0102176
6.88328e-08
-0.0581704
0.0102176
-0.0581629
0.010216
-4.28866e-08
-0.0631516
0.00933434
3.37682e-13
-0.0631572
0.00933329
4.28871e-08
-0.0631572
0.00933329
-0.0631516
0.00933434
-6.30871e-08
-0.0603083
0.00935273
8.75707e-14
-0.0603139
0.00935226
6.30872e-08
-0.0603139
0.00935226
-0.0603083
0.00935273
-4.0265e-08
-0.00613488
0.0086399
-0.0628132
1.08358e-13
-0.00613367
0.00863618
-0.0628164
4.02651e-08
-0.00613367
0.00863618
-0.0628164
-0.00613488
0.0086399
-0.0628132
-3.46719e-08
-0.00347186
-0.0641045
7.21553e-14
-0.00347604
-0.0640996
3.4672e-08
-0.00347604
-0.0640996
-0.00347186
-0.0641045
-7.12893e-08
-0.000279535
-0.0637416
6.336e-14
-0.0002826
-0.0637369
7.12893e-08
-0.0002826
-0.0637369
-0.000279535
-0.0637416
-7.1768e-08
0.00219665
-0.0635296
8.08467e-14
0.0021958
-0.0635277
7.1768e-08
0.0021958
-0.0635277
0.00219665
-0.0635296
-7.93157e-08
0.00532138
-0.0635903
1.04973e-13
0.00532182
-0.0635857
7.93157e-08
0.00532182
-0.0635857
0.00532138
-0.0635903
-7.08184e-08
0.0589143
0.00979733
-0.0633902
7.05988e-14
0.0589169
0.00979572
-0.0633909
7.08182e-08
0.0589169
0.00979572
-0.0633909
0.0589143
0.00979733
-0.0633902
-4.9189e-08
0.0581889
0.00648266
8.11123e-14
0.0581946
0.00648144
4.91888e-08
0.0581946
0.00648144
0.0581889
0.00648266
-5.81665e-08
0.0565555
0.00844145
3.44493e-13
0.0565613
0.00843727
5.81667e-08
0.0565613
0.00843727
0.0565555
0.00844145
-3.73537e-08
0.0578075
0.00857296
5.84306e-13
0.057819
0.00857222
3.73544e-08
0.057819
0.00857222
0.0578075
0.00857296
-9.85426e-08
0.0561622
0.00737018
4.9464e-14
0.0561687
0.00736666
9.85421e-08
0.0561687
0.00736666
0.0561622
0.00737018
-1.57142e-07
0.0482412
0.00455173
-1.25817e-12
0.0482478
0.00455406
1.57139e-07
0.0482478
0.00455406
0.0482412
0.00455173
-1.32037e-07
0.046907
-0.00358232
-2.85022e-12
0.0469048
-0.00357819
1.32032e-07
0.0469048
-0.00357819
0.046907
-0.00358232
6.60911e-09
-0.0067229
0.0464495
-3.2304e-14
-0.00672556
0.0464499
-6.60826e-09
-0.00672556
0.0464499
-0.0067229
0.0464495
-1.16772e-08
0.038935
-0.0531496
0.0106323
1.45524e-12
0.0389495
-0.0531638
0.0106361
1.16751e-08
0.0389495
-0.0531638
0.0106361
0.038935
-0.0531496
0.0106323
1.99613e-09
-0.0327068
0.064919
8.17463e-13
-0.0326991
0.0649231
-1.99692e-09
-0.0326991
0.0649231
-0.0327068
0.064919
-5.52635e-08
-0.056646
0.00804817
1.74759e-12
-0.0566607
0.00805093
5.52658e-08
-0.0566607
0.00805093
-0.056646
0.00804817
-6.31978e-08
-0.05829
0.00901424
5.07886e-13
-0.0583002
0.00900614
6.31996e-08
-0.0583002
0.00900614
-0.05829
0.00901424
-7.69535e-08
-0.0602808
0.0105638
2.25033e-14
-0.0602879
0.0105598
7.6954e-08
-0.0602879
0.0105598
-0.0602808
0.0105638
-5.3691e-08
-0.0612138
0.00937445
5.30778e-14
-0.061219
0.00936828
5.36911e-08
-0.061219
0.00936828
-0.0612138
0.00937445
-7.10157e-08
-0.0616424
0.00691136
1.48347e-13
-0.0616478
0.00691015
7.10158e-08
-0.0616478
0.00691015
-0.0616424
0.00691136
-6.57949e-08
-0.063923
0.012078
1.75869e-13
-0.0639267
0.0120745
6.5795e-08
-0.0639267
0.0120745
-0.063923
0.012078
-1.70855e-07
0.0535581
0.0173379
-9.07604e-13
0.0535545
0.0173274
1.70855e-07
0.0535545
0.0173274
0.0535581
0.0173379
2.22495e-08
0.0147358
-0.00716555
-8.08009e-13
0.0147325
-0.00716946
-2.22513e-08
0.0147325
-0.00716946
0.0147358
-0.00716555
3.7235e-08
-0.049948
0.02411
-5.24519e-13
-0.0499435
0.024106
-3.72356e-08
-0.0499435
0.024106
-0.049948
0.02411
-1.32598e-07
-0.0572334
0.0246234
-5.46854e-13
-0.0572329
0.0246167
1.32598e-07
-0.0572329
0.0246167
-0.0572334
0.0246234
-2.21264e-07
-0.0559219
0.0254616
-3.9153e-13
-0.0559222
0.0254629
2.21264e-07
-0.0559222
0.0254629
-0.0559219
0.0254616
-2.9472e-08
-0.0527654
0.0228525
1.58124e-13
-0.052777
0.0228498
2.94724e-08
-0.052777
0.0228498
-0.0527654
0.0228525
-4.03588e-08
-0.0541897
0.020567
4.78767e-13
-0.0542034
0.0205654
4.03579e-08
-0.0542034
0.0205654
-0.0541897
0.020567
-5.62197e-08
-0.0566468
0.0172567
1.03236e-12
-0.0566563
0.0172619
5.62196e-08
-0.0566563
0.0172619
-0.0566468
0.0172567
-6.04455e-08
-0.058378
0.0164972
8.70242e-13
-0.0583855
0.0164992
6.04463e-08
-0.0583855
0.0164992
-0.058378
0.0164972
-3.66346e-08
-0.0603888
0.0152088
5.43392e-13
-0.0603952
0.015212
3.66355e-08
-0.0603952
0.015212
-0.0603888
0.0152088
-2.87878e-08
-0.0616456
0.0114728
2.97845e-13
-0.061653
0.0114753
2.87883e-08
-0.061653
0.0114753
-0.0616456
0.0114728
-3.25063e-08
-0.062081
0.00976974
9.32031e-14
-0.0620866
0.00976689
3.25064e-08
-0.0620866
0.00976689
-0.062081
0.00976974
-5.28769e-08
-0.0606066
0.00787838
7.53201e-14
-0.0606111
0.00787668
5.28769e-08
-0.0606111
0.00787668
-0.0606066
0.00787838
-5.13227e-08
-0.0632783
0.0113117
1.35706e-13
-0.0632833
0.0113084
5.13229e-08
-0.0632833
0.0113084
-0.0632783
0.0113117
-4.95257e-08
-0.00783321
0.00983277
-0.0652778
1.54811e-13
-0.00783334
0.00983159
-0.0652816
4.9526e-08
-0.00783334
0.00983159
-0.0652816
-0.00783321
0.00983277
-0.0652778
-5.31819e-08
-0.00488558
-0.0657608
1.29364e-13
-0.00488645
-0.0657634
5.31821e-08
-0.00488645
-0.0657634
-0.00488558
-0.0657608
-7.4804e-08
-0.00284778
-0.0661422
8.10826e-14
-0.00284439
-0.0661418
7.4804e-08
-0.00284439
-0.0661418
-0.00284778
-0.0661422
-5.66933e-08
-0.000257709
-0.0663317
7.277e-14
-0.000255536
-0.0663258
5.66933e-08
-0.000255536
-0.0663258
-0.000257709
-0.0663317
-3.98316e-08
0.00282114
-0.0666084
5.76876e-14
0.00281954
-0.0666029
3.98316e-08
0.00281954
-0.0666029
0.00282114
-0.0666084
-6.16959e-08
0.00536853
-0.0661376
9.03457e-14
0.00536806
-0.0661343
6.16959e-08
0.00536806
-0.0661343
0.00536853
-0.0661376
-5.03973e-08
0.00823549
-0.0662571
1.02483e-13
0.00823378
-0.0662567
5.03974e-08
0.00823378
-0.0662567
0.00823549
-0.0662571
-5.31828e-08
0.00960346
-0.0652909
1.21873e-13
0.00960119
-0.0652941
5.3183e-08
0.00960119
-0.0652941
0.00960346
-0.0652909
-5.70002e-08
-0.0521755
0.030101
4.43298e-13
-0.0521599
0.0300968
5.69965e-08
-0.0521599
0.0300968
-0.0521755
0.030101
-8.47363e-09
0.00176606
-0.00382637
-0.0028157
5.42622e-14
0.00176622
-0.00382608
-0.00281668
8.4815e-09
0.00176622
-0.00382608
-0.00281668
0.00176606
-0.00382637
-0.0028157
-1.0989e-08
-0.0021287
0.0022894
0.00160537
-6.06569e-13
-0.00212878
0.00228913
0.00160586
1.09749e-08
-0.00212878
0.00228913
0.00160586
-0.0021287
0.0022894
0.00160537
-6.59656e-09
0.000465553
-0.00665333
0.00159054
0.00459724
7.06393e-13
0.000464102
-0.00665448
0.00159141
0.00459896
6.60096e-09
0.000464102
-0.00665448
0.00159141
0.00459896
0.000465553
-0.00665333
0.00159054
0.00459725
1.62607e-09
0.00360756
0.00234508
4.80385e-12
0.00360755
0.00234472
-1.62347e-09
0.00360755
0.00234472
0.00360756
0.00234508
1.80301e-08
0.00326038
-0.00178154
6.51299e-12
0.00326107
-0.00178228
-1.80012e-08
0.00326107
-0.00178228
0.00326038
-0.00178154
1.08728e-09
-0.00782422
0.000427696
-3.86296e-12
-0.00782498
0.000427302
-1.11205e-09
-0.00782498
0.000427302
-0.00782422
0.000427696
7.82999e-09
-0.00166358
-0.00925739
0.00299234
1.09825e-12
-0.00166445
-0.0092586
0.00299327
-7.82088e-09
-0.00166445
-0.0092586
0.00299327
-0.00166358
-0.00925739
0.00299234
-1.37398e-09
-0.0089005
-0.000587304
2.46574e-12
-0.00890162
-0.000587809
1.37227e-09
-0.00890162
-0.000587809
-0.0089005
-0.000587304
-6.06496e-09
-0.0029993
0.00180708
-1.15531e-12
-0.00300045
0.00180837
6.0701e-09
-0.00300045
0.00180837
-0.0029993
0.00180708
-1.61185e-08
-0.0027256
-1.62701e-13
-0.00272578
1.61135e-08
-0.00272578
-0.0027256
1.30684e-08
0.00379907
-0.00603491
5.15321e-13
0.00379999
-0.00603465
-1.30957e-08
0.00379999
-0.00603465
0.00379907
-0.00603491
1.30091e-08
0.00261361
0.000303331
1.54012e-12
0.00261454
0.000302641
-1.30172e-08
0.00261454
0.000302641
0.00261361
0.000303331
-1.89706e-08
0.00473313
0.00200064
-3.516e-12
0.00473135
0.00200302
1.8959e-08
0.00473135
0.00200302
0.00473313
0.00200064
-6.54605e-09
-0.0096541
0.00592409
1.14846e-12
-0.00965458
0.00592362
6.55563e-09
-0.00965458
0.00592362
-0.0096541
0.00592409
-1.67232e-08
-0.014132
0.00628504
-1.11969e-12
-0.0141313
0.00628506
1.67388e-08
-0.0141313
0.00628506
-0.014132
0.00628504
-1.23241e-08
-0.0123861
0.005791
-1.74514e-12
-0.0123854
0.00579011
1.23363e-08
-0.0123854
0.00579011
-0.0123861
0.005791
-4.40972e-08
-0.0245662
0.00565534
-1.47348e-12
-0.0245676
0.00565596
4.40973e-08
-0.0245676
0.00565596
-0.0245662
0.00565534
4.99745e-09
-0.0176987
0.00794347
3.53664e-12
-0.0177029
0.00794319
-4.98125e-09
-0.0177029
0.00794319
-0.0176987
0.00794347
-9.61511e-08
-0.0579245
0.0137973
-6.25464e-14
-0.0579202
0.0138112
9.61502e-08
-0.0579202
0.0138112
-0.0579245
0.0137973
-1.01075e-07
-0.0610853
0.0121751
-2.12784e-13
-0.0610915
0.0121773
1.01075e-07
-0.0610915
0.0121773
-0.0610853
0.0121751
-7.68075e-08
-0.0613689
0.0108475
-2.7801e-13
-0.0613775
0.0108458
7.68076e-08
-0.0613775
0.0108458
-0.0613689
0.0108475
-7.4241e-08
-0.062518
0.0105236
3.17684e-14
-0.0625252
0.0105159
7.42412e-08
-0.0625252
0.0105159
-0.062518
0.0105236
-8.3897e-08
-0.0663301
0.0107235
1.08128e-13
-0.066336
0.0107209
8.38972e-08
-0.066336
0.0107209
-0.0663301
0.0107235
-6.97779e-08
-0.0650039
0.0107519
9.93026e-14
-0.0650092
0.0107476
6.9778e-08
-0.0650092
0.0107476
-0.0650039
0.0107519
-5.67397e-08
-0.0658239
0.0104235
3.59319e-14
-0.0658293
0.0104212
5.67398e-08
-0.0658293
0.0104212
-0.0658239
0.0104235
4.51707e-08
-0.0299769
0.017106
1.89643e-13
-0.0299698
0.0170992
-4.51693e-08
-0.0299698
0.0170992
-0.0299769
0.017106
7.27465e-08
-0.0404538
0.0439233
5.3083e-13
-0.0404497
0.0439205
-7.27459e-08
-0.0404497
0.0439205
-0.0404538
0.0439233
9.03815e-08
-0.0499136
0.0335697
-2.8921e-13
-0.0499102
0.0335665
-9.0382e-08
-0.0499102
0.0335665
-0.0499136
0.0335697
-4.10191e-08
-0.0540422
0.028752
-6.78522e-13
-0.0540464
0.0287528
4.10174e-08
-0.0540464
0.0287528
-0.0540422
0.028752
-1.13173e-07
-0.0547179
0.0261375
-7.77724e-13
-0.0547249
0.0261414
1.13171e-07
-0.0547249
0.0261414
-0.0547179
0.0261375
-8.44211e-08
-0.0557993
0.0239339
-3.37185e-13
-0.0558074
0.0239321
8.44206e-08
-0.0558074
0.0239321
-0.0557993
0.0239339
-7.49178e-08
-0.0584048
0.0231725
3.47362e-13
-0.058414
0.023172
7.49185e-08
-0.058414
0.023172
-0.0584048
0.0231725
-6.29779e-08
-0.0581928
0.0170447
5.91206e-13
-0.0581973
0.0170451
6.29793e-08
-0.0581973
0.0170451
-0.0581928
0.0170447
-5.13589e-08
-0.0601205
0.018425
4.31873e-13
-0.0601234
0.0184253
5.13599e-08
-0.0601234
0.0184253
-0.0601205
0.018425
1.36423e-08
-0.0609038
0.015992
1.76801e-13
-0.0609034
0.015992
-1.36419e-08
-0.0609034
0.015992
-0.0609038
0.015992
-1.1928e-09
-0.0619732
0.0125423
-5.45811e-14
-0.0619727
0.0125446
1.19271e-09
-0.0619727
0.0125446
-0.0619732
0.0125423
-3.56782e-08
-0.0624772
0.0102737
-1.19684e-14
-0.0624812
0.0102753
3.56781e-08
-0.0624812
0.0102753
-0.0624772
0.0102737
-6.30172e-08
-0.0657495
0.0111508
8.60156e-14
-0.0657529
0.0111483
6.30172e-08
-0.0657529
0.0111483
-0.0657495
0.0111508
-5.82732e-08
-0.062937
0.00849919
1.29322e-13
-0.0629422
0.00849768
5.82734e-08
-0.0629422
0.00849768
-0.062937
0.00849919
-4.99931e-08
-0.0659179
0.0128138
1.12426e-13
-0.0659223
0.0128116
4.99933e-08
-0.0659223
0.0128116
-0.0659179
0.0128138
-3.33649e-08
-0.00779994
-0.0671667
0.00904881
5.29975e-14
-0.00779794
-0.0671721
0.0090477
3.33651e-08
-0.00779794
-0.0671721
0.0090477
-0.00779994
-0.0671667
0.00904881
-3.79483e-08
-0.00601985
-0.0670578
8.22671e-14
-0.00601778
-0.0670618
3.79484e-08
-0.00601778
-0.0670618
-0.00601985
-0.0670578
-3.41579e-08
-0.00423068
-0.06755
5.44871e-14
-0.00423026
-0.0675509
3.41579e-08
-0.00423026
-0.0675509
-0.00423068
-0.06755
-2.90829e-08
-0.00143737
-0.0689355
2.84204e-14
-0.00144087
-0.0689312
2.90829e-08
-0.00144087
-0.0689312
-0.00143737
-0.0689355
-4.44167e-08
0.00101777
-0.0687867
1.80187e-14
0.00101523
-0.068782
4.44167e-08
0.00101523
-0.068782
0.00101777
-0.0687867
-4.90538e-08
0.00245627
-0.0680469
1.07291e-14
0.00245609
-0.0680438
4.90538e-08
0.00245609
-0.0680438
0.00245627
-0.0680469
-4.89691e-08
0.00439269
-0.068074
3.04595e-14
0.00439282
-0.0680711
4.89691e-08
0.00439282
-0.0680711
0.00439269
-0.068074
-4.87469e-08
0.00628092
-0.0681453
4.38899e-14
0.00628086
-0.0681448
4.87469e-08
0.00628086
-0.0681448
0.00628092
-0.0681453
-4.29223e-08
0.00839371
-0.0674037
4.3783e-14
0.00839237
-0.0674057
4.29223e-08
0.00839237
-0.0674057
0.00839371
-0.0674037
-4.09423e-08
0.00986766
-0.0672978
-3.01897e-15
0.0098648
-0.0673017
4.09423e-08
0.0098648
-0.0673017
0.00986766
-0.0672978
1.13535e-07
0.0029088
0.0536576
6.10085e-13
0.00290524
0.0536652
-1.1353e-07
0.00290524
0.0536652
0.0029088
0.0536576
-1.53667e-08
0.0562718
0.011556
1.96772e-12
0.0562773
0.011551
1.53715e-08
0.0562773
0.011551
0.0562718
0.011556
-6.81045e-09
-0.0057214
0.00552687
8.39666e-12
-0.00572005
0.00552675
6.80266e-09
-0.00572005
0.00552675
-0.0057214
0.00552687
-7.60045e-09
0.00481442
0.0031791
-2.90689e-12
0.00481296
0.00317944
7.57213e-09
0.00481296
0.00317944
0.00481442
0.0031791
4.65268e-10
-0.00825553
0.00264832
7.25645e-12
-0.00825519
0.00264785
-4.73536e-10
-0.00825519
0.00264785
-0.00825553
0.00264832
1.94862e-09
-0.0100083
0.00116544
6.19955e-12
-0.0100083
0.00116528
-1.9514e-09
-0.0100083
0.00116528
-0.0100083
0.00116544
-2.55538e-08
-0.0125714
-0.000162491
2.79213e-12
-0.0125731
-0.000160938
2.55491e-08
-0.0125731
-0.000160938
-0.0125714
-0.000162491
4.5764e-08
-0.0205111
0.000459391
-4.13273e-12
-0.0205106
0.000456281
-4.57765e-08
-0.0205106
0.000456281
-0.0205111
0.000459391
-5.21051e-08
-0.0123746
0.00243828
-2.21113e-12
-0.0123751
0.00243955
5.20934e-08
-0.0123751
0.00243955
-0.0123746
0.00243828
5.93155e-09
-0.0179231
0.000979579
-1.25031e-12
-0.017921
0.000979053
-5.93702e-09
-0.017921
0.000979053
-0.0179231
0.000979579
-2.37936e-08
0.0017872
-0.018599
-0.00111129
-2.36067e-12
0.00178685
-0.0185993
-0.00110853
2.37888e-08
0.00178685
-0.0185993
-0.00110853
0.0017872
-0.018599
-0.00111129
-1.56251e-08
0.00680841
-0.0204764
-1.08715e-12
0.00681094
-0.0204777
1.56219e-08
0.00681094
-0.0204777
0.00680841
-0.0204764
-1.84656e-08
0.010257
-0.0195814
-2.97627e-13
0.0102586
-0.0195817
1.8464e-08
0.0102586
-0.0195817
0.010257
-0.0195814
-6.26372e-09
0.0102823
-0.017724
2.4154e-12
0.0102828
-0.0177271
6.26895e-09
0.0102828
-0.0177271
0.0102823
-0.017724
2.08399e-08
-0.00262413
0.0101432
5.13331e-12
-0.00262287
0.0101453
-2.08413e-08
-0.00262287
0.0101453
-0.00262413
0.0101432
-6.52253e-09
-0.000677265
0.00306337
0.000227504
-9.85713e-13
-0.000677131
0.00306377
0.000227897
6.52324e-09
-0.000677131
0.00306377
0.000227897
-0.000677265
0.00306337
0.000227504
-7.51835e-09
0.00375241
-4.7247e-12
0.00375274
7.52292e-09
0.00375274
0.00375241
1.65995e-08
-0.00707133
0.0103713
-6.03807e-13
-0.00707054
0.0103713
-1.66074e-08
-0.00707054
0.0103713
-0.00707133
0.0103713
7.08852e-09
-0.00983101
0.00904472
-1.06732e-12
-0.00983118
0.00904571
-7.08664e-09
-0.00983118
0.00904571
-0.00983101
0.00904472
3.51725e-08
-0.0125567
0.00851669
-3.28468e-12
-0.0125585
0.00851752
-3.51672e-08
-0.0125585
0.00851752
-0.0125567
0.00851669
5.77151e-09
-0.0153443
0.00844286
-2.82691e-12
-0.0153483
0.0084457
-5.77056e-09
-0.0153483
0.0084457
-0.0153443
0.00844286
1.4632e-08
-0.0163969
0.0089961
2.26503e-12
-0.0164017
0.00899666
-1.46259e-08
-0.0164017
0.00899666
-0.0163969
0.0089961
3.23356e-09
-0.0153409
0.00922634
3.41568e-12
-0.0153448
0.00922584
-3.22818e-09
-0.0153448
0.00922584
-0.0153409
0.00922634
2.55332e-08
0.00660882
0.00834874
6.06135e-12
0.00660921
0.00834906
-2.55172e-08
0.00660921
0.00834906
0.00660882
0.00834874
-1.90033e-10
0.00322943
-0.00156599
-0.0202624
-2.00987e-12
0.00322999
-0.00156564
-0.0202636
1.90074e-10
0.00322999
-0.00156564
-0.0202636
0.00322943
-0.00156599
-0.0202624
5.93782e-09
0.00521859
-0.0224656
-3.69018e-13
0.00521854
-0.0224663
-5.93745e-09
0.00521854
-0.0224663
0.00521859
-0.0224656
-6.03756e-09
0.00758179
-0.0219446
2.841e-12
0.00758191
-0.021945
6.03873e-09
0.00758191
-0.021945
0.00758179
-0.0219446
7.46003e-13
0.00925001
-0.0193922
6.8542e-12
0.00925002
-0.0193952
4.76914e-12
0.00925002
-0.0193952
0.00925001
-0.0193922
1.06294e-08
-0.0144549
0.00836396
6.60841e-12
-0.0144576
0.00836291
-1.06195e-08
-0.0144576
0.00836291
-0.0144549
0.00836396
1.18302e-09
-0.00723668
0.0041636
1.025e-11
-0.00723534
0.00416314
-1.18103e-09
-0.00723534
0.00416314
-0.00723668
0.0041636
2.0638e-09
-0.00911054
0.0030393
6.36967e-12
-0.00910955
0.00303949
-2.05942e-09
-0.00910955
0.00303949
-0.00911054
0.0030393
-4.4433e-09
-0.0115385
0.00226546
6.32126e-12
-0.0115377
0.00226724
4.45124e-09
-0.0115377
0.00226724
-0.0115385
0.00226546
-2.10196e-10
-0.0132259
0.00214685
3.69591e-12
-0.0132274
0.00214594
2.11959e-10
-0.0132274
0.00214594
-0.0132259
0.00214685
4.7057e-09
-0.0130691
0.0022814
1.04344e-12
-0.0130713
0.00228344
-4.71084e-09
-0.0130713
0.00228344
-0.0130691
0.0022814
1.04337e-09
-0.0133998
0.00131035
-6.62871e-13
-0.0134023
0.00131005
-1.04959e-09
-0.0134023
0.00131005
-0.0133998
0.00131035
-1.40079e-09
-0.0150865
0.000575408
-3.68624e-12
-0.0150878
0.000577035
1.39785e-09
-0.0150878
0.000577035
-0.0150865
0.000575408
2.77497e-09
-0.000959191
-0.0156933
8.84568e-13
-0.0009585
-0.015695
-2.77089e-09
-0.0009585
-0.015695
-0.000959191
-0.0156933
1.43084e-08
0.00432857
-0.000569543
4.28016e-12
0.00432945
-0.000571144
-1.43077e-08
0.00432945
-0.000571144
0.00432857
-0.000569543
1.46845e-08
0.00120992
0.00426927
4.84794e-13
0.0012098
0.00426999
-1.46817e-08
0.0012098
0.00426999
0.00120992
0.00426927
1.61034e-08
0.00400358
0.0002697
9.80307e-13
0.00400426
0.000269325
-1.61023e-08
0.00400426
0.000269325
0.00400358
0.0002697
-4.52905e-09
-0.00316808
0.00193919
0.00549816
1.50009e-12
-0.00316767
0.00193958
0.00549808
4.52606e-09
-0.00316767
0.00193958
0.00549808
-0.00316808
0.00193919
0.00549816
-1.01143e-08
-0.00413906
0.00482441
3.88071e-12
-0.00413938
0.00482505
1.01173e-08
-0.00413938
0.00482505
-0.00413906
0.00482441
-1.45709e-09
-0.0045232
0.00471271
3.96929e-12
-0.00452293
0.004713
1.46018e-09
-0.00452293
0.004713
-0.0045232
0.00471271
-7.90979e-09
-0.00752164
0.0024289
6.67267e-12
-0.00752281
0.00242873
7.91606e-09
-0.00752281
0.00242873
-0.00752164
0.0024289
3.12801e-11
-0.00646856
0.00311051
8.31547e-12
-0.00646974
0.00311007
-2.18834e-11
-0.00646974
0.00311007
-0.00646856
0.00311051
-4.0342e-10
-0.00740517
0.00397591
6.45248e-12
-0.00740586
0.0039756
4.10583e-10
-0.00740586
0.0039756
-0.00740517
0.00397591
-3.99576e-09
-0.00859701
0.0034573
4.26929e-12
-0.00859729
0.00345867
4.00255e-09
-0.00859729
0.00345867
-0.00859701
0.0034573
-6.30573e-09
-0.00934583
0.00289568
1.08036e-12
-0.00934714
0.00289578
6.30917e-09
-0.00934714
0.00289578
-0.00934583
0.00289568
-1.47466e-08
-0.00967992
0.00261549
-1.69317e-12
-0.00968045
0.00261674
1.47453e-08
-0.00968045
0.00261674
-0.00967992
0.00261549
-2.2335e-09
-0.0103268
0.0019572
-3.66205e-13
-0.0103279
0.00195752
2.23075e-09
-0.0103279
0.00195752
-0.0103268
0.0019572
-3.90821e-09
-0.0104483
0.000696898
-7.97576e-14
-0.0104489
0.000698006
3.90715e-09
-0.0104489