/*--------------------------------*- C++ -*----------------------------------*\
| =========                 |                                                 |
| \\      /  F ield         | OpenFOAM: The Open Source CFD Toolbox           |
|  \\    /   O peration     | Version:  v1806                                 |
|   \\  /    A nd           | Web:      www.OpenFOAM.com                      |
|    \\/     M anipulation  |                                                 |
\*---------------------------------------------------------------------------*/
FoamFile
{
    version     2.0;
    format      ascii;
    class       volVectorField;
    location    "330";
    object      U;
}
// * * * * * * * * * * * * * * * * * * * * * * * * * * * * * * * * * * * * * //

dimensions      [0 1 -1 0 0 0 0];


internalField   nonuniform List<vector> 
5052
(
(0.138358 -0.0901066 -0.00165411)
(0.138319 -0.0900947 -2.43599e-07)
(0.138319 -0.0900947 2.43598e-07)
(0.138358 -0.0901066 0.00165411)
(0.101486 -0.0915421 -0.00155772)
(0.101509 -0.0915202 -8.83442e-09)
(0.101509 -0.0915202 8.83391e-09)
(0.101486 -0.0915421 0.00155772)
(0.0982508 -0.0715769 -0.00173458)
(0.0982099 -0.0715906 -3.2872e-07)
(0.0982099 -0.0715906 3.28723e-07)
(0.0982508 -0.0715769 0.00173458)
(-0.0164852 -0.0114465 0.0002562)
(-0.0165008 -0.0114545 -1.00877e-08)
(-0.0165008 -0.0114545 1.00927e-08)
(-0.0164852 -0.0114465 -0.0002562)
(0.0398546 -0.0282805 0.000255734)
(0.0398681 -0.0282629 6.20545e-08)
(0.0398681 -0.0282629 -6.20427e-08)
(0.0398546 -0.0282805 -0.000255734)
(0.0113726 -0.0133406 0.000252292)
(0.0113766 -0.0133135 5.35683e-08)
(0.0113766 -0.0133135 -5.35696e-08)
(0.0113726 -0.0133406 -0.000252292)
(0.220755 0.164037 -0.000650511)
(0.220797 0.164051 1.65571e-07)
(0.220797 0.164051 -1.6555e-07)
(0.220755 0.164037 0.000650511)
(0.205556 0.174281 -0.000582453)
(0.205608 0.174286 1.69257e-07)
(0.205608 0.174286 -1.69252e-07)
(0.205556 0.174281 0.000582453)
(0.184854 0.15845 -0.000931711)
(0.184842 0.158527 7.85945e-08)
(0.184842 0.158527 -7.85872e-08)
(0.184854 0.15845 0.000931711)
(0.197504 0.156109 -0.000889907)
(0.197505 0.156123 3.4518e-08)
(0.197505 0.156123 -3.44522e-08)
(0.197504 0.156109 0.000889907)
(0.217998 0.144754 -0.00082095)
(0.218026 0.144789 5.05564e-08)
(0.218026 0.144789 -5.05409e-08)
(0.217998 0.144754 0.00082095)
(-0.0296439 -0.0218227 0.000224252)
(-0.0296465 -0.0218251 -2.75414e-08)
(-0.0296465 -0.0218251 2.75323e-08)
(-0.0296439 -0.0218227 -0.000224252)
(-0.0313815 -0.0129728 0.000227625)
(-0.031384 -0.0129677 2.85957e-08)
(-0.031384 -0.0129677 -2.86147e-08)
(-0.0313815 -0.0129728 -0.000227625)
(0.180112 -0.150263 -0.00104791)
(0.180172 -0.150261 4.91522e-08)
(0.180172 -0.150261 -4.91476e-08)
(0.180112 -0.150263 0.00104791)
(0.148017 -0.141998 -0.0011188)
(0.148054 -0.142046 3.26931e-07)
(0.148054 -0.142046 -3.26926e-07)
(0.148017 -0.141998 0.0011188)
(0.167367 -0.146758 -0.000934274)
(0.167407 -0.146758 1.60368e-07)
(0.167407 -0.146758 -1.60366e-07)
(0.167367 -0.146758 0.000934274)
(-0.0146634 -0.0377232 0.000255674)
(-0.0146632 -0.0377302 4.18287e-08)
(-0.0146632 -0.0377302 -4.18249e-08)
(-0.0146634 -0.0377232 -0.000255674)
(-0.0162642 -0.0319619 0.000256137)
(-0.0162688 -0.0319658 4.23636e-08)
(-0.0162688 -0.0319658 -4.23838e-08)
(-0.0162642 -0.0319619 -0.000256137)
(-0.0158521 -0.0370861 0.000247678)
(-0.0158615 -0.0371062 -7.08148e-10)
(-0.0158615 -0.0371062 6.87802e-10)
(-0.0158521 -0.0370861 -0.000247678)
(0.236349 -0.189766 -0.000251315)
(0.236391 -0.189785 1.5634e-08)
(0.236391 -0.189785 -1.56335e-08)
(0.236349 -0.189766 0.000251315)
(0.197942 -0.177938 -0.000283597)
(0.198009 -0.177927 1.06362e-07)
(0.198009 -0.177927 -1.06368e-07)
(0.197942 -0.177938 0.000283597)
(0.20603 -0.181134 -2.32827e-05)
(0.206062 -0.181209 3.38962e-07)
(0.206062 -0.181209 -3.38966e-07)
(0.20603 -0.181134 2.32827e-05)
(-0.0186302 0.0118511 0.000236556)
(-0.0186339 0.0118501 -1.0105e-08)
(-0.0186339 0.0118501 1.00872e-08)
(-0.0186302 0.0118511 -0.000236556)
(-0.0167706 0.00861535 0.000235501)
(-0.0167778 0.00861111 4.80734e-08)
(-0.0167778 0.00861111 -4.80855e-08)
(-0.0167706 0.00861535 -0.000235501)
(-0.0190194 0.015052 0.000246302)
(-0.0190238 0.0150503 3.01191e-08)
(-0.0190238 0.0150503 -3.0115e-08)
(-0.0190194 0.015052 -0.000246302)
(-0.0760309 -0.0172978 0.00028105)
(-0.076023 -0.0172828 -8.20667e-08)
(-0.076023 -0.0172828 8.2058e-08)
(-0.0760309 -0.0172978 -0.00028105)
(-0.0754496 -0.0121131 0.000291739)
(-0.0754358 -0.0121003 5.5032e-08)
(-0.0754358 -0.0121003 -5.50624e-08)
(-0.0754496 -0.0121131 -0.000291739)
(-0.0620932 -0.0116521 0.000263424)
(-0.062106 -0.0116524 1.81599e-09)
(-0.062106 -0.0116524 -1.80678e-09)
(-0.0620932 -0.0116521 -0.000263424)
(-0.0581135 -0.0180477 0.000266424)
(-0.0581237 -0.0180336 9.9951e-08)
(-0.0581237 -0.0180336 -9.99103e-08)
(-0.0581135 -0.0180477 -0.000266424)
(0.213462 -0.181762 -0.00058426)
(0.213431 -0.181733 -6.65017e-08)
(0.213431 -0.181733 6.65097e-08)
(0.213462 -0.181762 0.00058426)
(0.208938 -0.183385 -0.000465732)
(0.208874 -0.183385 -4.01212e-07)
(0.208874 -0.183385 4.01206e-07)
(0.208938 -0.183385 0.000465732)
(0.142004 0.0403878 -0.00178331)
(0.142037 0.0403946 -2.94503e-08)
(0.142037 0.0403946 2.94557e-08)
(0.142004 0.0403878 0.00178331)
(0.113554 0.0813178 -0.00189292)
(0.113564 0.0813537 -2.46786e-08)
(0.113564 0.0813537 2.46759e-08)
(0.113554 0.0813178 0.00189292)
(0.126639 -0.00365039 -0.00187023)
(0.126626 -0.00370798 -2.42927e-07)
(0.126626 -0.00370798 2.42933e-07)
(0.126639 -0.00365039 0.00187023)
(0.0842113 -0.000190059 -0.0020171)
(0.0842151 -0.00023624 1.66593e-08)
(0.0842151 -0.00023624 -1.66695e-08)
(0.0842113 -0.000190059 0.0020171)
(0.193526 -0.00825794 -0.00146321)
(0.193498 -0.00827903 -2.68964e-07)
(0.193498 -0.00827903 2.68961e-07)
(0.193526 -0.00825794 0.00146321)
(0.214938 0.0133037 -0.00127418)
(0.214933 0.0132702 -3.47826e-08)
(0.214933 0.0132702 3.47831e-08)
(0.214938 0.0133037 0.00127418)
(0.212828 -0.0108518 -0.00129838)
(0.212833 -0.0108055 4.5171e-08)
(0.212833 -0.0108055 -4.51709e-08)
(0.212828 -0.0108518 0.00129838)
(0.171452 -0.030079 -0.00160965)
(0.171515 -0.0300592 1.01769e-07)
(0.171515 -0.0300592 -1.01764e-07)
(0.171452 -0.030079 0.00160965)
(0.15089 -0.0427218 -0.00171404)
(0.150939 -0.0427249 2.37911e-07)
(0.150939 -0.0427249 -2.37929e-07)
(0.15089 -0.0427218 0.00171404)
(0.22601 -0.0057673 -0.00118583)
(0.226 -0.00576452 -2.49114e-07)
(0.226 -0.00576452 2.49114e-07)
(0.22601 -0.0057673 0.00118583)
(0.235337 0.0029652 -0.00108877)
(0.235304 0.00296302 -1.00208e-07)
(0.235304 0.00296302 1.0021e-07)
(0.235337 0.0029652 0.00108877)
(0.248588 0.00324178 -0.00097543)
(0.248575 0.00324591 -1.35245e-07)
(0.248575 0.00324591 1.35248e-07)
(0.248588 0.00324178 0.00097543)
(0.239035 -0.0132597 -0.00106071)
(0.239009 -0.013237 -2.01945e-07)
(0.239009 -0.013237 2.01949e-07)
(0.239035 -0.0132597 0.00106071)
(0.249285 -0.00314951 -0.000966886)
(0.249267 -0.00315394 -2.03334e-07)
(0.249267 -0.00315394 2.03338e-07)
(0.249285 -0.00314951 0.000966886)
(0.233221 0.0066867 -0.00112599)
(0.233199 0.0067016 -3.08023e-07)
(0.233199 0.0067016 3.08028e-07)
(0.233221 0.0066867 0.00112599)
(0.246611 0.0136252 -0.000983492)
(0.246584 0.0136156 -1.6469e-07)
(0.246584 0.0136156 1.64693e-07)
(0.246611 0.0136252 0.000983492)
(0.194611 0.00813815 -0.0014542)
(0.194575 0.00813976 -3.26847e-07)
(0.194575 0.00813976 3.2685e-07)
(0.194611 0.00813815 0.0014542)
(0.122683 -0.0538132 -0.0018018)
(0.122669 -0.0538065 5.09974e-08)
(0.122669 -0.0538065 -5.09957e-08)
(0.122683 -0.0538132 0.0018018)
(0.166745 -0.064116 -0.00159321)
(0.166716 -0.0641074 -2.02729e-07)
(0.166716 -0.0641074 2.02727e-07)
(0.166745 -0.064116 0.00159321)
(0.179471 -0.0513638 -0.00151388)
(0.179481 -0.0513516 8.26404e-09)
(0.179481 -0.0513516 -8.27335e-09)
(0.179471 -0.0513638 0.00151388)
(0.199719 -0.0337499 -0.00138891)
(0.199727 -0.0337513 -8.15125e-08)
(0.199727 -0.0337513 8.15118e-08)
(0.199719 -0.0337499 0.00138891)
(0.215441 -0.0271717 -0.00125874)
(0.215424 -0.0271534 -2.07654e-07)
(0.215424 -0.0271534 2.07656e-07)
(0.215441 -0.0271717 0.00125874)
(0.229534 -0.0226331 -0.00114157)
(0.229526 -0.0226689 -9.39292e-08)
(0.229526 -0.0226689 9.39317e-08)
(0.229534 -0.0226331 0.00114157)
(0.240683 -0.0201887 -0.00103872)
(0.240656 -0.0201948 -2.63777e-07)
(0.240656 -0.0201948 2.63782e-07)
(0.240683 -0.0201887 0.00103872)
(0.250719 -0.015783 -0.000940472)
(0.250706 -0.0158083 -5.44003e-08)
(0.250706 -0.0158083 5.44046e-08)
(0.250719 -0.015783 0.000940472)
(0.259761 -0.0154186 -0.000853797)
(0.259741 -0.0154231 -2.41631e-07)
(0.259741 -0.0154231 2.41632e-07)
(0.259761 -0.0154186 0.000853797)
(0.257984 -0.0104393 -0.000875533)
(0.257958 -0.0104129 -1.85562e-07)
(0.257958 -0.0104129 1.85564e-07)
(0.257984 -0.0104393 0.000875533)
(0.257629 0.000611149 -0.00087869)
(0.257624 0.000610961 -3.64766e-09)
(0.257624 0.000610961 3.64827e-09)
(0.257629 0.000611149 0.00087869)
(0.257837 0.00825855 -0.000876954)
(0.257827 0.00825288 -1.50748e-07)
(0.257827 0.00825288 1.50748e-07)
(0.257837 0.00825855 0.000876954)
(0.168996 0.0277457 -0.00162126)
(0.169046 0.0276997 -3.68201e-09)
(0.169046 0.0276997 3.69151e-09)
(0.168996 0.0277457 0.00162126)
(0.169301 -0.104252 -0.00144457)
(0.169252 -0.104264 -6.2757e-08)
(0.169252 -0.104264 6.27658e-08)
(0.169301 -0.104252 0.00144457)
(0.181934 -0.0805123 -0.00142065)
(0.181973 -0.0805271 1.26566e-07)
(0.181973 -0.0805271 -1.26556e-07)
(0.181934 -0.0805123 0.00142065)
(0.192691 -0.0668171 -0.00137433)
(0.192724 -0.0668042 -1.86396e-08)
(0.192724 -0.0668042 1.86446e-08)
(0.192691 -0.0668171 0.00137433)
(0.208769 -0.0497172 -0.00128296)
(0.208762 -0.0497399 -1.7974e-07)
(0.208762 -0.0497399 1.79743e-07)
(0.208769 -0.0497172 0.00128296)
(0.221959 -0.0416482 -0.00117607)
(0.221939 -0.0416716 -1.97794e-07)
(0.221939 -0.0416716 1.97797e-07)
(0.221959 -0.0416482 0.00117607)
(0.23454 -0.0344133 -0.00107623)
(0.234526 -0.0344402 -1.58525e-07)
(0.234526 -0.0344402 1.58531e-07)
(0.23454 -0.0344133 0.00107623)
(0.244325 -0.0299017 -0.000984119)
(0.244309 -0.0299285 -1.46705e-07)
(0.244309 -0.0299285 1.4671e-07)
(0.244325 -0.0299017 0.000984119)
(0.253938 -0.0250557 -0.000895203)
(0.25393 -0.0250609 -9.29109e-08)
(0.25393 -0.0250609 9.29133e-08)
(0.253938 -0.0250557 0.000895203)
(0.261676 -0.0217743 -0.00081805)
(0.261662 -0.0217945 -1.33176e-07)
(0.261662 -0.0217945 1.33176e-07)
(0.261676 -0.0217743 0.00081805)
(0.269017 -0.0187412 -0.000740707)
(0.269002 -0.0187372 -8.70771e-08)
(0.269002 -0.0187372 8.7078e-08)
(0.269017 -0.0187412 0.000740707)
(0.267401 -0.011537 -0.000769695)
(0.267379 -0.0115519 -7.36108e-08)
(0.267379 -0.0115519 7.36111e-08)
(0.267401 -0.011537 0.000769695)
(0.266512 -0.00338623 -0.000790394)
(0.266493 -0.003409 -1.52768e-07)
(0.266493 -0.003409 1.52768e-07)
(0.266512 -0.00338623 0.000790394)
(0.266148 0.00224476 -0.000796283)
(0.266136 0.00224124 -1.53126e-07)
(0.266136 0.00224124 1.53127e-07)
(0.266148 0.00224476 0.000796283)
(0.265954 0.00960634 -0.000789034)
(0.26593 0.00961172 -1.68415e-07)
(0.26593 0.00961172 1.68415e-07)
(0.265954 0.00960634 0.000789034)
(0.266597 0.016089 -0.000769638)
(0.266578 0.0160959 -1.51584e-07)
(0.266578 0.0160959 1.51584e-07)
(0.266597 0.016089 0.000769638)
(0.258794 0.0169831 -0.000857539)
(0.258783 0.0169944 -1.04536e-07)
(0.258783 0.0169944 1.04536e-07)
(0.258794 0.0169831 0.000857539)
(0.247607 0.0213454 -0.000958576)
(0.247599 0.0213397 -1.19448e-07)
(0.247599 0.0213397 1.1945e-07)
(0.247607 0.0213454 0.000958576)
(0.238009 0.0223409 -0.00106705)
(0.238004 0.0223788 -7.18637e-08)
(0.238004 0.0223788 7.18674e-08)
(0.238009 0.0223409 0.00106705)
(0.220193 0.0286009 -0.00119513)
(0.22017 0.0285915 -1.87165e-07)
(0.22017 0.0285915 1.87164e-07)
(0.220193 0.0286009 0.00119513)
(0.208069 0.0322445 -0.00132892)
(0.208032 0.0322636 -3.10207e-07)
(0.208032 0.0322636 3.10196e-07)
(0.208069 0.0322445 0.00132892)
(0.177562 0.0527983 -0.00147504)
(0.177547 0.0528101 -2.57631e-07)
(0.177547 0.0528101 2.57611e-07)
(0.177562 0.0527983 0.00147504)
(0.172187 0.0683369 -0.00156943)
(0.172272 0.0683724 1.55155e-08)
(0.172272 0.0683724 -1.55129e-08)
(0.172187 0.0683369 0.00156943)
(0.201379 0.0619565 -0.00128526)
(0.201386 0.0619755 -3.08546e-08)
(0.201386 0.0619755 3.08571e-08)
(0.201379 0.0619565 0.00128526)
(0.196017 0.0781909 -0.00129517)
(0.196025 0.0782074 5.01753e-09)
(0.196025 0.0782074 -5.0154e-09)
(0.196017 0.0781909 0.00129517)
(0.217239 0.0486418 -0.00121265)
(0.217243 0.0486405 -1.15925e-07)
(0.217243 0.0486405 1.15938e-07)
(0.217239 0.0486418 0.00121265)
(0.2272 0.042255 -0.00110899)
(0.227195 0.0422451 -1.29529e-07)
(0.227195 0.0422451 1.29534e-07)
(0.2272 0.042255 0.00110899)
(0.241918 0.0344365 -0.00100611)
(0.24191 0.034433 -1.50727e-07)
(0.24191 0.034433 1.50728e-07)
(0.241918 0.0344365 0.00100611)
(0.25041 0.0307428 -0.000907273)
(0.2504 0.0307388 -1.08551e-07)
(0.2504 0.0307388 1.08552e-07)
(0.25041 0.0307428 0.000907273)
(0.260959 0.0253544 -0.000818544)
(0.260945 0.0253554 -1.47613e-07)
(0.260945 0.0253554 1.47614e-07)
(0.260959 0.0253544 0.000818544)
(0.267958 0.0224772 -0.000736273)
(0.267937 0.0224845 -1.3844e-07)
(0.267937 0.0224845 1.38441e-07)
(0.267958 0.0224772 0.000736273)
(0.155869 -0.118932 -0.00139529)
(0.155852 -0.118883 -2.89628e-07)
(0.155852 -0.118883 2.89624e-07)
(0.155869 -0.118932 0.00139529)
(0.157983 -0.133545 -0.00127834)
(0.158021 -0.133589 5.10848e-08)
(0.158021 -0.133589 -5.10927e-08)
(0.157983 -0.133545 0.00127834)
(0.182682 -0.14026 -0.00115055)
(0.182728 -0.140277 9.24262e-08)
(0.182728 -0.140277 -9.24302e-08)
(0.182682 -0.14026 0.00115055)
(0.183297 -0.125552 -0.00121764)
(0.183303 -0.125527 -2.72089e-07)
(0.183303 -0.125527 2.72084e-07)
(0.183297 -0.125552 0.00121764)
(0.190773 -0.110119 -0.00125206)
(0.190708 -0.110092 -4.03022e-07)
(0.190708 -0.110092 4.03019e-07)
(0.190773 -0.110119 0.00125206)
(0.197497 -0.091616 -0.00124826)
(0.197508 -0.0915984 -5.13142e-08)
(0.197508 -0.0915984 5.13154e-08)
(0.197497 -0.091616 0.00124826)
(0.207201 -0.0773612 -0.00122318)
(0.207216 -0.0773731 -7.48793e-08)
(0.207216 -0.0773731 7.48794e-08)
(0.207201 -0.0773612 0.00122318)
(0.218759 -0.0619548 -0.00115879)
(0.218748 -0.0619927 -1.05303e-07)
(0.218748 -0.0619927 1.05307e-07)
(0.218759 -0.0619548 0.00115879)
(0.229703 -0.0531011 -0.00107873)
(0.229694 -0.0531327 -1.17926e-07)
(0.229694 -0.0531327 1.17932e-07)
(0.229703 -0.0531011 0.00107873)
(0.240188 -0.0447394 -0.000995736)
(0.24018 -0.0447719 -7.20206e-08)
(0.24018 -0.0447719 7.20251e-08)
(0.240188 -0.0447394 0.000995736)
(0.248871 -0.0389023 -0.000916974)
(0.24887 -0.038913 -5.93567e-08)
(0.24887 -0.038913 5.93589e-08)
(0.248871 -0.0389023 0.000916974)
(0.257181 -0.0331034 -0.000841323)
(0.257178 -0.0331036 -6.90985e-08)
(0.257178 -0.0331036 6.90991e-08)
(0.257181 -0.0331034 0.000841323)
(0.26422 -0.0290782 -0.000770236)
(0.264209 -0.0290821 -1.15591e-07)
(0.264209 -0.0290821 1.15592e-07)
(0.26422 -0.0290782 0.000770236)
(0.271123 -0.0245409 -0.000701023)
(0.271107 -0.0245389 -1.10807e-07)
(0.271107 -0.0245389 1.10808e-07)
(0.271123 -0.0245409 0.000701023)
(0.276858 -0.0215742 -0.000638111)
(0.276842 -0.0215828 -1.05317e-07)
(0.276842 -0.0215828 1.05318e-07)
(0.276858 -0.0215742 0.000638111)
(0.275387 -0.0162734 -0.00067375)
(0.275373 -0.0162874 -1.13923e-07)
(0.275373 -0.0162874 1.13924e-07)
(0.275387 -0.0162734 0.00067375)
(0.274181 -0.0111465 -0.000701042)
(0.274167 -0.0111467 -1.59228e-07)
(0.274167 -0.0111467 1.59228e-07)
(0.274181 -0.0111465 0.000701042)
(0.273154 -0.00601367 -0.000716758)
(0.273135 -0.00599828 -1.20688e-07)
(0.273135 -0.00599828 1.20688e-07)
(0.273154 -0.00601367 0.000716758)
(0.272851 0.000923676 -0.000720277)
(0.272832 0.00092582 -8.43137e-08)
(0.272832 0.00092582 8.4314e-08)
(0.272851 0.000923676 0.000720277)
(0.273259 0.00696296 -0.000713195)
(0.27324 0.00696305 -1.30454e-07)
(0.27324 0.00696305 1.30455e-07)
(0.273259 0.00696296 0.000713195)
(0.274019 0.0132852 -0.000694219)
(0.274001 0.013292 -1.06e-07)
(0.274001 0.013292 1.06e-07)
(0.274019 0.0132852 0.000694219)
(0.275188 0.0194483 -0.000665078)
(0.275171 0.0194513 -1.11832e-07)
(0.275171 0.0194513 1.11833e-07)
(0.275188 0.0194483 0.000665078)
(0.20811 0.082688 -0.00117666)
(0.208126 0.0826773 -1.39756e-07)
(0.208126 0.0826773 1.3975e-07)
(0.20811 0.082688 0.00117666)
(-0.0175651 0.00381914 0.000219048)
(-0.0175674 0.00382927 -1.98832e-08)
(-0.0175674 0.00382927 1.99019e-08)
(-0.0175651 0.00381914 -0.000219048)
(-0.00984875 9.01016e-05 0.000206802)
(-0.00984872 8.92584e-05 -2.60679e-08)
(-0.00984872 8.92584e-05 2.60314e-08)
(-0.00984875 9.01015e-05 -0.000206802)
(-0.0248235 -0.00445091 0.000222934)
(-0.024829 -0.00444967 -2.09966e-08)
(-0.024829 -0.00444967 2.10151e-08)
(-0.0248235 -0.00445091 -0.000222934)
(-0.0234084 -0.0113608 0.000222644)
(-0.0234154 -0.0113487 5.44402e-09)
(-0.0234154 -0.0113487 -5.40927e-09)
(-0.0234084 -0.0113608 -0.000222645)
(-0.0136662 -0.00862714 0.000223857)
(-0.0136645 -0.00862782 5.11398e-08)
(-0.0136645 -0.00862782 -5.1021e-08)
(-0.0136662 -0.00862714 -0.000223857)
(-0.0315592 -0.00489288 0.000228465)
(-0.0315611 -0.00489925 2.98051e-09)
(-0.0315611 -0.00489925 -3.06989e-09)
(-0.0315592 -0.00489288 -0.000228465)
(-0.0388642 -0.0140971 0.000235134)
(-0.0388773 -0.0141005 2.30156e-08)
(-0.0388773 -0.0141005 -2.29796e-08)
(-0.0388642 -0.0140971 -0.000235134)
(-0.0393872 -0.00573898 0.000235549)
(-0.0393998 -0.00574766 -4.02344e-09)
(-0.0393998 -0.00574766 4.03291e-09)
(-0.0393872 -0.00573898 -0.000235549)
(-0.0470417 -0.015341 0.000245386)
(-0.0470385 -0.0153486 -2.06599e-08)
(-0.0470385 -0.0153486 2.06696e-08)
(-0.0470417 -0.015341 -0.000245386)
(-0.048545 -0.00744732 0.000245438)
(-0.048548 -0.00745601 -4.24247e-08)
(-0.048548 -0.00745601 4.24081e-08)
(-0.048545 -0.00744732 -0.000245438)
(-0.0235607 0.00535026 0.000230492)
(-0.0235613 0.00535586 3.06907e-08)
(-0.0235613 0.00535586 -3.07547e-08)
(-0.0235607 0.00535026 -0.000230492)
(-0.0110089 0.00791471 0.000228934)
(-0.0110085 0.00791934 3.31919e-08)
(-0.0110085 0.00791934 -3.31977e-08)
(-0.0110089 0.00791471 -0.000228934)
(-0.0197241 -0.020705 0.000210219)
(-0.01972 -0.0207107 -6.52357e-08)
(-0.01972 -0.0207107 6.51718e-08)
(-0.0197241 -0.020705 -0.000210219)
(-0.0373209 -0.0240186 0.000234309)
(-0.0373315 -0.0240222 -1.84127e-08)
(-0.0373315 -0.0240222 1.84512e-08)
(-0.0373209 -0.0240186 -0.00023431)
(-0.0458278 -0.0250889 0.000243692)
(-0.0458309 -0.0250936 -4.47982e-08)
(-0.0458309 -0.0250936 4.48342e-08)
(-0.0458278 -0.0250889 -0.000243692)
(-0.05432 -0.0241893 0.000254578)
(-0.0543212 -0.0241825 -3.14049e-08)
(-0.0543212 -0.0241825 3.14271e-08)
(-0.05432 -0.0241893 -0.000254578)
(-0.0631575 -0.0259475 0.000267272)
(-0.0631581 -0.0259474 -9.51654e-08)
(-0.0631581 -0.0259474 9.51494e-08)
(-0.0631575 -0.0259475 -0.000267272)
(-0.0714958 -0.0231492 0.000285183)
(-0.0714769 -0.0231665 7.84977e-09)
(-0.0714769 -0.0231665 -7.81323e-09)
(-0.0714958 -0.0231492 -0.000285183)
(0.226183 0.0589637 -0.00109546)
(0.226163 0.0589834 -2.04629e-07)
(0.226163 0.0589834 2.04627e-07)
(0.226183 0.0589637 0.00109546)
(0.234496 0.055039 -0.00100685)
(0.234485 0.0550193 -2.06771e-07)
(0.234485 0.0550193 2.06771e-07)
(0.234496 0.055039 0.00100685)
(0.247179 0.0437293 -0.000923402)
(0.247165 0.0437285 -1.54086e-07)
(0.247165 0.0437285 1.54085e-07)
(0.247179 0.0437293 0.000923402)
(0.254326 0.039814 -0.000840446)
(0.254316 0.0397937 -1.51218e-07)
(0.254316 0.0397937 1.51219e-07)
(0.254326 0.039814 0.000840446)
(0.263959 0.0327298 -0.000761672)
(0.263938 0.0327336 -1.71447e-07)
(0.263938 0.0327336 1.71448e-07)
(0.263959 0.0327298 0.000761672)
(0.270044 0.0291644 -0.000689478)
(0.270023 0.0291633 -1.43167e-07)
(0.270023 0.0291633 1.43167e-07)
(0.270044 0.0291644 0.000689478)
(0.276822 0.0249644 -0.000624902)
(0.276803 0.0249687 -1.18686e-07)
(0.276803 0.0249687 1.18686e-07)
(0.276822 0.0249644 0.000624902)
(0.185641 -0.168402 -0.000759933)
(0.185641 -0.168426 9.22078e-08)
(0.185641 -0.168426 -9.22039e-08)
(0.185641 -0.168402 0.000759933)
(0.200072 -0.162352 -0.000885235)
(0.200118 -0.16239 1.79392e-07)
(0.200118 -0.16239 -1.79388e-07)
(0.200072 -0.162352 0.000885235)
(0.199907 -0.146542 -0.000980125)
(0.199962 -0.146575 2.10139e-07)
(0.199962 -0.146575 -2.10142e-07)
(0.199907 -0.146542 0.000980125)
(0.202096 -0.130088 -0.00104722)
(0.202111 -0.130108 -8.64994e-08)
(0.202111 -0.130108 8.64932e-08)
(0.202096 -0.130088 0.00104722)
(0.207482 -0.115 -0.00107722)
(0.20745 -0.114999 -2.3446e-07)
(0.20745 -0.114999 2.34453e-07)
(0.207482 -0.115 0.00107722)
(0.212422 -0.0992805 -0.00108797)
(0.212423 -0.0992541 -1.61134e-07)
(0.212423 -0.0992541 1.61132e-07)
(0.212422 -0.0992805 0.00108797)
(0.220488 -0.0856544 -0.001073)
(0.220477 -0.0856649 -1.41209e-07)
(0.220477 -0.0856649 1.41212e-07)
(0.220488 -0.0856544 0.001073)
(0.228558 -0.0723644 -0.00103128)
(0.228541 -0.0723797 -1.21434e-07)
(0.228541 -0.0723797 1.2144e-07)
(0.228558 -0.0723644 0.00103128)
(0.237798 -0.0626147 -0.00097149)
(0.237783 -0.0626389 -1.01282e-07)
(0.237783 -0.0626389 1.01286e-07)
(0.237798 -0.0626147 0.00097149)
(0.246043 -0.0537504 -0.000906673)
(0.246047 -0.0537655 2.68501e-08)
(0.246047 -0.0537655 -2.68488e-08)
(0.246043 -0.0537504 0.000906673)
(0.25368 -0.0470287 -0.000841113)
(0.253693 -0.0470265 -2.47863e-09)
(0.253693 -0.0470265 2.47822e-09)
(0.25368 -0.0470287 0.000841113)
(0.260877 -0.040387 -0.000775738)
(0.260875 -0.0403844 -7.56576e-08)
(0.260875 -0.0403844 7.56572e-08)
(0.260877 -0.040387 0.000775738)
(0.267427 -0.0351281 -0.000712085)
(0.267413 -0.0351287 -1.33693e-07)
(0.267413 -0.0351287 1.33693e-07)
(0.267427 -0.0351281 0.000712085)
(0.27334 -0.0301633 -0.00065251)
(0.273322 -0.0301671 -1.23605e-07)
(0.273322 -0.0301671 1.23606e-07)
(0.27334 -0.0301633 0.00065251)
(0.278721 -0.0261775 -0.000594902)
(0.278704 -0.0261858 -1.05697e-07)
(0.278704 -0.0261858 1.05697e-07)
(0.278721 -0.0261775 0.000594902)
(0.283345 -0.0223928 -0.000543387)
(0.28333 -0.0223959 -6.94578e-08)
(0.28333 -0.0223959 6.94583e-08)
(0.283345 -0.0223928 0.000543387)
(0.281984 -0.0181933 -0.000582582)
(0.281969 -0.0181939 -8.02733e-08)
(0.281969 -0.0181939 8.02738e-08)
(0.281984 -0.0181933 0.000582582)
(0.280699 -0.0136266 -0.000614551)
(0.280683 -0.0136257 -7.22853e-08)
(0.280683 -0.0136257 7.22857e-08)
(0.280699 -0.0136266 0.000614551)
(0.279674 -0.00847242 -0.000638349)
(0.279654 -0.00848364 -6.0564e-08)
(0.279654 -0.00848364 6.05642e-08)
(0.279674 -0.00847242 0.000638349)
(0.279179 -0.00294186 -0.00065275)
(0.279165 -0.00295824 -9.20897e-08)
(0.279165 -0.00295824 9.20897e-08)
(0.279179 -0.00294186 0.00065275)
(0.278996 0.00193175 -0.000656222)
(0.278986 0.00193061 -1.02486e-07)
(0.278986 0.00193061 1.02486e-07)
(0.278996 0.00193175 0.000656222)
(0.279041 0.00729088 -0.000648583)
(0.279025 0.00729713 -1.02584e-07)
(0.279025 0.00729713 1.02584e-07)
(0.279041 0.00729088 0.000648583)
(0.279528 0.0123206 -0.000631044)
(0.279512 0.0123275 -1.01739e-07)
(0.279512 0.0123275 1.01739e-07)
(0.279528 0.0123206 0.000631044)
(0.280369 0.0171384 -0.000603547)
(0.280352 0.0171463 -9.02489e-08)
(0.280352 0.0171463 9.02492e-08)
(0.280369 0.0171384 0.000603547)
(0.281548 0.0218198 -0.000567121)
(0.281531 0.0218226 -8.5544e-08)
(0.281531 0.0218226 8.55439e-08)
(0.281548 0.0218198 0.000567121)
(0.145681 0.116176 -0.00148799)
(0.145687 0.116201 2.3347e-07)
(0.145687 0.116201 -2.33454e-07)
(0.145681 0.116176 0.00148799)
(0.190255 0.103853 -0.00123254)
(0.190302 0.103811 -3.02761e-08)
(0.190302 0.103811 3.02932e-08)
(0.190255 0.103853 0.00123254)
(-0.0238659 0.0116892 0.000239287)
(-0.0238659 0.0116934 -1.34426e-08)
(-0.0238659 0.0116934 1.34604e-08)
(-0.0238659 0.0116892 -0.000239287)
(-0.00694109 -0.0181995 0.00021141)
(-0.00693497 -0.0182001 -1.54586e-08)
(-0.00693497 -0.0182001 1.53892e-08)
(-0.00694109 -0.0181995 -0.00021141)
(-0.0312172 0.00422555 0.000234805)
(-0.031226 0.00422472 1.13077e-09)
(-0.031226 0.00422472 -1.11291e-09)
(-0.0312172 0.00422555 -0.000234805)
(-0.038339 0.00312583 0.0002415)
(-0.0383494 0.00312713 4.63836e-09)
(-0.0383494 0.00312713 -4.60971e-09)
(-0.038339 0.00312583 -0.0002415)
(-0.0474653 0.000764457 0.000250382)
(-0.0474593 0.000767608 -4.91685e-08)
(-0.0474593 0.000767608 4.91726e-08)
(-0.0474653 0.000764457 -0.000250382)
(-0.0601544 -0.00310315 0.000267516)
(-0.0601713 -0.00311397 7.00919e-08)
(-0.0601713 -0.00311397 -7.01236e-08)
(-0.0601544 -0.00310315 -0.000267516)
(-0.0654817 -0.0053438 0.000270552)
(-0.0654775 -0.00534777 -1.08872e-07)
(-0.0654775 -0.00534777 1.08838e-07)
(-0.0654817 -0.0053438 -0.000270552)
(-0.0694857 -0.00461546 0.000293068)
(-0.0694801 -0.00461599 1.49146e-08)
(-0.0694801 -0.00461599 -1.49347e-08)
(-0.0694857 -0.00461546 -0.000293068)
(-0.0776365 -0.00890845 0.000302176)
(-0.0776368 -0.0088982 -5.27229e-08)
(-0.0776368 -0.0088982 5.2703e-08)
(-0.0776365 -0.00890845 -0.000302176)
(-0.0869513 -0.0160185 0.000302382)
(-0.0869545 -0.0160156 -3.49178e-08)
(-0.0869545 -0.0160156 3.49056e-08)
(-0.0869513 -0.0160185 -0.000302382)
(-0.0857015 -0.0220104 0.000304803)
(-0.0856911 -0.0220192 -3.6266e-08)
(-0.0856911 -0.0220192 3.62566e-08)
(-0.0857015 -0.0220104 -0.000304803)
(-0.077285 -0.0276219 0.000312595)
(-0.0772849 -0.0276375 -1.20004e-08)
(-0.0772849 -0.0276375 1.20168e-08)
(-0.077285 -0.0276219 -0.000312595)
(-0.0242072 -0.0325866 0.000239074)
(-0.024205 -0.0326127 6.00554e-08)
(-0.024205 -0.0326127 -6.00281e-08)
(-0.0242072 -0.0325866 -0.000239074)
(-0.0112415 0.00955781 0.00023505)
(-0.0112445 0.00955863 -1.67902e-08)
(-0.0112445 0.00955863 1.67871e-08)
(-0.0112415 0.00955781 -0.00023505)
(-0.0152369 0.011169 0.000235884)
(-0.0152365 0.0111715 -2.49983e-08)
(-0.0152365 0.0111715 2.49753e-08)
(-0.0152369 0.011169 -0.000235884)
(-0.0299518 -0.0343366 0.000245772)
(-0.0299603 -0.0343336 3.8282e-08)
(-0.0299603 -0.0343336 -3.8303e-08)
(-0.0299518 -0.0343366 -0.000245772)
(-0.0371469 -0.0352275 0.000257434)
(-0.0371408 -0.035233 1.64645e-08)
(-0.0371408 -0.035233 -1.64592e-08)
(-0.0371469 -0.0352275 -0.000257434)
(-0.0445159 -0.0353746 0.000274914)
(-0.0445195 -0.0353821 7.86346e-08)
(-0.0445195 -0.0353821 -7.86369e-08)
(-0.0445159 -0.0353746 -0.000274914)
(-0.0519554 -0.0352003 0.000291565)
(-0.0519641 -0.035213 1.17601e-08)
(-0.0519641 -0.035213 -1.17747e-08)
(-0.0519554 -0.0352003 -0.000291565)
(-0.0588769 -0.0330204 0.000311582)
(-0.0588734 -0.0330248 2.83265e-08)
(-0.0588734 -0.0330248 -2.83062e-08)
(-0.0588769 -0.0330204 -0.000311582)
(-0.0630493 -0.031897 0.000330508)
(-0.0630503 -0.0319093 6.18267e-09)
(-0.0630503 -0.0319093 -6.16235e-09)
(-0.0630493 -0.031897 -0.000330508)
(-0.0158111 -0.0337233 0.000248523)
(-0.0157996 -0.0337137 4.97817e-08)
(-0.0157996 -0.0337137 -4.97268e-08)
(-0.0158111 -0.0337233 -0.000248523)
(-0.0826716 -0.0120332 0.000310047)
(-0.0826601 -0.0120306 -4.08617e-10)
(-0.0826601 -0.0120306 4.00148e-10)
(-0.0826716 -0.0120332 -0.000310047)
(-0.0926982 -0.017684 0.000312803)
(-0.0926927 -0.01768 1.25181e-08)
(-0.0926927 -0.01768 -1.25203e-08)
(-0.0926982 -0.017684 -0.000312803)
(-0.0919872 -0.0229439 0.000320957)
(-0.0919819 -0.022944 -1.24162e-08)
(-0.0919819 -0.022944 1.24264e-08)
(-0.0919872 -0.0229439 -0.000320957)
(-0.0811551 -0.0269539 0.000334976)
(-0.0811495 -0.0269645 1.32923e-11)
(-0.0811495 -0.0269645 2.12827e-11)
(-0.0811551 -0.0269539 -0.000334976)
(-0.063699 -0.0290349 0.000353665)
(-0.0636939 -0.0290441 2.12848e-08)
(-0.0636939 -0.0290441 -2.12397e-08)
(-0.063699 -0.0290349 -0.000353665)
(-0.0285428 0.0112888 0.000244789)
(-0.0285424 0.0112906 2.38046e-09)
(-0.0285424 0.0112906 -2.33884e-09)
(-0.0285428 0.0112888 -0.000244789)
(-0.0341014 0.0102195 0.00025157)
(-0.0341054 0.0102206 4.35609e-09)
(-0.0341054 0.0102206 -4.31732e-09)
(-0.0341014 0.0102195 -0.00025157)
(-0.0407548 0.0084698 0.000261211)
(-0.0407526 0.00847601 -8.38728e-09)
(-0.0407526 0.00847601 8.42619e-09)
(-0.0407548 0.0084698 -0.000261211)
(-0.0480507 0.0058975 0.000274007)
(-0.0480499 0.00588552 -3.93426e-10)
(-0.0480499 0.00588552 4.10698e-10)
(-0.0480507 0.0058975 -0.000274007)
(-0.0537322 0.00423897 0.000286441)
(-0.0537352 0.00425362 9.40315e-09)
(-0.0537352 0.00425362 -9.40925e-09)
(-0.0537322 0.00423897 -0.000286441)
(-0.057585 0.000728476 0.000297955)
(-0.057584 0.000727915 2.22565e-09)
(-0.057584 0.000727915 -2.24175e-09)
(-0.057585 0.000728476 -0.000297955)
(-0.0619193 -0.00304532 0.000307963)
(-0.0619173 -0.00303243 -3.08843e-09)
(-0.0619173 -0.00303243 3.06769e-09)
(-0.0619193 -0.00304532 -0.000307963)
(-0.0656148 -0.00735669 0.000312979)
(-0.0656102 -0.00735245 5.88264e-09)
(-0.0656102 -0.00735245 -5.87025e-09)
(-0.0656148 -0.00735669 -0.000312979)
(-0.0222032 0.0149466 0.000250003)
(-0.0222124 0.0149424 3.72621e-08)
(-0.0222124 0.0149424 -3.72386e-08)
(-0.0222032 0.0149466 -0.000250003)
(-0.0164967 0.014044 0.000247436)
(-0.0165018 0.0140474 3.61578e-08)
(-0.0165018 0.0140474 -3.61445e-08)
(-0.0164967 0.014044 -0.000247436)
(-0.0123515 0.0116355 0.000246909)
(-0.0123531 0.0116391 3.84548e-08)
(-0.0123531 0.0116391 -3.84443e-08)
(-0.0123515 0.0116355 -0.000246909)
(-0.0184034 0.0154424 0.000253857)
(-0.0184062 0.0154401 -8.84906e-09)
(-0.0184062 0.0154401 8.84909e-09)
(-0.0184034 0.0154424 -0.000253857)
(-0.0201858 0.0162147 0.000251402)
(-0.0201859 0.0162132 -2.18251e-08)
(-0.0201859 0.0162132 2.18509e-08)
(-0.0201858 0.0162147 -0.000251402)
(-0.0215275 0.0159484 0.000251894)
(-0.0215279 0.0159502 -3.74367e-09)
(-0.0215279 0.0159502 3.77271e-09)
(-0.0215275 0.0159484 -0.000251894)
(-0.0224418 0.0156899 0.000251194)
(-0.0224466 0.0156891 -1.97375e-08)
(-0.0224466 0.0156891 1.97849e-08)
(-0.0224418 0.0156899 -0.000251194)
(-0.0251939 0.0150823 0.000254065)
(-0.0251912 0.0150833 7.61968e-11)
(-0.0251912 0.0150833 -2.61012e-11)
(-0.0251939 0.0150823 -0.000254065)
(-0.0282142 0.014431 0.000260743)
(-0.0282181 0.0144322 -7.92457e-10)
(-0.0282181 0.0144322 8.31117e-10)
(-0.0282142 0.014431 -0.000260743)
(-0.0317336 0.0131307 0.000269999)
(-0.0317363 0.0131352 -7.80575e-09)
(-0.0317363 0.0131352 7.83715e-09)
(-0.0317336 0.0131307 -0.000269999)