/*--------------------------------*- C++ -*----------------------------------*\
| =========                 |                                                 |
| \\      /  F ield         | OpenFOAM: The Open Source CFD Toolbox           |
|  \\    /   O peration     | Version:  v1806                                 |
|   \\  /    A nd           | Web:      www.OpenFOAM.com                      |
|    \\/     M anipulation  |                                                 |
\*---------------------------------------------------------------------------*/
FoamFile
{
    version     2.0;
    format      ascii;
    class       volVectorField;
    location    "4";
    object      U;
}
// * * * * * * * * * * * * * * * * * * * * * * * * * * * * * * * * * * * * * //

dimensions      [0 1 -1 0 0 0 0];


internalField   nonuniform List<vector> 
5228
(
(0.345092 0.0321723 -0.00224251)
(0.345061 0.0321568 1.33892e-08)
(0.345061 0.0321569 -1.34299e-08)
(0.345092 0.0321725 0.00224251)
(0.325665 0.0549693 -0.00242421)
(0.325653 0.0549363 4.64189e-08)
(0.325653 0.0549363 -4.6414e-08)
(0.325665 0.0549694 0.00242421)
(0.323086 0.0460477 -0.0024632)
(0.32308 0.0460126 -4.16039e-09)
(0.32308 0.0460125 4.09919e-09)
(0.323086 0.0460475 0.0024632)
(0.332781 0.0630787 -0.00265629)
(0.332775 0.0630333 4.54735e-08)
(0.332775 0.0630332 -4.55069e-08)
(0.332781 0.0630785 0.00265629)
(0.54394 0.032433 -0.00357255)
(0.543868 0.0324193 3.0426e-08)
(0.543868 0.0324193 -3.0617e-08)
(0.54394 0.0324331 0.00357255)
(0.521475 -0.0391322 -0.00331074)
(0.521414 -0.0391222 7.76381e-08)
(0.521414 -0.0391222 -7.78327e-08)
(0.521475 -0.0391322 0.00331074)
(0.474017 0.0295009 -0.00311141)
(0.473953 0.0294798 2.232e-08)
(0.473953 0.0294799 -2.24367e-08)
(0.474017 0.029501 0.00311141)
(0.537089 0.020315 -0.00316727)
(0.537058 0.0202805 1.07948e-07)
(0.537058 0.0202805 -1.08068e-07)
(0.537089 0.020315 0.00316727)
(0.801586 0.0143311 -0.00371527)
(0.801584 0.0143092 -8.45038e-08)
(0.801584 0.0143092 8.4783e-08)
(0.801586 0.0143311 0.00371527)
(0.908962 -0.0217831 -0.0038807)
(0.90899 -0.0218064 -3.16268e-08)
(0.90899 -0.0218063 3.17018e-08)
(0.908962 -0.0217828 0.0038807)
(0.599952 -0.0897246 -0.00354433)
(0.599996 -0.0897398 -4.67946e-08)
(0.599996 -0.0897398 4.69376e-08)
(0.599952 -0.0897247 0.00354433)
(0.984482 0.102478 -0.00422901)
(0.984245 0.102766 1.07184e-07)
(0.984245 0.102766 -1.07679e-07)
(0.984482 0.102478 0.00422901)
(0.933864 0.0857031 -0.00454483)
(0.933722 0.0860044 8.26883e-07)
(0.933722 0.0860044 -8.27353e-07)
(0.933864 0.085703 0.00454483)
(0.801215 0.190864 -0.00434037)
(0.800951 0.190932 2.36321e-07)
(0.800951 0.190932 -2.36891e-07)
(0.801215 0.190864 0.00434037)
(0.737674 0.188225 -0.0043699)
(0.737505 0.188248 5.15448e-08)
(0.737505 0.188248 -5.20104e-08)
(0.737674 0.188225 0.0043699)
(0.838329 0.118281 -0.00433255)
(0.838149 0.118391 -2.36408e-09)
(0.838149 0.118391 1.97842e-09)
(0.838329 0.118281 0.00433255)
(0.478183 -0.0570501 -0.00323291)
(0.478235 -0.0570473 2.80093e-08)
(0.478235 -0.0570473 -2.78243e-08)
(0.478183 -0.0570502 0.00323291)
(0.430823 -0.126714 -0.00324839)
(0.430864 -0.126717 -3.35642e-08)
(0.430864 -0.126717 3.35771e-08)
(0.430822 -0.126714 0.00324839)
(0.522428 -0.133945 -0.00336792)
(0.522436 -0.133991 -2.71662e-08)
(0.522436 -0.133992 2.73473e-08)
(0.522428 -0.133945 0.00336792)
(0.890307 -0.015872 -0.00337451)
(0.890329 -0.0158982 8.59537e-08)
(0.89033 -0.0158983 -8.65049e-08)
(0.890307 -0.0158722 0.00337451)
(0.692193 -0.103906 -0.00347045)
(0.692177 -0.103896 -6.95551e-08)
(0.692177 -0.103896 6.92893e-08)
(0.692193 -0.103905 0.00347045)
(1.16071 0.0885788 -0.00404438)
(1.16075 0.08854 8.41178e-08)
(1.16075 0.08854 -8.4248e-08)
(1.16071 0.0885788 0.00404438)
(1.3245 0.2756 -0.00415746)
(1.32449 0.275606 -1.53947e-07)
(1.32449 0.275605 1.5374e-07)
(1.3245 0.275599 0.00415746)
(1.85683 -0.017617 -0.0101368)
(1.85638 -0.0176455 -1.37044e-06)
(1.85638 -0.0176456 1.37058e-06)
(1.85683 -0.0176172 0.0101368)
(1.79188 -0.0453321 -0.0114183)
(1.79148 -0.0453232 -2.23827e-06)
(1.79148 -0.0453229 2.23971e-06)
(1.79188 -0.0453315 0.0114183)
(0.141481 -0.0839476 -0.00300661)
(0.141528 -0.0839818 2.51658e-08)
(0.141528 -0.0839818 -2.51599e-08)
(0.141481 -0.0839474 0.00300661)
(0.313167 -0.116842 -0.00303062)
(0.313194 -0.116865 3.42739e-08)
(0.313194 -0.116865 -3.42027e-08)
(0.313167 -0.116842 0.00303062)
(0.265292 -0.0120848 -0.00294677)
(0.265301 -0.0121162 -2.03103e-08)
(0.265301 -0.0121162 2.03106e-08)
(0.265292 -0.0120848 0.00294677)
(2.58488 -0.0203446 -0.00556659)
(2.58482 -0.0203092 5.25053e-08)
(2.58482 -0.020309 -5.19883e-08)
(2.58488 -0.0203445 0.00556659)
(2.64741 0.0975708 -0.00518167)
(2.64743 0.0975858 -2.40872e-07)
(2.64743 0.0975858 2.40652e-07)
(2.64741 0.0975709 0.00518167)
(2.16395 -0.0207558 -0.0090818)
(2.16387 -0.0207138 -9.52888e-07)
(2.16386 -0.0207142 9.52068e-07)
(2.16395 -0.0207566 0.0090818)
(2.1571 -0.0286326 -0.0082323)
(2.15684 -0.0285789 -6.45863e-07)
(2.15684 -0.0285795 6.44749e-07)
(2.1571 -0.0286337 0.0082323)
(2.35668 -0.0166039 -0.00737748)
(2.35658 -0.016551 -1.00468e-06)
(2.35658 -0.0165515 1.00318e-06)
(2.35668 -0.016605 0.00737748)
(2.43536 -0.0208984 -0.00646097)
(2.43519 -0.0209934 -2.72435e-07)
(2.43519 -0.0209935 2.71312e-07)
(2.43536 -0.0208986 0.00646097)
(2.57031 -0.0562301 -0.00581536)
(2.57026 -0.0561651 -6.02986e-07)
(2.57026 -0.0561647 6.02256e-07)
(2.57031 -0.0562294 0.00581537)
(2.63265 -0.004742 -0.00521684)
(2.63253 -0.00485622 -1.00983e-07)
(2.63253 -0.00485601 1.00173e-07)
(2.63265 -0.00474151 0.00521684)
(2.73159 -0.0655324 -0.00477391)
(2.73158 -0.0653999 -3.43676e-07)
(2.73158 -0.0654001 3.43425e-07)
(2.73159 -0.0655327 0.00477391)
(2.72603 -0.0194898 -0.00470538)
(2.72594 -0.0194523 -1.2305e-07)
(2.72594 -0.0194525 1.23175e-07)
(2.72603 -0.01949 0.00470538)
(1.01423 -0.0821954 -0.012957)
(1.01301 -0.08215 -2.17914e-06)
(1.01301 -0.0821498 2.18074e-06)
(1.01423 -0.082195 0.012957)
(1.5921 -0.465961 -0.00961678)
(1.59138 -0.466912 -4.77661e-07)
(1.59138 -0.466912 4.78374e-07)
(1.5921 -0.465961 0.00961678)
(1.76633 -0.408776 -0.0087432)
(1.76649 -0.408776 -3.04618e-07)
(1.76649 -0.408776 3.06059e-07)
(1.76633 -0.408776 0.0087432)
(1.96748 -0.190747 -0.00834981)
(1.9671 -0.191023 -5.20497e-07)
(1.9671 -0.191023 5.21405e-07)
(1.96748 -0.190747 0.00834981)
(2.18293 -0.152225 -0.00760148)
(2.183 -0.152161 -2.64743e-07)
(2.183 -0.152161 2.65491e-07)
(2.18293 -0.152225 0.00760147)
(2.34314 -0.0826187 -0.00695355)
(2.34288 -0.0826855 -4.4182e-07)
(2.34288 -0.0826854 4.42616e-07)
(2.34314 -0.0826185 0.00695355)
(2.50001 -0.085492 -0.00632974)
(2.50004 -0.0855123 -2.13921e-07)
(2.50004 -0.0855126 2.14573e-07)
(2.50001 -0.0854926 0.00632974)
(2.51576 -0.104443 -0.00594862)
(2.51566 -0.104387 -6.18549e-08)
(2.51566 -0.104388 6.25137e-08)
(2.51576 -0.104444 0.00594862)
(2.59169 -0.117649 -0.00558081)
(2.59172 -0.117656 -2.75793e-07)
(2.59172 -0.117656 2.76453e-07)
(2.59169 -0.117649 0.00558081)
(2.62294 -0.0861449 -0.00515208)
(2.62291 -0.0860678 4.65395e-08)
(2.62291 -0.0860676 -4.62854e-08)
(2.62294 -0.0861446 0.00515208)
(2.72062 -0.104869 -0.00474373)
(2.72064 -0.104903 -2.92999e-07)
(2.72064 -0.104903 2.92888e-07)
(2.72062 -0.104869 0.00474373)
(2.76562 -0.051565 -0.00426931)
(2.76545 -0.0515743 -4.58876e-07)
(2.76545 -0.0515744 4.58921e-07)
(2.76562 -0.0515652 0.00426931)
(2.76317 0.00291862 -0.00430719)
(2.76297 0.00279716 -4.68795e-07)
(2.76297 0.00279689 4.68682e-07)
(2.76317 0.00291808 0.00430719)
(2.77253 0.047109 -0.00431172)
(2.77245 0.0470804 -4.63023e-07)
(2.77245 0.0470802 4.62721e-07)
(2.77253 0.0471088 0.00431172)
(2.78744 0.050321 -0.00422973)
(2.78732 0.0503956 -4.13829e-07)
(2.78732 0.0503957 4.13455e-07)
(2.78744 0.0503211 0.00422973)
(2.73966 0.0868776 -0.00460395)
(2.73965 0.0867989 -3.71911e-08)
(2.73965 0.0867991 3.66785e-08)
(2.73966 0.0868781 0.00460395)
(2.64315 0.0916388 -0.0050885)
(2.64309 0.0916396 -1.85395e-07)
(2.64309 0.0916394 1.84722e-07)
(2.64315 0.0916385 0.0050885)
(2.61196 0.120074 -0.0054216)
(2.61201 0.12005 7.71662e-08)
(2.61201 0.12005 -7.69059e-08)
(2.61196 0.120073 0.0054216)
(2.50064 0.0657388 -0.00603107)
(2.50047 0.0657085 -4.11599e-07)
(2.50047 0.0657085 4.1135e-07)
(2.50064 0.0657388 0.00603107)
(2.51423 0.11546 -0.00615746)
(2.51445 0.115507 4.73444e-07)
(2.51445 0.115507 -4.73251e-07)
(2.51423 0.11546 0.00615746)
(2.38985 0.0887651 -0.0067866)
(2.38961 0.0888854 -3.61398e-07)
(2.38961 0.0888855 3.61296e-07)
(2.38985 0.0887656 0.0067866)
(2.21506 0.13462 -0.00749925)
(2.21517 0.134622 -5.13493e-07)
(2.21517 0.134622 5.13261e-07)
(2.21506 0.134621 0.00749925)
(1.99844 0.143737 -0.00831529)
(1.99818 0.144064 -2.62685e-07)
(1.99818 0.144065 2.63732e-07)
(1.99844 0.143737 0.00831529)
(1.76235 0.314711 -0.00892835)
(1.76263 0.314712 -1.0302e-07)
(1.76263 0.314712 1.04954e-07)
(1.76235 0.31471 0.00892835)
(1.56268 0.344015 -0.0101036)
(1.56208 0.344909 -5.39401e-07)
(1.56208 0.344909 5.41314e-07)
(1.56268 0.344015 0.0101036)
(1.39318 -1.02345 -0.0088686)
(1.39354 -1.02374 1.58236e-06)
(1.39354 -1.02374 -1.58324e-06)
(1.39318 -1.02345 0.0088686)
(1.67545 -0.853909 -0.00789197)
(1.67557 -0.854167 4.8534e-07)
(1.67557 -0.854166 -4.86799e-07)
(1.67544 -0.853908 0.00789198)
(1.93818 -0.477966 -0.00870603)
(1.93814 -0.478109 -6.20665e-07)
(1.93814 -0.478109 6.19757e-07)
(1.93818 -0.477965 0.00870603)
(1.90074 -0.593197 -0.00885267)
(1.90076 -0.593329 -3.89815e-07)
(1.90076 -0.593329 3.88688e-07)
(1.90074 -0.593197 0.00885267)
(2.14277 -0.463498 -0.00867979)
(2.14274 -0.463563 -4.11643e-07)
(2.14274 -0.463563 4.09941e-07)
(2.14277 -0.463499 0.00867979)
(2.15762 -0.500463 -0.00815012)
(2.15762 -0.500488 -3.39085e-07)
(2.15762 -0.500489 3.37939e-07)
(2.15762 -0.500465 0.00815012)
(2.26022 -0.365698 -0.0075176)
(2.2601 -0.365766 -6.61056e-07)
(2.2601 -0.365767 6.60605e-07)
(2.26022 -0.365699 0.0075176)
(2.31186 -0.261147 -0.00677995)
(2.31174 -0.261161 -5.3962e-07)
(2.31174 -0.261161 5.3912e-07)
(2.31186 -0.261149 0.00677995)
(2.4335 -0.165889 -0.00619224)
(2.43345 -0.165897 -2.89044e-07)
(2.43345 -0.165897 2.88411e-07)
(2.4335 -0.165889 0.00619224)
(2.56177 -0.157449 -0.00563129)
(2.56168 -0.157525 -3.51624e-07)
(2.56168 -0.157525 3.51128e-07)
(2.56176 -0.157448 0.00563129)
(2.649 -0.171266 -0.00511277)
(2.64892 -0.171233 -3.28305e-07)
(2.64892 -0.171233 3.27713e-07)
(2.649 -0.171266 0.00511277)
(2.7221 -0.171505 -0.00463354)
(2.722 -0.171612 -4.48792e-07)
(2.722 -0.171612 4.48518e-07)
(2.7221 -0.171505 0.00463354)
(2.76529 -0.111211 -0.00417139)
(2.76514 -0.111194 -4.85852e-07)
(2.76514 -0.111194 4.85931e-07)
(2.76529 -0.111212 0.00417139)
(2.81707 -0.0792865 -0.00379555)
(2.81703 -0.0793347 -2.70244e-07)
(2.81703 -0.0793347 2.70575e-07)
(2.81706 -0.0792867 0.00379555)
(2.82557 -0.0657494 -0.00389383)
(2.82554 -0.0657439 -3.46098e-07)
(2.82554 -0.0657439 3.4621e-07)
(2.82557 -0.0657497 0.00389383)
(2.81447 -0.0396757 -0.00394561)
(2.81447 -0.039576 -2.69534e-07)
(2.81447 -0.0395761 2.6972e-07)
(2.81447 -0.0396759 0.00394561)
(2.81306 -0.00762867 -0.00391145)
(2.813 -0.00763543 -1.68426e-07)
(2.813 -0.00763547 1.68566e-07)
(2.81306 -0.00762879 0.00391145)
(2.8054 0.0570721 -0.00385626)
(2.80536 0.0569962 -1.75594e-07)
(2.80536 0.0569961 1.75639e-07)
(2.8054 0.0570718 0.00385626)
(2.82469 0.0767909 -0.00377222)
(2.82465 0.0767241 -2.77366e-07)
(2.82465 0.0767239 2.77454e-07)
(2.82469 0.0767906 0.00377222)
(2.77145 0.0812651 -0.0041132)
(2.77133 0.0813404 -5.10015e-07)
(2.77132 0.0813404 5.1011e-07)
(2.77145 0.081265 0.0041132)
(2.72971 0.152319 -0.00456081)
(2.72962 0.152264 -4.42089e-07)
(2.72962 0.152264 4.42708e-07)
(2.72971 0.152319 0.00456081)
(2.66127 0.178256 -0.00505174)
(2.66126 0.178338 -1.1388e-08)
(2.66126 0.178338 1.16945e-08)
(2.66127 0.178256 0.00505174)
(2.58883 0.167651 -0.00556786)
(2.5888 0.167615 -1.08139e-07)
(2.5888 0.167615 1.08773e-07)
(2.58883 0.167651 0.00556786)
(2.46412 0.136492 -0.00615498)
(2.46402 0.1366 -4.10417e-07)
(2.46402 0.1366 4.10232e-07)
(2.46412 0.136492 0.00615498)
(2.31359 0.224414 -0.00675427)
(2.31348 0.224468 -5.0084e-07)
(2.31348 0.224468 5.00395e-07)
(2.31359 0.224414 0.00675427)
(2.25869 0.305691 -0.00745957)
(2.25862 0.305697 -5.12017e-07)
(2.25862 0.305697 5.11613e-07)
(2.25869 0.305691 0.00745957)
(2.15038 0.457533 -0.00811657)
(2.15034 0.457566 -3.45495e-07)
(2.15034 0.457567 3.45003e-07)
(2.15038 0.457533 0.00811657)
(2.16326 0.434447 -0.00874491)
(2.16325 0.43457 -4.61191e-07)
(2.16325 0.43457 4.61492e-07)
(2.16326 0.434448 0.00874491)
(1.90987 0.537086 -0.00920868)
(1.90996 0.53713 -3.18602e-07)
(1.90996 0.53713 3.19324e-07)
(1.90987 0.537086 0.00920868)
(1.91416 0.44984 -0.00940164)
(1.91422 0.449984 -3.826e-07)
(1.91422 0.449984 3.83146e-07)
(1.91416 0.44984 0.00940164)
(1.27231 0.760036 -0.0104586)
(1.27275 0.760155 5.49858e-07)
(1.27275 0.760155 -5.4768e-07)
(1.27231 0.760036 0.0104586)
(1.62779 0.750224 -0.00908392)
(1.62813 0.750281 4.38363e-07)
(1.62813 0.750281 -4.38024e-07)
(1.62779 0.750224 0.00908392)
(1.90052 0.637058 -0.00685639)
(1.90112 0.637074 7.1604e-07)
(1.90112 0.637074 -7.15747e-07)
(1.90052 0.637058 0.00685639)
(2.06399 -0.585138 -0.00525144)
(2.06457 -0.585048 7.9234e-07)
(2.06457 -0.585048 -7.927e-07)
(2.06399 -0.585138 0.00525144)
(0.290851 0.00246271 -0.00208941)
(0.290854 0.00245784 3.95625e-08)
(0.290854 0.00245785 -3.95551e-08)
(0.290851 0.00246276 0.00208941)
(0.314614 0.0440304 -0.00204873)
(0.314602 0.0440048 1.28798e-08)
(0.314602 0.0440048 -1.29232e-08)
(0.314614 0.0440305 0.00204873)
(0.346485 0.0674651 -0.00296502)
(0.346469 0.0673884 1.17091e-08)
(0.346469 0.0673884 -1.17742e-08)
(0.346485 0.067465 0.00296502)
(0.389995 0.0738701 -0.00302643)
(0.389933 0.0738488 4.27255e-08)
(0.389933 0.073849 -4.28318e-08)
(0.389995 0.0738703 0.00302643)
(0.387273 0.0558952 -0.0026605)
(0.387239 0.0559047 2.33114e-08)
(0.387239 0.0559047 -2.33381e-08)
(0.387273 0.0558951 0.0026605)
(0.419113 0.046689 -0.00289608)
(0.419061 0.0466458 4.78025e-08)
(0.419061 0.0466458 -4.79002e-08)
(0.419113 0.0466888 0.00289608)
(0.461228 0.0110135 -0.0029026)
(0.461158 0.0109863 3.46123e-08)
(0.461158 0.0109863 -3.47049e-08)
(0.461228 0.0110134 0.0029026)
(0.415731 0.00438974 -0.00264455)
(0.415711 0.00435795 4.02863e-08)
(0.415711 0.00435795 -4.03386e-08)
(0.415731 0.00438972 0.00264455)
(0.356739 -0.0115169 -0.00239124)
(0.356711 -0.0115215 5.11566e-08)
(0.356711 -0.0115215 -5.12196e-08)
(0.356739 -0.0115169 0.00239124)
(0.330808 -0.0012356 -0.00215988)
(0.330786 -0.00124922 1.41306e-08)
(0.330786 -0.00124922 -1.41894e-08)
(0.330808 -0.00123556 0.00215988)
(0.288938 0.016014 -0.00185568)
(0.28894 0.0160007 2.33163e-08)
(0.28894 0.0160007 -2.3357e-08)
(0.288938 0.016014 0.00185568)
(0.28466 0.00125208 -0.00184596)
(0.284648 0.00123449 3.9652e-08)
(0.284648 0.00123448 -3.97041e-08)
(0.28466 0.0012521 0.00184596)
(0.301146 -0.0193852 -0.00187685)
(0.301142 -0.0193828 4.42068e-08)
(0.301142 -0.0193828 -4.42654e-08)
(0.301146 -0.0193852 0.00187685)
(0.315259 0.0459296 -0.00223869)
(0.315262 0.0459148 4.02478e-08)
(0.315262 0.0459148 -4.02803e-08)
(0.315259 0.0459296 0.00223869)
(0.298832 0.0468423 -0.00203231)
(0.298825 0.0468358 4.65753e-09)
(0.298825 0.0468358 -4.68771e-09)
(0.298832 0.0468424 0.00203231)
(0.283822 0.0488345 -0.00181365)
(0.283824 0.0488212 3.32314e-08)
(0.283824 0.0488212 -3.32665e-08)
(0.283822 0.0488346 0.00181365)
(0.57309 0.0147604 -0.00386714)
(0.573014 0.0147656 1.39848e-07)
(0.573014 0.0147656 -1.4014e-07)
(0.57309 0.0147605 0.00386714)
(0.65088 0.0935831 -0.00412735)
(0.650817 0.0935308 9.93551e-08)
(0.650817 0.0935308 -9.96794e-08)
(0.65088 0.093583 0.00412735)
(0.682561 0.14492 -0.00429713)
(0.682454 0.144931 1.109e-07)
(0.682454 0.144931 -1.11292e-07)
(0.682561 0.14492 0.00429713)
(0.749466 0.0906574 -0.00423985)
(0.749401 0.0907145 1.33103e-07)
(0.749401 0.0907145 -1.3345e-07)
(0.749466 0.0906574 0.00423985)
(0.66653 0.0266703 -0.00402069)
(0.666443 0.0266994 1.28217e-07)
(0.666443 0.0266994 -1.28517e-07)
(0.66653 0.0266703 0.00402069)
(0.613118 0.000957456 -0.00374872)
(0.613051 0.000995094 8.56844e-08)
(0.613051 0.000995121 -8.5938e-08)
(0.613118 0.00095751 0.00374872)
(0.568911 -0.0573362 -0.0034083)
(0.568862 -0.05733 1.41488e-07)
(0.568862 -0.05733 -1.41719e-07)
(0.568911 -0.0573362 0.0034083)
(0.508078 -0.0445945 -0.00313053)
(0.508 -0.0445863 6.82518e-08)
(0.508 -0.0445863 -6.84087e-08)
(0.508078 -0.0445945 0.00313053)
(0.451667 -0.0428555 -0.00286367)
(0.451609 -0.0428613 6.07839e-08)
(0.451609 -0.0428614 -6.09006e-08)
(0.451667 -0.0428555 0.00286367)
(0.405314 -0.0457628 -0.00259884)
(0.40527 -0.0457735 5.52889e-08)
(0.40527 -0.0457735 -5.53557e-08)
(0.405314 -0.0457629 0.00259884)
(0.368467 -0.0441345 -0.00234914)
(0.368445 -0.0441301 4.07154e-08)
(0.368445 -0.0441302 -4.07717e-08)
(0.368467 -0.0441345 0.00234914)
(0.332066 -0.0535018 -0.00209222)
(0.332051 -0.0535097 6.20913e-08)
(0.332051 -0.0535097 -6.2125e-08)
(0.332066 -0.0535018 0.00209222)
(0.294059 -0.0466995 -0.00185704)
(0.294041 -0.0466964 3.49793e-08)
(0.294041 -0.0466964 -3.50297e-08)
(0.29406 -0.0466995 0.00185704)
(0.258442 0.0414653 -0.00161453)
(0.25843 0.0414535 8.33153e-09)
(0.25843 0.0414535 -8.35066e-09)
(0.258442 0.0414653 0.00161453)
(0.264355 0.0143298 -0.00164438)
(0.264354 0.0143205 2.37893e-08)
(0.264354 0.0143205 -2.38195e-08)
(0.264355 0.0143298 0.00164438)
(0.259529 -0.00277978 -0.00164068)
(0.259519 -0.00278321 1.85683e-08)
(0.259519 -0.00278321 -1.85968e-08)
(0.259529 -0.00277977 0.00164068)
(0.270206 -0.0249231 -0.00164873)
(0.270193 -0.0249354 2.16786e-08)
(0.270193 -0.0249354 -2.17235e-08)
(0.270206 -0.0249231 0.00164873)
(0.265173 -0.0485415 -0.0016279)
(0.265165 -0.0485463 3.73369e-08)
(0.265165 -0.0485463 -3.7383e-08)
(0.265173 -0.0485415 0.0016279)
(0.404675 -0.0397447 -0.00306231)
(0.404676 -0.0397569 1.2164e-08)
(0.404676 -0.0397569 -1.20241e-08)
(0.404674 -0.0397447 0.00306231)
(0.34873 0.0208547 -0.00288678)
(0.348727 0.0208443 -1.68416e-08)
(0.348727 0.0208443 1.69506e-08)
(0.34873 0.0208545 0.00288678)
(0.343785 0.0432775 -0.00266072)
(0.343805 0.0432518 2.02795e-08)
(0.343805 0.0432518 -2.01996e-08)
(0.343785 0.0432774 0.00266072)
(0.336025 0.0616256 -0.00242108)
(0.336024 0.0616141 1.75413e-08)
(0.336024 0.0616142 -1.74935e-08)
(0.336025 0.0616256 0.00242108)
(0.313865 0.0617516 -0.00220396)
(0.313861 0.0617249 9.35487e-09)
(0.313861 0.0617249 -9.32758e-09)
(0.313865 0.0617517 0.00220396)
(0.293748 0.0677749 -0.00199499)
(0.29374 0.0677702 1.13877e-08)
(0.29374 0.0677703 -1.13841e-08)
(0.293748 0.067775 0.00199499)
(0.274235 0.0641031 -0.00178742)
(0.27423 0.0640821 2.89613e-09)
(0.27423 0.0640822 -2.89468e-09)
(0.274235 0.0641032 0.00178742)
(0.253165 0.0588976 -0.00158422)
(0.253168 0.0588914 1.14554e-08)
(0.253168 0.0588914 -1.14491e-08)
(0.253165 0.0588977 0.00158422)
(1.47854 0.129889 -0.00392106)
(1.47863 0.129949 2.86809e-09)
(1.47863 0.129949 -2.57015e-09)
(1.47854 0.129889 0.00392106)
(1.619 0.34782 -0.00415652)
(1.61907 0.347842 5.53816e-08)
(1.61907 0.347842 -5.52345e-08)
(1.619 0.34782 0.00415652)
(1.70669 0.461297 -0.00450041)
(1.7068 0.461412 1.49434e-07)
(1.7068 0.461412 -1.49284e-07)
(1.70669 0.461297 0.00450041)
(1.79368 0.587551 -0.00508417)
(1.7938 0.587726 3.21208e-07)
(1.7938 0.587726 -3.20935e-07)
(1.79368 0.587551 0.00508417)
(1.74994 0.738719 -0.00616877)
(1.74996 0.738742 -3.83836e-07)
(1.74996 0.738742 3.83746e-07)
(1.74994 0.738719 0.00616877)
(1.84006 0.942972 -0.00577937)
(1.84025 0.942957 2.67198e-07)
(1.84025 0.942957 -2.66091e-07)
(1.84006 0.942972 0.00577937)
(1.74327 0.864284 -0.0071313)
(1.74323 0.864437 4.66902e-07)
(1.74323 0.864437 -4.6512e-07)
(1.74327 0.864283 0.0071313)
(1.8968 0.672757 -0.00733794)
(1.89679 0.672903 4.00696e-07)
(1.89679 0.672903 -3.98987e-07)
(1.89679 0.672756 0.00733794)
(1.95795 0.522656 -0.00722968)
(1.95782 0.522715 -7.09446e-09)
(1.95782 0.522715 8.51818e-09)
(1.95795 0.522655 0.00722968)
(2.1893 0.315005 -0.00690784)
(2.18922 0.315112 -1.65328e-08)
(2.18922 0.315112 1.6977e-08)
(2.1893 0.315005 0.00690784)
(2.32077 0.186666 -0.00655926)
(2.32064 0.186672 -1.28149e-07)
(2.32064 0.186673 1.27249e-07)
(2.32077 0.186666 0.00655927)
(2.5292 0.174662 -0.0061468)
(2.52912 0.174738 -1.98798e-07)
(2.52912 0.174739 1.9756e-07)
(2.5292 0.174663 0.00614681)
(2.57997 0.286242 -0.0057973)
(2.57996 0.286262 -1.69053e-08)
(2.57996 0.286262 1.58849e-08)
(2.57997 0.286243 0.0057973)
(2.59184 0.311343 -0.00549931)
(2.59189 0.311325 1.36794e-07)
(2.59189 0.311325 -1.37456e-07)
(2.59184 0.311344 0.00549931)
(2.59113 0.278237 -0.00512797)
(2.59114 0.278194 3.69135e-08)
(2.59114 0.278194 -3.69221e-08)
(2.59113 0.278236 0.00512797)
(2.65596 0.206212 -0.00474832)
(2.65596 0.206192 -8.55739e-08)
(2.65596 0.206192 8.50801e-08)
(2.65596 0.206211 0.00474832)
(2.74316 0.165192 -0.00435804)
(2.74312 0.165226 -2.56181e-07)
(2.74312 0.165226 2.56228e-07)
(2.74316 0.165193 0.00435804)
(2.8102 0.149812 -0.00396125)
(2.81012 0.14982 -3.61195e-07)
(2.81012 0.14982 3.61554e-07)
(2.8102 0.149812 0.00396125)
(2.81825 0.136452 -0.00362281)
(2.81821 0.136452 -2.29086e-07)
(2.81821 0.136451 2.29134e-07)
(2.81825 0.136452 0.00362281)
(0.532763 -0.0350472 -0.00334332)
(0.532824 -0.0350412 -6.67922e-09)
(0.532824 -0.0350412 6.77688e-09)
(0.532763 -0.0350474 0.00334332)
(0.465909 0.00263753 -0.00309075)
(0.465927 0.00261942 1.02902e-08)
(0.465927 0.00261939 -1.02219e-08)
(0.465909 0.00263739 0.00309075)
(0.408267 0.0441314 -0.00286712)
(0.408273 0.0441206 -3.53007e-08)
(0.408273 0.0441206 3.53511e-08)
(0.408267 0.0441313 0.00286712)
(0.374864 0.0705341 -0.00261453)
(0.37488 0.0705139 1.65294e-08)
(0.37488 0.0705139 -1.65174e-08)
(0.374864 0.070534 0.00261453)
(0.344413 0.0852828 -0.00237282)
(0.344409 0.0852579 -5.76795e-09)
(0.344409 0.0852579 5.77314e-09)
(0.344413 0.0852828 0.00237282)
(0.317074 0.0917073 -0.00214641)
(0.31708 0.0916988 7.99758e-09)
(0.31708 0.0916988 -8.00088e-09)
(0.317074 0.0917073 0.00214641)
(0.29266 0.0892135 -0.001933)
(0.29266 0.0892045 3.78047e-09)
(0.29266 0.0892045 -3.77547e-09)
(0.29266 0.0892135 0.001933)
(0.269616 0.0839616 -0.00173075)
(0.269617 0.0839529 6.6405e-09)
(0.269617 0.0839529 -6.63227e-09)
(0.269616 0.0839616 0.00173075)
(0.245361 0.0789245 -0.00152675)
(0.245361 0.078917 5.91147e-09)
(0.245361 0.078917 -5.8963e-09)
(0.245361 0.0789245 0.00152675)
(0.225745 0.0717609 -0.00133746)
(0.225748 0.0717535 8.46267e-09)
(0.225748 0.0717535 -8.45058e-09)
(0.225745 0.0717609 0.00133746)
(0.233004 0.0526541 -0.00139136)
(0.233005 0.0526456 1.24105e-08)
(0.233005 0.0526456 -1.24027e-08)
(0.233004 0.0526541 0.00139136)
(0.237335 0.0355045 -0.00142329)
(0.237339 0.0354964 1.8833e-08)
(0.237339 0.0354964 -1.88454e-08)
(0.237335 0.0355046 0.00142329)
(0.243182 0.0136236 -0.00145037)
(0.243178 0.0136129 1.94991e-08)
(0.243178 0.0136129 -1.95184e-08)
(0.243182 0.0136236 0.00145037)
(0.24051 -0.00399459 -0.00144675)
(0.240511 -0.00400142 3.11498e-08)
(0.240511 -0.00400142 -3.11743e-08)
(0.24051 -0.00399458 0.00144675)
(0.24597 -0.0247386 -0.00144182)
(0.245965 -0.02474 2.8717e-08)
(0.245966 -0.02474 -2.87512e-08)
(0.24597 -0.0247386 0.00144182)
(0.24217 -0.0468587 -0.0014179)
(0.242159 -0.0468577 3.07042e-08)
(0.242159 -0.0468577 -3.07445e-08)
(0.24217 -0.0468587 0.0014179)
(0.238088 -0.0659606 -0.00138519)
(0.23808 -0.0659595 2.74236e-08)
(0.23808 -0.0659595 -2.74742e-08)
(0.238088 -0.0659606 0.00138519)
(0.263629 -0.0700947 -0.00159383)
(0.263619 -0.0700934 2.96626e-08)
(0.263619 -0.0700934 -2.97177e-08)
(0.263629 -0.0700947 0.00159383)
(0.295729 -0.0752322 -0.0018183)
(0.295722 -0.0752345 3.74875e-08)
(0.295722 -0.0752345 -3.75448e-08)
(0.295729 -0.0752322 0.0018183)
(0.330277 -0.0805268 -0.00206171)
(0.33026 -0.080523 2.43382e-08)
(0.33026 -0.080523 -2.43922e-08)
(0.330277 -0.0805268 0.00206171)
(0.370311 -0.0850694 -0.00231206)
(0.370281 -0.0850732 3.90021e-08)
(0.370281 -0.0850732 -3.90589e-08)
(0.370311 -0.0850694 0.00231206)
(0.417969 -0.0834309 -0.00258053)
(0.417936 -0.0834359 4.0705e-08)
(0.417936 -0.0834359 -4.07769e-08)
(0.417969 -0.0834309 0.00258053)
(0.472319 -0.0870348 -0.00286488)
(0.472266 -0.0870449 4.88533e-08)
(0.472266 -0.0870449 -4.89747e-08)
(0.472319 -0.0870348 0.00286488)
(0.538819 -0.0864842 -0.00317463)
(0.538797 -0.086496 1.09966e-07)
(0.538797 -0.086496 -1.10136e-07)
(0.538819 -0.0864842 0.00317464)
(0.602328 -0.0822351 -0.00352723)
(0.602273 -0.0822188 4.90986e-08)
(0.602273 -0.0822188 -4.93482e-08)
(0.602328 -0.0822351 0.00352723)
(0.686173 -0.0700698 -0.00385414)
(0.686117 -0.0700716 1.19882e-07)
(0.686117 -0.0700716 -1.20182e-07)
(0.686173 -0.0700698 0.00385414)
(0.805209 -0.0406533 -0.00418711)
(0.805157 -0.0406333 8.09769e-08)
(0.805157 -0.0406333 -8.13239e-08)
(0.805209 -0.0406533 0.00418711)
(0.955458 -0.00922855 -0.00445583)
(0.955385 -0.00918516 8.34204e-08)
(0.955385 -0.00918515 -8.38367e-08)
(0.955458 -0.00922853 0.00445583)
(1.1453 0.0233838 -0.00462481)
(1.14526 0.0234804 1.10432e-07)
(1.14526 0.0234804 -1.10932e-07)
(1.1453 0.0233838 0.00462481)
(1.39432 0.00161369 -0.00456507)
(1.39421 0.00187594 1.74645e-07)
(1.39421 0.00187594 -1.75236e-07)
(1.39432 0.00161367 0.00456507)
(1.60819 -0.0456968 -0.00443141)
(1.60815 -0.0453125 4.2683e-07)
(1.60816 -0.0453126 -4.27522e-07)
(1.60819 -0.0456969 0.00443141)
(1.58673 -0.0354275 -0.00447232)
(1.58682 -0.0352443 9.35293e-07)
(1.58682 -0.0352443 -9.36076e-07)
(1.58673 -0.0354276 0.00447232)
(1.86248 -0.298907 -0.00488854)
(1.86271 -0.298596 1.09356e-06)
(1.86271 -0.298596 -1.09439e-06)
(1.86248 -0.298907 0.00488854)
(1.8251 -0.552147 -0.00541808)
(1.82536 -0.551933 5.55793e-07)
(1.82536 -0.551933 -5.57006e-07)
(1.8251 -0.552147 0.00541808)
(1.95512 -0.943509 -0.00459317)
(1.95552 -0.944049 1.99699e-06)
(1.95552 -0.944049 -1.99798e-06)
(1.95512 -0.943509 0.00459317)
(1.76675 -0.859282 -0.00644624)
(1.76678 -0.859391 7.53914e-07)
(1.76678 -0.859391 -7.55207e-07)
(1.76675 -0.859281 0.00644624)
(1.91141 -0.727582 -0.00682244)
(1.91134 -0.727932 6.59935e-07)
(1.91134 -0.727932 -6.61228e-07)
(1.91141 -0.727581 0.00682244)
(1.92697 -0.598321 -0.00698266)
(1.92694 -0.598289 2.79573e-07)
(1.92694 -0.598289 -2.80831e-07)
(1.92697 -0.59832 0.00698267)
(2.135 -0.400791 -0.0068207)
(2.13487 -0.400945 -7.87411e-09)
(2.13487 -0.400945 7.59371e-09)
(2.135 -0.400791 0.0068207)
(2.28151 -0.222155 -0.00648137)
(2.28139 -0.22218 -2.7241e-07)
(2.28139 -0.22218 2.73931e-07)
(2.28151 -0.222155 0.00648137)
(2.48734 -0.159268 -0.00612955)
(2.48723 -0.159423 -2.37487e-07)
(2.48723 -0.159423 2.39784e-07)
(2.48735 -0.159268 0.00612955)
(2.56928 -0.227126 -0.00581579)
(2.56929 -0.227113 -1.2344e-07)
(2.56929 -0.227113 1.24792e-07)
(2.56928 -0.227126 0.00581579)
(2.60616 -0.314023 -0.00550933)
(2.60611 -0.314048 -1.46317e-07)
(2.60611 -0.314048 1.46736e-07)
(2.60616 -0.314024 0.00550933)
(2.58851 -0.295706 -0.00518825)
(2.58851 -0.29573 -1.39551e-07)
(2.58851 -0.29573 1.39927e-07)
(2.58851 -0.295707 0.00518825)
(2.6346 -0.22118 -0.00480384)
(2.63461 -0.221165 -1.29749e-07)
(2.63461 -0.221165 1.30022e-07)
(2.6346 -0.22118 0.00480383)
(2.72072 -0.186846 -0.00441775)
(2.72067 -0.186891 -2.86415e-07)
(2.72067 -0.186891 2.86719e-07)
(2.72072 -0.186846 0.00441775)
(2.79629 -0.144191 -0.00403118)
(2.79621 -0.144179 -3.46272e-07)
(2.79621 -0.144178 3.46556e-07)
(2.79629 -0.14419 0.00403118)
(2.82567 -0.13264 -0.0036608)
(2.82563 -0.132655 -2.50591e-07)
(2.82563 -0.132655 2.50807e-07)
(2.82567 -0.13264 0.0036608)
(2.84294 -0.120171 -0.00332021)
(2.84291 -0.120176 -2.24588e-07)
(2.84291 -0.120176 2.24838e-07)
(2.84294 -0.120171 0.00332021)
(2.84315 -0.0725566 -0.00345346)
(2.84315 -0.0725294 -1.70763e-07)
(2.84315 -0.0725293 1.71107e-07)
(2.84315 -0.0725564 0.00345346)
(2.82963 -0.0465842 -0.00354461)
(2.82961 -0.0466025 -1.40936e-07)
(2.82961 -0.0466024 1.41082e-07)
(2.82963 -0.046584 0.00354461)
(2.83562 -0.00244289 -0.00359932)
(2.83561 -0.00254682 -8.16236e-08)
(2.83561 -0.00254665 8.19755e-08)
(2.83562 -0.00244246 0.00359932)
(2.83574 0.0299346 -0.00360983)
(2.83574 0.029909 -2.6142e-07)
(2.83574 0.0299091 2.61685e-07)
(2.83574 0.0299348 0.00360983)
(2.8449 0.0394412 -0.00355769)
(2.84488 0.0395169 -2.90377e-07)
(2.84488 0.0395168 2.90791e-07)
(2.8449 0.0394411 0.00355769)
(2.84934 0.0840514 -0.00345986)
(2.8493 0.0841217 -2.54971e-07)
(2.8493 0.0841219 2.55589e-07)
(2.84934 0.0840516 0.00345986)
(2.8352 0.0997337 -0.00331981)
(2.83514 0.0997473 -2.86687e-07)
(2.83514 0.0997474 2.87255e-07)
(2.8352 0.0997336 0.00331981)
(0.206478 0.0647306 -0.00116425)
(0.20648 0.0647246 9.52665e-09)
(0.20648 0.0647246 -9.52029e-09)
(0.206478 0.0647306 0.00116425)
(0.214633 0.0468236 -0.00121268)
(0.214634 0.0468168 1.23514e-08)
(0.214634 0.0468168 -1.23471e-08)
(0.214633 0.0468236 0.00121268)
(0.218672 0.0310338 -0.00124343)
(0.218673 0.0310284 1.74432e-08)
(0.218673 0.0310284 -1.74506e-08)
(0.218672 0.0310338 0.00124343)
(0.223898 0.0121185 -0.00126722)
(0.223895 0.0121129 1.77385e-08)
(0.223895 0.0121129 -1.77515e-08)
(0.223898 0.0121185 0.00126722)
(0.222847 -0.00437717 -0.00126519)
(0.222839 -0.00438131 2.21063e-08)
(0.222839 -0.0043813 -2.21246e-08)
(0.222847 -0.00437716 0.00126519)
(0.224085 -0.0228935 -0.00125264)
(0.224077 -0.0228946 2.18559e-08)
(0.224077 -0.0228946 -2.18821e-08)
(0.224085 -0.0228935 0.00125264)
(0.219575 -0.041761 -0.00122824)
(0.219568 -0.0417622 2.46484e-08)
(0.219569 -0.0417622 -2.46827e-08)
(0.219575 -0.041761 0.00122824)
(0.214995 -0.060159 -0.00119676)
(0.214991 -0.0601601 2.49159e-08)
(0.214991 -0.0601601 -2.49614e-08)
(0.214995 -0.060159 0.00119676)
(0.206548 -0.079909 -0.00114809)
(0.206542 -0.0799083 2.65627e-08)
(0.206542 -0.0799083 -2.66172e-08)
(0.206549 -0.079909 0.00114809)
(0.22895 -0.0887739 -0.00133093)
(0.228942 -0.0887731 3.10929e-08)
(0.228942 -0.0887731 -3.11486e-08)
(0.22895 -0.0887739 0.00133093)
(0.255667 -0.0993208 -0.00152896)
(0.255656 -0.0993195 3.55938e-08)
(0.255656 -0.0993195 -3.56484e-08)
(0.255667 -0.0993208 0.00152896)
(0.287053 -0.10921 -0.00174474)
(0.287037 -0.109209 4.24635e-08)