x,y,z,p
0,0,0,0.00015229
0,0.1,0,0.000335163
0,0.2,0,0.000518036
0,0.3,0,0.000731602
0,0.4,0,0.000975862
0,0.5,0,0.00122012
0,0.6,0,0.00146527
0,0.7,0,0.00171041
0,0.8,0,0.00195616
0,0.9,0,0.00220251
0,1,0,0.00244885
0,1.1,0,0.00269659
0,1.2,0,0.00294432
0,1.3,0,0.00319275
0,1.4,0,0.00344187
0,1.5,0,0.003691
0,1.6,0,0.00394131
0,1.7,0,0.00419162
0,1.8,0,0.00444229
0,1.9,0,0.00469331
0,2,0,0.00494433
0,2.1,0,0.00519528
0,2.2,0,0.00544623
0,2.3,0,0.00569658
0,2.4,0,0.00594632
0,2.5,0,0.00619607
0,2.6,0,0.00644309
0,2.7,0,0.00669011
0,2.8,0,0.0069348
0,2.9,0,0.00717717
0,3,0,0.00741953
0,3.1,0,0.00765491
0,3.2,0,0.00789028
0,3.3,0,0.0081208
0,3.4,0,0.00834645
0,3.5,0,0.0085721
0,3.6,0,0.00878496
0,3.7,0,0.00899782
0,3.8,0,0.00920262
0,3.9,0,0.00939937
0,4,0,0.00959611
0,4.1,0,0.00977331
0,4.2,0,0.00995051
0,4.3,0,0.0101162
0,4.4,0,0.0102705
0,4.5,0,0.0104247
0,4.6,0,0.0105529
0,4.7,0,0.010681
0,4.8,0,0.0107887
0,4.9,0,0.010876
0,5,0,0.0109633
0,5.1,0,0.0110726
0,5.2,0,0.0111383
0,5.3,0,0.0111909
0,5.4,0,0.0112305
0,5.5,0,0.0112571
0,5.6,0,0.0112706
0,5.7,0,0.0112709
0,5.8,0,0.0112583
0,5.9,0,0.0112327
0,6,0,0.011169
0,6.1,0,0.0111121
0,6.2,0,0.0110552
0,6.3,0,0.0109984
0,6.4,0,0.0109126
0,6.5,0,0.0108114
0,6.6,0,0.0107102
0,6.7,0,0.0105994
0,6.8,0,0.0104666
0,6.9,0,0.0103338
0,7,0,0.0102009
0,7.1,0,0.010044
0,7.2,0,0.00988585
0,7.3,0,0.00972769
0,7.4,0,0.00955814
0,7.5,0,0.00938102
0,7.6,0,0.00920389
0,7.7,0,0.00902352
0,7.8,0,0.00883341
0,7.9,0,0.0086433
0,8,0,0.00845319
0,8.1,0,0.00825613
0,8.2,0,0.00805829
0,8.3,0,0.00786046
0,8.4,0,0.00766077
0,8.5,0,0.00745957
0,8.6,0,0.00725837
0,8.7,0,0.00705718
0,8.8,0,0.00685603
0,8.9,0,0.00665488
0,9,0,0.00645373
0,9.1,0,0.00625477
0,9.2,0,0.0060562
0,9.3,0,0.00585762
0,9.4,0,0.00566119
0,9.5,0,0.0054669
0,9.6,0,0.0052726
0,9.7,0,0.00507911
0,9.8,0,0.00489012
0,9.9,0,0.00470114
0,10,0,0.00451215
0,10.1,0,0.00432779
0,10.2,0,0.00414458
0,10.3,0,0.00396137
0,10.4,0,0.00378078
0,10.5,0,0.00360338
0,10.6,0,0.00342598
0,10.7,0,0.00324912
0,10.8,0,0.00307721
0,10.9,0,0.0029053
0,11,0,0.00273339
0,11.1,0,0.00256517
0,11.2,0,0.00239817
0,11.3,0,0.00223118
0,11.4,0,0.00206584
0,11.5,0,0.00190298
0,11.6,0,0.00174013
0,11.7,0,0.00157744
0,11.8,0,0.00141782
0,11.9,0,0.0012582
0,12,0,0.00109858
0,12.1,0,0.000940513
0,12.2,0,0.000783118
0,12.3,0,0.000625722
0,12.4,0,0.000482219
0,12.5,0,0.000364515
0,12.6,0,0.000246811
0,12.7,0,0.000129107
0.1,0,0,9.1374e-05
0.1,0.1,0,0.000274122
0.1,0.2,0,0.000487411
0.1,0.3,0,0.000731325
0.1,0.4,0,0.000975516
0.1,0.5,0,0.00121973
0.1,0.6,0,0.00146473
0.1,0.7,0,0.00170988
0.1,0.8,0,0.00195556
0.1,0.9,0,0.00220184
0.1,1,0,0.00244824
0.1,1.1,0,0.00269587
0.1,1.2,0,0.00294365
0.1,1.3,0,0.0031921
0.1,1.4,0,0.0034412
0.1,1.5,0,0.00369046
0.1,1.6,0,0.0039408
0.1,1.7,0,0.00419119
0.1,1.8,0,0.00444201
0.1,1.9,0,0.00469311
0.1,2,0,0.00494432
0.1,2.1,0,0.00519555
0.1,2.2,0,0.0054466
0.1,2.3,0,0.00569728
0.1,2.4,0,0.00594725
0.1,2.5,0,0.00619718
0.1,2.6,0,0.00644488
0.1,2.7,0,0.00669197
0.1,2.8,0,0.00693719
0.1,2.9,0,0.00718003
0.1,3,0,0.00742246
0.1,3.1,0,0.00765904
0.1,3.2,0,0.0078944
0.1,3.3,0,0.00812564
0.1,3.4,0,0.00835204
0.1,3.5,0,0.00857751
0.1,3.6,0,0.00879216
0.1,3.7,0,0.00900484
0.1,3.8,0,0.00921049
0.1,3.9,0,0.00940828
0.1,4,0,0.00960442
0.1,4.1,0,0.00978395
0.1,4.2,0,0.00996071
0.1,4.3,0,0.0101273
0.1,4.4,0,0.0102828
0.1,4.5,0,0.0104358
0.1,4.6,0,0.0105666
0.1,4.7,0,0.010694
0.1,4.8,0,0.0108084
0.1,4.9,0,0.0109031
0.1,5,0,0.0109761
0.1,5.1,0,0.0110857
0.1,5.2,0,0.0111515
0.1,5.3,0,0.0112042
0.1,5.4,0,0.0112439
0.1,5.5,0,0.0112705
0.1,5.6,0,0.0112839
0.1,5.7,0,0.0112842
0.1,5.8,0,0.0112715
0.1,5.9,0,0.0112458
0.1,6,0,0.0111818
0.1,6.1,0,0.0111424
0.1,6.2,0,0.0110915
0.1,6.3,0,0.0110166
0.1,6.4,0,0.01093
0.1,6.5,0,0.0108346
0.1,6.6,0,0.0107271
0.1,6.7,0,0.0106116
0.1,6.8,0,0.0104855
0.1,6.9,0,0.0103505
0.1,7,0,0.0102094
0.1,7.1,0,0.0100569
0.1,7.2,0,0.00990065
0.1,7.3,0,0.00973634
0.1,7.4,0,0.00956623
0.1,7.5,0,0.00939162
0.1,7.6,0,0.00921164
0.1,7.7,0,0.00902814
0.1,7.8,0,0.00884003
0.1,7.9,0,0.00864931
0.1,8,0,0.00845594
0.1,8.1,0,0.00825931
0.1,8.2,0,0.00806185
0.1,8.3,0,0.00786233
0.1,8.4,0,0.00766176
0.1,8.5,0,0.00746052
0.1,8.6,0,0.00725891
0.1,8.7,0,0.00705696
0.1,8.8,0,0.0068551
0.1,8.9,0,0.00665388
0.1,9,0,0.00645284
0.1,9.1,0,0.00625291
0.1,9.2,0,0.00605377
0.1,9.3,0,0.00585583
0.1,9.4,0,0.00565906
0.1,9.5,0,0.00546358
0.1,9.6,0,0.00526986
0.1,9.7,0,0.00507713
0.1,9.8,0,0.00488662
0.1,9.9,0,0.00469754
0.1,10,0,0.00450998
0.1,10.1,0,0.00432467
0.1,10.2,0,0.00414064
0.1,10.3,0,0.00395864
0.1,10.4,0,0.00377824
0.1,10.5,0,0.00359954
0.1,10.6,0,0.00342282
0.1,10.7,0,0.00324722
0.1,10.8,0,0.003074
0.1,10.9,0,0.00290191
0.1,11,0,0.00273145
0.1,11.1,0,0.00256276
0.1,11.2,0,0.00239511
0.1,11.3,0,0.00222907
0.1,11.4,0,0.00206416
0.1,11.5,0,0.0019005
0.1,11.6,0,0.00173807
0.1,11.7,0,0.00157637
0.1,11.8,0,0.00141615
0.1,11.9,0,0.00125639
0.1,12,0,0.00109761
0.1,12.1,0,0.000939577
0.1,12.2,0,0.00078198
0.1,12.3,0,0.000624979
0.1,12.4,0,0.00046835
0.1,12.5,0,0.000312467
0.1,12.6,0,0.000194866
0.1,12.7,0,7.74643e-05
0.2,0,0,3.0458e-05
0.2,0.1,0,0.000243622
0.2,0.2,0,0.000487203
0.2,0.3,0,0.000731116
0.2,0.4,0,0.000975197
0.2,0.5,0,0.00121935
0.2,0.6,0,0.00146435
0.2,0.7,0,0.00170935
0.2,0.8,0,0.00195503
0.2,0.9,0,0.0022013
0.2,1,0,0.00244763
0.2,1.1,0,0.0026953
0.2,1.2,0,0.00294303
0.2,1.3,0,0.00319148
0.2,1.4,0,0.00344069
0.2,1.5,0,0.00368992
0.2,1.6,0,0.00394035
0.2,1.7,0,0.00419085
0.2,1.8,0,0.00444167
0.2,1.9,0,0.00469302
0.2,2,0,0.0049443
0.2,2.1,0,0.00519564
0.2,2.2,0,0.00544707
0.2,2.3,0,0.00569774
0.2,2.4,0,0.00594813
0.2,2.5,0,0.00619829
0.2,2.6,0,0.00644606
0.2,2.7,0,0.0066939
0.2,2.8,0,0.00693913
0.2,2.9,0,0.00718249
0.2,3,0,0.00742539
0.2,3.1,0,0.00766195
0.2,3.2,0,0.00789849
0.2,3.3,0,0.00812973
0.2,3.4,0,0.0083567
0.2,3.5,0,0.00858292
0.2,3.6,0,0.00879738
0.2,3.7,0,0.00901166
0.2,3.8,0,0.00921732
0.2,3.9,0,0.00941554
0.2,4,0,0.00961272
0.2,4.1,0,0.00979181
0.2,4.2,0,0.00997047
0.2,4.3,0,0.010137
0.2,4.4,0,0.0102926
0.2,4.5,0,0.0104469
0.2,4.6,0,0.010577
0.2,4.7,0,0.0107063
0.2,4.8,0,0.0108207
0.2,4.9,0,0.0109085
0.2,5,0,0.010989
0.2,5.1,0,0.0110988
0.2,5.2,0,0.0111647
0.2,5.3,0,0.0112175
0.2,5.4,0,0.0112573
0.2,5.5,0,0.0112839
0.2,5.6,0,0.0112973
0.2,5.7,0,0.0112975
0.2,5.8,0,0.0112847
0.2,5.9,0,0.0112588
0.2,6,0,0.0111946
0.2,6.1,0,0.0111492
0.2,6.2,0,0.0110916
0.2,6.3,0,0.0110284
0.2,6.4,0,0.0109419
0.2,6.5,0,0.0108395
0.2,6.6,0,0.010737
0.2,6.7,0,0.0106217
0.2,6.8,0,0.0104904
0.2,6.9,0,0.010356
0.2,7,0,0.0102175
0.2,7.1,0,0.0100631
0.2,7.2,0,0.00990343
0.2,7.3,0,0.00974239
0.2,7.4,0,0.00957227
0.2,7.5,0,0.00939405
0.2,7.6,0,0.00921549
0.2,7.7,0,0.00903226
0.2,7.8,0,0.00884225
0.2,7.9,0,0.00865088
0.2,8,0,0.00845837
0.2,8.1,0,0.0082613
0.2,8.2,0,0.00806242
0.2,8.3,0,0.00786335
0.2,8.4,0,0.00766279
0.2,8.5,0,0.00746086
0.2,8.6,0,0.00725884
0.2,8.7,0,0.00705689
0.2,8.8,0,0.00685509
0.2,8.9,0,0.00665334
0.2,9,0,0.00645196
0.2,9.1,0,0.00625217
0.2,9.2,0,0.00605319
0.2,9.3,0,0.00585441
0.2,9.4,0,0.00565764
0.2,9.5,0,0.00546291
0.2,9.6,0,0.00526837
0.2,9.7,0,0.00507539
0.2,9.8,0,0.00488556
0.2,9.9,0,0.00469646
0.2,10,0,0.00450809
0.2,10.1,0,0.00432299
0.2,10.2,0,0.00413978
0.2,10.3,0,0.00395675
0.2,10.4,0,0.00377635
0.2,10.5,0,0.00359869
0.2,10.6,0,0.00342137
0.2,10.7,0,0.00324544
0.2,10.8,0,0.00307285
0.2,10.9,0,0.00290108
0.2,11,0,0.00272986
0.2,11.1,0,0.00256128
0.2,11.2,0,0.00239447
0.2,11.3,0,0.00222774
0.2,11.4,0,0.00206283
0.2,11.5,0,0.0018999
0.2,11.6,0,0.00173727
0.2,11.7,0,0.00157533
0.2,11.8,0,0.00141543
0.2,11.9,0,0.00125605
0.2,12,0,0.00109689
0.2,12.1,0,0.000938879
0.2,12.2,0,0.00078174
0.2,12.3,0,0.000624608
0.2,12.4,0,0.000467979
0.2,12.5,0,0.000311916
0.2,12.6,0,0.000155949
0.2,12.7,0,2.58214e-05
0.3,0,0,0
0.3,0.1,0,0.000243402
0.3,0.2,0,0.000486983
0.3,0.3,0,0.000730504
0.3,0.4,0,0.000974584
0.3,0.5,0,0.00121853
0.3,0.6,0,0.00146341
0.3,0.7,0,0.00170841
0.3,0.8,0,0.00195386
0.3,0.9,0,0.00220013
0.3,1,0,0.00244634
0.3,1.1,0,0.00269403
0.3,1.2,0,0.00294175
0.3,1.3,0,0.00319027
0.3,1.4,0,0.00343948
0.3,1.5,0,0.00368877
0.3,1.6,0,0.00393941
0.3,1.7,0,0.00418991
0.3,1.8,0,0.00444125
0.3,1.9,0,0.0046926
0.3,2,0,0.00494423
0.3,2.1,0,0.00519601
0.3,2.2,0,0.00544744
0.3,2.3,0,0.00569923
0.3,2.4,0,0.00594962
0.3,2.5,0,0.00620053
0.3,2.6,0,0.00644901
0.3,2.7,0,0.00669685
0.3,2.8,0,0.0069439
0.3,2.9,0,0.00718726
0.3,3,0,0.00743141
0.3,3.1,0,0.00766889
0.3,3.2,0,0.00790543
0.3,3.3,0,0.00813917
0.3,3.4,0,0.00836614
0.3,3.5,0,0.0085941
0.3,3.6,0,0.00880958
0.3,3.7,0,0.00902386
0.3,3.8,0,0.00923244
0.3,3.9,0,0.00943066
0.3,4,0,0.00962996
0.3,4.1,0,0.0098099
0.3,4.2,0,0.00998856
0.3,4.3,0,0.010158
0.3,4.4,0,0.0103136
0.3,4.5,0,0.0104701
0.3,4.6,0,0.0106005
0.3,4.7,0,0.0107298
0.3,4.8,0,0.0108461
0.3,4.9,0,0.010934
0.3,5,0,0.0110161
0.3,5.1,0,0.0111266
0.3,5.2,0,0.0111928
0.3,5.3,0,0.0112459
0.3,5.4,0,0.0112859
0.3,5.5,0,0.0113125
0.3,5.6,0,0.0113258
0.3,5.7,0,0.0113259
0.3,5.8,0,0.0113127
0.3,5.9,0,0.0112865
0.3,6,0,0.0112215
0.3,6.1,0,0.0111745
0.3,6.2,0,0.0111169
0.3,6.3,0,0.0110534
0.3,6.4,0,0.0109641
0.3,6.5,0,0.0108617
0.3,6.6,0,0.0107591
0.3,6.7,0,0.0106414
0.3,6.8,0,0.0105086
0.3,6.9,0,0.0103743
0.3,7,0,0.0102344
0.3,7.1,0,0.0100772
0.3,7.2,0,0.00991754
0.3,7.3,0,0.00975584
0.3,7.4,0,0.00958259
0.3,7.5,0,0.00940411
0.3,7.6,0,0.00922555
0.3,7.7,0,0.00903996
0.3,7.8,0,0.00884866
0.3,7.9,0,0.00865728
0.3,8,0,0.00846354
0.3,8.1,0,0.00826459
0.3,8.2,0,0.00806571
0.3,8.3,0,0.00786624
0.3,8.4,0,0.00766381
0.3,8.5,0,0.00746165
0.3,8.6,0,0.00725964
0.3,8.7,0,0.00705642
0.3,8.8,0,0.006854
0.3,8.9,0,0.00665225
0.3,9,0,0.00645027
0.3,9.1,0,0.00624975
0.3,9.2,0,0.00605077
0.3,9.3,0,0.00585184
0.3,9.4,0,0.00565444
0.3,9.5,0,0.00545964
0.3,9.6,0,0.0052651
0.3,9.7,0,0.00507173
0.3,9.8,0,0.00488184
0.3,9.9,0,0.00469275
0.3,10,0,0.00450423
0.3,10.1,0,0.00431915
0.3,10.2,0,0.00413594
0.3,10.3,0,0.0039529
0.3,10.4,0,0.00377257
0.3,10.5,0,0.00359498
0.3,10.6,0,0.00341766
0.3,10.7,0,0.00324179
0.3,10.8,0,0.00306945
0.3,10.9,0,0.00289769
0.3,11,0,0.00272653
0.3,11.1,0,0.00255834
0.3,11.2,0,0.00239153
0.3,11.3,0,0.00222482
0.3,11.4,0,0.00206029
0.3,11.5,0,0.00189751
0.3,11.6,0,0.00173488
0.3,11.7,0,0.00157321
0.3,11.8,0,0.00141367
0.3,11.9,0,0.00125429
0.3,12,0,0.00109529
0.3,12.1,0,0.000937783
0.3,12.2,0,0.000780644
0.3,12.3,0,0.000623522
0.3,12.4,0,0.000467408
0.3,12.5,0,0.000311526
0.3,12.6,0,0.00015556
0.3,12.7,0,0
0.4,0,0,0
0.4,0.1,0,0.000243223
0.4,0.2,0,0.000486315
0.4,0.3,0,0.000729837
0.4,0.4,0,0.000973475
0.4,0.5,0,0.00121729
0.4,0.6,0,0.00146203
0.4,0.7,0,0.00170672
0.4,0.8,0,0.00195217
0.4,0.9,0,0.00219821
0.4,1,0,0.00244437
0.4,1.1,0,0.00269202
0.4,1.2,0,0.00293973
0.4,1.3,0,0.00318825
0.4,1.4,0,0.00343762
0.4,1.5,0,0.003687
0.4,1.6,0,0.00393777
0.4,1.7,0,0.00418875
0.4,1.8,0,0.00444009
0.4,1.9,0,0.00469218
0.4,2,0,0.00494408
0.4,2.1,0,0.00519622
0.4,2.2,0,0.00544879
0.4,2.3,0,0.00570059
0.4,2.4,0,0.00595248
0.4,2.5,0,0.00620391
0.4,2.6,0,0.00645303
0.4,2.7,0,0.00670281
0.4,2.8,0,0.00694985
0.4,2.9,0,0.00719559
0.4,3,0,0.00744051
0.4,3.1,0,0.00767894
0.4,3.2,0,0.00791823
0.4,3.3,0,0.00815197
0.4,3.4,0,0.0083821
0.4,3.5,0,0.00861106
0.4,3.6,0,0.00882773
0.4,3.7,0,0.00904534
0.4,3.8,0,0.00925392
0.4,3.9,0,0.00945576
0.4,4,0,0.00965615
0.4,4.1,0,0.00983737
0.4,4.2,0,0.0100194
0.4,4.3,0,0.0101888
0.4,4.4,0,0.0103479
0.4,4.5,0,0.0105053
0.4,4.6,0,0.0106368
0.4,4.7,0,0.0107687
0.4,4.8,0,0.010885
0.4,4.9,0,0.0109811
0.4,5,0,0.0110574
0.4,5.1,0,0.011169
0.4,5.2,0,0.0112359
0.4,5.3,0,0.0112895
0.4,5.4,0,0.0113297
0.4,5.5,0,0.0113564
0.4,5.6,0,0.0113696
0.4,5.7,0,0.0113693
0.4,5.8,0,0.0113557
0.4,5.9,0,0.0113288
0.4,6,0,0.0112625
0.4,6.1,0,0.0112207
0.4,6.2,0,0.0111667
0.4,6.3,0,0.0110909
0.4,6.4,0,0.0110016
0.4,6.5,0,0.0109019
0.4,6.6,0,0.0107913
0.4,6.7,0,0.0106732
0.4,6.8,0,0.0105431
0.4,6.9,0,0.0104031
0.4,7,0,0.0102598
0.4,7.1,0,0.0101034
0.4,7.2,0,0.00994173
0.4,7.3,0,0.00977475
0.4,7.4,0,0.0096015
0.4,7.5,0,0.00942267
0.4,7.6,0,0.00923884
0.4,7.7,0,0.00905278
0.4,7.8,0,0.00886158
0.4,7.9,0,0.00866656
0.4,8,0,0.00847103
0.4,8.1,0,0.00827195
0.4,8.2,0,0.00807097
0.4,8.3,0,0.00786933
0.4,8.4,0,0.0076669
0.4,8.5,0,0.00746346
0.4,8.6,0,0.00725949
0.4,8.7,0,0.00705609
0.4,8.8,0,0.00685291
0.4,8.9,0,0.00664962
0.4,9,0,0.00644743
0.4,9.1,0,0.00624662
0.4,9.2,0,0.00604622
0.4,9.3,0,0.00584731
0.4,9.4,0,0.00564991
0.4,9.5,0,0.00545391
0.4,9.6,0,0.00525941
0.4,9.7,0,0.0050662
0.4,9.8,0,0.00487557
0.4,9.9,0,0.00468614
0.4,10,0,0.00449826
0.4,10.1,0,0.004313
0.4,10.2,0,0.00412904
0.4,10.3,0,0.00394694
0.4,10.4,0,0.00376661
0.4,10.5,0,0.00358823
0.4,10.6,0,0.00341171
0.4,10.7,0,0.00323619
0.4,10.8,0,0.00306341
0.4,10.9,0,0.00289184
0.4,11,0,0.00272154
0.4,11.1,0,0.00255328
0.4,11.2,0,0.00238626
0.4,11.3,0,0.00222062
0.4,11.4,0,0.0020561
0.4,11.5,0,0.00189301
0.4,11.6,0,0.00173127
0.4,11.7,0,0.00156994
0.4,11.8,0,0.0014103
0.4,11.9,0,0.00125139
0.4,12,0,0.00109304
0.4,12.1,0,0.000935535
0.4,12.2,0,0.000778689
0.4,12.3,0,0.000622356
0.4,12.4,0,0.000466242
0.4,12.5,0,0.000310545
0.4,12.6,0,0.000155359
0.4,12.7,0,0
0.5,0,0,0
0.5,0.1,0,0.000242913
0.5,0.2,0,0.000485826
0.5,0.3,0,0.000729035
0.5,0.4,0,0.000972539
0.5,0.5,0,0.00121604
0.5,0.6,0,0.0014606
0.5,0.7,0,0.00170515
0.5,0.8,0,0.00195042
0.5,0.9,0,0.00219641
0.5,1,0,0.00244239
0.5,1.1,0,0.00269007
0.5,1.2,0,0.00293775
0.5,1.3,0,0.00318632
0.5,1.4,0,0.00343578
0.5,1.5,0,0.00368524
0.5,1.6,0,0.00393635
0.5,1.7,0,0.00418746
0.5,1.8,0,0.0044392
0.5,1.9,0,0.00469157
0.5,2,0,0.00494394
0.5,2.1,0,0.00519687
0.5,2.2,0,0.00544979
0.5,2.3,0,0.00570246
0.5,2.4,0,0.00595487
0.5,2.5,0,0.00620728
0.5,2.6,0,0.0064577
0.5,2.7,0,0.00670812
0.5,2.8,0,0.00695659
0.5,2.9,0,0.0072031
0.5,3,0,0.00744961
0.5,3.1,0,0.00768985
0.5,3.2,0,0.00793008
0.5,3.3,0,0.00816576
0.5,3.4,0,0.00839689
0.5,3.5,0,0.00862803
0.5,3.6,0,0.00884683
0.5,3.7,0,0.00906563
0.5,3.8,0,0.00927649
0.5,3.9,0,0.00947941
0.5,4,0,0.00968234
0.5,4.1,0,0.00986565
0.5,4.2,0,0.010049
0.5,4.3,0,0.0102206
0.5,4.4,0,0.0103805
0.5,4.5,0,0.0105405
0.5,4.6,0,0.0106735
0.5,4.7,0,0.0108065
0.5,4.8,0,0.0109181
0.5,4.9,0,0.0110084
0.5,5,0,0.0110987
0.5,5.1,0,0.0112114
0.5,5.2,0,0.0112789
0.5,5.3,0,0.0113329
0.5,5.4,0,0.0113734
0.5,5.5,0,0.0114002
0.5,5.6,0,0.0114133
0.5,5.7,0,0.0114127
0.5,5.8,0,0.0113986
0.5,5.9,0,0.0113711
0.5,6,0,0.0113035
0.5,6.1,0,0.0112433
0.5,6.2,0,0.0111831
0.5,6.3,0,0.0111229
0.5,6.4,0,0.0110324
0.5,6.5,0,0.0109256
0.5,6.6,0,0.0108188
0.5,6.7,0,0.0107024
0.5,6.8,0,0.0105632
0.5,6.9,0,0.0104241
0.5,7,0,0.010285
0.5,7.1,0,0.0101217
0.5,7.2,0,0.00995716
0.5,7.3,0,0.00979262
0.5,7.4,0,0.00961694
0.5,7.5,0,0.00943383
0.5,7.6,0,0.00925073
0.5,7.7,0,0.00906456
0.5,7.8,0,0.00886921
0.5,7.9,0,0.00867386
0.5,8,0,0.00847851
0.5,8.1,0,0.00827703
0.5,8.2,0,0.00807486
0.5,8.3,0,0.0078727
0.5,8.4,0,0.00766921
0.5,8.5,0,0.00746463
0.5,8.6,0,0.00726005
0.5,8.7,0,0.00705567
0.5,8.8,0,0.00685205
0.5,8.9,0,0.00664843
0.5,9,0,0.00644481
0.5,9.1,0,0.00624405
0.5,9.2,0,0.00604381
0.5,9.3,0,0.00584356
0.5,9.4,0,0.0056458
0.5,9.5,0,0.00545052
0.5,9.6,0,0.00525524
0.5,9.7,0,0.00506084
0.5,9.8,0,0.00487143
0.5,9.9,0,0.00468201
0.5,10,0,0.0044926
0.5,10.1,0,0.00430815
0.5,10.2,0,0.00412495
0.5,10.3,0,0.00394175
0.5,10.4,0,0.00376132
0.5,10.5,0,0.00358426
0.5,10.6,0,0.00340721
0.5,10.7,0,0.00323073
0.5,10.8,0,0.00305942
0.5,10.9,0,0.00288811
0.5,11,0,0.0027168
0.5,11.1,0,0.00254932
0.5,11.2,0,0.0023831
0.5,11.3,0,0.00221689
0.5,11.4,0,0.00205239
0.5,11.5,0,0.00189044
0.5,11.6,0,0.0017285
0.5,11.7,0,0.00156673
0.5,11.8,0,0.00140811
0.5,11.9,0,0.00124949
0.5,12,0,0.00109087
0.5,12.1,0,0.000933849
0.5,12.2,0,0.000777518
0.5,12.3,0,0.000621188
0.5,12.4,0,0.000465289
0.5,12.5,0,0.000310193
0.5,12.6,0,0.000155096
0.5,12.7,0,0
0.6,0,0,0
0.6,0.1,0,0.00024225
0.6,0.2,0,0.000484893
0.6,0.3,0,0.000727552
0.6,0.4,0,0.000970775
0.6,0.5,0,0.0012138
0.6,0.6,0,0.00145789
0.6,0.7,0,0.00170226
0.6,0.8,0,0.00194718
0.6,0.9,0,0.00219301
0.6,1,0,0.00243878
0.6,1.1,0,0.00268634
0.6,1.2,0,0.00293401
0.6,1.3,0,0.00318264
0.6,1.4,0,0.00343215
0.6,1.5,0,0.00368188
0.6,1.6,0,0.0039334
0.6,1.7,0,0.00418481
0.6,1.8,0,0.00443722
0.6,1.9,0,0.00468997
0.6,2,0,0.00494331
0.6,2.1,0,0.0051974
0.6,2.2,0,0.00545103
0.6,2.3,0,0.0057052
0.6,2.4,0,0.00595842
0.6,2.5,0,0.00621271
0.6,2.6,0,0.00646522
0.6,2.7,0,0.00671683
0.6,2.8,0,0.00696779
0.6,2.9,0,0.00721559
0.6,3,0,0.00746502
0.6,3.1,0,0.00770833
0.6,3.2,0,0.00795026
0.6,3.3,0,0.00818941
0.6,3.4,0,0.00842231
0.6,3.5,0,0.00865726
0.6,3.6,0,0.00887996
0.6,3.7,0,0.00910082
0.6,3.8,0,0.0093158
0.6,3.9,0,0.00952079
0.6,4,0,0.00972796
0.6,4.1,0,0.00991543
0.6,4.2,0,0.0101008
0.6,4.3,0,0.0102765
0.6,4.4,0,0.0104384
0.6,4.5,0,0.0106022
0.6,4.6,0,0.0107388
0.6,4.7,0,0.0108734
0.6,4.8,0,0.0109944
0.6,4.9,0,0.0110925
0.6,5,0,0.011172
0.6,5.1,0,0.011287
0.6,5.2,0,0.0113557
0.6,5.3,0,0.0114106
0.6,5.4,0,0.0114516
0.6,5.5,0,0.0114786
0.6,5.6,0,0.0114915
0.6,5.7,0,0.0114903
0.6,5.8,0,0.0114752
0.6,5.9,0,0.0114464
0.6,6,0,0.011376
0.6,6.1,0,0.0113312
0.6,6.2,0,0.0112762
0.6,6.3,0,0.0111958
0.6,6.4,0,0.011101
0.6,6.5,0,0.0109973
0.6,6.6,0,0.0108828
0.6,6.7,0,0.0107586
0.6,6.8,0,0.0106217
0.6,6.9,0,0.0104796
0.6,7,0,0.0103297
0.6,7.1,0,0.0101663
0.6,7.2,0,0.010002
0.6,7.3,0,0.00982888
0.6,7.4,0,0.00964908
0.6,7.5,0,0.00946538
0.6,7.6,0,0.00927803
0.6,7.7,0,0.00908607
0.6,7.8,0,0.00888905
0.6,7.9,0,0.00869228
0.6,8,0,0.00849164
0.6,8.1,0,0.00828769
0.6,8.2,0,0.00808458
0.6,8.3,0,0.00787925
0.6,8.4,0,0.00767286
0.6,8.5,0,0.00746643
0.6,8.6,0,0.00726073
0.6,8.7,0,0.00705422
0.6,8.8,0,0.00684825
0.6,8.9,0,0.00664414
0.6,9,0,0.00643965
0.6,9.1,0,0.00623688
0.6,9.2,0,0.00603555
0.6,9.3,0,0.00583536
0.6,9.4,0,0.00563664
0.6,9.5,0,0.00543968
0.6,9.6,0,0.00524476
0.6,9.7,0,0.00505073
0.6,9.8,0,0.00485959
0.6,9.9,0,0.00467001
0.6,10,0,0.0044818
0.6,10.1,0,0.00429644
0.6,10.2,0,0.00411246
0.6,10.3,0,0.00393044
0.6,10.4,0,0.00375031
0.6,10.5,0,0.00357223
0.6,10.6,0,0.0033959
0.6,10.7,0,0.00322081
0.6,10.8,0,0.00304865
0.6,10.9,0,0.00287729
0.6,11,0,0.00270764
0.6,11.1,0,0.00254015
0.6,11.2,0,0.00237362
0.6,11.3,0,0.00220859
0.6,11.4,0,0.00204494
0.6,11.5,0,0.00188276
0.6,11.6,0,0.00172139
0.6,11.7,0,0.00156101
0.6,11.8,0,0.00140242
0.6,11.9,0,0.00124386
0.6,12,0,0.00108655
0.6,12.1,0,0.000930133
0.6,12.2,0,0.000773994
0.6,12.3,0,0.000618433
0.6,12.4,0,0.000463449
0.6,12.5,0,0.000308886
0.6,12.6,0,0.000154121
0.6,12.7,0,0
0.7,0,0,0
0.7,0.1,0,0.00024198
0.7,0.2,0,0.000483691
0.7,0.3,0,0.000726349
0.7,0.4,0,0.000968808
0.7,0.5,0,0.00121155
0.7,0.6,0,0.00145546
0.7,0.7,0,0.00169918
0.7,0.8,0,0.00194411
0.7,0.9,0,0.00218956
0.7,1,0,0.00243517
0.7,1.1,0,0.00268272
0.7,1.2,0,0.00293027
0.7,1.3,0,0.0031789
0.7,1.4,0,0.00342874
0.7,1.5,0,0.00367852
0.7,1.6,0,0.00393033
0.7,1.7,0,0.00418245
0.7,1.8,0,0.00443486
0.7,1.9,0,0.00468896
0.7,2,0,0.00494268
0.7,2.1,0,0.00519747
0.7,2.2,0,0.00545296
0.7,2.3,0,0.00570714
0.7,2.4,0,0.00596304
0.7,2.5,0,0.00621813
0.7,2.6,0,0.00647184
0.7,2.7,0,0.00672674
0.7,2.8,0,0.00697769
0.7,2.9,0,0.0072297
0.7,3,0,0.00748042
0.7,3.1,0,0.00772543
0.7,3.2,0,0.00797215
0.7,3.3,0,0.00821129
0.7,3.4,0,0.00844978
0.7,3.5,0,0.00868649
0.7,3.6,0,0.00891125
0.7,3.7,0,0.00913807
0.7,3.8,0,0.00935305
0.7,3.9,0,0.00956435
0.7,4,0,0.00977358
0.7,4.1,0,0.00996313
0.7,4.2,0,0.0101548
0.7,4.3,0,0.0103304
0.7,4.4,0,0.0104982
0.7,4.5,0,0.010664
0.7,4.6,0,0.0108022
0.7,4.7,0,0.010942
0.7,4.8,0,0.011063
0.7,4.9,0,0.011158
0.7,5,0,0.0112452
0.7,5.1,0,0.0113625
0.7,5.2,0,0.0114325
0.7,5.3,0,0.0114883
0.7,5.4,0,0.0115299
0.7,5.5,0,0.011557
0.7,5.6,0,0.0115696
0.7,5.7,0,0.0115678
0.7,5.8,0,0.0115518
0.7,5.9,0,0.0115216
0.7,6,0,0.0114485
0.7,6.1,0,0.0113969
0.7,6.2,0,0.0113317
0.7,6.3,0,0.0112615
0.7,6.4,0,0.0111668
0.7,6.5,0,0.0110526
0.7,6.6,0,0.0109382
0.7,6.7,0,0.0108142
0.7,6.8,0,0.0106705
0.7,6.9,0,0.0105229
0.7,7,0,0.0103738
0.7,7.1,0,0.0102079
0.7,7.2,0,0.0100348
0.7,7.3,0,0.0098615
0.7,7.4,0,0.00968171
0.7,7.5,0,0.00949111
0.7,7.6,0,0.00930002
0.7,7.7,0,0.00910798
0.7,7.8,0,0.0089079
0.7,7.9,0,0.0087056
0.7,8,0,0.00850424
0.7,8.1,0,0.00829947
0.7,8.2,0,0.0080916
0.7,8.3,0,0.0078842
0.7,8.4,0,0.00767781
0.7,8.5,0,0.00746906
0.7,8.6,0,0.00726006
0.7,8.7,0,0.00705324
0.7,8.8,0,0.00684681
0.7,8.9,0,0.00663998
0.7,9,0,0.00643437
0.7,9.1,0,0.00623161
0.7,9.2,0,0.00602922
0.7,9.3,0,0.0058272
0.7,9.4,0,0.00562847
0.7,9.5,0,0.00543181
0.7,9.6,0,0.00523527
0.7,9.7,0,0.00504089
0.7,9.8,0,0.00485032
0.7,9.9,0,0.00466037
0.7,10,0,0.00447125
0.7,10.1,0,0.00428608
0.7,10.2,0,0.00410293
0.7,10.3,0,0.00391995
0.7,10.4,0,0.00373982
0.7,10.5,0,0.0035629
0.7,10.6,0,0.00338633
0.7,10.7,0,0.00321097
0.7,10.8,0,0.00303953
0.7,10.9,0,0.00286903
0.7,11,0,0.00269889
0.7,11.1,0,0.00253153
0.7,11.2,0,0.00236637
0.7,11.3,0,0.00220124
0.7,11.4,0,0.00203759
0.7,11.5,0,0.00187647
0.7,11.6,0,0.00171575
0.7,11.7,0,0.0015553
0.7,11.8,0,0.0013972
0.7,11.9,0,0.00123992
0.7,12,0,0.00108262
0.7,12.1,0,0.00092624
0.7,12.2,0,0.000771325
0.7,12.3,0,0.000616404
0.7,12.4,0,0.00046142
0.7,12.5,0,0.000307525
0.7,12.6,0,0.000153943
0.7,12.7,0,0
0.8,0,0,0
0.8,0.1,0,0.000241196
0.8,0.2,0,0.000482907
0.8,0.3,0,0.000724161
0.8,0.4,0,0.00096662
0.8,0.5,0,0.00120871
0.8,0.6,0,0.00145208
0.8,0.7,0,0.0016958
0.8,0.8,0,0.00193984
0.8,0.9,0,0.00218529
0.8,1,0,0.00243056
0.8,1.1,0,0.00267799
0.8,1.2,0,0.00292554
0.8,1.3,0,0.00317425
0.8,1.4,0,0.00342409
0.8,1.5,0,0.00367408
0.8,1.6,0,0.00392646
0.8,1.7,0,0.00417857
0.8,1.8,0,0.00443259
0.8,1.9,0,0.00468669
0.8,2,0,0.00494143
0.8,2.1,0,0.00519775
0.8,2.2,0,0.00545324
0.8,2.3,0,0.00571104
0.8,2.4,0,0.00596695
0.8,2.5,0,0.00622413
0.8,2.6,0,0.00648057
0.8,2.7,0,0.00673547
0.8,2.8,0,0.00699249
0.8,2.9,0,0.0072445
0.8,3,0,0.00749854
0.8,3.1,0,0.00774755
0.8,3.2,0,0.00799427
0.8,3.3,0,0.00824191
0.8,3.4,0,0.00848039
0.8,3.5,0,0.00872159
0.8,3.6,0,0.00895135
0.8,3.7,0,0.00917817
0.8,3.8,0,0.00940332
0.8,3.9,0,0.00961461
0.8,4,0,0.009829
0.8,4.1,0,0.0100238
0.8,4.2,0,0.0102154
0.8,4.3,0,0.0104012
0.8,4.4,0,0.010569
0.8,4.5,0,0.0107396
0.8,4.6,0,0.0108821
0.8,4.7,0,0.011022
0.8,4.8,0,0.0111506
0.8,4.9,0,0.0112456
0.8,5,0,0.0113352
0.8,5.1,0,0.0114553
0.8,5.2,0,0.0115269
0.8,5.3,0,0.0115839
0.8,5.4,0,0.0116261
0.8,5.5,0,0.0116534
0.8,5.6,0,0.0116657
0.8,5.7,0,0.0116632
0.8,5.8,0,0.0116459
0.8,5.9,0,0.0116141
0.8,6,0,0.0115375
0.8,6.1,0,0.011483
0.8,6.2,0,0.0114177
0.8,6.3,0,0.011345
0.8,6.4,0,0.0112415
0.8,6.5,0,0.0111272
0.8,6.6,0,0.0110128
0.8,6.7,0,0.0108789
0.8,6.8,0,0.0107314
0.8,6.9,0,0.0105837
0.8,7,0,0.010428
0.8,7.1,0,0.0102544
0.8,7.2,0,0.0100812
0.8,7.3,0,0.00990509
0.8,7.4,0,0.00971502
0.8,7.5,0,0.00952372
0.8,7.6,0,0.00933262
0.8,7.7,0,0.00913194
0.8,7.8,0,0.00892815
0.8,7.9,0,0.00872584
0.8,8,0,0.00851981
0.8,8.1,0,0.00830934
0.8,8.2,0,0.00810147
0.8,8.3,0,0.00789262
0.8,8.4,0,0.00768013
0.8,8.5,0,0.0074707
0.8,8.6,0,0.0072617
0.8,8.7,0,0.0070507
0.8,8.8,0,0.0068423
0.8,8.9,0,0.00663547
0.8,9,0,0.00642802
0.8,9.1,0,0.00622284
0.8,9.2,0,0.00602044
0.8,9.3,0,0.00581804
0.8,9.4,0,0.00561732
0.8,9.5,0,0.00542037
0.8,9.6,0,0.00522383
0.8,9.7,0,0.0050285
0.8,9.8,0,0.00483752
0.8,9.9,0,0.00464758
0.8,10,0,0.00445827
0.8,10.1,0,0.00427299
0.8,10.2,0,0.00408984
0.8,10.3,0,0.00390689
0.8,10.4,0,0.00372713
0.8,10.5,0,0.00355032
0.8,10.6,0,0.00337375
0.8,10.7,0,0.00319897
0.8,10.8,0,0.00302806
0.8,10.9,0,0.00285756
0.8,11,0,0.00268788
0.8,11.1,0,0.00252163
0.8,11.2,0,0.00235646
0.8,11.3,0,0.00219143
0.8,11.4,0,0.00202918
0.8,11.5,0,0.00186845
0.8,11.6,0,0.00170772
0.8,11.7,0,0.00154839
0.8,11.8,0,0.00139129
0.8,11.9,0,0.00123401
0.8,12,0,0.00107733
0.8,12.1,0,0.000922584
0.8,12.2,0,0.000767669
0.8,12.3,0,0.000612783
0.8,12.4,0,0.000459567
0.8,12.5,0,0.000306243
0.8,12.6,0,0.00015266
0.8,12.7,0,0
0.9,0,0,0
0.9,0.1,0,0.000240681
0.9,0.2,0,0.000481083
0.9,0.3,0,0.000722337
0.9,0.4,0,0.00096356
0.9,0.5,0,0.00120528
0.9,0.6,0,0.00144829
0.9,0.7,0,0.00169106
0.9,0.8,0,0.0019351
0.9,0.9,0,0.00217986
0.9,1,0,0.00242494
0.9,1.1,0,0.00267226
0.9,1.2,0,0.00291961
0.9,1.3,0,0.00316832
0.9,1.4,0,0.00341842
0.9,1.5,0,0.00366856
0.9,1.6,0,0.00392122
0.9,1.7,0,0.00417435
0.9,1.8,0,0.00442836
0.9,1.9,0,0.00468417
0.9,2,0,0.00493955
0.9,2.1,0,0.00519669
0.9,2.2,0,0.00545491
0.9,2.3,0,0.00571272
0.9,2.4,0,0.00597223
0.9,2.5,0,0.00623071
0.9,2.6,0,0.00648867
0.9,2.7,0,0.00674841
0.9,2.8,0,0.00700543
0.9,2.9,0,0.00726331
0.9,3,0,0.00751937
0.9,3.1,0,0.00777069
0.9,3.2,0,0.00802448
0.9,3.3,0,0.00827213
0.9,3.4,0,0.00851864
0.9,3.5,0,0.00876254
0.9,3.6,0,0.00899525
0.9,3.7,0,0.00923093
0.9,3.8,0,0.00945608
0.9,3.9,0,0.00967674
0.9,4,0,0.0098942
0.9,4.1,0,0.0100922
0.9,4.2,0,0.0102931
0.9,4.3,0,0.0104789
0.9,4.4,0,0.0106556
0.9,4.5,0,0.010829
0.9,4.6,0,0.0109743
0.9,4.7,0,0.0111217
0.9,4.8,0,0.0112503
0.9,4.9,0,0.0113577
0.9,5,0,0.011442
0.9,5.1,0,0.0115654
0.9,5.2,0,0.0116389
0.9,5.3,0,0.0116972
0.9,5.4,0,0.0117402
0.9,5.5,0,0.0117678
0.9,5.6,0,0.0117797
0.9,5.7,0,0.0117763
0.9,5.8,0,0.0117576
0.9,5.9,0,0.0117237
0.9,6,0,0.0116431
0.9,6.1,0,0.0115938
0.9,6.2,0,0.0115291
0.9,6.3,0,0.0114404
0.9,6.4,0,0.011337
0.9,6.5,0,0.0112211
0.9,6.6,0,0.0110934
0.9,6.7,0,0.010959
0.9,6.8,0,0.0108117
0.9,6.9,0,0.0106517
0.9,7,0,0.0104911
0.9,7.1,0,0.010317
0.9,7.2,0,0.0101355
0.9,7.3,0,0.00995116
0.9,7.4,0,0.00976109
0.9,7.5,0,0.00956482
0.9,7.6,0,0.00936373
0.9,7.7,0,0.00916235
0.9,7.8,0,0.0089565
0.9,7.9,0,0.00874557
0.9,8,0,0.00853673
0.9,8.1,0,0.0083254
0.9,8.2,0,0.0081113
0.9,8.3,0,0.00789857
0.9,8.4,0,0.00768609
0.9,8.5,0,0.00747291
0.9,8.6,0,0.0072596
0.9,8.7,0,0.00704826
0.9,8.8,0,0.00683811
0.9,8.9,0,0.00662757
0.9,9,0,0.00641955
0.9,9.1,0,0.00621385
0.9,9.2,0,0.00600852
0.9,9.3,0,0.0058056
0.9,9.4,0,0.00560488
0.9,9.5,0,0.00540602
0.9,9.6,0,0.00520901
0.9,9.7,0,0.00501381
0.9,9.8,0,0.00482188
0.9,9.9,0,0.00463131
0.9,10,0,0.0044427
0.9,10.1,0,0.00425723
0.9,10.2,0,0.00407331
0.9,10.3,0,0.00389153
0.9,10.4,0,0.00371177
0.9,10.5,0,0.00353429
0.9,10.6,0,0.00335897
0.9,10.7,0,0.00318463
0.9,10.8,0,0.00301341
0.9,10.9,0,0.00284372
0.9,11,0,0.00267516
0.9,11.1,0,0.00250888
0.9,11.2,0,0.00234414
0.9,11.3,0,0.00218078
0.9,11.4,0,0.00201853
0.9,11.5,0,0.00185789
0.9,11.6,0,0.00169895
0.9,11.7,0,0.00154013
0.9,11.8,0,0.00138314
0.9,11.9,0,0.00122731
0.9,12,0,0.00107166
0.9,12.1,0,0.000916934
0.9,12.2,0,0.000763132
0.9,12.3,0,0.000609863
0.9,12.4,0,0.000456647
0.9,12.5,0,0.000303883
0.9,12.6,0,0.000152207
0.9,12.7,0,0
1,0,0,0
1,0.1,0,0.000239887
1,0.2,0,0.000479774
1,0.3,0,0.000720144
1,0.4,0,0.000960998
1,0.5,0,0.00120185
1,0.6,0,0.00144427
1,0.7,0,0.00168668
1,0.8,0,0.00193018
1,0.9,0,0.00217475
1,1,0,0.00241932
1,1.1,0,0.00266656
1,1.2,0,0.00291379
1,1.3,0,0.00316254
1,1.4,0,0.00341279
1,1.5,0,0.00366304
1,1.6,0,0.00391644
1,1.7,0,0.00416985
1,1.8,0,0.00442478
1,1.9,0,0.00468122
1,2,0,0.00493767
1,2.1,0,0.00519671
1,2.2,0,0.00545575
1,2.3,0,0.00571567
1,2.4,0,0.00597648
1,2.5,0,0.00623728
1,2.6,0,0.00649855
1,2.7,0,0.00675982
1,2.8,0,0.00702041
1,2.9,0,0.00728031
1,3,0,0.00754021
1,3.1,0,0.0077963
1,3.2,0,0.0080524
1,3.3,0,0.00830506
1,3.4,0,0.00855428
1,3.5,0,0.0088035
1,3.6,0,0.00904212
1,3.7,0,0.00928075
1,3.8,0,0.00951193
1,3.9,0,0.00973567
1,4,0,0.00995941
1,4.1,0,0.0101635
1,4.2,0,0.0103676
1,4.3,0,0.0105594
1,4.4,0,0.010739
1,4.5,0,0.0109185
1,4.6,0,0.0110686
1,4.7,0,0.0112186
1,4.8,0,0.0113447
1,4.9,0,0.0114467
1,5,0,0.0115487
1,5.1,0,0.0116755
1,5.2,0,0.0117509
1,5.3,0,0.0118106
1,5.4,0,0.0118544
1,5.5,0,0.0118822
1,5.6,0,0.0118938
1,5.7,0,0.0118895
1,5.8,0,0.0118693
1,5.9,0,0.0118334
1,6,0,0.0117486
1,6.1,0,0.0116759
1,6.2,0,0.0116031
1,6.3,0,0.0115303
1,6.4,0,0.0114231
1,6.5,0,0.0112973
1,6.6,0,0.0111714
1,6.7,0,0.0110353
1,6.8,0,0.0108749
1,6.9,0,0.0107145
1,7,0,0.0105541
1,7.1,0,0.0103696
1,7.2,0,0.0101837
1,7.3,0,0.00999789
1,7.4,0,0.00980188
1,7.5,0,0.00959909
1,7.6,0,0.0093963
1,7.7,0,0.00919112
1,7.8,0,0.00897875
1,7.9,0,0.00876637
1,8,0,0.008554
1,8.1,0,0.00833832
1,8.2,0,0.00812227
1,8.3,0,0.00790622
1,8.4,0,0.0076906
1,8.5,0,0.00747533
1,8.6,0,0.00726006
1,8.7,0,0.00704558
1,8.8,0,0.00683425
1,8.9,0,0.00662291
1,9,0,0.00641158
1,9.1,0,0.00620533
1,9.2,0,0.00599997
1,9.3,0,0.00579462
1,9.4,0,0.00559283
1,9.5,0,0.00539461
1,9.6,0,0.00519639
1,9.7,0,0.00499932
1,9.8,0,0.00480873
1,9.9,0,0.00461813
1,10,0,0.00442753
1,10.1,0,0.00424302
1,10.2,0,0.00406002
1,10.3,0,0.00387701
1,10.4,0,0.00369725
1,10.5,0,0.00352145
1,10.6,0,0.00334564
1,10.7,0,0.00317048
1,10.8,0,0.0030012
1,10.9,0,0.00283191
1,11,0,0.00266263
1,11.1,0,0.00249759
1,11.2,0,0.00233397
1,11.3,0,0.00217035
1,11.4,0,0.0020086
1,11.5,0,0.00184965
1,11.6,0,0.00169071
1,11.7,0,0.00153195
1,11.8,0,0.0013766
1,11.9,0,0.00122125
1,12,0,0.0010659
1,12.1,0,0.000912292
1,12.2,0,0.000759427
1,12.3,0,0.000606562
1,12.4,0,0.000454209
1,12.5,0,0.000302806
1,12.6,0,0.000151403
1,12.7,0,0
1.1,0,0,0
1.1,0.1,0,0.000238409
1.1,0.2,0,0.000477747
1.1,0.3,0,0.00071695
1.1,0.4,0,0.000957186
1.1,0.5,0,0.00119698
1.1,0.6,0,0.00143837
1.1,0.7,0,0.00168034
1.1,0.8,0,0.001923
1.1,0.9,0,0.00216719
1.1,1,0,0.00241115
1.1,1.1,0,0.00265798
1.1,1.2,0,0.00290509
1.1,1.3,0,0.00315373
1.1,1.4,0,0.00340401
1.1,1.5,0,0.00365448
1.1,1.6,0,0.0039085
1.1,1.7,0,0.00416231
1.1,1.8,0,0.00441828
1.1,1.9,0,0.00467537
1.1,2,0,0.0049333
1.1,2.1,0,0.00519444
1.1,2.2,0,0.00545461
1.1,2.3,0,0.00571717
1.1,2.4,0,0.00597948
1.1,2.5,0,0.00624345
1.1,2.6,0,0.00650874
1.1,2.7,0,0.00677208
1.1,2.8,0,0.00703729
1.1,2.9,0,0.00729974
1.1,3,0,0.0075648
1.1,3.1,0,0.0078271
1.1,3.2,0,0.00808628
1.1,3.3,0,0.00834565
1.1,3.4,0,0.0085985
1.1,3.5,0,0.00885478
1.1,3.6,0,0.0091016
1.1,3.7,0,0.00934411
1.1,3.8,0,0.0095836
1.1,3.9,0,0.00981178
1.1,4,0,0.0100436
1.1,4.1,0,0.0102569
1.1,4.2,0,0.0104651
1.1,4.3,0,0.0106654
1.1,4.4,0,0.0108494
1.1,4.5,0,0.0110364
1.1,4.6,0,0.0111947
1.1,4.7,0,0.0113478
1.1,4.8,0,0.0114874
1.1,4.9,0,0.0115999
1.1,5,0,0.0116908
1.1,5.1,0,0.0118224
1.1,5.2,0,0.0119005
1.1,5.3,0,0.0119621
1.1,5.4,0,0.012007
1.1,5.5,0,0.0120351
1.1,5.6,0,0.0120462
1.1,5.7,0,0.0120407
1.1,5.8,0,0.0120185
1.1,5.9,0,0.0119798
1.1,6,0,0.0118892
1.1,6.1,0,0.0118337
1.1,6.2,0,0.0117668
1.1,6.3,0,0.0116665
1.1,6.4,0,0.0115506
1.1,6.5,0,0.0114259
1.1,6.6,0,0.0112888
1.1,6.7,0,0.0111399
1.1,6.8,0,0.0109778
1.1,6.9,0,0.0108128
1.1,7,0,0.0106365