/*--------------------------------*- C++ -*----------------------------------*\
| =========                 |                                                 |
| \\      /  F ield         | OpenFOAM: The Open Source CFD Toolbox           |
|  \\    /   O peration     | Version:  v1806                                 |
|   \\  /    A nd           | Web:      www.OpenFOAM.com                      |
|    \\/     M anipulation  |                                                 |
\*---------------------------------------------------------------------------*/
FoamFile
{
    version     2.0;
    format      ascii;
    class       surfaceScalarField;
    location    "20";
    object      phi;
}
// * * * * * * * * * * * * * * * * * * * * * * * * * * * * * * * * * * * * * //

dimensions      [0 3 -1 0 0 0 0];
oriented        oriented;


internalField   nonuniform List<scalar> 
4680
(
0.0750011
-0.00103151
0.0749911
-0.00319693
0.0749555
-0.00582217
0.0749232
-0.00831891
0.0749158
-0.0102737
0.074866
-0.0127759
0.0746725
-0.0170129
0.0743466
-0.0221083
0.0740116
-0.0258455
0.0736881
-0.02765
0.073126
-0.029876
0.0718985
-0.0356746
0.0696726
-0.0459515
0.066413
-0.0586972
0.0623522
-0.0706419
0.0578321
-0.0794217
0.0531376
-0.0842999
0.0484688
-0.0859238
0.0439258
-0.0852664
-0.0832341
0.0395815
0.0749974
-0.00102893
0.0749787
-0.00317818
0.0749215
-0.00576501
0.0748541
-0.00825151
0.0748091
-0.0102286
0.0747232
-0.01269
0.0744778
-0.0167675
0.0740564
-0.0216868
0.0735686
-0.0253578
0.07306
-0.0271414
0.0723381
-0.029154
0.0710532
-0.0343898
0.0689429
-0.0438412
0.0659949
-0.0557492
0.0623924
-0.0670395
0.0584114
-0.0754406
0.0542666
-0.0801552
0.0501271
-0.0817843
0.0460641
-0.0812034
-0.0792775
0.0421075
0.0749939
-0.00102285
0.0749634
-0.00314763
0.0748847
-0.00568637
0.0747868
-0.0081536
0.0747008
-0.0101426
0.074563
-0.0125522
0.0742602
-0.0164647
0.0737726
-0.0211992
0.0731928
-0.024778
0.0725716
-0.0265202
0.0717728
-0.0283553
0.070518
-0.033135
0.0685595
-0.0418827
0.0658305
-0.0530202
0.0624443
-0.0636533
0.0586549
-0.0716511
0.0546771
-0.0761774
0.0507067
-0.0778138
0.0468186
-0.0773153
-0.0755202
0.0430613
0.0749899
-0.00101272
0.0749483
-0.00310606
0.074852
-0.00559008
0.0747249
-0.00802652
0.0745955
-0.0100132
0.0744091
-0.0123657
0.0740612
-0.0161169
0.0735217
-0.0206597
0.0728684
-0.0241247
0.0721675
-0.0258192
0.0713297
-0.0275175
0.0701163
-0.0319215
0.0682847
-0.0400511
0.0657607
-0.0504962
0.0626426
-0.0605352
0.0591728
-0.0681813
0.0555245
-0.0725292
0.0518836
-0.074173
0.0482941
-0.0737258
-0.0720083
0.0447823
0.074986
-0.000998683
0.074934
-0.00305411
0.0748209
-0.00547699
0.0746662
-0.00787175
0.0744976
-0.00984466
0.0742679
-0.0121361
0.0738778
-0.0157267
0.073293
-0.020075
0.0725896
-0.0234213
0.0718448
-0.0250744
0.0709911
-0.0266638
0.0698116
-0.030742
0.0680768
-0.0383163
0.0657101
-0.0481295
0.0627831
-0.0576082
0.059525
-0.0649232
0.0560812
-0.0690853
0.0526649
-0.0707567
0.0493001
-0.0703611
-0.0687285
0.0460203
0.0749822
-0.00098086
0.0749201
-0.00299199
0.074791
-0.00534792
0.0746106
-0.00769138
0.0744058
-0.00963988
0.0741359
-0.0118661
0.0737077
-0.0152986
0.0730869
-0.0194542
0.0723461
-0.0226805
0.0715667
-0.024295
0.0707009
-0.025798
0.0695586
-0.0295997
0.0679262
-0.0366839
0.0657244
-0.0459277
0.0630023
-0.0548862
0.0599858
-0.0619067
0.0567784
-0.0658779
0.0536224
-0.0676006
0.0504951
-0.0672338
-0.0656694
0.047436
0.0749785
-0.000959322
0.0749064
-0.00291997
0.0747619
-0.00520338
0.0745571
-0.00748658
0.0743184
-0.00940116
0.074011
-0.0115588
0.0735482
-0.0148358
0.0728953
-0.0188012
0.0721227
-0.021908
0.0713173
-0.0234896
0.0704477
-0.0249284
0.0693411
-0.0284931
0.0677931
-0.035136
0.0657235
-0.043858
0.0631663
-0.052329
0.0603516
-0.059092
0.0573402
-0.0628665
0.0544315
-0.0646919
0.0515326
-0.0643349
-0.0628533
0.0487164
0.0749748
-0.00093416
0.074893
-0.00283817
0.0747331
-0.00504348
0.0745048
-0.00725823
0.0742338
-0.00913022
0.0738909
-0.0112158
0.0733951
-0.0143399
0.0727123
-0.0181185
0.0719111
-0.0211067
0.0710811
-0.0226596
0.0702051
-0.0240524
0.0691282
-0.0274162
0.0676605
-0.0336683
0.0657219
-0.0419194
0.0633315
-0.0499386
0.0607228
-0.0564833
0.0579053
-0.060049
0.05526
-0.0620466
0.0525787
-0.0616536
-0.0602907
0.0500162
0.0749713
-0.00090542
0.0748796
-0.00274654
0.0747044
-0.00486822
0.074453
-0.00700681
0.0741507
-0.008828
0.0737731
-0.0108382
0.0732449
-0.0138117
0.0725324
-0.0174059
0.0717019
-0.0202763
0.0708463
-0.021804
0.0699616
-0.0231676
0.0689078
-0.0263624
0.0675071
-0.0322676
0.0656768
-0.0400892
0.06343
-0.0476918
0.0610067
-0.0540599
0.0583684
-0.0574107
0.0560083
-0.0596865
0.053536
-0.0591813
-0.0580329
0.0512781
0.0749677
-0.000873108
0.0748661
-0.002645
0.0746754
-0.00467743
0.074401
-0.00673242
0.0740679
-0.00849493
0.0736558
-0.0104261
0.0730945
-0.0132504
0.0723506
-0.016662
0.0714886
-0.0194143
0.0706034
-0.0209188
0.0697029
-0.0222671
0.0686613
-0.0253208
0.067315
-0.0309213
0.0655787
-0.0383528
0.0634673
-0.0455805
0.0612174
-0.0518101
0.0587545
-0.0549477
0.0567061
-0.0576382
0.0544165
-0.0568917
-0.0561578
0.0525414
0.0749641
-0.000837209
0.0748525
-0.00253341
0.0746459
-0.0044708
0.0743484
-0.00643494
0.0739845
-0.00813105
0.0735375
-0.00997909
0.0729413
-0.0126543
0.0721632
-0.015884
0.0712656
-0.0185166
0.0703451
-0.0199984
0.06942
-0.021342
0.0683772
-0.0242781
0.0670668
-0.0296109
0.0653992
-0.0366852
0.0634046
-0.0435859
0.0613023
-0.0497078
0.0590169
-0.0526624
0.0573067
-0.0559279
0.0551668
-0.0547519
-0.0548117
0.0538207
0.0749605
-0.000797702
0.0748387
-0.0024116
0.0746159
-0.00424799
0.074295
-0.00611407
0.0739
-0.00773604
0.073417
-0.0094961
0.0727838
-0.012021
0.0719677
-0.0150679
0.0710289
-0.0175778
0.0700656
-0.0190351
0.0691041
-0.0203805
0.0680437
-0.0232176
0.0667474
-0.0283145
0.0651226
-0.0350605
0.0632254
-0.0416886
0.0612375
-0.0477199
0.0591432
-0.0505681
0.0577739
-0.0545587
0.0557467
-0.0527247
-0.0542293
0.0551644
0.0749569
-0.000754565
0.0748247
-0.00227943
0.0745854
-0.00400865
0.0742408
-0.00576948
0.0738142
-0.00730946
0.073294
-0.00897596
0.072621
-0.011348
0.0717625
-0.0142095
0.0707762
-0.0165915
0.0697614
-0.0180202
0.0687499
-0.019369
0.0676524
-0.0221202
0.0663418
-0.0270039
0.0647266
-0.0334452
0.0628948
-0.0398569
0.0609764
-0.0458014
0.0590969
-0.0486886
0.0580277
-0.0534895
0.0561175
-0.0508144
-0.0547475
0.0566356
0.0749532
-0.000707795
0.0748106
-0.0021368
0.0745545
-0.00375254
0.0741859
-0.00540089
0.0737273
-0.00685088
0.0731688
-0.00841746
0.0724531
-0.0106323
0.0715477
-0.013304
0.0705072
-0.015551
0.0694311
-0.0169442
0.0683541
-0.0182919
0.0671971
-0.0209632
0.0658384
-0.0256451
0.0641944
-0.0318012
0.062381
-0.0380435
0.0604794
-0.0438998
0.0588327
-0.0470419
0.0579557
-0.0526125
0.0562929
-0.0491516
-0.0567458
0.0582912
0.0749496
-0.00065742
0.0747966
-0.00198373
0.0745236
-0.00347956
0.0741309
-0.00500818
0.0736401
-0.00636006
0.0730422
-0.00781959
0.0722814
-0.00987148
0.0713246
-0.0123472
0.0702232
-0.0144496
0.0690761
-0.0157971
0.0679173
-0.0171332
0.0666759
-0.0197218
0.0652293
-0.0241986
0.0635106
-0.0300824
0.0616459
-0.0361789
0.0597005
-0.0419544
0.0582643
-0.0456057
0.0574103
-0.0517585
0.0563545
-0.0480957
-0.0604773
0.0600859
0.0749461
-0.000603511
0.0747827
-0.00182036
0.074493
-0.00318986
0.0740764
-0.00459156
0.0735534
-0.00583712
0.0729157
-0.00718184
0.072108
-0.00906374
0.0710961
-0.0113353
0.0699282
-0.0132818
0.0687005
-0.0145693
0.0674443
-0.015877
0.0660914
-0.0183689
0.0645145
-0.0226216
0.0626651
-0.028233
0.0606576
-0.0341714
0.0586006
-0.0398974
0.0572581
-0.0442631
0.0562454
-0.0507459
0.0563735
-0.0482237
-0.0657612
0.0616573
0.0749427
-0.000546197
0.0747693
-0.001647
0.0744633
-0.00288385
0.0740233
-0.00415158
0.0734689
-0.0052827
0.0727915
-0.00650442
0.071936
-0.00820821
0.0708666
-0.0102659
0.069628
-0.0120432
0.0683117
-0.0132531
0.0669445
-0.0145097
0.0654537
-0.0168782
0.063704
-0.0208719
0.0616569
-0.0261859
0.0593986
-0.0319131
0.0571441
-0.0376429
0.0556373
-0.0427564
0.0542855
-0.0493941
0.0561592
-0.0500975
-0.0715906
0.0619887
0.0749395
-0.000485676
0.0747566
-0.00146417
0.0744351
-0.00256229
0.0739728
-0.00368931
0.0733882
-0.00469812
0.0726723
-0.00578847
0.0717694
-0.00730535
0.0706418
-0.00913829
0.0693305
-0.0107319
0.0679207
-0.0118433
0.0664324
-0.0130215
0.0647812
-0.015227
0.0628218
-0.0189125
0.0605032
-0.0238673
0.0578809
-0.0292907
0.0552633
-0.0350254
0.0532269
-0.04072
0.051644
-0.0478112
0.0550228
-0.0534763
-0.0757404
0.0591727
0.0749366
-0.000422243
0.074745
-0.00127257
0.074409
-0.00222631
0.073926
-0.00320633
0.0733134
-0.00408547
0.0725611
-0.00503625
0.0716129
-0.00635714
0.0704285
-0.00795387
0.0690454
-0.0093487
0.067541
-0.010339
0.0659274
-0.0114078
0.0641017
-0.0134014
0.0619066
-0.0167173
0.0592514
-0.0212122
0.056168
-0.0262073
0.0529269
-0.0317842
0.0498978
-0.0376909
0.0479355
-0.0458489
0.0510899
-0.0566306
-0.0752955
0.050645
0.074934
-0.000356256
0.0747346
-0.00107314
0.0743858
-0.0018775
0.0738843
-0.00270484
0.0732464
-0.00344761
0.0724614
-0.0042512
0.0714716
-0.00536731
0.0702344
-0.00671672
0.0687837
-0.00789802
0.0671893
-0.00874455
0.0654529
-0.00967134
0.0634517
-0.0114002
0.0610114
-0.014277
0.0579888
-0.0181897
0.0543843
-0.0226028
0.0502692
-0.0276691
0.0458569
-0.0332786
0.0419929
-0.0419849
0.0404204
-0.0550581
0.0336573
-0.0685325
0.0337525
-0.113771
0.0283797
-0.1062
0.0234641
-0.0976083
0.0190463
-0.0884327
0.0151914
-0.0790833
0.0119421
-0.0699031
0.00929238
-0.0611612
0.00718996
-0.0530553
0.00555423
-0.0457126
-0.0391969
0.00429995
0.0367206
-0.108384
0.0316261
-0.101105
0.0268016
-0.0927838
0.022295
-0.083926
0.0182043
-0.0749926
0.0146215
-0.0663203
0.0115933
-0.0581329
0.00911181
-0.0505739
0.00712667
-0.0437275
-0.0376369
0.00556668
0.0379585
-0.103281
0.0331447
-0.0962917
0.0285538
-0.0881929
0.0242023
-0.0795746
0.0201796
-0.0709699
0.0165775
-0.0627183
0.0134518
-0.0550072
0.0108137
-0.0479358
0.00863667
-0.0415504
-0.0358717
0.00687145
0.0399702
-0.0984688
0.0353492
-0.0916708
0.0308207
-0.0836643
0.0264151
-0.075169
0.0222687
-0.0668235
0.0185126
-0.0589622
0.0152206
-0.0517152
0.0124095
-0.0451247
0.010055
-0.039196
-0.0339289
0.0081122
0.041538
-0.0939866
0.0372034
-0.0873361
0.0328356
-0.0792966
0.0284469
-0.0707803
0.0242152
-0.0625917
0.0203207
-0.0550678
0.0168694
-0.0482639
0.0138933
-0.0421486
0.0113741
-0.0366768
-0.0318247
0.00926991
0.0432535
-0.0898041
0.03916
-0.0832426
0.0348891
-0.0750257
0.0304497
-0.0663408
0.0260812
-0.0582232
0.0220204
-0.051007
0.0184012
-0.0446447
0.015264
-0.0390114
0.0125905
-0.0340032
-0.0295726
0.0103383
0.0448856
-0.0859733
0.0410817
-0.0794386
0.036916
-0.07086
0.0323995
-0.0618244
0.0278596
-0.0536834
0.0236088
-0.0467561
0.0198137
-0.0408496
0.0165195
-0.0357172
0.013702
-0.0311858
-0.027185
0.0113144
0.046557
-0.0825141
0.0430459
-0.0759275
0.0389502
-0.0667643
0.0343026
-0.0571768
0.029545
-0.0489258
0.025078
-0.0422892
0.0211005
-0.0368721
0.0176555
-0.0322721
0.014706
-0.0282363
-0.0246749
0.0121959
0.0482554
-0.0794913
0.0450523
-0.0727244
0.0409803
-0.0626923
0.036138
-0.0523345
0.0311149
-0.0439027
0.0264101
-0.0375843
0.0222496
-0.0327116
0.0186651
-0.0286876
0.0155991
-0.0251704
-0.0220566
0.0129808
0.050024
-0.0769739
0.0471089
-0.0698093
0.0429721
-0.0585555
0.0378553
-0.0472177
0.0325241
-0.0385715
0.0275725
-0.0326327
0.0232412
-0.0283804
0.0195379
-0.0249843
0.0163765
-0.022009
-0.019347
0.0136669
0.0518855
-0.0750386
0.0491832
-0.067107
0.0448365
-0.0542087
0.0393548
-0.041736
0.0336927
-0.0329094
0.0285124
-0.0274525
0.0240447
-0.0239126
0.0202583
-0.0211979
0.0170316
-0.0187823
-0.0165669
0.0142515
0.053844
-0.0737182
0.0511738
-0.0644369
0.0463978
-0.0494326
0.040466
-0.0358042
0.0344944
-0.0269378
0.0291502
-0.0221082
0.0246148
-0.0193773
0.0208023
-0.0173854
0.0175533
-0.0155333
-0.0137433
0.0147296
0.0558271
-0.0729097
0.0528521
-0.061462
0.0473516
-0.0439321
0.0409284
-0.0293811
0.0347471
-0.0207564
0.0293725
-0.0167336
0.0248855
-0.0148902
0.0211324
-0.0136323
0.0179213
-0.0123222
-0.010912
0.01509
0.0575891
-0.0722075
0.0537685
-0.0576414
0.0472291
-0.0373927
0.0403869
-0.0225388
0.0342115
-0.014581
0.0290298
-0.0115519
0.0247629
-0.0106234
0.0211875
-0.0100569
0.0180968
-0.00923141
-0.00812295
0.0153077
0.0585666
-0.0706882
0.0531819
-0.0522567
0.0454059
-0.0296166
0.0384134
-0.0155463
0.0326096
-0.00877724
0.0279394
-0.00688172
0.0241163
-0.00680021
0.0208678
-0.00680837
0.0180052
-0.00636889
-0.00544792
0.0153302
0.0577462
-0.0667771
0.0500697
-0.0445803
0.0411876
-0.0207345
0.0345973
-0.008956
0.0296757
-0.0038557
0.0258993
-0.00310527
0.0227666
-0.00366756
0.0200118
-0.00405353
0.017511
-0.00386809
-0.00299265
0.0150557
0.0536806
-0.058469
0.0433076
-0.0342073
0.034055
-0.0114819
0.0287034
-0.00360439
0.0252395
-0.000391842
0.0227078
-0.000573546
0.0204749
-0.00143465
0.0183706
-0.00194924
0.0163826
-0.00188007
-0.00091547
0.0143054
0.0447893
-0.0440856
0.0321711
-0.0215891
0.0241357
-0.00344651
0.0208721
-0.000340755
0.0193024
0.00117788
0.018174
0.000554835
0.0169309
-0.000191522
0.0155847
-0.000603053
0.0142549
-0.000550232
0.000546184
0.0127932
0.0300566
-0.0234972
0.017183
-0.00871551
0.0127326
0.00100392
0.0118486
0.000543245
0.0120677
0.000958761
0.0121185
0.000503996
0.0117632
0.000163788
0.0111786
-1.83727e-05
0.0105858
4.25645e-05
0.00102771
0.0101042
0.0101601
0.00144459
0.00244851
0.00299175
0.00395052
0.00445451
0.0046183
0.00459993
0.00464249
0.0056702
0.00306378
-0.043944
0.00220586
-0.0355862
0.00161147
-0.0288895
0.00119804
-0.0235835
0.000908026
-0.0193718
0.000701894
-0.0160102
0.000552938
-0.0132999
0.000443249
-0.0110898
0.000360894
-0.00926671
0.000297923
-0.00774626
0.000249024
-0.00646552
0.000210612
-0.00537641
0.000180242
-0.00444169
0.00015622
-0.00363153
0.000137356
-0.00292157
0.000122812
-0.00229123
0.000111996
-0.00172286
0.000104508
-0.00120166
0.000100024
-0.00072283
-0.00033349
0.00399956
-0.0423769
0.00289404
-0.0344807
0.00211905
-0.0281145
0.00157663
-0.023041
0.00119476
-0.0189899
0.000922965
-0.0157384
0.000726514
-0.0131035
0.000581919
-0.0109452
0.000473444
-0.00915824
0.00039058
-0.0076634
0.000326293
-0.00640123
0.000275837
-0.00532595
0.000235973
-0.00440182
0.00020446
-0.00360001
0.000179727
-0.00289683
0.000160664
-0.00227217
0.000146497
-0.00170869
0.000136698
-0.00119187
0.000130865
-0.000716997
-0.000330982
0.00503884
-0.0405443
0.0037067
-0.0331486
0.00274888
-0.0271567
0.00206559
-0.0223577
0.00157743
-0.0185018
0.00122607
-0.0153871
0.000969863
-0.0128473
0.000779937
-0.0107553
0.000636617
-0.00901492
0.000526598
-0.00755338
0.000440894
-0.00631553
0.0003734
-0.00525846
0.000319928
-0.00434835
0.000277565
-0.00355765
0.000244261
-0.00286353
0.000218567
-0.00224648
0.000199465
-0.00168959
0.000186267
-0.00117867
0.000178437
-0.000709168
-0.000327495
0.00604882
-0.0384809
0.00451569
-0.0316154
0.00339091
-0.0260319
0.00257524
-0.0215421
0.00198442
-0.017911
0.00155423
-0.0149569
0.00123741
-0.0125305
0.00100051
-0.0105184
0.000820374
-0.00883478
0.000681165
-0.00741417
0.000572095
-0.00620646
0.000485783
-0.00517214
0.000417126
-0.00427969
0.000362559
-0.00350308
0.000319558
-0.00282053
0.000286329
-0.00221325
0.000261609
-0.00166487
0.000244532
-0.00116159
0.000234411
-0.000699047
-0.00032293
0.00699728
-0.0362083
0.00528288
-0.029901
0.004007
-0.024756
0.00307083
-0.0206059
0.00238558
-0.0172257
0.00188193
-0.0144532
0.00150776
-0.0121563
0.00122568
-0.0102363
0.00100958
-0.00861868
0.000841449
-0.00724604
0.000708941
-0.00607395
0.000603551
-0.00506675
0.000519371
-0.00419552
0.000452245
-0.00343596
0.000399213
-0.0027675
0.000358162
-0.0021722
0.000327594
-0.0016343
0.000306473
-0.00114047
0.000293951
-0.000686525
-0.000317251
0.0078731
-0.033743
0.00599402
-0.028022
0.00458178
-0.0233438
0.00353751
-0.0195616
0.00276746
-0.0164557
0.00219734
-0.0138831
0.00177067
-0.0117296
0.00144666
-0.00991233
0.00119668
-0.0083687
0.00100094
-0.00705029
0.000845778
-0.00591879
0.000721771
-0.00494275
0.000622323
-0.00409607
0.000542767
-0.0033564
0.000479763
-0.00270449
0.000430908
-0.00212334
0.000394491
-0.00159789
0.000369311
-0.00111529
0.000354368
-0.000671582
-0.000310451
0.00867076
-0.0310994
0.00664212
-0.0259933
0.00510769
-0.0218094
0.00396803
-0.018422
0.00312347
-0.0156111
0.0024947
-0.0132543
0.00202115
-0.0112561
0.00165912
-0.0095503
0.00137794
-0.00808752
0.00115636
-0.00682872
0.000979755
-0.00574218
0.000837932
-0.00480092
0.000723754
-0.00398189
0.000632133
-0.00326478
0.000559404
-0.00263176
0.000502913
-0.00206685
0.000460754
-0.00155573
0.000431578
-0.00108611
0.000414238
-0.000654243
-0.000302539
0.00938631
-0.0282897
0.00722251
-0.0238295
0.00557995
-0.0201668
0.00435809
-0.0172001
0.00344996
-0.014703
0.00277093
-0.0125753
0.00225662
-0.0107418
0.00186086
-0.00915454
0.00155143
-0.00777809
0.00130607
-0.00658336
0.00110941
-0.00554552
0.000950741
-0.00464226
0.00082251
-0.00385366
0.000719305
-0.00316157
0.000637193
-0.00254965
0.000573307
-0.00200296
0.00052557
-0.00150799
0.000492496
-0.00105304
0.000472808
-0.000634554
-0.000293534
0.0100162
-0.0253251
0.00773126
-0.0215446
0.00599478
-0.0184303
0.00470464
-0.01591
0.00374456
-0.0137429
0.00302418
-0.0118549
0.00247558
-0.0101932
0.00205065
-0.00872961
0.00171613
-0.00744357
0.00144915
-0.00631638
0.00123394
-0.00533031
0.00105948
-0.0044678
0.000917945
-0.00371213
0.000803696
-0.00304733
0.000712594
-0.00245855
0.000641594
-0.00193197
0.000588474
-0.00145487
0.000551626
-0.00101619
0.000529652
-0.000612581
-0.00028346
0.0105567
-0.0222149
0.0081644
-0.0191523
0.00634872
-0.0166146
0.0050052
-0.0145665
0.00400558
-0.0127433
0.00325328
-0.0111026
0.00267714
-0.00961702
0.00222775
-0.00828022
0.00187138
-0.0070872
0.00158502
-0.00603002
0.00135282
-0.00509811
0.00116367
-0.00427865
0.00100964
-0.00355809
0.000884923
-0.00292261
0.000785254
-0.00235888
0.000707448
-0.00185416
0.00064916
-0.00139658
0.000608677
-0.00097571
0.000584492
-0.000588395
-0.00027235
0.0110033
-0.0189666
0.00851747
-0.0166665
0.00663829
-0.0147355
0.00525765
-0.0131858
0.00423182
-0.0117174
0.0034575
-0.0103283
0.0028608
-0.00902032
0.00239175
-0.00781116
0.00201681
-0.00671226
0.00171332
-0.00572654
0.00146571
-0.00485049
0.001263
-0.00407594
0.00109727
-0.00339236
0.000962692
-0.00278803
0.000854899
-0.00225109
0.000770613
-0.00176987
0.000707389
-0.00133336
0.000663421
-0.000931742
0.000637109
-0.000562083
-0.000260236
0.0113496
-0.0155866
0.00878488
-0.0141017
0.00685987
-0.0128104
0.00546018
-0.0117861
0.00442252
-0.0106798
0.00363655
-0.00954232
0.00302641
-0.00841018
0.00254247
-0.00732722
0.00215219
-0.00632198
0.00183381
-0.00540816
0.00157235
-0.00458903
0.00135719
-0.00386078
0.00118059
-0.00321576
0.00103675
-0.0026442
0.000921296
-0.00213563
0.000830869
-0.00167945
0.000762952
-0.00126544
0.000715661
-0.000884451
0.000687314
-0.000533737
-0.00024716
0.0115851
-0.0120818
0.00895895
-0.0114756
0.00700936
-0.0108609
0.00561135
-0.0103881
0.00457744
-0.00964587
0.00379059
-0.00875547
0.00317411
-0.0077937
0.00267998
-0.00683309
0.00227749
-0.0059195
0.00194634
-0.00507701
0.00167253
-0.00431522
0.00144602
-0.00363427
0.00125936
-0.0030291
0.00110689
-0.00249173
0.000984232
-0.00201297
0.000888014
-0.00158323
0.000815657
-0.00119308
0.000765214
-0.000834009
0.000734933
-0.000503455
-0.000233162
0.0116908
-0.00846487
0.00902798
-0.00881273
0.00708193
-0.0089148
0.00571014
-0.00901633
0.00469696
-0.00863269
0.00392028
-0.00797879
0.00330444
-0.00717786
0.00280456
-0.00633321
0.00239279
-0.00550773
0.00205088
-0.0047351
0.00176614
-0.00403048
0.00152933
-0.00339745
0.0013334
-0.00283317
0.0011729
-0.00233123
0.00104351
-0.00188359
0.000941862
-0.00148158
0.000865328
-0.00111655
0.000811911
-0.000780592
0.000779802
-0.000471346
-0.000218287
0.0116325
-0.00476712
0.00897374
-0.006154
0.0070717
-0.00701277
0.00575619
-0.00770082
0.00478219
-0.0076587
0.00402683
-0.00722343
0.00341826
-0.00656929
0.00291672
-0.00583166
0.00249831
-0.00508932
0.00214745
-0.00438424
0.0018531
-0.00373613
0.00160697
-0.00315132
0.00140255
-0.00262875
0.00123461
-0.00216329
0.00109897
-0.00174794
0.000992241
-0.00137485
0.000911798
-0.00103611
0.000855592
-0.000724386
0.000821767
-0.000437521
-0.000202581
0.0113512
-0.00106259
0.00876886
-0.00357169
0.00697198
-0.00521589
0.00574982
-0.00647866
0.00483522
-0.0067441
0.00411212
-0.00650033
0.00351684
-0.00597401
0.00301718
-0.005332
0.00259441
-0.00466655
0.00223618
-0.00402601
0.00193339
-0.00343335
0.00167886
-0.00289678
0.00146665
-0.00241654
0.00129187
-0.00198851
0.00115043
-0.0016065
0.00103899
-0.00126341
0.000954914
-0.00095203
0.000896109
-0.00066558
0.000860687
-0.0004021
-0.000186093
0.0107567
0.00248613
0.00837731
-0.00119235
0.00677701
-0.00361558
0.00569323
-0.00539488
0.00485948
-0.00591034
0.00417875
-0.0058196
0.00360181
-0.00539707
0.00310686
-0.00483706
0.00268153
-0.00424122
0.00231724
-0.00366171
0.00200702
-0.00312313
0.0017449
-0.00263466
0.0015256
-0.00219725
0.00134453
-0.00180744
0.00119775
-0.00145972
0.00108197
-0.00114763
0.000994534
-0.000864593
0.000933323
-0.000604368
0.000896429
-0.000365206
-0.00016887
0.00973291
0.00554642
0.00776393
0.000776634
0.00648679
-0.00233844
0.00559234
-0.00450044
0.00486018
-0.00517818
0.00423015
-0.00518957
0.00367516
-0.00484208
0.00318686
-0.00434875
0.00276023
-0.00381459
0.00239084
-0.00329232
0.00207403
-0.00280632
0.00180505
-0.00236569
0.00157929
-0.00197148
0.00139247
-0.00162062
0.0012408
-0.00130805
0.00112104
-0.00102787
0.00103053
-0.000774079
0.000967108
-0.000540949
0.000928871
-0.000326969
-0.000150959
0.00817571
0.00747494
0.00692088
0.00203147
0.00611563
-0.00153318
0.00545907
-0.00384388
0.00484479
-0.00456389
0.0042706
-0.00461539
0.00373922
-0.0043107
0.00325836
-0.00386789
0.00283107
-0.0033873
0.00245723
-0.00291848
0.00213447
-0.00248356
0.00185927
-0.00209048
0.00162762
-0.00173984
0.00143557
-0.00142858
0.00127946
-0.00115194
0.00115608
-0.000904494
0.00106277
-0.000680768
0.000997346
-0.000475523
0.000957904
-0.000287527
-0.000132405
0.00607224
0.0070729
0.00590767
0.00219603
0.00570222
-0.00132774
0.0053128
-0.00345446
0.00482323
-0.00407432
0.00430499
-0.00409715
0.00379651
-0.00380222
0.00332266
-0.00339404
0.0028947
-0.00295934
0.0025167
-0.00254049
0.00218846
-0.00215531
0.00190755
-0.00180957
0.00167055
-0.00150284
0.00147377
-0.00123179
0.00131365
-0.000991817
0.00118701
-0.000777858
0.00109119
-0.000584945
0.00102396
-0.000408296
0.000983419
-0.000246984
-0.000113313
0.00314572
0.00392717
0.00400396
0.0013378
0.00428475
-0.00160852
0.00415313
-0.00332285
0.00384735
-0.00376854
0.00346779
-0.00371759
0.00307536
-0.00340979
0.00270016
-0.00301884
0.00235688
-0.00261606
0.00205148
-0.00223508
0.00178514
-0.00188898
0.00155663
-0.00158106
0.00136353
-0.00130973
0.00120303
-0.00107129
0.00107235
-0.000861133
0.000968948
-0.000674461
0.000890671
-0.000506668
0.000835782
-0.000353407
0.000802438
-0.00021364
-9.8038e-05
0.00220437
0.00172281
0.00354281
-6.45625e-07
0.00408788
-0.00215359
0.00408871
-0.00332367
0.00384461
-0.00352444
0.00349085
-0.00336382
0.00310803
-0.00302697
0.00273479
-0.00264561
0.00239007
-0.00227134
0.00208183
-0.00192684
0.00181226
-0.00161941
0.00158058
-0.00134939
0.00138461
-0.00111376
0.00122163
-0.000908312
0.00108887
-0.000728379
0.000983814
-0.000569402
0.000904262
-0.000427117
0.000848473
-0.000297617
0.000814558
-0.000179725
-8.2528e-05
0.00164484
7.7967e-05
0.00324086
-0.00159666
0.00395544
-0.00286817
0.00405269
-0.00342092
0.00385322
-0.00332497
0.00351747
-0.00302807
0.0031403
-0.00264981
0.00276714
-0.00227245
0.00242015
-0.00192434
0.00210882
-0.00161551
0.00183605
-0.00134663
0.00160138
-0.00111472
0.00140276
-0.000915146
0.00123754
-0.000743085
0.00110293
-0.000593775
0.000996404
-0.000462872
0.000915734
-0.000346446
0.000859151
-0.000241034
0.000824765
-0.000145339
-6.67669e-05
0.00135053
-0.00127256
0.00307683
-0.00332296
0.0038929
-0.00368424
0.00404927
-0.00357729
0.00387585
-0.00315156
0.00354886
-0.00270107
0.00317277
-0.00227372
0.00279748
-0.00189716
0.00244725
-0.00157411
0.0021325
-0.00130076
0.00185652
-0.00107065
0.00161902
-0.000877219
0.00141799
-0.000714114
0.00125075
-0.000575849
0.00111452
-0.000457546
0.00100671
-0.000355063
0.000925076
-0.000264812
0.000867815
-0.000183773
0.000833022
-0.000110546
-5.08019e-05
0.0012464
-0.00251896
0.00303668
-0.00511324
0.0039023
-0.00454987
0.00408119
-0.00375617
0.00391415
-0.00298453
0.0035858
-0.00237272
0.00320575
-0.00189367
0.00282593
-0.00151734
0.0024714
-0.00121958
0.00215285
-0.00098221
0.00187365
-0.000791447
0.00163346
-0.000637036
0.00143024
-0.000510887
0.00126123
-0.000406844
0.0011236
-0.000319914
0.00101471
-0.000246171
0.000932265
-0.00018237
0.000874442
-0.000125951
0.000839309
-7.54131e-05
-3.46784e-05
0.00130779
-0.00382674
0.00311785
-0.0069233
0.00398595
-0.00541797
0.00415011
-0.00392033
0.00396893
-0.00280335
0.00362861
-0.0020324
0.00323934
-0.0015044
0.00285247
-0.00113047
0.00249254
-0.000859652
0.00216982
-0.00065949
0.00188738
-0.000509003
0.00164467
-0.000394328
0.00143948
-0.000305693
0.00126895
-0.000236312
0.00113014
-0.00018111
0.00102036
-0.000136394
0.000937277
-9.92828e-05
0.000879012
-6.76864e-05
0.000843607
-4.00078e-05
-1.84434e-05
0.00156157
-0.00538832
0.00333265
-0.00869438
0.00414759
-0.00623291
0.00425686
-0.0040296
0.00404011
-0.0025866
0.00367708
-0.00166937
0.00327333
-0.00110066
0.00287697
-0.000734111
0.00251058
-0.000493265
0.00218334
-0.000332245
0.00189766
-0.000223323
0.00165259
-0.000149266
0.00144567
-9.87707e-05
0.00127387
-6.45063e-05
0.00113412
-4.1369e-05
0.00102367
-2.59349e-05
0.000940095
-1.57126e-05
0.00088151
-9.10077e-06
0.000845901
-4.39921e-06
-2.1448e-06
0.00208462
-0.00747294
0.00370603
-0.0103158
0.00439145
-0.00691834
0.00440106
-0.00403921
0.00412668
-0.00231223
0.00373046
-0.00127315
0.00330728
-0.000677468
0.00289913
-0.000325968
0.00252534
-0.000119467
0.00219327
-1.81916e-07
0.0019044
6.55512e-05
0.00165718
9.79578e-05
0.00144878
0.000109627
0.00127596
0.000108312
0.00113552
9.9067e-05
0.00102459
8.49972e-05
0.000940705
6.81731e-05
0.000881922
4.96825e-05
0.00084618
3.13425e-05
1.41684e-05
0.00299768
-0.0104706
0.00426867
-0.0115868
0.00471904
-0.0073687
0.00458024
-0.00390041
0.00422648
-0.00195847
0.00378747
-0.000834137
0.00334045
-0.000230449
0.00291856
9.5921e-05
0.00253655
0.000262544
0.0021995
0.000336868
0.00190751
0.000357541
0.00165835
0.000347116
0.00144875
0.000319225
0.0012752
0.000281869
0.00113432
0.000239947
0.00102313
0.000196189
0.000939097
0.000152203
0.000880242
0.000108537
0.000844436
6.71491e-05
3.0442e-05
0.00445881
-0.0149294
0.00505393
-0.0121819
0.0051225
-0.00743728
0.00478908
-0.00356699
0.00433578
-0.00150516
0.0038463
-0.000344657
0.00337187
0.000243982
0.00293469
0.0005331
0.0025439
0.000653331
0.00220176
0.000679011
0.00190683
0.000652469
0.00165601
0.000597939
0.00144551
0.000529722
0.00127151
0.000455869
0.00113045
0.000381007
0.00101922
0.000307417
0.000935228
0.000236197
0.000876422
0.000167344
0.00084068
0.000102891
4.67233e-05
0.0101118
-0.0151275
-0.00991376
0.00894299
-0.011013
0.0080818
-0.0065761
0.00721922
-0.0027044
0.00637388
-0.000659823
0.0055815
0.00044772
0.00485375
0.000971737
0.00420255
0.0011843
0.00363003
0.00122585
0.00313382
0.00117522
0.00270893
0.00107736
0.00234921
0.000957655
0.0020483
0.000830628
0.00180015
0.00070402
0.00159933
0.000581827
0.00144118
0.000465567
0.00132189
0.000355485
0.00123836
0.000250881
0.00118809
0.000153157
7.05249e-05
0.0135219
-0.0118472
-0.0168022
0.0108024
-0.00829354
0.00898027
-0.00475397
0.00766819
-0.00139233
0.00659669
0.000411681
0.00568754
0.00135687
0.00489807
0.00176121
0.00421339
0.00186898
0.00362288
0.00181636
0.00311736
0.00168074
0.00268809
0.00150664
0.00232676
0.00131898
0.00202578
0.00113162
0.00177831
0.000951481
0.00157851
0.000781634
0.00142143
0.00062265
0.00130309
0.000473817
0.00122032
0.000333651
0.00117052
0.000202963
9.40216e-05
0.0156588
-0.00721996
-0.020286
0.0121535
-0.00478824
0.00971286
-0.00231333
0.0080513
0.000269234
0.00678685
0.00167613
0.00577092
0.0023728
0.00492351
0.00260862
0.00420748
0.002585
0.00360068
0.00242316
0.00308741
0.00219401
0.00265521
0.00193883
0.00229363
0.00168056
0.00199376
0.00143149
0.00174802
0.00119721
0.0015501
0.000979555
0.00139479
0.000777961
0.00127796
0.000590652
0.00119634
0.000415269
0.00114721
0.000252096
0.000117045
0.0168004
-0.00222338
-0.0217969
0.012996
-0.000983895
0.0102348
0.000447893
0.00833914
0.00216489
0.00692653
0.00308874
0.00582211
0.00347722
0.00492474
0.00350599
0.00418179
0.00332795
0.00356165
0.00304331
0.00304291
0.00271275
0.00260968
0.00237206
0.00224944
0.0020408
0.00195204
0.00172889
0.00170917
0.00144008
0.00151406
0.00117466
0.00136126
0.000930763
0.00124648
0.000705427
0.00116641
0.000495339
0.00111822
0.000300286
0.000139513
0.0172821
0.00272638
-0.0222318
0.0134404
0.0028578
0.0105562
0.00333213
0.00852076
0.00420029
0.00700564
0.00460387
0.005834
0.00464886
0.00489741
0.00444258
0.00413371
0.00409166
0.00350427
0.00367274
0.00298301
0.00323402
0.00255103
0.00280403
0.00219397
0.00239787
0.00190054
0.00202232
0.00166175
0.00167887
0.00147043
0.00136598
0.0013209
0.00108029
0.00120877
0.000817563
0.00113065
0.000573459
0.00108367
0.000347266
0.00016133
0.0173597
0.00748028
-0.0221136
0.0135993
0.00661821
0.0107028
0.00622863
0.00859764
0.00630543
0.00701904
0.00618247
0.00580177
0.00586612
0.00483814
0.00540621
0.0040611
0.00486869
0.00342727
0.00430657
0.00290698
0.00375432
0.00247889
0.00323212
0.00212706
0.0027497
0.00183922
0.00231016
0.0016058
0.00191229
0.00141929
0.00155249
0.00127383
0.00122575
0.00116493
0.000926469
0.00108917
0.000649217
0.00104366
0.000392776
0.000182396
0.0171831
0.0120002
-0.021703
0.0135504
0.0102508
0.0107001
0.00907899
0.00857462
0.00843089
0.00696477
0.00779232
0.00572242
0.00710847
0.0047445
0.00638413
0.00396232
0.00565087
0.00332965
0.00493925
0.00281426
0.0042697
0.00239299
0.0036534
0.00204862
0.00309407
0.00176811
0.00259067
0.00154142
0.00213898
0.00136078
0.00173313
0.00122019
0.00136633
0.00111512
0.00103155