x,y,z,p
0,0,0,0.123931
0,0.1,0,0.196131
0,0.2,0,0.268331
0,0.3,0,0.34053
0,0.4,0,0.41273
0,0.5,0,0.487021
0,0.6,0,0.577348
0,0.7,0,0.667675
0,0.8,0,0.758001
0,0.9,0,0.848328
0,1,0,0.936579
0,1.1,0,1.01791
0,1.2,0,1.09924
0,1.3,0,1.18058
0,1.4,0,1.26191
0,1.5,0,1.34075
0,1.6,0,1.41489
0,1.7,0,1.48903
0,1.8,0,1.56316
0,1.9,0,1.6373
0,2,0,1.70793
0,2.1,0,1.77447
0,2.2,0,1.84101
0,2.3,0,1.90755
0,2.4,0,1.97409
0,2.5,0,2.03591
0,2.6,0,2.09428
0,2.7,0,2.15264
0,2.8,0,2.21101
0,2.9,0,2.26938
0,3,0,2.3229
0,3.1,0,2.37427
0,3.2,0,2.42564
0,3.3,0,2.47701
0,3.4,0,2.52838
0,3.5,0,2.5734
0,3.6,0,2.61691
0,3.7,0,2.66042
0,3.8,0,2.70393
0,3.9,0,2.74744
0,4,0,2.78392
0,4.1,0,2.81982
0,4.2,0,2.85572
0,4.3,0,2.89162
0,4.4,0,2.92722
0,4.5,0,2.95534
0,4.6,0,2.98345
0,4.7,0,3.01157
0,4.8,0,3.03969
0,4.9,0,3.06657
0,5,0,3.0867
0,5.1,0,3.10683
0,5.2,0,3.12696
0,5.3,0,3.14709
0,5.4,0,3.16507
0,5.5,0,3.17722
0,5.6,0,3.18937
0,5.7,0,3.20153
0,5.8,0,3.21368
0,5.9,0,3.22277
0,6,0,3.22695
0,6.1,0,3.23114
0,6.2,0,3.23533
0,6.3,0,3.23951
0,6.4,0,3.23965
0,6.5,0,3.23573
0,6.6,0,3.23181
0,6.7,0,3.22789
0,6.8,0,3.22398
0,6.9,0,3.21513
0,7,0,3.2032
0,7.1,0,3.19126
0,7.2,0,3.17933
0,7.3,0,3.1674
0,7.4,0,3.14961
0,7.5,0,3.12967
0,7.6,0,3.10972
0,7.7,0,3.08977
0,7.8,0,3.06983
0,7.9,0,3.04309
0,8,0,3.01512
0,8.1,0,2.98715
0,8.2,0,2.95918
0,8.3,0,2.93121
0,8.4,0,2.89562
0,8.5,0,2.85972
0,8.6,0,2.82383
0,8.7,0,2.78793
0,8.8,0,2.75145
0,8.9,0,2.70787
0,9,0,2.6643
0,9.1,0,2.62073
0,9.2,0,2.57715
0,9.3,0,2.53199
0,9.4,0,2.48014
0,9.5,0,2.42829
0,9.6,0,2.37645
0,9.7,0,2.3246
0,9.8,0,2.27067
0,9.9,0,2.21204
0,10,0,2.15341
0,10.1,0,2.09478
0,10.2,0,2.03615
0,10.3,0,1.97414
0,10.4,0,1.90752
0,10.5,0,1.8409
0,10.6,0,1.77428
0,10.7,0,1.70766
0,10.8,0,1.6368
0,10.9,0,1.56231
0,11,0,1.48783
0,11.1,0,1.41334
0,11.2,0,1.33885
0,11.3,0,1.25993
0,11.4,0,1.17865
0,11.5,0,1.09738
0,11.6,0,1.0161
0,11.7,0,0.934825
0,11.8,0,0.846902
0,11.9,0,0.756984
0,12,0,0.667067
0,12.1,0,0.577149
0,12.2,0,0.487232
0,12.3,0,0.413056
0,12.4,0,0.340933
0,12.5,0,0.26881
0,12.6,0,0.196687
0,12.7,0,0.124564
0.1,0,0,0.0991452
0.1,0.1,0,0.174085
0.1,0.2,0,0.246284
0.1,0.3,0,0.318484
0.1,0.4,0,0.392603
0.1,0.5,0,0.486916
0.1,0.6,0,0.58011
0.1,0.7,0,0.670436
0.1,0.8,0,0.760763
0.1,0.9,0,0.85031
0.1,1,0,0.9367
0.1,1.1,0,1.022
0.1,1.2,0,1.10334
0.1,1.3,0,1.18467
0.1,1.4,0,1.26433
0.1,1.5,0,1.34075
0.1,1.6,0,1.41684
0.1,1.7,0,1.49098
0.1,1.8,0,1.56512
0.1,1.9,0,1.63822
0.1,2,0,1.71022
0.1,2.1,0,1.77973
0.1,2.2,0,1.84627
0.1,2.3,0,1.91281
0.1,2.4,0,1.97607
0.1,2.5,0,2.03734
0.1,2.6,0,2.09706
0.1,2.7,0,2.15542
0.1,2.8,0,2.21379
0.1,2.9,0,2.26994
0.1,3,0,2.32568
0.1,3.1,0,2.37838
0.1,3.2,0,2.42975
0.1,3.3,0,2.48112
0.1,3.4,0,2.52905
0.1,3.5,0,2.57637
0.1,3.6,0,2.62054
0.1,3.7,0,2.66405
0.1,3.8,0,2.70756
0.1,3.9,0,2.74753
0.1,4,0,2.78758
0.1,4.1,0,2.8237
0.1,4.2,0,2.8596
0.1,4.3,0,2.89544
0.1,4.4,0,2.92726
0.1,4.5,0,2.95914
0.1,4.6,0,2.98725
0.1,4.7,0,3.01537
0.1,4.8,0,3.04297
0.1,4.9,0,3.06717
0.1,5,0,3.09079
0.1,5.1,0,3.11092
0.1,5.2,0,3.13105
0.1,5.3,0,3.15015
0.1,5.4,0,3.16612
0.1,5.5,0,3.18102
0.1,5.6,0,3.19317
0.1,5.7,0,3.20532
0.1,5.8,0,3.21608
0.1,5.9,0,3.22439
0.1,6,0,3.23103
0.1,6.1,0,3.23522
0.1,6.2,0,3.2394
0.1,6.3,0,3.24159
0.1,6.4,0,3.24165
0.1,6.5,0,3.23966
0.1,6.6,0,3.23574
0.1,6.7,0,3.23182
0.1,6.8,0,3.22551
0.1,6.9,0,3.21763
0.1,7,0,3.20718
0.1,7.1,0,3.19525
0.1,7.2,0,3.18332
0.1,7.3,0,3.16845
0.1,7.4,0,3.15253
0.1,7.5,0,3.13359
0.1,7.6,0,3.11365
0.1,7.7,0,3.0937
0.1,7.8,0,3.07032
0.1,7.9,0,3.04653
0.1,8,0,3.01911
0.1,8.1,0,2.99114
0.1,8.2,0,2.96317
0.1,8.3,0,2.93115
0.1,8.4,0,2.89938
0.1,8.5,0,2.86355
0.1,8.6,0,2.82765
0.1,8.7,0,2.79153
0.1,8.8,0,2.75145
0.1,8.9,0,2.71162
0.1,9,0,2.66805
0.1,9.1,0,2.62448
0.1,9.2,0,2.58023
0.1,9.3,0,2.53275
0.1,9.4,0,2.48454
0.1,9.5,0,2.43269
0.1,9.6,0,2.38085
0.1,9.7,0,2.32761
0.1,9.8,0,2.27114
0.1,9.9,0,2.21432
0.1,10,0,2.15569
0.1,10.1,0,2.09706
0.1,10.2,0,2.03739
0.1,10.3,0,1.97641
0.1,10.4,0,1.91309
0.1,10.5,0,1.84647
0.1,10.6,0,1.77985
0.1,10.7,0,1.71034
0.1,10.8,0,1.63803
0.1,10.9,0,1.56447
0.1,11,0,1.48998
0.1,11.1,0,1.41549
0.1,11.2,0,1.33931
0.1,11.3,0,1.26279
0.1,11.4,0,1.18316
0.1,11.5,0,1.10188
0.1,11.6,0,1.02061
0.1,11.7,0,0.935657
0.1,11.8,0,0.850116
0.1,11.9,0,0.761162
0.1,12,0,0.671245
0.1,12.1,0,0.581327
0.1,12.2,0,0.488161
0.1,12.3,0,0.394081
0.1,12.4,0,0.319799
0.1,12.5,0,0.247676
0.1,12.6,0,0.175553
0.1,12.7,0,0.0996515
0.2,0,0,0.0743589
0.2,0.1,0,0.149348
0.2,0.2,0,0.224238
0.2,0.3,0,0.297716
0.2,0.4,0,0.392111
0.2,0.5,0,0.486433
0.2,0.6,0,0.580034
0.2,0.7,0,0.673198
0.2,0.8,0,0.762887
0.2,0.9,0,0.849221
0.2,1,0,0.935607
0.2,1.1,0,1.0222
0.2,1.2,0,1.10743
0.2,1.3,0,1.18726
0.2,1.4,0,1.26327
0.2,1.5,0,1.33968
0.2,1.6,0,1.4169
0.2,1.7,0,1.49293
0.2,1.8,0,1.5661
0.2,1.9,0,1.63786
0.2,2,0,1.70987
0.2,2.1,0,1.78215
0.2,2.2,0,1.85152
0.2,2.3,0,1.91492
0.2,2.4,0,1.97554
0.2,2.5,0,2.03681
0.2,2.6,0,2.09856
0.2,2.7,0,2.1582
0.2,2.8,0,2.21443
0.2,2.9,0,2.26949
0.2,3,0,2.32523
0.2,3.1,0,2.38127
0.2,3.2,0,2.43387
0.2,3.3,0,2.4819
0.2,3.4,0,2.52889
0.2,3.5,0,2.5762
0.2,3.6,0,2.6236
0.2,3.7,0,2.66767
0.2,3.8,0,2.70774
0.2,3.9,0,2.74732
0.2,4,0,2.78736
0.2,4.1,0,2.82745
0.2,4.2,0,2.86348
0.2,4.3,0,2.89532
0.2,4.4,0,2.92715
0.2,4.5,0,2.95927
0.2,4.6,0,2.99105
0.2,4.7,0,3.01875
0.2,4.8,0,3.04291
0.2,4.9,0,3.06711
0.2,5,0,3.09148
0.2,5.1,0,3.115
0.2,5.2,0,3.1342
0.2,5.3,0,3.15015
0.2,5.4,0,3.16612
0.2,5.5,0,3.18215
0.2,5.6,0,3.19696
0.2,5.7,0,3.20781
0.2,5.8,0,3.21611
0.2,5.9,0,3.22442
0.2,6,0,3.23275
0.2,6.1,0,3.23929
0.2,6.2,0,3.24158
0.2,6.3,0,3.24158
0.2,6.4,0,3.24164
0.2,6.5,0,3.24176
0.2,6.6,0,3.23967
0.2,6.7,0,3.23345
0.2,6.8,0,3.2255
0.2,6.9,0,3.21762
0.2,7,0,3.20978
0.2,7.1,0,3.19924
0.2,7.2,0,3.18446
0.2,7.3,0,3.16837
0.2,7.4,0,3.15246
0.2,7.5,0,3.13661
0.2,7.6,0,3.11757
0.2,7.7,0,3.09429
0.2,7.8,0,3.07018
0.2,7.9,0,3.04638
0.2,8,0,3.02265
0.2,8.1,0,2.99514
0.2,8.2,0,2.96322
0.2,8.3,0,2.93093
0.2,8.4,0,2.89916
0.2,8.5,0,2.86737
0.2,8.6,0,2.83135
0.2,8.7,0,2.79122
0.2,8.8,0,2.75114
0.2,8.9,0,2.71173
0.2,9,0,2.6718
0.2,9.1,0,2.62764
0.2,9.2,0,2.58011
0.2,9.3,0,2.53263
0.2,9.4,0,2.48541
0.2,9.5,0,2.43709
0.2,9.6,0,2.38397
0.2,9.7,0,2.32726
0.2,9.8,0,2.27079
0.2,9.9,0,2.21486
0.2,10,0,2.15797
0.2,10.1,0,2.09836
0.2,10.2,0,2.03714
0.2,10.3,0,1.97615
0.2,10.4,0,1.9155
0.2,10.5,0,1.85204
0.2,10.6,0,1.78266
0.2,10.7,0,1.71043
0.2,10.8,0,1.63812
0.2,10.9,0,1.56574
0.2,11,0,1.49213
0.2,11.1,0,1.41601
0.2,11.2,0,1.33883
0.2,11.3,0,1.26231
0.2,11.4,0,1.18614
0.2,11.5,0,1.10639
0.2,11.6,0,1.02155
0.2,11.7,0,0.935352
0.2,11.8,0,0.849811
0.2,11.9,0,0.764469
0.2,12,0,0.675422
0.2,12.1,0,0.582351
0.2,12.2,0,0.488654
0.2,12.3,0,0.394577
0.2,12.4,0,0.300444
0.2,12.5,0,0.226542
0.2,12.6,0,0.150733
0.2,12.7,0,0.0747386
0.3,0,0,0.0495726
0.3,0.1,0,0.124562
0.3,0.2,0,0.200312
0.3,0.3,0,0.297224
0.3,0.4,0,0.391618
0.3,0.5,0,0.48595
0.3,0.6,0,0.579551
0.3,0.7,0,0.672644
0.3,0.8,0,0.761797
0.3,0.9,0,0.848131
0.3,1,0,0.934515
0.3,1.1,0,1.0211
0.3,1.2,0,1.10639
0.3,1.3,0,1.18621
0.3,1.4,0,1.26222
0.3,1.5,0,1.33862
0.3,1.6,0,1.41583
0.3,1.7,0,1.49214
0.3,1.8,0,1.56574
0.3,1.9,0,1.6375
0.3,2,0,1.70951
0.3,2.1,0,1.78179
0.3,2.2,0,1.85108
0.3,2.3,0,1.91439
0.3,2.4,0,1.97502
0.3,2.5,0,2.03629
0.3,2.6,0,2.09803
0.3,2.7,0,2.15772
0.3,2.8,0,2.21397
0.3,2.9,0,2.26903
0.3,3,0,2.32477
0.3,3.1,0,2.38082
0.3,3.2,0,2.43363
0.3,3.3,0,2.48173
0.3,3.4,0,2.52872
0.3,3.5,0,2.57604
0.3,3.6,0,2.62343
0.3,3.7,0,2.66747
0.3,3.8,0,2.70753
0.3,3.9,0,2.74711
0.3,4,0,2.78715
0.3,4.1,0,2.82724
0.3,4.2,0,2.86337
0.3,4.3,0,2.89521
0.3,4.4,0,2.92704
0.3,4.5,0,2.95916
0.3,4.6,0,2.99095
0.3,4.7,0,3.01869
0.3,4.8,0,3.04285
0.3,4.9,0,3.06705
0.3,5,0,3.09142
0.3,5.1,0,3.11495
0.3,5.2,0,3.1342
0.3,5.3,0,3.15015
0.3,5.4,0,3.16612
0.3,5.5,0,3.18215
0.3,5.6,0,3.19697
0.3,5.7,0,3.20784
0.3,5.8,0,3.21614
0.3,5.9,0,3.22445
0.3,6,0,3.23278
0.3,6.1,0,3.2393
0.3,6.2,0,3.24156
0.3,6.3,0,3.24156
0.3,6.4,0,3.24162
0.3,6.5,0,3.24174
0.3,6.6,0,3.23965
0.3,6.7,0,3.23344
0.3,6.8,0,3.22548
0.3,6.9,0,3.2176
0.3,7,0,3.20977
0.3,7.1,0,3.19919
0.3,7.2,0,3.18439
0.3,7.3,0,3.1683
0.3,7.4,0,3.15239
0.3,7.5,0,3.13653
0.3,7.6,0,3.11744
0.3,7.7,0,3.09414
0.3,7.8,0,3.07003
0.3,7.9,0,3.04624
0.3,8,0,3.02251
0.3,8.1,0,2.99492
0.3,8.2,0,2.963
0.3,8.3,0,2.93071
0.3,8.4,0,2.89894
0.3,8.5,0,2.86715
0.3,8.6,0,2.83104
0.3,8.7,0,2.79091
0.3,8.8,0,2.75083
0.3,8.9,0,2.71141
0.3,9,0,2.67151
0.3,9.1,0,2.62752
0.3,9.2,0,2.57998
0.3,9.3,0,2.5325
0.3,9.4,0,2.48529
0.3,9.5,0,2.43691
0.3,9.6,0,2.38362
0.3,9.7,0,2.32691
0.3,9.8,0,2.27044
0.3,9.9,0,2.2145
0.3,10,0,2.15765
0.3,10.1,0,2.09811
0.3,10.2,0,2.03688
0.3,10.3,0,1.9759
0.3,10.4,0,1.91524
0.3,10.5,0,1.85196
0.3,10.6,0,1.78275
0.3,10.7,0,1.71052
0.3,10.8,0,1.63821
0.3,10.9,0,1.56583
0.3,11,0,1.49188
0.3,11.1,0,1.41553
0.3,11.2,0,1.33835
0.3,11.3,0,1.26183
0.3,11.4,0,1.18566
0.3,11.5,0,1.10604
0.3,11.6,0,1.02125
0.3,11.7,0,0.935046
0.3,11.8,0,0.849505
0.3,11.9,0,0.764163
0.3,12,0,0.675739
0.3,12.1,0,0.582844
0.3,12.2,0,0.489147
0.3,12.3,0,0.395073
0.3,12.4,0,0.30094
0.3,12.5,0,0.203094
0.3,12.6,0,0.125821
0.3,12.7,0,0.0498258
0.4,0,0,0.0247863
0.4,0.1,0,0.100156
0.4,0.2,0,0.197181
0.4,0.3,0,0.294205
0.4,0.4,0,0.391125
0.4,0.5,0,0.485467
0.4,0.6,0,0.578672
0.4,0.7,0,0.668306
0.4,0.8,0,0.75794
0.4,0.9,0,0.847042
0.4,1,0,0.933422
0.4,1.1,0,1.01893
0.4,1.2,0,1.10019
0.4,1.3,0,1.18144
0.4,1.4,0,1.26116
0.4,1.5,0,1.33755
0.4,1.6,0,1.41394
0.4,1.7,0,1.48879
0.4,1.8,0,1.56363
0.4,1.9,0,1.63714
0.4,2,0,1.70915
0.4,2.1,0,1.77857
0.4,2.2,0,1.84494
0.4,2.3,0,1.9113
0.4,2.4,0,1.97449
0.4,2.5,0,2.03576
0.4,2.6,0,2.09552
0.4,2.7,0,2.15396
0.4,2.8,0,2.2124
0.4,2.9,0,2.26858
0.4,3,0,2.32432
0.4,3.1,0,2.37723
0.4,3.2,0,2.4289
0.4,3.3,0,2.48056
0.4,3.4,0,2.52856
0.4,3.5,0,2.57587
0.4,3.6,0,2.62
0.4,3.7,0,2.66346
0.4,3.8,0,2.70693
0.4,3.9,0,2.74689
0.4,4,0,2.78694
0.4,4.1,0,2.82316
0.4,4.2,0,2.85916
0.4,4.3,0,2.8951
0.4,4.4,0,2.92693
0.4,4.5,0,2.95881
0.4,4.6,0,2.98698
0.4,4.7,0,3.01515
0.4,4.8,0,3.04279
0.4,4.9,0,3.06699
0.4,5,0,3.09062
0.4,5.1,0,3.11081
0.4,5.2,0,3.131
0.4,5.3,0,3.15015
0.4,5.4,0,3.16612
0.4,5.5,0,3.18103
0.4,5.6,0,3.19321
0.4,5.7,0,3.20539
0.4,5.8,0,3.21617
0.4,5.9,0,3.22448
0.4,6,0,3.2311
0.4,6.1,0,3.23524
0.4,6.2,0,3.23939
0.4,6.3,0,3.24155
0.4,6.4,0,3.24161
0.4,6.5,0,3.23962
0.4,6.6,0,3.23569
0.4,6.7,0,3.23177
0.4,6.8,0,3.22546
0.4,6.9,0,3.21758
0.4,7,0,3.2071
0.4,7.1,0,3.19511
0.4,7.2,0,3.18312
0.4,7.3,0,3.16823
0.4,7.4,0,3.15231
0.4,7.5,0,3.13332
0.4,7.6,0,3.1133
0.4,7.7,0,3.09327
0.4,7.8,0,3.06988
0.4,7.9,0,3.04609
0.4,8,0,3.01861
0.4,8.1,0,2.99056
0.4,8.2,0,2.96251
0.4,8.3,0,2.93049
0.4,8.4,0,2.89872
0.4,8.5,0,2.86279
0.4,8.6,0,2.8268
0.4,8.7,0,2.79059
0.4,8.8,0,2.75052
0.4,8.9,0,2.7107
0.4,9,0,2.66732
0.4,9.1,0,2.62394
0.4,9.2,0,2.57985
0.4,9.3,0,2.53238
0.4,9.4,0,2.48411
0.4,9.5,0,2.43203
0.4,9.6,0,2.37995
0.4,9.7,0,2.32655
0.4,9.8,0,2.27008
0.4,9.9,0,2.21329
0.4,10,0,2.15476
0.4,10.1,0,2.09624
0.4,10.2,0,2.03663
0.4,10.3,0,1.97564
0.4,10.4,0,1.91248
0.4,10.5,0,1.84622
0.4,10.6,0,1.77995
0.4,10.7,0,1.71061
0.4,10.8,0,1.6383
0.4,10.9,0,1.56441
0.4,11,0,1.48934
0.4,11.1,0,1.41428
0.4,11.2,0,1.33788
0.4,11.3,0,1.26136
0.4,11.4,0,1.18185
0.4,11.5,0,1.10075
0.4,11.6,0,1.01965
0.4,11.7,0,0.934741
0.4,11.8,0,0.8492
0.4,11.9,0,0.760856
0.4,12,0,0.671715
0.4,12.1,0,0.582574
0.4,12.2,0,0.48964
0.4,12.3,0,0.395568
0.4,12.4,0,0.297836
0.4,12.5,0,0.199691
0.4,12.6,0,0.101547
0.4,12.7,0,0.0249129
0.5,0,0,0
0.5,0.1,0,0.0970502
0.5,0.2,0,0.1941
0.5,0.3,0,0.291151
0.5,0.4,0,0.388201
0.5,0.5,0,0.484866
0.5,0.6,0,0.574449
0.5,0.7,0,0.664031
0.5,0.8,0,0.753614
0.5,0.9,0,0.843237
0.5,1,0,0.931476
0.5,1.1,0,1.01273
0.5,1.2,0,1.09398
0.5,1.3,0,1.17524
0.5,1.4,0,1.25649
0.5,1.5,0,1.33575
0.5,1.6,0,1.41059
0.5,1.7,0,1.48544
0.5,1.8,0,1.56028
0.5,1.9,0,1.63513
0.5,2,0,1.70606
0.5,2.1,0,1.77243
0.5,2.2,0,1.8388
0.5,2.3,0,1.90517
0.5,2.4,0,1.97153
0.5,2.5,0,2.03333
0.5,2.6,0,2.09177
0.5,2.7,0,2.1502
0.5,2.8,0,2.20864
0.5,2.9,0,2.26708
0.5,3,0,2.32083
0.5,3.1,0,2.3725
0.5,3.2,0,2.42416
0.5,3.3,0,2.47583
0.5,3.4,0,2.52749
0.5,3.5,0,2.57253
0.5,3.6,0,2.61599
0.5,3.7,0,2.65946
0.5,3.8,0,2.70292
0.5,3.9,0,2.74638
0.5,4,0,2.78296
0.5,4.1,0,2.81896
0.5,4.2,0,2.85496
0.5,4.3,0,2.89096
0.5,4.4,0,2.92666
0.5,4.5,0,2.95483
0.5,4.6,0,2.983
0.5,4.7,0,3.01117
0.5,4.8,0,3.03934
0.5,4.9,0,3.06629
0.5,5,0,3.08648
0.5,5.1,0,3.10667
0.5,5.2,0,3.12686
0.5,5.3,0,3.14705
0.5,5.4,0,3.16509
0.5,5.5,0,3.17727
0.5,5.6,0,3.18945
0.5,5.7,0,3.20163
0.5,5.8,0,3.21381
0.5,5.9,0,3.2229
0.5,6,0,3.22704
0.5,6.1,0,3.23118
0.5,6.2,0,3.23533
0.5,6.3,0,3.23947
0.5,6.4,0,3.23958
0.5,6.5,0,3.23566
0.5,6.6,0,3.23174
0.5,6.7,0,3.22781
0.5,6.8,0,3.22389
0.5,6.9,0,3.21501
0.5,7,0,3.20302
0.5,7.1,0,3.19103
0.5,7.2,0,3.17904
0.5,7.3,0,3.16705
0.5,7.4,0,3.14919
0.5,7.5,0,3.12917
0.5,7.6,0,3.10915
0.5,7.7,0,3.08913
0.5,7.8,0,3.06911
0.5,7.9,0,3.04229
0.5,8,0,3.01425
0.5,8.1,0,2.9862
0.5,8.2,0,2.95815
0.5,8.3,0,2.93011
0.5,8.4,0,2.89442
0.5,8.5,0,2.85843
0.5,8.6,0,2.82245
0.5,8.7,0,2.78646
0.5,8.8,0,2.7499
0.5,8.9,0,2.70652
0.5,9,0,2.66314
0.5,9.1,0,2.61975
0.5,9.2,0,2.57637
0.5,9.3,0,2.53132
0.5,9.4,0,2.47924
0.5,9.5,0,2.42716
0.5,9.6,0,2.37508
0.5,9.7,0,2.32299
0.5,9.8,0,2.26893
0.5,9.9,0,2.2104
0.5,10,0,2.15187
0.5,10.1,0,2.09335
0.5,10.2,0,2.03482
0.5,10.3,0,1.97301
0.5,10.4,0,1.90675
0.5,10.5,0,1.84048
0.5,10.6,0,1.77421
0.5,10.7,0,1.70794
0.5,10.8,0,1.63694
0.5,10.9,0,1.56187
0.5,11,0,1.4868
0.5,11.1,0,1.41174
0.5,11.2,0,1.33667
0.5,11.3,0,1.25766
0.5,11.4,0,1.17656
0.5,11.5,0,1.09546
0.5,11.6,0,1.01436
0.5,11.7,0,0.933258
0.5,11.8,0,0.845991
0.5,11.9,0,0.756874
0.5,12,0,0.667757
0.5,12.1,0,0.57864
0.5,12.2,0,0.489523
0.5,12.3,0,0.392652
0.5,12.4,0,0.294489
0.5,12.5,0,0.196326
0.5,12.6,0,0.098163
0.5,12.7,0,0
0.6,0,0,0
0.6,0.1,0,0.101025
0.6,0.2,0,0.198075
0.6,0.3,0,0.295125
0.6,0.4,0,0.392184
0.6,0.5,0,0.489082
0.6,0.6,0,0.579582
0.6,0.7,0,0.669165
0.6,0.8,0,0.758747
0.6,0.9,0,0.848197
0.6,1,0,0.935189
0.6,1.1,0,1.01445
0.6,1.2,0,1.09572
0.6,1.3,0,1.17699
0.6,1.4,0,1.25838
0.6,1.5,0,1.33772
0.6,1.6,0,1.41189
0.6,1.7,0,1.48673
0.6,1.8,0,1.56158
0.6,1.9,0,1.63742
0.6,2,0,1.71035
0.6,2.1,0,1.77755
0.6,2.2,0,1.84392
0.6,2.3,0,1.91029
0.6,2.4,0,1.97563
0.6,2.5,0,2.03502
0.6,2.6,0,2.09233
0.6,2.7,0,2.15077
0.6,2.8,0,2.20921
0.6,2.9,0,2.26924
0.6,3,0,2.32471
0.6,3.1,0,2.37678
0.6,3.2,0,2.42845
0.6,3.3,0,2.48011
0.6,3.4,0,2.53139
0.6,3.5,0,2.57578
0.6,3.6,0,2.61912
0.6,3.7,0,2.66259
0.6,3.8,0,2.70605
0.6,3.9,0,2.74989
0.6,4,0,2.78635
0.6,4.1,0,2.82234
0.6,4.2,0,2.85834
0.6,4.3,0,2.89435
0.6,4.4,0,2.9306
0.6,4.5,0,2.95873
0.6,4.6,0,2.9869
0.6,4.7,0,3.01507
0.6,4.8,0,3.04327
0.6,4.9,0,3.07035
0.6,5,0,3.09022
0.6,5.1,0,3.11041
0.6,5.2,0,3.1306
0.6,5.3,0,3.15089
0.6,5.4,0,3.16922
0.6,5.5,0,3.18144
0.6,5.6,0,3.19362
0.6,5.7,0,3.2058
0.6,5.8,0,3.21799
0.6,5.9,0,3.22697
0.6,6,0,3.23093
0.6,6.1,0,3.23507
0.6,6.2,0,3.23921
0.6,6.3,0,3.24355
0.6,6.4,0,3.24373
0.6,6.5,0,3.23968
0.6,6.6,0,3.23576
0.6,6.7,0,3.23184
0.6,6.8,0,3.22805
0.6,6.9,0,3.21902
0.6,7,0,3.20689
0.6,7.1,0,3.1949
0.6,7.2,0,3.18292
0.6,7.3,0,3.17116
0.6,7.4,0,3.15307
0.6,7.5,0,3.13294
0.6,7.6,0,3.11292
0.6,7.7,0,3.09289
0.6,7.8,0,3.0732
0.6,7.9,0,3.04594
0.6,8,0,3.01782
0.6,8.1,0,2.98977
0.6,8.2,0,2.96172
0.6,8.3,0,2.9342
0.6,8.4,0,2.89782
0.6,8.5,0,2.86182
0.6,8.6,0,2.82583
0.6,8.7,0,2.78985
0.6,8.8,0,2.7534
0.6,8.9,0,2.70918
0.6,9,0,2.66579
0.6,9.1,0,2.62241
0.6,9.2,0,2.57927
0.6,9.3,0,2.53564
0.6,9.4,0,2.48464
0.6,9.5,0,2.43256
0.6,9.6,0,2.38048
0.6,9.7,0,2.32765
0.6,9.8,0,2.27074
0.6,9.9,0,2.20994
0.6,10,0,2.15142
0.6,10.1,0,2.09289
0.6,10.2,0,2.03585
0.6,10.3,0,1.97787
0.6,10.4,0,1.9138
0.6,10.5,0,1.84753
0.6,10.6,0,1.78126
0.6,10.7,0,1.71313
0.6,10.8,0,1.6395
0.6,10.9,0,1.56365
0.6,11,0,1.48859
0.6,11.1,0,1.41352
0.6,11.2,0,1.33861
0.6,11.3,0,1.25933
0.6,11.4,0,1.17807
0.6,11.5,0,1.09697
0.6,11.6,0,1.01587
0.6,11.7,0,0.936283
0.6,11.8,0,0.850005
0.6,11.9,0,0.761042
0.6,12,0,0.671926
0.6,12.1,0,0.582809
0.6,12.2,0,0.49242
0.6,12.3,0,0.395527
0.6,12.4,0,0.297401
0.6,12.5,0,0.199238
0.6,12.6,0,0.101075
0.6,12.7,0,0
0.7,0,0,0
0.7,0.1,0,0.101052
0.7,0.2,0,0.20205
0.7,0.3,0,0.299105
0.7,0.4,0,0.39632
0.7,0.5,0,0.493262
0.7,0.6,0,0.583823
0.7,0.7,0,0.674298
0.7,0.8,0,0.763774
0.7,0.9,0,0.852362
0.7,1,0,0.939412
0.7,1.1,0,1.01818
0.7,1.2,0,1.0975
0.7,1.3,0,1.17887
0.7,1.4,0,1.2606
0.7,1.5,0,1.34
0.7,1.6,0,1.41383
0.7,1.7,0,1.48802
0.7,1.8,0,1.56379
0.7,1.9,0,1.64097
0.7,2,0,1.71391
0.7,2.1,0,1.78188
0.7,2.2,0,1.84904
0.7,2.3,0,1.91443
0.7,2.4,0,1.97895
0.7,2.5,0,2.03834
0.7,2.6,0,2.09396
0.7,2.7,0,2.15134
0.7,2.8,0,2.21132
0.7,2.9,0,2.27213
0.7,3,0,2.3276
0.7,3.1,0,2.38069
0.7,3.2,0,2.43273
0.7,3.3,0,2.48402
0.7,3.4,0,2.53519
0.7,3.5,0,2.57958
0.7,3.6,0,2.62235
0.7,3.7,0,2.66572
0.7,3.8,0,2.70955
0.7,3.9,0,2.75343
0.7,4,0,2.78989
0.7,4.1,0,2.82573
0.7,4.2,0,2.86173
0.7,4.3,0,2.89829
0.7,4.4,0,2.93454
0.7,4.5,0,2.96267
0.7,4.6,0,2.9908
0.7,4.7,0,3.01899
0.7,4.8,0,3.0474
0.7,4.9,0,3.07448
0.7,5,0,3.09428
0.7,5.1,0,3.11415
0.7,5.2,0,3.13443
0.7,5.3,0,3.15501
0.7,5.4,0,3.17334
0.7,5.5,0,3.18558
0.7,5.6,0,3.1978
0.7,5.7,0,3.20998
0.7,5.8,0,3.22219
0.7,5.9,0,3.23117
0.7,6,0,3.235
0.7,6.1,0,3.23896
0.7,6.2,0,3.24328
0.7,6.3,0,3.24783
0.7,6.4,0,3.24801
0.7,6.5,0,3.24383
0.7,6.6,0,3.23978
0.7,6.7,0,3.23599
0.7,6.8,0,3.23229
0.7,6.9,0,3.22326
0.7,7,0,3.21089
0.7,7.1,0,3.19878
0.7,7.2,0,3.18702
0.7,7.3,0,3.17536
0.7,7.4,0,3.15726
0.7,7.5,0,3.1368
0.7,7.6,0,3.11668
0.7,7.7,0,3.09697
0.7,7.8,0,3.07735
0.7,7.9,0,3.05009
0.7,8,0,3.02145
0.7,8.1,0,2.99334
0.7,8.2,0,2.9658
0.7,8.3,0,2.9383
0.7,8.4,0,2.90193
0.7,8.5,0,2.8652
0.7,8.6,0,2.82922
0.7,8.7,0,2.79343
0.7,8.8,0,2.75698
0.7,8.9,0,2.71266
0.7,9,0,2.66845
0.7,9.1,0,2.62528
0.7,9.2,0,2.58333
0.7,9.3,0,2.5397
0.7,9.4,0,2.48899
0.7,9.5,0,2.43796
0.7,9.6,0,2.3852
0.7,9.7,0,2.3305
0.7,9.8,0,2.27359
0.7,9.9,0,2.21167
0.7,10,0,2.15096
0.7,10.1,0,2.09383
0.7,10.2,0,2.03902
0.7,10.3,0,1.98104
0.7,10.4,0,1.91874
0.7,10.5,0,1.85458
0.7,10.6,0,1.78653
0.7,10.7,0,1.71666
0.7,10.8,0,1.64302
0.7,10.9,0,1.56616
0.7,11,0,1.49037
0.7,11.1,0,1.41546
0.7,11.2,0,1.34065
0.7,11.3,0,1.26131
0.7,11.4,0,1.17972
0.7,11.5,0,1.09849
0.7,11.6,0,1.01885
0.7,11.7,0,0.939775
0.7,11.8,0,0.853403
0.7,11.9,0,0.765086
0.7,12,0,0.676094
0.7,12.1,0,0.58573
0.7,12.2,0,0.495123
0.7,12.3,0,0.398113
0.7,12.4,0,0.300293
0.7,12.5,0,0.20215
0.7,12.6,0,0.101147
0.7,12.7,0,0
0.8,0,0,0
0.8,0.1,0,0.101052
0.8,0.2,0,0.202106
0.8,0.3,0,0.303241
0.8,0.4,0,0.400457
0.8,0.5,0,0.497443
0.8,0.6,0,0.588003
0.8,0.7,0,0.678486
0.8,0.8,0,0.767938
0.8,0.9,0,0.856526
0.8,1,0,0.943634
0.8,1.1,0,1.0224
0.8,1.2,0,1.10125
0.8,1.3,0,1.18109
0.8,1.4,0,1.26282
0.8,1.5,0,1.34229
0.8,1.6,0,1.41611
0.8,1.7,0,1.49076
0.8,1.8,0,1.56734
0.8,1.9,0,1.64453
0.8,2,0,1.71746
0.8,2.1,0,1.78544
0.8,2.2,0,1.85247
0.8,2.3,0,1.91775
0.8,2.4,0,1.98227
0.8,2.5,0,2.04166
0.8,2.6,0,2.09728
0.8,2.7,0,2.15439
0.8,2.8,0,2.21421
0.8,2.9,0,2.27503
0.8,3,0,2.33049
0.8,3.1,0,2.38359
0.8,3.2,0,2.43631
0.8,3.3,0,2.48783
0.8,3.4,0,2.539
0.8,3.5,0,2.58339
0.8,3.6,0,2.62616
0.8,3.7,0,2.66929
0.8,3.8,0,2.71309
0.8,3.9,0,2.75697
0.8,4,0,2.79343
0.8,4.1,0,2.82927
0.8,4.2,0,2.86566
0.8,4.3,0,2.90223
0.8,4.4,0,2.93848
0.8,4.5,0,2.96661
0.8,4.6,0,2.99475
0.8,4.7,0,3.02312
0.8,4.8,0,3.05153
0.8,4.9,0,3.07861
0.8,5,0,3.09841
0.8,5.1,0,3.11828
0.8,5.2,0,3.13855
0.8,5.3,0,3.15913
0.8,5.4,0,3.17747
0.8,5.5,0,3.1897
0.8,5.6,0,3.20194
0.8,5.7,0,3.21418
0.8,5.8,0,3.22638
0.8,5.9,0,3.23536
0.8,6,0,3.23919
0.8,6.1,0,3.24319
0.8,6.2,0,3.24757
0.8,6.3,0,3.25212
0.8,6.4,0,3.2523
0.8,6.5,0,3.24811
0.8,6.6,0,3.24404
0.8,6.7,0,3.24023
0.8,6.8,0,3.23654
0.8,6.9,0,3.2275
0.8,7,0,3.21514
0.8,7.1,0,3.20299
0.8,7.2,0,3.19121
0.8,7.3,0,3.17955
0.8,7.4,0,3.16146
0.8,7.5,0,3.141
0.8,7.6,0,3.12084
0.8,7.7,0,3.10112
0.8,7.8,0,3.0815
0.8,7.9,0,3.05424
0.8,8,0,3.0256
0.8,8.1,0,2.99745
0.8,8.2,0,2.96991
0.8,8.3,0,2.94241
0.8,8.4,0,2.90604
0.8,8.5,0,2.86931
0.8,8.6,0,2.83279
0.8,8.7,0,2.797
0.8,8.8,0,2.76055
0.8,8.9,0,2.71623
0.8,9,0,2.67209
0.8,9.1,0,2.62934
0.8,9.2,0,2.58739
0.8,9.3,0,2.54375
0.8,9.4,0,2.49305
0.8,9.5,0,2.44172
0.8,9.6,0,2.38804
0.8,9.7,0,2.33335
0.8,9.8,0,2.27643
0.8,9.9,0,2.21452
0.8,10,0,2.15392
0.8,10.1,0,2.097
0.8,10.2,0,2.04219
0.8,10.3,0,1.98421
0.8,10.4,0,1.92191
0.8,10.5,0,1.85792
0.8,10.6,0,1.79006
0.8,10.7,0,1.72018
0.8,10.8,0,1.64655
0.8,10.9,0,1.56969
0.8,11,0,1.49298
0.8,11.1,0,1.41749
0.8,11.2,0,1.34268
0.8,11.3,0,1.2633
0.8,11.4,0,1.18171
0.8,11.5,0,1.10154
0.8,11.6,0,1.02234
0.8,11.7,0,0.943267
0.8,11.8,0,0.856801
0.8,11.9,0,0.768485
0.8,12,0,0.678949
0.8,12.1,0,0.588432
0.8,12.2,0,0.497825
0.8,12.3,0,0.400699
0.8,12.4,0,0.302879
0.8,12.5,0,0.202284
0.8,12.6,0,0.101147
0.8,12.7,0,0
0.9,0,0,0
0.9,0.1,0,0.101053
0.9,0.2,0,0.202264
0.9,0.3,0,0.303475
0.9,0.4,0,0.404593
0.9,0.5,0,0.501623
0.9,0.6,0,0.592136
0.9,0.7,0,0.681698
0.9,0.8,0,0.771259
0.9,0.9,0,0.86069
0.9,1,0,0.947857
0.9,1.1,0,1.02669
0.9,1.2,0,1.10591
0.9,1.3,0,1.18513
0.9,1.4,0,1.26503
0.9,1.5,0,1.34457
0.9,1.6,0,1.41909
0.9,1.7,0,1.49528
0.9,1.8,0,1.57146
0.9,1.9,0,1.64808
0.9,2,0,1.72101
0.9,2.1,0,1.78809
0.9,2.2,0,1.85422
0.9,2.3,0,1.92035
0.9,2.4,0,1.98559
0.9,2.5,0,2.04497
0.9,2.6,0,2.10203
0.9,2.7,0,2.16003
0.9,2.8,0,2.21803
0.9,2.9,0,2.27792
0.9,3,0,2.33339
0.9,3.1,0,2.38612
0.9,3.2,0,2.43872
0.9,3.3,0,2.49132
0.9,3.4,0,2.5428
0.9,3.5,0,2.58719
0.9,3.6,0,2.63031
0.9,3.7,0,2.6735
0.9,3.8,0,2.7167
0.9,3.9,0,2.76051
0.9,4,0,2.79697
0.9,4.1,0,2.83335
0.9,4.2,0,2.86976
0.9,4.3,0,2.90618
0.9,4.4,0,2.94242
0.9,4.5,0,2.97056
0.9,4.6,0,2.99892
0.9,4.7,0,3.02729
0.9,4.8,0,3.05565
0.9,4.9,0,3.08274
0.9,5,0,3.1026
0.9,5.1,0,3.12279
0.9,5.2,0,3.14297
0.9,5.3,0,3.16326
0.9,5.4,0,3.18159
0.9,5.5,0,3.19383
0.9,5.6,0,3.20608
0.9,5.7,0,3.21834
0.9,5.8,0,3.23058
0.9,5.9,0,3.23956
0.9,6,0,3.24355
0.9,6.1,0,3.24778
0.9,6.2,0,3.25202
0.9,6.3,0,3.2564
0.9,6.4,0,3.25658
0.9,6.5,0,3.25251
0.9,6.6,0,3.24855
0.9,6.7,0,3.24459
0.9,6.8,0,3.24078
0.9,6.9,0,3.23175
0.9,7,0,3.21959
0.9,7.1,0,3.20756
0.9,7.2,0,3.19552
0.9,7.3,0,3.18375
0.9,7.4,0,3.16566
0.9,7.5,0,3.14549
0.9,7.6,0,3.12542
0.9,7.7,0,3.10535
0.9,7.8,0,3.08565
0.9,7.9,0,3.05839
0.9,8,0,3.03023
0.9,8.1,0,3.00214
0.9,8.2,0,2.97405
0.9,8.3,0,2.94652
0.9,8.4,0,2.91015
0.9,8.5,0,2.87361
0.9,8.6,0,2.83707
0.9,8.7,0,2.80058
0.9,8.8,0,2.76413
0.9,8.9,0,2.71995
0.9,9,0,2.67706
0.9,9.1,0,2.63418
0.9,9.2,0,2.59145
0.9,9.3,0,2.54781
0.9,9.4,0,2.49655
0.9,9.5,0,2.44323
0.9,9.6,0,2.38991
0.9,9.7,0,2.3362
0.9,9.8,0,2.27928
0.9,9.9,0,2.2186
0.9,10,0,2.1604
0.9,10.1,0,2.10221
0.9,10.2,0,2.04536
0.9,10.3,0,1.98738
0.9,10.4,0,1.92347
0.9,10.5,0,1.85757
0.9,10.6,0,1.79166
0.9,10.7,0,1.72371
0.9,10.8,0,1.65007
0.9,10.9,0,1.57335
0.9,11,0,1.49674
0.9,11.1,0,1.42012
0.9,11.2,0,1.34471
0.9,11.3,0,1.26529
0.9,11.4,0,1.18508
0.9,11.5,0,1.1055
0.9,11.6,0,1.02592
0.9,11.7,0,0.946759
0.9,11.8,0,0.8602
0.9,11.9,0,0.770703
0.9,12,0,0.680891
0.9,12.1,0,0.591078
0.9,12.2,0,0.500527
0.9,12.3,0,0.403284
0.9,12.4,0,0.302738
0.9,12.5,0,0.20194
0.9,12.6,0,0.101142
0.9,12.7,0,0
1,0,0,0
1,0.1,0,0.101211
1,0.2,0,0.202422
1,0.3,0,0.303633
1,0.4,0,0.404844
1,0.5,0,0.505787
1,0.6,0,0.595349
1,0.7,0,0.68491
1,0.8,0,0.774471
1,0.9,0,0.864032
1,1,0,0.952135
1,1.1,0,1.03136
1,1.2,0,1.11058
1,1.3,0,1.1898
1,1.4,0,1.26902
1,1.5,0,1.34743
1,1.6,0,1.42361
1,1.7,0,1.4998
1,1.8,0,1.57598
1,1.9,0,1.65217
1,2,0,1.72371
1,2.1,0,1.78984
1,2.2,0,1.85597
1,2.3,0,1.9221
1,2.4,0,1.98822
1,2.5,0,2.04966
1,2.6,0,2.10767
1,2.7,0,2.16567
1,2.8,0,2.22367
1,2.9,0,2.28167
1,3,0,2.33594
1,3.1,0,2.38853
1,3.2,0,2.44113
1,3.3,0,2.49373
1,3.4,0,2.54633
1,3.5,0,2.59133
1,3.6,0,2.63452
1,3.7,0,2.67772
1,3.8,0,2.72091
1,3.9,0,2.76411
1,4,0,2.80104
1,4.1,0,2.83745
1,4.2,0,2.87386
1,4.3,0,2.91027
1,4.4,0,2.94637
1,4.5,0,2.97473
1,4.6,0,3.0031
1,4.7,0,3.03146
1,4.8,0,3.05982
1,4.9,0,3.08693
1,5,0,3.10711
1,5.1,0,3.1273
1,5.2,0,3.14748
1,5.3,0,3.16767
1,5.4,0,3.18572
1,5.5,0,3.19797
1,5.6,0,3.21023
1,5.7,0,3.22248
1,5.8,0,3.23474
1,5.9,0,3.24391
1,6,0,3.24814
1,6.1,0,3.25238
1,6.2,0,3.25661
1,6.3,0,3.26085
1,6.4,0,3.26098
1,6.5,0,3.25702
1,6.6,0,3.25305
1,6.7,0,3.24909
1,6.8,0,3.24513
1,6.9,0,3.2362
1,7,0,3.22416
1,7.1,0,3.21212
1,7.2,0,3.20008
1,7.3,0,3.18805
1,7.4,0,3.17014
1,7.5,0,3.15007
1,7.6,0,3.13
1,7.7,0,3.10993
1,7.8,0,3.08986
1,7.9,0,3.06301
1,8,0,3.03492
1,8.1,0,3.00683
1,8.2,0,2.97874
1,8.3,0,2.95066
1,8.4,0,2.91444
1,8.5,0,2.87791
1,8.6,0,2.84137
1,8.7,0,2.80484
1,8.8,0,2.76781
1,8.9,0,2.72493
1,9,0,2.68204
1,9.1,0,2.63915
1,9.2,0,2.59626
1,9.3,0,2.55137
1,9.4,0,2.49805
1,9.5,0,2.44473
1,9.6,0,2.39141
1,9.7,0,2.3381
1,9.8,0,2.28328
1,9.9,0,2.22508
1,10,0,2.16688
1,10.1,0,2.10868
1,10.2,0,2.05049
1,10.3,0,1.98903
1,10.4,0,1.92312
1,10.5,0,1.85722
1,10.6,0,1.79131
1,10.7,0,1.7254
1,10.8,0,1.65373
1,10.9,0,1.57712
1,11,0,1.5005
1,11.1,0,1.42389
1,11.2,0,1.34727
1,11.3,0,1.26862
1,11.4,0,1.18904
1,11.5,0,1.10946
1,11.6,0,1.02989
1,11.7,0,0.950313
1,11.8,0,0.862457
1,11.9,0,0.772645
1,12,0,0.682833
1,12.1,0,0.59302
1,12.2,0,0.503208
1,12.3,0,0.403191
1,12.4,0,0.302393
1,12.5,0,0.201595
1,12.6,0,0.100798
1,12.7,0,0
1.1,0,0,0
1.1,0.1,0,0.113483
1.1,0.2,0,0.21468
1.1,0.3,0,0.315876
1.1,0.4,0,0.417104
1.1,0.5,0,0.520868
1.1,0.6,0,0.611647
1.1,0.7,0,0.701177
1.1,0.8,0,0.790707
1.1,0.9,0,0.88062
1.1,1,0,0.971317
1.1,1.1,0,1.04282
1.1,1.2,0,1.12203
1.1,1.3,0,1.20124
1.1,1.4,0,1.28119
1.1,1.5,0,1.35941
1.1,1.6,0,1.4277
1.1,1.7,0,1.50388
1.1,1.8,0,1.58006
1.1,1.9,0,1.66191
1.1,2,0,1.74216
1.1,2.1,0,1.8092
1.1,2.2,0,1.87532
1.1,2.3,0,1.94145
1.1,2.4,0,2.0075
1.1,2.5,0,2.05955
1.1,2.6,0,2.11086
1.1,2.7,0,2.16886
1.1,2.8,0,2.22686
1.1,2.9,0,2.29454
1.1,3,0,2.35188
1.1,3.1,0,2.4039
1.1,3.2,0,2.4565
1.1,3.3,0,2.5091
1.1,3.4,0,2.56529
1.1,3.5,0,2.60284
1.1,3.6,0,2.64429
1.1,3.7,0,2.68748
1.1,3.8,0,2.73067
1.1,3.9,0,2.78213
1.1,4,0,2.81336
1.1,4.1,0,2.84939
1.1,4.2,0,2.88581
1.1,4.3,0,2.92234
1.1,4.4,0,2.96603
1.1,4.5,0,2.98694
1.1,4.6,0,3.0153
1.1,4.7,0,3.04366
1.1,4.8,0,3.07308
1.1,4.9,0,3.10586
1.1,5,0,3.11973
1.1,5.1,0,3.13991
1.1,5.2,0,3.1601
1.1,5.3,0,3.18224
1.1,5.4,0,3.20371
1.1,5.5,0,3.20967
1.1,5.6,0,3.22192
1.1,5.7,0,3.23418
1.1,5.8,0,3.24968
1.1,5.9,0,3.26139
1.1,6,0,3.26103
1.1,6.1,0,3.26526
1.1,6.2,0,3.2695
1.1,6.3,0,3.27741
1.1,6.4,0,3.2773
1.1,6.5,0,3.26942
1.1,6.6,0,3.26546
1.1,6.7,0,3.26149
1.1,6.8,0,3.26239
1.1,6.9,0,3.2517
1.1,7,0,3.23677
1.1,7.1,0,3.22474
1.1,7.2,0,3.2127
1.1,7.3,0,3.20621
1.1,7.4,0,3.18452
1.1,7.5,0,3.16247
1.1,7.6,0,3.1424
1.1,7.7,0,3.12233
1.1,7.8,0,3.10878
1.1,7.9,0,3.07671
1.1,8,0,3.04763
1.1,8.1,0,3.01954
1.1,8.2,0,2.99145
1.1,8.3,0,2.97052
1.1,8.4,0,2.9275
1.1,8.5,0,2.89086
1.1,8.6,0,2.85432
1.1,8.7,0,2.81811
1.1,8.8,0,2.78594
1.1,8.9,0,2.73381
1.1,9,0,2.69092
1.1,9.1,0,2.64804
1.1,9.2,0,2.60714
1.1,9.3,0,2.57129
1.1,9.4,0,2.51615
1.1,9.5,0,2.46284
1.1,9.6,0,2.40952
1.1,9.7,0,2.35606
1.1,9.8,0,2.2952
1.1,9.9,0,2.22461
1.1,10,0,2.16641
1.1,10.1,0,2.10822
1.1,10.2,0,2.05832
1.1,10.3,0,2.00956
1.1,10.4,0,1.9446
1.1,10.5,0,1.87869
1.1,10.6,0,1.81279
1.1,10.7,0,1.74514
1.1,10.8,0,1.66216
1.1,10.9,0,1.57841
1.1,11,0,1.5018
1.1,11.1,0,1.4252
1.1,11.2,0,1.358
1.1,11.3,0,1.28027
1.1,11.4,0,1.19962
1.1,11.5,0,1.11999
1.1,11.6,0,1.04036
1.1,11.7,0,0.966785
1.1,11.8,0,0.875658
1.1,11.9,0,0.785583
1.1,12,0,0.695822
1.1,12.1,0,0.606062
1.1,12.2,0,0.517269
1.1,12.3,0,0.41446
1.1,12.4,0,0.313691
1.1,12.5,0,0.212984
1.1,12.6,0,0.112277
1.1,12.7,0,0
1.2,0,0,0
1.2,0.1,0,0.113504
1.2,0.2,0,0.226967
1.2,0.3,0,0.328183
1.2,0.4,0,0.432143
1.2,0.5,0,0.535993
1.2,0.6,0,0.626829
1.2,0.7,0,0.717586
1.2,0.8,0,0.807364
1.2,0.9,0,0.901148
1.2,1,0,0.992081
1.2,1.1,0,1.06193
1.2,1.2,0,1.13363
1.2,1.3,0,1.21343
1.2,1.4,0,1.29631
1.2,1.5,0,1.37478
1.2,1.6,0,1.4394
1.2,1.7,0,1.50795
1.2,1.8,0,1.58895
1.2,1.9,0,1.67924
1.2,2,0,1.7598
1.2,2.1,0,1.82766
1.2,2.2,0,1.89468
1.2,2.3,0,1.96073
1.2,2.4,0,2.02672
1.2,2.5,0,2.079
1.2,2.6,0,2.12042
1.2,2.7,0,2.17205
1.2,2.8,0,2.23933
1.2,2.9,0,2.31188
1.2,3,0,2.36922
1.2,3.1,0,2.4198
1.2,3.2,0,2.47187
1.2,3.3,0,2.52795
1.2,3.4,0,2.58514
1.2,3.5,0,2.62268
1.2,3.6,0,2.65556
1.2,3.7,0,2.69724
1.2,3.8,0,2.74848
1.2,3.9,0,2.80086
1.2,4,0,2.83209
1.2,4.1,0,2.86155
1.2,4.2,0,2.89775
1.2,4.3,0,2.94231
1.2,4.4,0,2.986
1.2,4.5,0,3.00641
1.2,4.6,0,3.0275
1.2,4.7,0,3.05674
1.2,4.8,0,3.09319
1.2,4.9,0,3.12597
1.2,5,0,3.13848
1.2,5.1,0,3.15253
1.2,5.2,0,3.17449
1.2,5.3,0,3.20262
1.2,5.4,0,3.22409
1.2,5.5,0,3.22745
1.2,5.6,0,3.23362
1.2,5.7,0,3.24892
1.2,5.8,0,3.27015
1.2,5.9,0,3.28186
1.2,6,0,3.27833
1.2,6.1,0,3.27814
1.2,6.2,0,3.28588
1.2,6.3,0,3.29784
1.2,6.4,0,3.29773
1.2,6.5,0,3.28555
1.2,6.6,0,3.27786
1.2,6.7,0,3.27856
1.2,6.8,0,3.2828
1.2,6.9,0,3.27211
1.2,7,0,3.25209
1.2,7.1,0,3.23735
1.2,7.2,0,3.23068
1.2,7.3,0,3.22647
1.2,7.4,0,3.20479
1.2,7.5,0,3.17666
1.2,7.6,0,3.15479
1.2,7.7,0,3.14106
1.2,7.8,0,3.12892
1.2,7.9,0,3.09685
1.2,8,0,3.06115
1.2,8.1,0,3.03224
1.2,8.2,0,3.01113
1.2,8.3,0,2.99067
1.2,8.4,0,2.94766
1.2,8.5,0,2.9038
1.2,8.6,0,2.86745
1.2,8.7,0,2.83703
1.2,8.8,0,2.80486
1.2,8.9,0,2.7517
1.2,9,0,2.69981
1.2,9.1,0,2.65864
1.2,9.2,0,2.6275
1.2,9.3,0,2.59166
1.2,9.4,0,2.53602
1.2,9.5,0,2.48094
1.2,9.6,0,2.42749
1.2,9.7,0,2.37367
1.2,9.8,0,2.31282
1.2,9.9,0,2.23611
1.2,10,0,2.16595
1.2,10.1,0,2.11557
1.2,10.2,0,2.07811
1.2,10.3,0,2.02935
1.2,10.4,0,1.96518
1.2,10.5,0,1.90017
1.2,10.6,0,1.83258
1.2,10.7,0,1.76333
1.2,10.8,0,1.68005
1.2,10.9,0,1.58587
1.2,11,0,1.50307
1.2,11.1,0,1.43561
1.2,11.2,0,1.37348
1.2,11.3,0,1.29535
1.2,11.4,0,1.21113
1.2,11.5,0,1.1308
1.2,11.6,0,1.05722
1.2,11.7,0,0.985558
1.2,11.8,0,0.893567
1.2,11.9,0,0.799174
1.2,12,0,0.709355
1.2,12.1,0,0.620542
1.2,12.2,0,0.531879
1.2,12.3,0,0.429048
1.2,12.4,0,0.325307
1.2,12.5,0,0.224554
1.2,12.6,0,0.112502
1.2,12.7,0,0
1.3,0,0,0
1.3,0.1,0,0.113504
1.3,0.2,0,0.227018
1.3,0.3,0,0.343188
1.3,0.4,0,0.447181
1.3,0.5,0,0.551118
1.3,0.6,0,0.641954
1.3,0.7,0,0.732938
1.3,0.8,0,0.827892
1.3,0.9,0,0.921677
1.3,1,0,1.01284
1.3,1.1,0,1.08269
1.3,1.2,0,1.15298
1.3,1.3,0,1.22855
1.3,1.4,0,1.31143
1.3,1.5,0,1.39015
1.3,1.6,0,1.45477
1.3,1.7,0,1.52335
1.3,1.8,0,1.60628
1.3,1.9,0,1.69657
1.3,2,0,1.77744
1.3,2.1,0,1.84531
1.3,2.2,0,1.9131
1.3,2.3,0,1.97995
1.3,2.4,0,2.04593
1.3,2.5,0,2.09845
1.3,2.6,0,2.13987
1.3,2.7,0,2.19008
1.3,2.8,0,2.25667
1.3,2.9,0,2.32922