/*--------------------------------*- C++ -*----------------------------------*\
| =========                 |                                                 |
| \\      /  F ield         | OpenFOAM: The Open Source CFD Toolbox           |
|  \\    /   O peration     | Version:  v1806                                 |
|   \\  /    A nd           | Web:      www.OpenFOAM.com                      |
|    \\/     M anipulation  |                                                 |
\*---------------------------------------------------------------------------*/
FoamFile
{
    version     2.0;
    format      ascii;
    class       volVectorField;
    location    "180";
    object      U;
}
// * * * * * * * * * * * * * * * * * * * * * * * * * * * * * * * * * * * * * //

dimensions      [0 1 -1 0 0 0 0];


internalField   nonuniform List<vector> 
2400
(
(0.3 -0.00098194 0)
(0.299988 -0.00321089 0)
(0.299963 -0.0051936 0)
(0.299914 -0.00764011 0)
(0.299849 -0.00976738 0)
(0.299741 -0.0126132 0)
(0.299625 -0.0150095 0)
(0.299436 -0.0184242 0)
(0.299262 -0.0212027 0)
(0.298969 -0.0253109 0)
(0.298735 -0.0285591 0)
(0.298326 -0.0333562 0)
(0.298052 -0.0370918 0)
(0.297562 -0.0423064 0)
(0.2973 -0.0463832 0)
(0.296862 -0.0513435 0)
(0.296723 -0.0552787 0)
(0.296602 -0.05898 0)
(0.296771 -0.0617721 0)
(0.297215 -0.0633482 0)
(0.299997 -0.000976626 0)
(0.299973 -0.00320145 0)
(0.299918 -0.00516704 0)
(0.299834 -0.00761177 0)
(0.299716 -0.00971088 0)
(0.299554 -0.0125612 0)
(0.299364 -0.0149106 0)
(0.299103 -0.0183448 0)
(0.298838 -0.0210472 0)
(0.298454 -0.0252054 0)
(0.298131 -0.0283367 0)
(0.297621 -0.0332363 0)
(0.297296 -0.0368127 0)
(0.296719 -0.0422017 0)
(0.296515 -0.0461128 0)
(0.296067 -0.0513065 0)
(0.296169 -0.0551681 0)
(0.296232 -0.0590899 0)
(0.296817 -0.0619914 0)
(0.297714 -0.0637102 0)
(0.299995 -0.000966598 0)
(0.299957 -0.00318215 0)
(0.299866 -0.00511937 0)
(0.299738 -0.00756132 0)
(0.299551 -0.00961739 0)
(0.299317 -0.012478 0)
(0.299031 -0.014758 0)
(0.298669 -0.0182304 0)
(0.298287 -0.0208213 0)
(0.29778 -0.025072 0)
(0.297339 -0.0280311 0)
(0.296693 -0.033117 0)
(0.2963 -0.0364526 0)
(0.295603 -0.0421585 0)
(0.295465 -0.0457983 0)
(0.29498 -0.0514214 0)
(0.295372 -0.0551115 0)
(0.295601 -0.0594256 0)
(0.296684 -0.0624096 0)
(0.29807 -0.0642913 0)
(0.299994 -0.000952118 0)
(0.29994 -0.00315257 0)
(0.299814 -0.00505101 0)
(0.299639 -0.00748783 0)
(0.299381 -0.0094877 0)
(0.299068 -0.0123621 0)
(0.298679 -0.0145532 0)
(0.298208 -0.0180789 0)
(0.297699 -0.0205265 0)
(0.297055 -0.0249082 0)
(0.296484 -0.0276421 0)
(0.295686 -0.0329949 0)
(0.295211 -0.0360034 0)
(0.294373 -0.0421749 0)
(0.294296 -0.0454143 0)
(0.293732 -0.0516943 0)
(0.294444 -0.0550646 0)
(0.294775 -0.0600092 0)
(0.296437 -0.0630033 0)
(0.298288 -0.0651213 0)
(0.299993 -0.000933679 0)
(0.299924 -0.00311221 0)
(0.299764 -0.00496266 0)
(0.299539 -0.00738927 0)
(0.299213 -0.00932153 0)
(0.298817 -0.0122085 0)
(0.298325 -0.0142942 0)
(0.29774 -0.0178809 0)
(0.297098 -0.0201589 0)
(0.296311 -0.024699 0)
(0.2956 -0.0271621 0)
(0.29464 -0.0328515 0)
(0.294067 -0.0354501 0)
(0.293066 -0.0422352 0)
(0.293037 -0.0449313 0)
(0.292346 -0.0521299 0)
(0.293404 -0.0549784 0)
(0.293745 -0.0608833 0)
(0.296098 -0.0637368 0)
(0.298353 -0.0662475 0)
(0.299994 -0.00091181 0)
(0.299907 -0.00306029 0)
(0.299716 -0.00485549 0)
(0.299439 -0.00726394 0)
(0.299047 -0.00912044 0)
(0.298566 -0.0120133 0)
(0.297972 -0.013983 0)
(0.297269 -0.0176295 0)
(0.296492 -0.0197204 0)
(0.295558 -0.0244341 0)
(0.294694 -0.0265916 0)
(0.293565 -0.0326731 0)
(0.292871 -0.0347878 0)
(0.291687 -0.0423289 0)
(0.291682 -0.0443286 0)
(0.290812 -0.0527383 0)
(0.292237 -0.0548043 0)
(0.292476 -0.0621053 0)
(0.295669 -0.0645566 0)
(0.298217 -0.067741 0)
(0.299998 -0.000887036 0)
(0.299888 -0.002996 0)
(0.299672 -0.00473084 0)
(0.299337 -0.00711034 0)
(0.298886 -0.00888678 0)
(0.298313 -0.0117737 0)
(0.297623 -0.0136231 0)
(0.296796 -0.0173189 0)
(0.295884 -0.0192154 0)
(0.294797 -0.024103 0)
(0.293767 -0.0259345 0)
(0.29246 -0.0324446 0)
(0.291615 -0.0340145 0)
(0.29023 -0.0424403 0)
(0.290216 -0.0435879 0)
(0.289111 -0.0535216 0)
(0.290919 -0.0544921 0)
(0.290925 -0.063736 0)
(0.295141 -0.0653919 0)
(0.297812 -0.0697086 0)
(0.300003 -0.000859823 0)
(0.299867 -0.00291867 0)
(0.299632 -0.00459007 0)
(0.299231 -0.00692712 0)
(0.298732 -0.008623 0)
(0.298057 -0.0114863 0)
(0.297282 -0.0132184 0)
(0.296317 -0.0169423 0)
(0.295276 -0.0186495 0)
(0.294023 -0.0236927 0)
(0.292818 -0.0251964 0)
(0.291326 -0.032145 0)
(0.29029 -0.0331316 0)
(0.288696 -0.0425446 0)
(0.288612 -0.0426948 0)
(0.287228 -0.0544703 0)
(0.289417 -0.0539938 0)
(0.289043 -0.0658309 0)
(0.294495 -0.0661642 0)
(0.297061 -0.0722984 0)
(0.300013 -0.0008305 0)
(0.299841 -0.00282783 0)
(0.2996 -0.00443434 0)
(0.29912 -0.00671323 0)
(0.298588 -0.0083314 0)
(0.297793 -0.0111484 0)
(0.296954 -0.0127729 0)
(0.295828 -0.0164922 0)
(0.294677 -0.0180289 0)
(0.293232 -0.0231872 0)
(0.29185 -0.0243859 0)
(0.290157 -0.031746 0)
(0.288883 -0.0321465 0)
(0.287087 -0.0426057 0)
(0.286831 -0.0416426 0)
(0.285164 -0.0555628 0)
(0.287687 -0.0532649 0)
(0.28677 -0.0684332 0)
(0.29372 -0.0667939 0)
(0.295869 -0.0756941 0)
(0.300028 -0.000799167 0)
(0.299808 -0.00272343 0)
(0.299576 -0.00426446 0)
(0.298999 -0.00646822 0)
(0.298461 -0.00801377 0)
(0.297516 -0.0107575 0)
(0.296649 -0.0122903 0)
(0.295319 -0.0159614 0)
(0.2941 -0.0173607 0)
(0.292408 -0.0225681 0)
(0.290882 -0.0235152 0)
(0.288937 -0.0312105 0)
(0.287397 -0.0310761 0)
(0.285404 -0.0425698 0)
(0.284827 -0.0404391 0)
(0.282949 -0.0567632 0)
(0.285643 -0.0522633 0)
(0.284067 -0.0715786 0)
(0.292825 -0.0671996 0)
(0.29409 -0.0800992 0)
(0.300048 -0.000765639 0)
(0.299768 -0.00260597 0)
(0.299565 -0.00408061 0)
(0.298867 -0.00619264 0)
(0.298354 -0.00767084 0)
(0.29722 -0.010313 0)
(0.296378 -0.0117728 0)
(0.294777 -0.0153444 0)
(0.293569 -0.016651 0)
(0.291528 -0.0218166 0)
(0.289948 -0.0225988 0)
(0.287631 -0.0304915 0)
(0.285865 -0.0299481 0)
(0.283616 -0.0423558 0)
(0.282561 -0.0391178 0)
(0.280634 -0.0580067 0)
(0.283117 -0.050959 0)
(0.28099 -0.0753197 0)
(0.291809 -0.0672749 0)
(0.291448 -0.085698 0)
(0.300073 -0.00072946 0)
(0.29972 -0.00247649 0)
(0.299565 -0.00388234 0)
(0.298721 -0.00588825 0)
(0.298273 -0.00730194 0)
(0.296902 -0.00981682 0)
(0.296152 -0.0112196 0)
(0.294192 -0.0146403 0)
(0.293107 -0.0159014 0)
(0.290564 -0.0209194 0)
(0.289102 -0.021649 0)
(0.286175 -0.029538 0)
(0.284371 -0.0288 0)
(0.281626 -0.0418447 0)
(0.280073 -0.0377504 0)
(0.278208 -0.0591596 0)
(0.279865 -0.0493713 0)
(0.277796 -0.0797469 0)
(0.290476 -0.0668386 0)
(0.287526 -0.092652 0)
(0.300102 -0.000690019 0)
(0.299665 -0.00233651 0)
(0.299576 -0.00366872 0)
(0.298565 -0.00555794 0)
(0.298215 -0.00690507 0)
(0.296563 -0.0092734 0)
(0.295974 -0.0106267 0)
(0.29356 -0.0138544 0)
(0.292734 -0.0151057 0)
(0.289494 -0.0198756 0)
(0.2884 -0.0206653 0)
(0.284498 -0.0283133 0)
(0.283048 -0.027666 0)
(0.279254 -0.0408859 0)
(0.277553 -0.0364494 0)
(0.275455 -0.0599566 0)
(0.275733 -0.0476444 0)
(0.274871 -0.0849209 0)
(0.288108 -0.0655941 0)
(0.282131 -0.101335 0)
(0.300133 -0.000646757 0)
(0.299608 -0.00218762 0)
(0.299593 -0.00343871 0)
(0.298405 -0.00520511 0)
(0.298175 -0.00647766 0)
(0.296213 -0.00868914 0)
(0.295837 -0.00998736 0)
(0.292895 -0.0129978 0)
(0.292449 -0.0142489 0)
(0.288324 -0.0187008 0)
(0.287873 -0.019623 0)
(0.282557 -0.0268195 0)
(0.282033 -0.0265431 0)
(0.276296 -0.0393598 0)
(0.275356 -0.0353404 0)
(0.271832 -0.0599555 0)
(0.270995 -0.0461264 0)
(0.272232 -0.0905933 0)
(0.283332 -0.0632549 0)
(0.276289 -0.112805 0)
(0.300162 -0.000599417 0)
(0.299553 -0.00203117 0)
(0.29961 -0.00319183 0)
(0.298252 -0.00483292 0)
(0.298142 -0.00601777 0)
(0.295873 -0.00807057 0)
(0.295722 -0.00929502 0)
(0.292231 -0.0120839 0)
(0.29222 -0.0133121 0)
(0.287106 -0.0174228 0)
(0.287489 -0.018475 0)
(0.280397 -0.0251044 0)
(0.281372 -0.025351 0)
(0.272651 -0.0372707 0)
(0.273857 -0.0344616 0)
(0.266622 -0.0586561 0)
(0.266625 -0.0453438 0)
(0.268684 -0.0958327 0)
(0.274906 -0.0600437 0)
(0.273001 -0.129205 0)
(0.300186 -0.000548243 0)
(0.299507 -0.00186782 0)
(0.29962 -0.00292866 0)
(0.298117 -0.00444335 0)
(0.298101 -0.0055255 0)
(0.295567 -0.00742226 0)
(0.295598 -0.00854655 0)
(0.291617 -0.0111236 0)
(0.291989 -0.0122804 0)
(0.285939 -0.0160692 0)
(0.28714 -0.0171708 0)
(0.278192 -0.0232399 0)
(0.280913 -0.0239434 0)
(0.268495 -0.0347681 0)
(0.273134 -0.0335763 0)
(0.259439 -0.0559568 0)
(0.263911 -0.045728 0)
(0.261529 -0.0988968 0)
(0.263711 -0.0574592 0)
(0.275409 -0.153166 0)
(0.300201 -0.000494012 0)
(0.299475 -0.00169743 0)
(0.299616 -0.00265111 0)
(0.298012 -0.00403679 0)
(0.298038 -0.0050038 0)
(0.295318 -0.00674542 0)
(0.295439 -0.0077449 0)
(0.291107 -0.0101207 0)
(0.291693 -0.0111518 0)
(0.284941 -0.0146539 0)
(0.286678 -0.0156818 0)
(0.27621 -0.02128 0)
(0.280321 -0.0221854 0)
(0.264377 -0.032049 0)
(0.272622 -0.0322122 0)
(0.25083 -0.0522696 0)
(0.263212 -0.0469869 0)
(0.248077 -0.0979938 0)
(0.254184 -0.0586634 0)
(0.281336 -0.184489 0)
(0.300206 -0.000437922 0)
(0.299461 -0.00151912 0)
(0.299594 -0.00236236 0)
(0.297942 -0.00361212 0)
(0.297948 -0.00445846 0)
(0.29514 -0.00603772 0)
(0.295229 -0.00689972 0)
(0.290733 -0.00907018 0)
(0.291292 -0.00994057 0)
(0.284202 -0.0131688 0)
(0.285986 -0.0140203 0)
(0.274707 -0.0192247 0)
(0.279237 -0.0200327 0)
(0.261026 -0.0292105 0)
(0.271281 -0.029963 0)
(0.242482 -0.0482086 0)
(0.262686 -0.0475519 0)
(0.228574 -0.093459 0)
(0.251265 -0.0669779 0)
(0.27963 -0.216903 0)
(0.300201 -0.000381448 0)
(0.299462 -0.00133166 0)
(0.299557 -0.00206632 0)
(0.297907 -0.00316756 0)
(0.297833 -0.00389705 0)
(0.295032 -0.00529516 0)
(0.294972 -0.00602505 0)
(0.290501 -0.00796227 0)
(0.290788 -0.00867311 0)
(0.283747 -0.0115897 0)
(0.285046 -0.0122362 0)
(0.273794 -0.0170183 0)
(0.277512 -0.0175624 0)
(0.25894 -0.0261626 0)
(0.268261 -0.0267663 0)
(0.236534 -0.0439936 0)
(0.258689 -0.0456033 0)
(0.208218 -0.0870361 0)
(0.250884 -0.0816455 0)
(0.253914 -0.239962 0)
(0.30019 -0.000325487 0)
(0.299475 -0.00113561 0)
(0.29951 -0.00176526 0)
(0.297899 -0.00270392 0)
(0.297705 -0.00332448 0)
(0.294983 -0.00451814 0)
(0.294693 -0.005131 0)
(0.290385 -0.00679404 0)
(0.290231 -0.00737136 0)
(0.283526 -0.0099017 0)
(0.283958 -0.0103816 0)
(0.273382 -0.0146037 0)
(0.275328 -0.0149073 0)
(0.258053 -0.0227076 0)
(0.263656 -0.0229249 0)
(0.233841 -0.0391208 0)
(0.248948 -0.0407909 0)
(0.194448 -0.0795706 0)
(0.235391 -0.093431 0)
(0.190188 -0.236612 0)
(0.297869 -0.0637726 0)
(0.298708 -0.0631394 0)
(0.299698 -0.0615237 0)
(0.300712 -0.0592233 0)
(0.301718 -0.0565216 0)
(0.302665 -0.0535787 0)
(0.303576 -0.0505277 0)
(0.304373 -0.0474655 0)
(0.305136 -0.0444901 0)
(0.305765 -0.041614 0)
(0.298815 -0.0642971 0)
(0.300103 -0.0637505 0)
(0.301447 -0.0621626 0)
(0.302669 -0.0598647 0)
(0.303769 -0.0571386 0)
(0.304738 -0.0541521 0)
(0.305607 -0.0510446 0)
(0.306321 -0.0479298 0)
(0.306973 -0.0449005 0)
(0.307485 -0.0419813 0)
(0.299689 -0.0650467 0)
(0.301516 -0.0645148 0)
(0.303289 -0.0628665 0)
(0.30478 -0.0605026 0)
(0.306034 -0.0577009 0)
(0.307078 -0.0546308 0)
(0.307952 -0.0514435 0)
(0.308621 -0.0482661 0)
(0.309194 -0.0451843 0)
(0.309618 -0.0422303 0)
(0.300478 -0.0660749 0)
(0.302917 -0.0654968 0)
(0.305144 -0.0637208 0)
(0.306912 -0.061239 0)
(0.30833 -0.0583146 0)
(0.309458 -0.0551185 0)
(0.31034 -0.0518209 0)
(0.310971 -0.0485609 0)
(0.311475 -0.0454165 0)
(0.311826 -0.042423 0)
(0.301201 -0.067425 0)
(0.304346 -0.0667198 0)
(0.307042 -0.0647487 0)
(0.309081 -0.0620958 0)
(0.310662 -0.0589956 0)
(0.311869 -0.0556289 0)
(0.312752 -0.0521927 0)
(0.313343 -0.0488332 0)
(0.313781 -0.0456184 0)
(0.314064 -0.0425824 0)
(0.301885 -0.0691342 0)
(0.305846 -0.0681906 0)
(0.309014 -0.0659576 0)
(0.311312 -0.0630741 0)
(0.313054 -0.0597373 0)
(0.314335 -0.0561543 0)
(0.315216 -0.0525543 0)
(0.315767 -0.0490811 0)
(0.316138 -0.0457886 0)
(0.316345 -0.0427054 0)
(0.302575 -0.071239 0)
(0.307464 -0.0699126 0)
(0.311079 -0.0673557 0)
(0.313627 -0.0641751 0)
(0.31554 -0.0605352 0)
(0.316903 -0.0566929 0)
(0.317786 -0.0529078 0)
(0.318298 -0.049305 0)
(0.318583 -0.045922 0)
(0.318664 -0.042777 0)
(0.303342 -0.0737728 0)
(0.309233 -0.0718895 0)
(0.31325 -0.0689531 0)
(0.316071 -0.0654023 0)
(0.318198 -0.0613927 0)
(0.319667 -0.057252 0)
(0.320554 -0.053257 0)
(0.320985 -0.0494956 0)
(0.32109 -0.0459898 0)
(0.320889 -0.0427456 0)
(0.304264 -0.0767531 0)
(0.31117 -0.074139 0)
(0.315568 -0.0707765 0)
(0.318766 -0.0667758 0)
(0.321192 -0.0623276 0)
(0.322775 -0.0578401 0)
(0.323583 -0.0535841 0)
(0.323755 -0.0495972 0)
(0.323402 -0.0458979 0)
(0.322557 -0.0424807 0)
(0.305394 -0.0801546 0)
(0.313313 -0.076733 0)
(0.318204 -0.072904 0)
(0.321988 -0.0683441 0)
(0.324755 -0.0633559 0)
(0.326297 -0.0584223 0)
(0.326692 -0.0537868 0)
(0.326122 -0.0494415 0)
(0.324719 -0.045426 0)
(0.322581 -0.0417259 0)
(0.30681 -0.0839418 0)
(0.315877 -0.0798649 0)
(0.321605 -0.0754886 0)
(0.32613 -0.070149 0)
(0.328963 -0.0644088 0)
(0.329855 -0.0588121 0)
(0.329005 -0.0535731 0)
(0.326747 -0.0486648 0)
(0.323321 -0.0441772 0)
(0.318966 -0.0400799 0)
(0.308886 -0.0882848 0)
(0.319508 -0.0838802 0)
(0.326434 -0.0786613 0)
(0.331279 -0.0720626 0)
(0.333082 -0.065148 0)
(0.331922 -0.0585108 0)
(0.328338 -0.0523578 0)
(0.322999 -0.0466705 0)
(0.316326 -0.0415964 0)
(0.308785 -0.0370586 0)
(0.312807 -0.0937402 0)
(0.32523 -0.0891491 0)
(0.332796 -0.0822007 0)
(0.336132 -0.0734686 0)
(0.334552 -0.0647308 0)
(0.32907 -0.0565986 0)
(0.320809 -0.0492751 0)
(0.310918 -0.0427303 0)
(0.299988 -0.0371267 0)
(0.288731 -0.0322777 0)
(0.320613 -0.101056 0)
(0.333169 -0.0955673 0)
(0.338528 -0.0849713 0)
(0.33657 -0.0729304 0)
(0.328175 -0.0617382 0)
(0.315815 -0.05187 0)
(0.301267 -0.0434391 0)
(0.286098 -0.0362979 0)
(0.270873 -0.0305275 0)
(0.256438 -0.0257411 0)
(0.333425 -0.110386 0)
(0.339818 -0.101688 0)
(0.337399 -0.0844845 0)
(0.325014 -0.0682894 0)
(0.306586 -0.05457 0)
(0.28595 -0.0433678 0)
(0.265173 -0.0344942 0)
(0.245797 -0.0275013 0)
(0.227949 -0.0222663 0)
(0.212302 -0.0181121 0)
(0.347646 -0.120023 0)
(0.335665 -0.103918 0)
(0.319176 -0.0772999 0)
(0.29204 -0.0575559 0)
(0.263086 -0.0423952 0)
(0.235922 -0.0312612 0)
(0.211934 -0.0233042 0)
(0.191775 -0.0175924 0)
(0.174636 -0.013715 0)
(0.160639 -0.0106834 0)
(0.352213 -0.124298 0)
(0.306377 -0.0969152 0)
(0.273153 -0.0607753 0)
(0.231357 -0.0405392 0)
(0.19711 -0.0264626 0)
(0.169479 -0.0177365 0)
(0.148015 -0.0122997 0)
(0.131665 -0.00879246 0)
(0.118681 -0.0066586 0)
(0.108592 -0.00478936 0)
(0.330117 -0.112923 0)
(0.238473 -0.0754419 0)
(0.195716 -0.0353764 0)
(0.1479 -0.0206049 0)
(0.119812 -0.0110268 0)
(0.0995871 -0.00673174 0)
(0.0857778 -0.00436386 0)
(0.076044 -0.0029555 0)
(0.0686611 -0.00217758 0)
(0.0629676 -0.00110284 0)
(0.263892 -0.0752383 0)
(0.129848 -0.0393345 0)
(0.100268 -0.0075624 0)
(0.0634121 -0.00485538 0)
(0.0515816 -0.00138893 0)
(0.0420095 -0.00097427 0)
(0.0365406 -0.000524158 0)
(0.032853 -0.000288248 0)
(0.0301874 -0.000138168 0)
(0.0279729 0.000666478 0)
(0.136463 -0.0433408 0)
(0.00839178 -0.010545 0)
(0.0198066 0.00265481 0)
(0.00594686 0.000118281 0)
(0.00766882 0.000655845 0)
(0.00589244 0.000232174 0)
(0.00565929 0.000212392 0)
(0.00545971 0.000169748 0)
(0.00551937 0.000176747 0)
(0.00525462 0.000401471 0)
(0.306389 -0.0389564 0)
(0.306856 -0.0364562 0)
(0.307392 -0.0340902 0)
(0.30776 -0.0317771 0)
(0.308252 -0.029571 0)
(0.308538 -0.0273786 0)
(0.308999 -0.0252726 0)
(0.309197 -0.0231671 0)
(0.309622 -0.0211434 0)
(0.309708 -0.0191576 0)
(0.310075 -0.0172564 0)
(0.310016 -0.0155017 0)
(0.310304 -0.0138273 0)
(0.310061 -0.0124869 0)
(0.310255 -0.0111761 0)
(0.309798 -0.0104721 0)
(0.309902 -0.00963731 0)
(0.30921 -0.00975828 0)
(0.309241 -0.00941618 0)
(0.308314 -0.0104535 0)
(0.307998 -0.0392831 0)
(0.308365 -0.0367565 0)
(0.308813 -0.034363 0)
(0.309103 -0.0320318 0)
(0.309532 -0.0298043 0)
(0.30975 -0.0275956 0)
(0.310161 -0.0254679 0)
(0.310282 -0.0233411 0)
(0.310653 -0.0212916 0)
(0.310635 -0.0192736 0)
(0.310933 -0.0173412 0)
(0.310726 -0.0155423 0)
(0.310923 -0.0138337 0)
(0.310482 -0.0124401 0)
(0.310574 -0.0110959 0)
(0.309868 -0.0103308 0)
(0.309884 -0.00946464 0)
(0.308895 -0.00952005 0)
(0.308889 -0.00914838 0)
(0.307596 -0.0101249 0)
(0.310038 -0.0395033 0)
(0.310324 -0.0369623 0)
(0.310698 -0.0345539 0)
(0.310919 -0.0322161 0)
(0.311293 -0.0299757 0)
(0.311444 -0.027756 0)
(0.311804 -0.0256094 0)
(0.311834 -0.0234593 0)
(0.312141 -0.0213808 0)
(0.311982 -0.0193212 0)
(0.312186 -0.0173512 0)
(0.311762 -0.015492 0)
(0.31183 -0.0137431 0)
(0.31108 -0.0122752 0)
(0.311021 -0.0108965 0)
(0.30991 -0.0100498 0)
(0.309784 -0.00916245 0)
(0.308287 -0.00913715 0)
(0.308199 -0.0087587 0)
(0.306273 -0.009662 0)
(0.312169 -0.0396682 0)
(0.31239 -0.0371159 0)
(0.312699 -0.0346966 0)
(0.312861 -0.0323551 0)
(0.313177 -0.0301023 0)
(0.313256 -0.02787 0)
(0.313547 -0.0256993 0)
(0.313465 -0.0235183 0)
(0.313675 -0.0214003 0)
(0.313333 -0.0192854 0)
(0.313401 -0.0172638 0)
(0.312696 -0.0153258 0)
(0.312586 -0.0135235 0)
(0.311439 -0.0119601 0)
(0.311176 -0.0105406 0)
(0.309537 -0.00959212 0)
(0.309218 -0.00868793 0)
(0.30705 -0.00856282 0)
(0.306839 -0.00819058 0)
(0.304064 -0.00899341 0)
(0.314329 -0.0398005 0)
(0.31448 -0.0372384 0)
(0.314709 -0.034809 0)
(0.314792 -0.0324625 0)
(0.315011 -0.0301921 0)
(0.314974 -0.0279404 0)
(0.315133 -0.0257342 0)
(0.314875 -0.0235102 0)
(0.314905 -0.0213351 0)
(0.314304 -0.0191485 0)
(0.314143 -0.0170538 0)
(0.313073 -0.015017 0)
(0.312693 -0.0131395 0)
(0.311054 -0.0114592 0)
(0.310503 -0.00998177 0)
(0.308225 -0.00890985 0)
(0.307644 -0.0079798 0)
(0.304663 -0.00773345 0)
(0.304285 -0.00736593 0)
(0.300472 -0.00804596 0)
(0.316509 -0.0398935 0)
(0.316552 -0.0373175 0)
(0.316639 -0.0348723 0)
(0.316568 -0.0325116 0)
(0.31659 -0.030211 0)
(0.316334 -0.0279261 0)
(0.316227 -0.0256666 0)
(0.315671 -0.0233837 0)
(0.315375 -0.0211299 0)
(0.31439 -0.0188548 0)
(0.313854 -0.0166625 0)
(0.312306 -0.0145108 0)
(0.311523 -0.012533 0)
(0.309291 -0.0107202 0)
(0.308339 -0.00916247 0)
(0.305325 -0.00795145 0)
(0.304393 -0.00697982 0)
(0.300488 -0.00659603 0)
(0.299889 -0.00622559 0)
(0.294889 -0.00676902 0)
(0.318643 -0.0399202 0)
(0.318466 -0.0373135 0)
(0.31827 -0.0348344 0)
(0.317882 -0.0324378 0)
(0.317517 -0.0300846 0)
(0.316846 -0.0277447 0)
(0.316262 -0.0254099 0)
(0.315215 -0.0230498 0)
(0.314383 -0.0206967 0)
(0.312849 -0.0183202 0)
(0.311752 -0.01601 0)
(0.309601 -0.0137347 0)
(0.30826 -0.0116357 0)
(0.305354 -0.0096846 0)
(0.303877 -0.00802544 0)
(0.300074 -0.00667038 0)
(0.298699 -0.00563917 0)
(0.293823 -0.00511141 0)
(0.292945 -0.00472743 0)
(0.286688 -0.0051283 0)
(0.320476 -0.0398071 0)
(0.319836 -0.037134 0)
(0.319085 -0.034587 0)
(0.318092 -0.0321203 0)
(0.317039 -0.0296851 0)
(0.315664 -0.0272653 0)
(0.314315 -0.0248363 0)
(0.312526 -0.0223864 0)
(0.310916 -0.0199237 0)
(0.308653 -0.0174439 0)
(0.30681 -0.0150092 0)
(0.303956 -0.0126159 0)
(0.301927 -0.0103864 0)
(0.298318 -0.00830572 0)
(0.296228 -0.00653053 0)
(0.291661 -0.00503987 0)
(0.289777 -0.00393131 0)
(0.283982 -0.00326456 0)
(0.282783 -0.00285385 0)
(0.275316 -0.00311518 0)
(0.321347 -0.0393964 0)
(0.31982 -0.0366035 0)
(0.318085 -0.0339441 0)
(0.316067 -0.0313695 0)
(0.313932 -0.028828 0)
(0.311494 -0.0263137 0)
(0.309064 -0.0237886 0)
(0.30628 -0.0212551 0)
(0.303679 -0.0186968 0)
(0.300553 -0.016134 0)
(0.297848 -0.013593 0)
(0.29427 -0.0111069 0)
(0.29151 -0.00875781 0)
(0.287269 -0.00657184 0)
(0.284556 -0.00467683 0)
(0.279362 -0.00307142 0)
(0.276967 -0.00186932 0)
(0.270429 -0.00107868 0)
(0.2689 -0.000625186 0)
(0.260412 -0.000758074 0)
(0.31993 -0.0384161 0)
(0.316915 -0.0354502 0)
(0.313648 -0.0326435 0)
(0.310121 -0.0299426 0)
(0.306493 -0.0272976 0)
(0.302665 -0.0247066 0)
(0.298912 -0.0221197 0)
(0.294977 -0.019545 0)
(0.291299 -0.0169425 0)
(0.287308 -0.0143486 0)
(0.283777 -0.0117516 0)
(0.279593 -0.00922043 0)
(0.276199 -0.00678506 0)
(0.271527 -0.00453024 0)
(0.268301 -0.00252253 0)
(0.262735 -0.00082896 0)
(0.259912 0.000479987 0)
(0.252925 0.00136939 0)
(0.251105 0.00188992 0)
(0.241919 0.00187124 0)
(0.314073 -0.0364904 0)
(0.30891 -0.0333382 0)
(0.30359 -0.0303962 0)
(0.298164 -0.027604 0)
(0.292788 -0.0249149 0)
(0.287433 -0.0223212 0)
(0.282335 -0.0197606 0)
(0.277319 -0.0172351 0)
(0.272715 -0.0146834 0)
(0.26807 -0.0121435 0)
(0.263957 -0.00957016 0)
(0.259453 -0.00705699 0)
(0.255691 -0.00458487 0)
(0.250909 -0.00229805 0)
(0.2474 -0.000192896 0)
(0.241804 0.00156123 0)
(0.238708 0.00299509 0)
(0.231652 0.0039608 0)
(0.229616 0.00458371 0)
(0.220154 0.00466444 0)
(0.300953 -0.0332306 0)
(0.293193 -0.0299744 0)
(0.285596 -0.0269994 0)
(0.278226 -0.0242384 0)
(0.271214 -0.0216433 0)
(0.264567 -0.0191894 0)
(0.258461 -0.0167996 0)
(0.252761 -0.0144581 0)
(0.247669 -0.0120833 0)
(0.242815 -0.00970091 0)
(0.238561 -0.00724062 0)
(0.23416 -0.00480697 0)
(0.230414 -0.00234445 0)
(0.225899 -5.17927e-05 0)
(0.222403 0.00213657 0)
(0.217137 0.00394473 0)
(0.213968 0.00552841 0)
(0.207234 0.00655909 0)
(0.205067 0.00732924 0)
(0.195795 0.00748994 0)
(0.277796 -0.0284241 0)
(0.267581 -0.0252867 0)
(0.258087 -0.0224977 0)
(0.249313 -0.0199879 0)
(0.241316 -0.0176984 0)
(0.234082 -0.0155776 0)
(0.227694 -0.0135318 0)
(0.222004 -0.0115201 0)
(0.217085 -0.00944346 0)
(0.212605 -0.00730656 0)
(0.208738 -0.00502679 0)
(0.204882 -0.00270646 0)
(0.201546 -0.000279537 0)
(0.19763 0.00201915 0)
(0.194431 0.00429555 0)
(0.189786 0.00618155 0)
(0.186727 0.00793713 0)
(0.180649 0.00903137 0)
(0.178426 0.00999857 0)
(0.169809 0.0102044 0)
(0.243207 -0.0222771 0)
(0.231564 -0.019617 0)
(0.221333 -0.0173265 0)
(0.212335 -0.0153432 0)
(0.204495 -0.013588 0)
(0.197725 -0.0119824 0)
(0.191991 -0.0104201 0)
(0.187104 -0.00883694 0)
(0.183023 -0.00712346 0)
(0.179442 -0.00526462 0)
(0.176395 -0.00317946 0)
(0.173405 -0.000963046 0)
(0.170754 0.00143644 0)
(0.167638 0.00377779 0)
(0.164929 0.00616296 0)
(0.161065 0.00816477 0)
(0.158259 0.0101057 0)
(0.153064 0.0112752 0)
(0.15085 0.0124752 0)
(0.143337 0.0126608 0)
(0.198623 -0.0155775 0)
(0.187392 -0.0137896 0)
(0.178155 -0.0122987 0)
(0.17044 -0.0110621 0)
(0.164026 -0.00998217 0)
(0.158735 -0.00897195 0)
(0.15444 -0.00792834 0)
(0.150935 -0.00677489 0)
(0.148112 -0.00540279 0)
(0.145709 -0.0037841 0)
(0.143679 -0.00185018 0)
(0.141663 0.000311675 0)
(0.139794 0.00272768 0)
(0.137513 0.00516282 0)
(0.135371 0.00767982 0)
(0.132319 0.00983908 0)
(0.129863 0.0119619 0)
(0.125672 0.0132225 0)
(0.123556 0.014648 0)
(0.117576 0.0147069 0)
(0.148777 -0.00952951 0)
(0.140005 -0.0088747 0)
(0.133411 -0.00832473 0)
(0.128189 -0.00786969 0)
(0.124042 -0.00742447 0)
(0.120768 -0.00693389 0)
(0.118229 -0.00631755 0)
(0.116258 -0.00549862 0)
(0.114748 -0.00437535 0)
(0.113498 -0.00291164 0)
(0.112436 -0.00105416 0)
(0.111306 0.00112062 0)
(0.11016 0.0036061 0)
(0.108628 0.00617815 0)
(0.107041 0.00884637 0)
(0.104749 0.0111893 0)
(0.102725 0.0134678 0)
(0.0995788 0.014819 0)
(0.0977214 0.0163992 0)
(0.0936592 0.0161814 0)
(0.100208 -0.00521786 0)
(0.0953201 -0.00572765 0)
(0.0922014 -0.00600104 0)
(0.089832 -0.0061205 0)
(0.0880156 -0.00608957 0)
(0.0866471 -0.00592351 0)
(0.085669 -0.00556869 0)
(0.0849969 -0.00494658 0)
(0.0845617 -0.00395803 0)
(0.0842297 -0.00255739 0)
(0.0839339 -0.00070242 0)
(0.0835014 0.00154066 0)
(0.0829412 0.00413387 0)
(0.0820239 0.00686705 0)
(0.0809462 0.00969129 0)
(0.0793479 0.0122133 0)
(0.0778358 0.0145974 0)
(0.0757542 0.0159996 0)
(0.074382 0.0176049 0)
(0.0725308 0.0169386 0)
(0.0586847 -0.00315149 0)
(0.0579691 -0.00465214 0)
(0.0580039 -0.00536009 0)
(0.0579123 -0.00567359 0)
(0.0578141 -0.00576477 0)
(0.0577792 -0.00571295 0)
(0.0578663 -0.00546458 0)
(0.0580702 -0.00492291 0)
(0.0583595 -0.00397943 0)
(0.0586504 -0.002575 0)
(0.0588874 -0.000673314 0)
(0.0589556 0.00166793 0)
(0.0588471 0.00438507 0)
(0.0584294 0.00727798 0)
(0.0578253 0.010241 0)
(0.0568777 0.0129027 0)
(0.055966 0.0153206 0)
(0.0549731 0.0166836 0)
(0.0543169 0.0181463 0)
(0.0548114 0.0169116 0)
(0.0276904 -0.00318943 0)
(0.0300938 -0.00531793 0)
(0.0319954 -0.00590035 0)
(0.0330421 -0.0060318 0)
(0.0337641 -0.00602794 0)
(0.0343714 -0.00596106 0)
(0.0349957 -0.00573338 0)
(0.0356664 -0.00521148 0)
(0.0363651 -0.00426809 0)
(0.0370318 -0.00282945 0)
(0.0376178 -0.000862823 0)
(0.0380438 0.00158093 0)
(0.0382964 0.00441515 0)
(0.0383095 0.00744232 0)
(0.0381704 0.0105053 0)
(0.037862 0.0132394 0)
(0.0376228 0.0156045 0)
(0.0377335 0.0168026 0)
(0.0379461 0.0179399 0)
(0.0406901 0.016137 0)
(0.0084161 -0.00507642 0)
(0.0115246 -0.00686443 0)
(0.0135773 -0.00683203 0)
(0.0145606 -0.00660575 0)
(0.0152954 -0.00645951 0)
(0.0159869 -0.00636592 0)
(0.0167523 -0.0061538 0)
(0.0176001 -0.00564773 0)
(0.0184964 -0.00470126 0)
(0.0193822 -0.00322967 0)
(0.0202088 -0.00120408 0)
(0.0209155 0.00132453 0)
(0.0214879 0.00424933 0)
(0.0219043 0.00736835 0)
(0.0222361 0.0104785 0)
(0.0225619 0.0132044 0)
(0.0230172 0.0154307 0)
(0.0241877 0.0163408 0)
(0.0252796 0.0169846 0)
(0.0299257 0.014732 0)
(0.00202902 -0.00649762 0)
(0.00195249 -0.00766424 0)
(0.00254177 -0.00728068 0)
(0.00265492 -0.0068852 0)
(0.00293237 -0.00673131 0)
(0.00340423 -0.00669269 0)
(0.00409735 -0.00654477 0)
(0.00496472 -0.00608618 0)
(0.00594205 -0.00516094 0)
(0.0069586 -0.00368127 0)
(0.00795992 -0.00162431 0)
(0.00889231 0.00095281 0)
(0.00974228 0.00392604 0)
(0.0105122 0.00708468 0)
(0.0112625 0.0101896 0)
(0.0121299 0.0128452 0)
(0.0131587 0.014884 0)
(0.0151507 0.0154715 0)
(0.0169015 0.0155541 0)
(0.0227646 0.0130766 0)
(-0.000693208 -0.00653173 0)
(-0.00313766 -0.00738456 0)
(-0.00436361 -0.00711366 0)
(-0.00522376 -0.00681915 0)
(-0.0054833 -0.00680494 0)
(-0.00528831 -0.00690072 0)
(-0.0047154 -0.00686228 0)
(-0.00386995 -0.00648007 0)
(-0.00284688 -0.00559826 0)
(-0.00173121 -0.00413228 0)
(-0.000584183 -0.00206667 0)
(0.000541844 0.000530741 0)
(0.00163368 0.00352556 0)
(0.00270612 0.00669243 0)
(0.00380734 0.00976416 0)
(0.00510929 0.012328 0)
(0.00657042 0.0141667 0)
(0.00913915 0.014459 0)
(0.0113184 0.0139871 0)
(0.0178388 0.0114472 0)
(-0.00199504 -0.00511803 0)
(-0.00619215 -0.00622293 0)
(-0.00908549 -0.00636434 0)
(-0.0108593 -0.00642609 0)
(-0.0116402 -0.00670104 0)
(-0.01172 -0.00701949 0)
(-0.011272 -0.00714508 0)
(-0.0104548 -0.00687539 0)
(-0.00939149 -0.00606353 0)
(-0.00818108 -0.00463339 0)
(-0.0068932 -0.00257982 0)
(-0.00558013 1.64788e-05 0)
(-0.0042572 0.00301371 0)
(-0.00290705 0.00616713 0)
(-0.00149618 0.00918501 0)
(0.000165902 0.0116472 0)
(0.00194886 0.0132649 0)
(0.00489753 0.0132845 0)
(0.00730936 0.0122458 0)
(0.0140463 0.00974883 0)
(-0.00261897 -0.00304612 0)
(-0.00796777 -0.00441573 0)
(-0.0120847 -0.00514306 0)
(-0.0145613 -0.00575594 0)
(-0.0157545 -0.00644356 0)
(-0.0160564 -0.00706058 0)
(-0.01571 -0.00739842 0)
(-0.0149129 -0.0072745 0)
(-0.0138088 -0.00655766 0)
(-0.0125081 -0.00518426 0)
(-0.0110882 -0.00316201 0)
(-0.00960255 -0.00058188 0)
(-0.00807245 0.00239974 0)
(-0.00648563 0.00552517 0)
(-0.00482407 0.00848082 0)
(-0.00290052 0.0108443 0)
(-0.000924526 0.0122411 0)
(0.00218833 0.0120427 0)
(0.00462448 0.0104584 0)
(0.0111645 0.00807488 0)
(-0.0028837 -0.000662308 0)
(-0.00882678 -0.00220144 0)
(-0.0136071 -0.00361083 0)
(-0.0164957 -0.00489453 0)
(-0.017945 -0.00607628 0)
(-0.0183944 -0.00704486 0)
(-0.0181194 -0.00763097 0)
(-0.0173353 -0.00767949 0)
(-0.0161958 -0.00707901 0)
(-0.0148181 -0.0057804 0)
(-0.0132858 -0.00380487 0)
(-0.011656 -0.0012534 0)
(-0.00995795 0.00170062 0)
(-0.0081891 0.00479192 0)
(-0.00635074 0.00768945 0)
(-0.00427658 0.00996644 0)
(-0.00223287 0.011175 0)
(0.000830733 0.0108233 0)
(0.00309652 0.00874837 0)
(0.0090841 0.00651194 0)
(-0.0028935 0.00183359 0)
(-0.00888297 0.000164737 0)
(-0.0137172 -0.00194996 0)
(-0.0166972 -0.00394407 0)
(-0.0182339 -0.00565064 0)
(-0.0187581 -0.00699468 0)
(-0.0185338 -0.0078493 0)
(-0.0177695 -0.00808848 0)
(-0.0166161 -0.00762085 0)
(-0.0151911 -0.00641177 0)
(-0.0135822 -0.00449532 0)
(-0.0118516 -0.0019829 0)
(-0.0100384 0.000939001 0)
(-0.00815294 0.00399764 0)
(-0.0062186 0.00684993 0)
(-0.00410143 0.00906674 0)
(-0.00210177 0.0101407 0)
(0.00072421 0.00969878 0)
(0.00266391 0.00722571 0)
(0.00781575 0.00512766 0)
(-0.00260238 0.00424374 0)
(-0.00805209 0.0024152 0)
(-0.0123188 -0.000347015 0)
(-0.0150759 -0.0030078 0)
(-0.0165457 -0.00521494 0)
(-0.0170915 -0.00692627 0)
(-0.0169201 -0.00805227 0)
(-0.016207 -0.00849121 0)
(-0.0150853 -0.00816819 0)
(-0.0136656 -0.00706055 0)
(-0.0120357 -0.00521326 0)
(-0.0102639 -0.00274704 0)
(-0.00840022 0.00014105 0)
(-0.0064701 0.00317465 0)
(-0.00451959 0.00600015 0)
(-0.00245483 0.00819302 0)
(-0.00058786 0.00919249 0)
(0.00185792 0.00872591 0)
(0.00336484 0.00598002 0)
(0.00747555 0.00396857 0)
(-0.00179889 0.00632267 0)
(-0.00604649 0.00426945 0)
(-0.00915505 0.00100583 0)
(-0.0114177 -0.0021795 0)
(-0.0127033 -0.00480574 0)
(-0.0132514 -0.00684346 0)
(-0.0131682 -0.00822594 0)
(-0.0125708 -0.00886482 0)
(-0.0115584 -0.00869432 0)
(-0.0102251 -0.00769869 0)
(-0.00865454 -0.00593013 0)
(-0.00691983 -0.00351626 0)
(-0.00508147 -0.000661403 0)
(-0.00318236 0.00235549 0)
(-0.00129014 0.0051735 0)
(0.000643408 0.00738063 0)
(0.00231523 0.00837308 0)
(0.00429664 0.00793865 0)
(0.00531456 0.00507042 0)
(0.00825622 0.00306354 0)
(3.93587e-06 0.00759898 0)
(-0.00232381 0.00546933 0)
(-0.00379861 0.00193898 0)
(-0.00537989 -0.0015286 0)
(-0.00642895 -0.00444005 0)
(-0.00700582 -0.00673337 0)
(-0.00708666 -0.00834054 0)
(-0.00670788 -0.009171 0)
(-0.00591997 -0.0091579 0)
(-0.00478935 -0.00828521 0)
(-0.00338826 -0.00660696 0)
(-0.0017913 -0.00425387 0)
(-6.9059e-05 -0.00143397 0)
(0.00171727 0.00157188 0)
(0.00348225 0.00439911 0)
(0.00522502 0.00665084 0)
(0.00666006 0.0077069 0)
(0.00814961 0.00735723 0)
(0.00867216 0.0045207 0)
(0.010391 0.00242999 0)
(0.00387337 0.00695381 0)
(0.00406979 0.00574233 0)
(0.00435292 0.0023542 0)
(0.00349532 -0.0010844 0)
(0.0026415 -0.00411281 0)
(0.00195361 -0.00656902 0)
(0.0015907 -0.00835413 0)