/*--------------------------------*- C++ -*----------------------------------*\
| =========                 |                                                 |
| \\      /  F ield         | OpenFOAM: The Open Source CFD Toolbox           |
|  \\    /   O peration     | Version:  v1806                                 |
|   \\  /    A nd           | Web:      www.OpenFOAM.com                      |
|    \\/     M anipulation  |                                                 |
\*---------------------------------------------------------------------------*/
FoamFile
{
    version     2.0;
    format      ascii;
    class       volScalarField;
    location    "13";
    object      p;
}
// * * * * * * * * * * * * * * * * * * * * * * * * * * * * * * * * * * * * * //

dimensions      [0 2 -2 0 0 0 0];


internalField   nonuniform List<scalar> 
5028
(
3.02801
3.02811
3.02811
3.02801
3.27508
3.27496
3.27496
3.27508
2.68362
2.68356
2.68356
2.68362
2.66105
2.66093
2.66093
2.66105
4.50929
4.50935
4.50935
4.50929
4.53357
4.53327
4.53327
4.53357
5.01168
5.0115
5.0115
5.01168
5.43976
5.43983
5.43983
5.43976
5.02199
5.02188
5.02188
5.02199
-0.107057
-0.106571
-0.106572
-0.107058
0.377188
0.376421
0.37642
0.377187
1.9644
1.96379
1.96379
1.9644
2.33082
2.33027
2.33026
2.33082
2.16306
2.16242
2.16242
2.16307
1.7004
1.69953
1.69953
1.7004
1.58649
1.58559
1.58559
1.58649
1.43428
1.43346
1.43346
1.43428
1.46731
1.46645
1.46645
1.46731
1.85232
1.85155
1.85155
1.85232
1.70688
1.7059
1.7059
1.70688
-0.245615
-0.245888
-0.245888
-0.245616
-0.483889
-0.483636
-0.483637
-0.483891
-1.0543
-1.0539
-1.0539
-1.05431
0.501517
0.501169
0.501169
0.501517
-0.0146923
-0.0148591
-0.0148594
-0.0146917
1.5389
1.53808
1.53808
1.5389
1.19084
1.19013
1.19013
1.19084
5.24859
5.24854
5.24854
5.24859
5.11063
5.11058
5.11057
5.11063
3.67497
3.67483
3.67483
3.67497
3.99791
3.99794
3.99794
3.99791
3.74352
3.74344
3.74344
3.74352
3.55055
3.55031
3.55031
3.55055
5.23668
5.23661
5.23661
5.23668
5.33273
5.33261
5.33261
5.33273
1.7344
1.73347
1.73347
1.7344
1.25931
1.2587
1.2587
1.25931
3.67063
3.67079
3.67079
3.67063
3.96011
3.95992
3.95992
3.96011
4.699
4.69893
4.69893
4.69899
0.871569
0.870925
0.870925
0.87157
4.83598
4.83616
4.83616
4.83598
0.644018
0.643499
0.6435
0.64402
0.30696
0.306491
0.306491
0.306961
-0.153323
-0.153508
-0.153508
-0.153322
-0.696528
-0.696451
-0.696451
-0.696528
-1.2086
-1.2086
-1.2086
-1.20861
-1.43546
-1.43591
-1.43591
-1.43546
-1.18901
-1.19073
-1.19073
-1.18902
-2.25592
-2.257
-2.257
-2.25593
-2.64462
-2.64476
-2.64476
-2.64463
-2.4545
-2.45409
-2.45409
-2.4545
-1.76463
-1.76395
-1.76395
-1.76463
-0.936407
-0.936065
-0.936065
-0.936407
-0.243465
-0.243579
-0.243578
-0.243465
0.221731
0.221448
0.221449
0.221732
0.644168
0.643728
0.643729
0.644169
0.805339
0.804784
0.804785
0.80534
1.14305
1.14227
1.14227
1.14305
0.375407
0.375135
0.375135
0.375406
0.023185
0.0228866
0.0228866
0.023185
-0.327274
-0.327283
-0.327283
-0.327274
-1.00472
-1.00449
-1.00449
-1.00472
-1.98178
-1.98093
-1.98093
-1.98179
-3.16056
-3.15937
-3.15937
-3.16057
-3.99576
-3.99488
-3.99488
-3.99577
-4.14488
-4.144
-4.144
-4.14489
-3.50817
-3.50797
-3.50797
-3.50818
4.63013
4.63008
4.63008
4.63013
0.979713
0.978992
0.978993
0.979715
0.702556
0.701909
0.701909
0.702557
0.396419
0.395872
0.395872
0.396419
0.0047793
0.00436001
0.00436028
0.00477949
-0.397705
-0.398186
-0.398186
-0.397705
-0.611627
-0.612686
-0.612686
-0.611629
-0.383892
-0.385957
-0.385958
-0.383896
0.284831
0.281487
0.281486
0.284826
-0.332147
-0.335486
-0.335486
-0.332151
-1.14472
-1.14787
-1.14787
-1.14473
-2.02135
-2.02287
-2.02287
-2.02136
4.28855
4.28829
4.28829
4.28855
4.12819
4.12818
4.12818
4.12819
3.80432
3.80408
3.80408
3.80432
3.54571
3.54563
3.54563
3.54571
3.23628
3.23617
3.23617
3.23628
2.94727
2.94731
2.94731
2.94727
2.63502
2.63503
2.63503
2.63502
2.39897
2.39895
2.39895
2.39897
2.44333
2.44338
2.44338
2.44333
2.45791
2.45796
2.45796
2.45791
2.42227
2.42225
2.42225
2.42227
2.68884
2.68889
2.68889
2.68884
2.94278
2.94267
2.94267
2.94278
3.25483
3.25479
3.25479
3.25483
3.52343
3.52323
3.52323
3.52342
3.88682
3.88675
3.88675
3.88682
4.08368
4.08354
4.08354
4.08368
4.63599
4.63592
4.63593
4.63599
4.88733
4.88719
4.88719
4.88733
4.84986
4.84978
4.84978
4.84987
4.98865
4.98859
4.98859
4.98864
5.12502
5.12515
5.12515
5.12502
4.84785
4.84764
4.84764
4.84785
-0.50146
-0.501432
-0.501433
-0.501461
-0.913607
-0.913378
-0.913378
-0.913607
-1.88587
-1.88521
-1.88521
-1.88587
-3.19836
-3.19703
-3.19703
-3.19836
-4.81255
-4.81064
-4.81064
-4.81256
-5.88171
-5.87991
-5.87992
-5.88172
-6.04596
-6.04326
-6.04327
-6.04596
-5.43063
-5.42684
-5.42684
-5.43063
-3.81519
-3.81159
-3.81159
-3.81519
4.67203
4.67193
4.67193
4.67204
4.48403
4.48399
4.48399
4.48403
4.14683
4.14676
4.14675
4.14683
3.81856
3.81859
3.81859
3.81856
3.47507
3.47519
3.47519
3.47507
3.16198
3.16197
3.16197
3.16198
2.86876
2.86874
2.86874
2.86876
2.60846
2.60842
2.60842
2.60846
2.3657
2.36572
2.36572
2.3657
4.67089
4.67102
4.67102
4.67089
4.22721
4.22704
4.22704
4.22721
3.42102
3.42105
3.42105
3.42102
3.11358
3.1135
3.1135
3.11358
2.8449
2.84493
2.84493
2.8449
2.58642
2.58645
2.58645
2.58642
2.341
2.34101
2.34101
2.341
2.12558
2.12558
2.12558
2.12558
2.18513
2.18518
2.18518
2.18514
2.21696
2.21691
2.21691
2.21696
2.22075
2.22072
2.22072
2.22075
2.2031
2.20316
2.20316
2.2031
2.1458
2.1458
2.1458
2.1458
4.54742
4.54754
4.54754
4.54742
4.17458
4.17429
4.17429
4.17458
1.25222
1.25137
1.25137
1.25222
1.05069
1.04991
1.04992
1.05069
0.763336
0.762619
0.762619
0.763337
0.442556
0.441847
0.441847
0.442556
0.113233
0.112443
0.112443
0.113232
-0.0734818
-0.0746784
-0.0746791
-0.0734844
0.0721661
0.0699601
0.0699587
0.0721613
0.597131
0.593845
0.593844
0.597126
1.47833
1.47418
1.47418
1.47832
1.3028
1.2983
1.2983
1.3028
0.91613
0.911202
0.911203
0.916125
0.45947
0.454542
0.454544
0.459466
-0.165123
-0.168389
-0.168388
-0.165127
-1.89979
-1.8971
-1.8971
-1.89979
4.6266
4.62656
4.62656
4.6266
4.93097
4.93091
4.93091
4.93097
-1.00525
-1.00486
-1.00487
-1.00525
-1.65778
-1.6574
-1.6574
-1.65778
-2.82006
-2.81906
-2.81906
-2.82006
-4.51033
-4.50834
-4.50834
-4.51033
-6.77505
-6.77185
-6.77185
-6.77506
-8.36398
-8.35958
-8.35958
-8.36399
-9.20689
-9.2003
-9.2003
-9.20689
-8.83254
-8.82465
-8.82465
-8.83254
-6.97911
-6.97296
-6.97296
-6.97912
-4.86796
-4.86423
-4.86424
-4.86797
4.33594
4.33605
4.33605
4.33594
3.9833
3.983
3.983
3.9833
3.84332
3.84325
3.84325
3.84332
3.52608
3.52579
3.52579
3.52608
3.27017
3.27015
3.27015
3.27017
2.96995
2.96986
2.96986
2.96995
2.72627
2.72629
2.72629
2.72627
2.47386
2.47384
2.47384
2.47386
2.25979
2.25979
2.25979
2.25979
2.04918
2.04917
2.04917
2.04918
4.06652
4.06638
4.06637
4.06652
4.10088
4.10082
4.10082
4.10088
4.11992
4.11998
4.11998
4.11992
3.6965
3.69637
3.69637
3.6965
3.96505
3.96512
3.96512
3.96505
3.46391
3.46388
3.46388
3.46391
3.18984
3.18978
3.18978
3.18984
2.94492
2.9449
2.9449
2.94492
2.68367
2.68366
2.68366
2.68367
2.45246
2.45242
2.45242
2.45246
2.2365
2.23649
2.23649
2.2365
2.02971
2.02972
2.02972
2.02971
1.8509
1.85092
1.85092
1.8509
1.93639
1.93642
1.93642
1.93639
1.99594
1.99594
1.99594
1.99594
2.03456
2.03463
2.03463
2.03456
2.03643
2.03651
2.03651
2.03643
2.00316
2.0032
2.0032
2.00316
1.94753
1.94757
1.94757
1.94753
1.86567
1.8657
1.8657
1.86567
1.43542
1.43458
1.43458
1.43543
1.21229
1.21149
1.21149
1.21229
0.945261
0.944474
0.944474
0.945261
0.64547
0.644622
0.644622
0.645469
0.344503
0.343452
0.343451
0.344501
0.141778
0.140362
0.140361
0.141775
0.158436
0.156289
0.156287
0.158431
0.540994
0.537719
0.537717
0.540989
1.38815
1.38413
1.38413
1.38814
2.58966
2.58563
2.58563
2.58966
2.64301
2.63853
2.63853
2.64301
2.49467
2.48941
2.48941
2.49466
2.20218
2.19589
2.19589
2.20217
1.93235
1.92562
1.92562
1.93235
1.6237
1.61731
1.61731
1.62369
0.0148141
0.016815
0.0168174
0.0148171
-3.56315
-3.55426
-3.55426
-3.56314
-5.22461
-5.22235
-5.22236
-5.22462
-5.9319
-5.93048
-5.93048
-5.93191
-8.25898
-8.25574
-8.25574
-8.25899
-10.842
-10.8381
-10.8381
-10.842
-11.5024
-11.4989
-11.4989
-11.5024
-10.4922
-10.4889
-10.4889
-10.4922
-8.35952
-8.35655
-8.35655
-8.35952
-5.58147
-5.57936
-5.57936
-5.58147
-3.60432
-3.60309
-3.60309
-3.60432
-2.33827
-2.33766
-2.33766
-2.33827
-1.52892
-1.52842
-1.52842
-1.52892
3.91781
3.91425
3.91425
3.91781
3.92581
3.92177
3.92177
3.92581
3.73609
3.73086
3.73086
3.73609
3.45453
3.44719
3.44719
3.45452
3.35412
3.3445
3.3445
3.35411
3.25405
3.24605
3.24605
3.25405
1.87057
1.87116
1.87116
1.87057
-1.42116
-1.41139
-1.41139
-1.42115
-3.17841
-3.176
-3.176
-3.17841
1.59963
1.59872
1.59872
1.59963
1.44503
1.44404
1.44404
1.44503
1.26657
1.26556
1.26556
1.26657
1.02795
1.02699
1.02699
1.02795
0.717988
0.717072
0.717072
0.717987
0.362711
0.361708
0.361708
0.36271
0.0373412
0.0359777
0.0359766
0.0373384
-0.121464
-0.12347
-0.123472
-0.121468
0.11608
0.112908
0.112906
0.116075
0.922949
0.918867
0.918865
0.922945
2.25541
2.25122
2.25122
2.2554
3.86291
3.85958
3.85958
3.86291
1.74998
1.75002
1.75002
1.74998
1.93102
1.93101
1.93101
1.93102
2.11638
2.11638
2.11638
2.11638
2.31832
2.3183
2.3183
2.31832
2.54254
2.54254
2.54254
2.54254
2.7628
2.76277
2.76277
2.7628
3.02181
3.02179
3.02179
3.02181
3.25466
3.2545
3.2545
3.25466
3.47653
3.4765
3.4765
3.47653
3.62711
3.62693
3.62693
3.62711
3.77058
3.7706
3.7706
3.77058
3.28818
3.28822
3.28822
3.28817
3.49637
3.49626
3.49626
3.49637
3.62354
3.62357
3.62357
3.62354
3.51583
3.51587
3.51587
3.51583
3.32878
3.32868
3.32868
3.32878
3.15257
3.15249
3.15249
3.15257
2.93003
2.92988
2.92988
2.93003
2.71826
2.71826
2.71826
2.71826
2.49011
2.49014
2.49014
2.49011
2.28544
2.28542
2.28542
2.28543
2.08954
2.08948
2.08948
2.08954
1.91399
1.91401
1.91401
1.91399
1.73477
1.73476
1.73476
1.73477
1.58455
1.58459
1.58459
1.58455
1.68614
1.68616
1.68616
1.68614
1.76915
1.76917
1.76917
1.76915
1.82573
1.82577
1.82577
1.82573
1.85137
1.85133
1.85133
1.85137
1.85218
1.85217
1.85217
1.85218
1.83171
1.83177
1.83177
1.83171
1.77771
1.77774
1.77774
1.77771
1.69832
1.69834
1.69834
1.69832
1.59935
1.59937
1.59937
1.59935
1.47398
1.47396
1.47396
1.47398
1.62448
1.62455
1.62455
1.62448
1.76641
1.76639
1.76639
1.76641
1.95606
1.95608
1.95608
1.95606
2.10703
2.10691
2.10691
2.10703
2.33193
2.33199
2.33199
2.33193
2.47622
2.47604
2.47604
2.47622
2.74086
2.74091
2.74091
2.74086
2.8505
2.85017
2.85017
2.8505
3.08102
3.08103
3.08103
3.08102
2.99911
2.99868
2.99868
2.99911
3.24412
3.24414
3.24414
3.24412
2.51289
2.51234
2.51235
2.51289
2.73816
2.73821
2.73821
2.73816
1.53331
1.53312
1.53312
1.53331
2.60258
2.60239
2.60239
2.60258
2.97
2.96988
2.96988
2.97
3.00466
3.00462
3.00462
3.00466
2.9205
2.9204
2.9204
2.9205
2.77751
2.7774
2.7774
2.77751
2.63868
2.63861
2.63861
2.63868
2.45024
2.45017
2.45017
2.45024
2.27331
2.27336
2.27336
2.27331
2.08626
2.08621
2.08621
2.08626
1.9202
1.92023
1.92023
1.9202
1.75365
1.75358
1.75358
1.75365
1.60858
1.60862
1.60862
1.60858
1.46004
1.46
1.46
1.46004
1.34312
1.34318
1.34318
1.34312
1.45315
1.45314
1.45314
1.45315
1.55093
1.55096
1.55096
1.55093
1.6252
1.62521
1.62521
1.6252
1.67646
1.67644
1.67644
1.67646
1.70777
1.70781
1.70781
1.70777
1.70808
1.70811
1.70811
1.70808
1.67903
1.679
1.679
1.67903
1.63155
1.63154
1.63154
1.63155
1.55765
1.55768
1.55768
1.55765
1.4603
1.46036
1.46036
1.4603
1.35199
1.35206
1.35206
1.35199
1.92214
1.92131
1.92131
1.92214
1.75485
1.75394
1.75394
1.75485
1.63214
1.63127
1.63127
1.63214
1.44189
1.44097
1.44097
1.44189
1.21423
1.21336
1.21336
1.21423
0.921166
0.920253
0.920253
0.921166
0.552911
0.551988
0.551989
0.552912
0.0955002
0.0943222
0.0943223
0.0955006
-0.43213
-0.433662
-0.433663
-0.432132
-0.903009
-0.905088
-0.905091
-0.903014
-0.919401
-0.922907
-0.922912
-0.919409
-0.106032
-0.110305
-0.11031
-0.106041
1.47968
1.47555
1.47555
1.47967
3.84472
3.84152
3.84151
3.84472
4.36241
4.35777
4.35776
4.3624
4.62399
4.62048
4.62048
4.624
5.01496
5.01221
5.01221
5.01497
5.18702
5.18412
5.18413
5.18703
4.91848
4.91427
4.91427
4.91848
4.33535
4.32785
4.32785
4.33534
3.8432
3.82912
3.82912
3.84318
3.67363
3.66078
3.66078
3.67362
3.14041
3.13219
3.13219
3.1404
1.74887
1.75008
1.75008
1.74887
0.149881
0.152788
0.152792
0.149884
-0.448518
-0.449121
-0.449121
-0.448524
-1.96315
-1.96757
-1.96757
-1.96316
-4.58695
-4.59043
-4.59043
-4.58696
-5.63348
-5.6335
-5.6335
-5.63349
-7.4966
-7.49502
-7.49502
-7.4966
-10.2791
-10.2763
-10.2763
-10.2791
-11.4355
-11.4335
-11.4335
-11.4355
-10.6559
-10.6541
-10.6541
-10.6559
-8.6696
-8.66766
-8.66766
-8.66961
-5.95156
-5.9498
-5.9498
-5.95156
-3.88691
-3.88592
-3.88592
-3.88691
-2.61208
-2.61114
-2.61114
-2.61208
-1.58981
-1.58914
-1.58914
-1.58981
-1.04019
-1.03986
-1.03986
-1.04019
-0.534572
-0.534436
-0.534437
-0.534573
-0.0524423
-0.0524769
-0.0524785
-0.0524473
-1.09436
-1.09391
-1.09391
-1.09436
-1.5054
-1.50484
-1.50484
-1.5054
-2.53603
-2.53536
-2.53536
-2.53603
-3.71489
-3.71393
-3.71393
-3.71488
-5.48275
-5.48151
-5.48151
-5.48274
-7.72148
-7.71997
-7.71997
-7.72148
-9.53099
-9.52971
-9.52971
-9.53099
-10.3471
-10.3455
-10.3455
-10.3471
-9.50051
-9.49772
-9.49772
-9.50051
-6.89641
-6.895
-6.895
-6.89642
-5.48207
-5.48101
-5.48101
-5.48208
-4.22348
-4.21922
-4.21922
-4.22348
-2.17443
-2.16785
-2.16785
-2.17442
-1.20786
-1.20469
-1.20469
-1.20786
3.57423
3.56867
3.56866
3.57422
4.99757
4.99483
4.99482
4.99758
6.17092
6.17004
6.17005
6.17093
6.6478
6.6475
6.64751
6.64781
6.27792
6.27658
6.27658
6.27792
5.16318
5.15843
5.15843
5.16318
3.74126
3.73212
3.73212
3.74125
3.22819
3.21636
3.21636
3.22818
2.89075
2.88176
2.88177
2.89074
2.31313
2.30666
2.30666
2.31312
1.427
1.42312
1.42312
1.427
0.346834
0.344587
0.344587
0.346825
-0.0642909
-0.066081
-0.0660828
-0.0642959
1.22027
1.22028
1.22028
1.22027
1.33652
1.33657
1.33657
1.33652
1.459
1.45902
1.45902
1.459
1.59775
1.59779
1.59779
1.59775
1.74668
1.74671
1.74671
1.74668
1.90028
1.90034
1.90034
1.90028
2.07658
2.07656
2.07656
2.07658
2.21058
2.21056
2.21056
2.21058
2.39409
2.39407
2.39407
2.39409
2.50772
2.5076
2.5076
2.50772
2.63002
2.62987
2.62987
2.63002
2.61111
2.61093
2.61093
2.61111
2.5726
2.57229
2.57229
2.5726
2.3182
2.31819
2.31819
2.3182
2.40372
2.40373
2.40373
2.40372
2.21526
2.21501
2.21501
2.21526
2.59897
2.59912
2.59912
2.59897
2.41307
2.41278
2.41278
2.41307
2.42596
2.42609
2.42609
2.42596
2.28297
2.28272
2.28272
2.28297
2.16921
2.16922
2.16922
2.16921
2.00913
2.00907
2.00907
2.00913
1.86447
1.86448
1.86448
1.86447
1.71152
1.71149
1.71149
1.71152
1.57256
1.57257
1.57257
1.57256
1.44255
1.4425
1.4425
1.44255
1.3193
1.31933
1.31933
1.3193
1.20921
1.20919
1.20919
1.20921
1.11337
1.11336
1.11336
1.11337
1.23382
1.23374
1.23374
1.23382
1.34471
1.34469
1.34469
1.34471
1.4324
1.43232
1.43232
1.4324
1.50189
1.50182
1.50182
1.50189
1.54852
1.54853
1.54853
1.54852
1.56901
1.56893
1.56893
1.56901
1.56994
1.56987
1.56987
1.56994
1.552
1.55194
1.55194
1.552
1.5066
1.50656
1.50656
1.5066
1.43921
1.43919
1.43919
1.43921
1.353
1.35301
1.35301
1.353
1.23888
1.23881
1.23881
1.23888
1.58008
1.57912
1.57912
1.58008
1.44971
1.44881
1.44881
1.44971
1.20383
1.20284
1.20284
1.20383
0.999966
0.998912
0.998912
0.999966
0.751215
0.75018
0.750181
0.751217
0.315204
0.314258
0.314259
0.315206
-0.347809
-0.34892
-0.34892
-0.347808
-1.24816
-1.24968
-1.24968
-1.24817
-2.10576
-2.1078
-2.1078
-2.10577
-2.3497
-2.35312
-2.35313
-2.34972
-1.38694
-1.39111
-1.39112
-1.38696
0.621771
0.617766
0.61776
0.621761
3.75038
3.74692
3.74691
3.75038
4.59173
4.58632
4.58631
4.59172
3.50015
3.49366
3.49365
3.50013
1.11992
1.11989
1.11989
1.11992
0.995312
0.994597
0.994597
0.995312
0.938292
0.937893
0.937892
0.93829
1.5917
1.59251
1.59251
1.5917
1.99789
1.99832
1.99832
1.99789
0.387571
0.386425
0.386426
0.387573
0.637816
0.63637
0.63637
0.637818
0.357858
0.357021
0.357021
0.357858
0.761979
0.762034
0.762034
0.761977
0.916657
0.916359
0.916358
0.916654
0.278628
0.278614
0.278614
0.278627
-0.653741
-0.653354
-0.653353
-0.653739
-1.23324
-1.23276
-1.23276
-1.23323
-2.14245
-2.14175
-2.14175
-2.14245
-3.05044
-3.04968
-3.04968
-3.05044
-4.35142
-4.35052
-4.35052
-4.35142
-5.95086
-5.95007
-5.95007
-5.95086
-7.62106
-7.62079
-7.62079
-7.62106
-8.72812
-8.72775
-8.72775
-8.72812
-8.48332
-8.48211
-8.48211
-8.48332
-6.16497
-6.16258
-6.16259
-6.16498
-4.83058
-4.82912
-4.82912
-4.83059
-5.44569
-5.44399
-5.44399
-5.4457
-5.56105
-5.55412
-5.55412
-5.56104
-2.66405
-2.65724
-2.65724
-2.66404
-0.395163
-0.392422
-0.392419
-0.395153
1.5469
1.54254
1.54253
1.54689
2.50115
2.49792
2.49792
2.50115
5.5687
5.56809
5.56809
5.56872
7.71076
7.71304
7.71305
7.71078
8.47216
8.4755
8.47551
8.47218
7.97896
7.98135
7.98136
7.97897
6.25933
6.25811
6.25811
6.25934
3.78704
3.78023
3.78024
3.78703
2.68849
2.67759
2.67759
2.68848
2.60669
2.59808
2.59808
2.60669
2.22597
2.21886
2.21887
2.22597
1.58725
1.58247
1.58248
1.58724
0.866902
0.864505
0.864506
0.866896
0.468195
0.464017
0.464017
0.468188
0.323838
0.321061
0.321061
0.323834
0.302492
0.302021
0.30202
0.302491
0.0542797
0.0531612
0.0531607
0.0542782
1.2391
1.23916
1.23916
1.2391
1.55422
1.55378
1.55378
1.55422
1.87383
1.87377
1.87377
1.87383
2.01812
2.01812
2.01812
2.01812
2.0271
2.02704
2.02704
2.0271
2.03001
2.02997
2.02997
2.03001
1.94235
1.94217
1.94217
1.94235
1.85479
1.85478
1.85478
1.85479
1.72534
1.72525
1.72525
1.72534
1.61094
1.61098
1.61098
1.61094
1.48245
1.48241
1.48241
1.48245
1.36668
1.3667
1.3667
1.36668
1.25854
1.2585
1.2585
1.25854
1.15252
1.15255
1.15255
1.15252
1.0596
1.05958
1.05958
1.0596
0.97737
0.977378
0.977378
0.97737
0.907794
0.907685
0.907685
0.907794
1.03664
1.03651
1.03651
1.03664
1.1535
1.15348
1.15348
1.1535
1.25008
1.25
1.25
1.25008
1.33458
1.33454
1.33454
1.33458
1.39579
1.39575
1.39575
1.39579
1.43787
1.43779
1.43779
1.43787
1.46473
1.46475
1.46475
1.46473
1.4642
1.46418
1.46418
1.4642
1.44096
1.44091
1.44091
1.44096
1.40136
1.40127
1.40127
1.40136
1.33877
1.33868
1.33868
1.33877
1.25356
1.25353
1.25353
1.25356
1.1551
1.1551
1.1551
1.1551
1.03976
1.03973
1.03973
1.03976
0.912245
0.91217
0.91217
0.912245
0.986669
0.986711
0.986711
0.986669
1.06609
1.06615
1.06615
1.06609
1.17099
1.17107
1.17107
1.17098
1.27007
1.2701
1.2701
1.27007
1.39772
1.39778
1.39778
1.39772
1.51931
1.51928
1.51928
1.51931
1.65213
1.65217
1.65217
1.65213
1.79652
1.79646
1.79646
1.79652
1.90693
1.90689
1.90689
1.90693
2.04926
2.04929
2.04929
2.04926
2.13477
2.13461
2.13461
2.13477
2.21791
2.21787
2.21787
2.21791
2.2175
2.21724
2.21724
2.2175
2.12597
2.12586
2.12586
2.12597
2.03701
2.03703
2.03703
2.03701
1.45224
1.45199
1.45199
1.45224
1.6715
1.67114
1.67113
1.6715
1.73624
1.73597
1.73597
1.73624
0.38921
0.38822
0.388219
0.389208
2.00621
2.00622
2.00622
2.0062
3.33226
3.3322
3.3322
3.33226
2.24365
2.24355
2.24355
2.24365
1.75219
1.7516
1.7516
1.75219
1.99752
1.99673
1.99673
1.99753
2.04093
2.04028
2.04028
2.04093
1.55962
1.55896
1.55895
1.55962
1.26781
1.26709
1.26709
1.26781
1.01744
1.01662
1.01662
1.01744
0.810598
0.809721
0.809722
0.810599
0.478703
0.477769
0.47777
0.478705
-0.130494
-0.131237
-0.131237
-0.130493
-1.06332
-1.06432
-1.06432
-1.06332
-2.3281
-2.32951
-2.32951
-2.3281
-3.55084
-3.55274
-3.55274
-3.55085
-4.22352
-4.22676
-4.22677
-4.22354
-3.43519
-3.43962
-3.43963
-3.43521
-1.41591
-1.42027
-1.42028
-1.41592
1.56326
1.55941
1.5594
1.56325
3.36054
3.35507
3.35506
3.36053
2.50322
2.49683
2.49682
2.5032
1.24672
1.24374
1.24374
1.24672
0.770459
0.770417
0.770417
0.770458
0.833347
0.833401
0.833401
0.833347
0.900118
0.90018
0.90018
0.900118
0.985164
0.985231
0.985231
0.985164
1.06832
1.06834
1.06834
1.06832
1.17389
1.17392
1.17392
1.17389
1.27032
1.27027
1.27027
1.27032
1.38211
1.38207
1.38207
1.38211
1.49469
1.49462
1.49462
1.49469
1.58241
1.58236
1.58236
1.58241
1.69984
1.6998
1.6998
1.69984
1.74881
1.7486
1.7486
1.74881
1.82245
1.82244
1.82244
1.82245
1.8175
1.81721
1.81721
1.8175
1.75255
1.75239
1.75239
1.75255
1.69721
1.69713
1.69713
1.69721
1.4403
1.43988
1.43988
1.4403
1.48861
1.48838
1.48838
1.48861
1.73519
1.73526
1.73526
1.73518
2.22566
2.22527
2.22527
2.22565
2.73452
2.73367
2.73366
2.73451
2.29064
2.29039
2.29039
2.29064
0.997973
0.997294
0.997295
0.997976
1.29884
1.29768
1.29768
1.29884
1.30791
1.307
1.307
1.3079
0.993033
0.991967
0.991967
0.993032
0.831369
0.830283
0.830284
0.83137
0.670113
0.66918
0.669181
0.670115
0.49018
0.489337
0.489338
0.490182
0.138977
0.138097
0.138098
0.138978
-0.448999
-0.449712
-0.449712
-0.448999
-1.53067
-1.53126
-1.53127
-1.53067
-3.12656
-3.12747
-3.12748
-3.12657
-4.7275
-4.72862
-4.72862
-4.72751
-6.01425
-6.01625
-6.01626
-6.01426
-6.08314
-6.08633
-6.08634
-6.08315
-5.19975
-5.20368
-5.20368
-5.19976
-2.47263
-2.4746
-2.4746
-2.47263
1.05899
1.05452
1.05451
1.05898
0.883388
0.878822
0.878813
0.883376
0.748222
0.746007
0.746003
0.748219
1.16561
1.1656
1.1656
1.16561
1.16063
1.16092
1.16092
1.16064
0.207336
0.206822
0.206823
0.20734
2.0451
2.04477
2.04477
2.04511
6.72305
6.72543
6.72544
6.72308
9.80335
9.80883
9.80884
9.80338
10.7416
10.7495
10.7495
10.7417
10.3077
10.3165
10.3165
10.3077
7.92949
7.93508
7.93509
7.92951
4.26783
4.26795
4.26796
4.26784
2.51528
2.50931
2.50931
2.51527
2.65908
2.65166
2.65166
2.65907
2.14331
2.13564
2.13564
2.1433
1.75903
1.75301
1.75301
1.75903
1.8013
1.79946
1.79946
1.8013
0.757052
0.753349
0.75335
0.757048
0.166228
0.161812
0.161812
0.16622
0.293244
0.292833
0.292833
0.293242
-0.0806459
-0.0815746
-0.081573
-0.0806461
-0.959822
-0.957609
-0.957604
-0.959816
-2.46357
-2.46279
-2.46278
-2.46357
-4.42281
-4.42582
-4.42582
-4.42282
-4.73016
-4.73142
-4.73142
-4.73017
-4.23774
-4.23646
-4.23646
-4.23774
-5.4
-5.39826
-5.39826
-5.4
-7.04222
-7.04229
-7.04229
-7.04223
-6.90407
-6.90474
-6.90474
-6.90407
-5.50586
-5.50613
-5.50613
-5.50585
-4.18808
-4.18754
-4.18754
-4.18808
-3.18847
-3.18783
-3.18783
-3.18847
-2.42425
-2.42375
-2.42375
-2.42425
-1.81855
-1.81821
-1.81821
-1.81855
-1.34477
-1.34439
-1.34439
-1.34477
-0.996939
-0.996468
-0.996467
-0.996937
-0.697137
-0.696677
-0.696677
-0.697135
-0.379153
-0.378723
-0.378723
-0.379153
-0.349419
-0.34795
-0.34795
-0.349421
0.435296
0.435741
0.435741
0.435294
0.768481
0.768275
0.768276
0.768482
0.162037
0.16111
0.161111
0.162038
0.707231
0.707512
0.707514
0.707231
0.851482
0.851031
0.851032
0.851482
1.1592
1.15911
1.15912
1.1592
1.33069
1.33057
1.33058
1.33069
1.50462
1.50446
1.50446
1.50462
1.62217
1.62225
1.62225
1.62217
1.62851
1.62828
1.62828
1.62851
1.65576
1.65578
1.65578
1.65576
1.58742
1.58718
1.58718
1.58742
1.53695
1.53699
1.53699
1.53695
1.42494
1.4248
1.4248
1.42494
1.34526
1.34531
1.34531
1.34526
1.2373
1.2372
1.2372
1.2373
1.14735
1.14736
1.14736
1.14735
1.05494
1.05489
1.05489
1.05494
0.968648
0.968676
0.968676
0.968648
0.887585
0.88762
0.88762
0.887585
0.824436
0.824417
0.824417
0.824436
0.766231
0.766157
0.766157
0.766231
0.717885
0.71789
0.71789
0.717885
0.851499
0.851503
0.851503
0.851499
0.97083
0.970798
0.970798
0.97083
1.07782
1.07771
1.07771
1.07782
1.17475
1.17473
1.17473
1.17475
1.24947
1.24938
1.24938
1.24947
1.30975
1.30965
1.30965
1.30975
1.35062
1.35057
1.35057
1.35062
1.36627
1.36618
1.36618
1.36627
1.36777
1.3677
1.3677
1.36777
1.35109
1.35108
1.35108
1.35109
1.31297
1.31293
1.31293
1.31297
1.25667
1.25661
1.25661
1.25667
1.17997
1.17994
1.17994
1.17997
1.08057
1.08048
1.08048
1.08057
0.973255
0.973182
0.973182
0.973255
0.853754
0.853706
0.853706
0.853754
0.724513
0.724433
0.724433
0.724513
-0.292742
-0.294563
-0.294565
-0.29275
-0.226593
-0.229799
-0.229801
-0.226602
-0.812782
-0.812685
-0.812687
-0.812788
-1.40767
-1.40532
-1.40533
-1.40767
-1.7281
-1.7263
-1.7263
-1.7281
-2.63461
-2.63219
-2.63219
-2.63461
-3.21327
-3.2117
-3.2117
-3.21327
-4.23524
-4.2342
-4.2342
-4.23524
-5.32771
-5.32778
-5.32778
-5.32771
-4.89882
-4.89957
-4.89957
-4.89882
-3.55365
-3.55361
-3.55361
-3.55365
-2.58159
-2.58077
-2.58077
-2.58159
-2.03678
-2.03608
-2.03608
-2.03678
-1.7478
-1.74726
-1.74726
-1.7478
-1.25482
-1.25442
-1.25442
-1.25482
-1.05522
-1.0547
-1.0547
-1.05522
-0.712112
-0.711652
-0.711651
-0.71211
-0.471054
-0.470678
-0.470678
-0.471052
-0.124648
-0.124477
-0.124477
-0.124649
0.429572
0.430026
0.430026
0.429571
1.18389
1.18439
1.18439
1.18389
1.5556
1.55489
1.55489
1.5556
0.808831
0.808238
0.808239
0.808831
0.724636
0.724317
0.724317
0.724636
0.631921
0.631315
0.631316
0.631921
0.953045
0.952918
0.952919
0.953045
1.03782
1.03741
1.03741
1.03782
1.18223
1.18215
1.18215
1.18223
1.25956
1.25957
1.25957
1.25956
1.26604
1.26592
1.26592
1.26604
1.29622
1.29624
1.29624
1.29622
1.23778
1.23761
1.23761
1.23778
1.21167
1.2117
1.2117
1.21167
1.12164
1.12152
1.12152
1.12164
1.06687
1.06691
1.06691
1.06687
0.975929
0.975832
0.975832
0.975929
0.91364
0.913652
0.913652
0.91364
0.830363
0.830296
0.830296
0.830364
0.774559
0.774626
0.774626
0.774559
0.69898
0.698982
0.698982
0.69898
0.658841
0.658839
0.658839
0.658841
0.607055
0.606975
0.606975
0.607055
0.575789
0.575813
0.575813
0.575789
0.531447
0.531533
0.531533
0.531447
0.671058
0.671105
0.671105
0.671058
0.798656
0.798642
0.798642
0.798656
0.917682
0.917617
0.917617
0.917682
1.02501
1.02499
1.02499
1.02501
1.10934
1.10926
1.10926
1.10934
1.1868
1.18672
1.18672
1.1868
1.24228
1.24218
1.24218
1.24228
1.2785
1.27839
1.27839
1.2785
1.30173
1.30169
1.30169
1.30173
1.29976
1.2997
1.2997
1.29976
1.27882
1.27882
1.27882
1.27882
1.24227
1.24223
1.24223
1.24227
1.18666
1.18663
1.18663
1.18666
1.11362
1.11356
1.11356
1.11362
1.02873
1.0287
1.0287
1.02873
0.926087
0.926025
0.926025
0.926087
0.807868
0.807784
0.807784
0.807868
0.681328
0.681226
0.681226
0.681328
0.544619
0.54457
0.54457
0.544619
0.574727
0.574665
0.574665
0.574727
0.617458
0.617489
0.617489
0.617458
0.664536
0.664547
0.664547
0.664536
0.720152
0.720209
0.720209
0.720152
0.784066
0.784051
0.784051
0.784066
0.850808
0.85084
0.85084
0.850808
0.933793
0.933751
0.933751
0.933793
1.00792
1.00788
1.00788
1.00792
1.09679
1.09676
1.09676
1.09679
1.18278
1.18271
1.18271
1.18278
1.25173
1.25172
1.25172
1.25173
1.34363
1.34361
1.34361
1.34363
1.37612
1.37603
1.37603
1.37612
1.43411
1.43411
1.43411
1.43411
1.43712
1.43705
1.43705
1.43712
1.38647
1.38629
1.38629
1.38647
1.39974
1.39984
1.39984
1.39974
1.24891
1.24848
1.24848
1.24891
1.38142
1.38144
1.38144
1.38142
1.45539
1.45477
1.45477
1.45539
1.96158
1.96124
1.96124
1.96158
2.76532
2.76526
2.76526
2.76532
3.30598
3.30606
3.30606
3.30598
2.31862
2.31849
2.31849
2.31862
1.55633
1.55617
1.55617
1.55633
0.887936
0.887508
0.887508
0.887935
0.625146
0.624669
0.624669
0.625146
0.480556
0.480087
0.480088
0.480557
0.414844
0.41422
0.41422
0.414846
0.445358
0.444871
0.444872
0.445359
0.105527
0.105223
0.105223
0.105528
-0.592798
-0.593066
-0.593065
-0.592798
-1.7341
-1.73435
-1.73435
-1.7341
-3.36065
-3.36107
-3.36107
-3.36066
-4.88753
-4.88775
-4.88775
-4.88753
-6.01313
-6.01381
-6.01381
-6.01313
-6.24489
-6.24661
-6.24661
-6.24489
-5.95791
-5.9602
-5.9602
-5.95791
-3.44201
-3.44267
-3.44267
-3.44201
-0.0427047
-0.043927
-0.0439282
-0.0427072
0.614922
0.613823
0.613822
0.614924
0.949716
0.948488
0.948487
0.949717
0.82662
0.826461
0.82646
0.826616
1.29713
1.29589
1.29589
1.29712
1.22014
1.21878
1.21878
1.22014
1.53224
1.53403
1.53404
1.53225
1.34567
1.34987
1.34988
1.34569
3.86583
3.87045
3.87047
3.86586
8.89078
8.89612
8.89614
8.89081
12.5165
12.5245
12.5245
12.5165
13.8716
13.8817
13.8817
13.8716
12.6405
12.6514
12.6514
12.6405
9.42702
9.4378
9.43781
9.42706
5.1922
5.19862
5.19863
5.19221
3.04369
3.04369
3.04369
3.04369
2.70778
2.70292
2.70292
2.70777
1.88776
1.88135
1.88135
1.88775
1.68327
1.67701
1.67701
1.68326
2.02197
2.01785
2.01785
2.02197
0.780347
0.777049
0.777049
0.780337
0.21073
0.207667
0.207667
0.210721
0.578326
0.577174
0.577172
0.578325
-0.0239342
-0.0239683
-0.0239689
-0.0239381
0.399087
0.399079
0.399079
0.399087
0.417391
0.417363
0.417363
0.417392
0.450012
0.450081
0.450081
0.450012
0.481311
0.481293
0.481293
0.481311
0.527952
0.527992
0.527992
0.527952
0.570477
0.570438
0.570438
0.570477
0.622594
0.622602
0.622602
0.622593
0.678816
0.678765
0.678765
0.678816
0.734793
0.734787
0.734787
0.734793
0.793445
0.793462
0.793462
0.793445
0.861749
0.861694
0.861694
0.861748
0.909196
0.909199
0.909198
0.909196
0.976005
0.97597
0.975969
0.976004
1.00004
1.00005
1.00005
1.00004
1.03452
1.03445
1.03445
1.03452
1.05326
1.05325
1.05325
1.05326
1.00827
1.00807
1.00807
1.00827
1.0628
1.06289
1.06289
1.0628
0.991055
0.990694
0.990694
0.991054
1.1119
1.11175
1.11175
1.1119
1.1828
1.18246
1.18246
1.1828
1.436
1.43595
1.43595
1.436
1.71333
1.71295
1.71295
1.71333
1.7072
1.70649
1.70649
1.7072
1.14487
1.14416
1.14416
1.14486
0.861347
0.861033
0.861033
0.861346
0.0589913
0.0584895
0.0584895
0.0589909
-0.278656
-0.279363
-0.279363
-0.278656
-0.162268
-0.162916
-0.162916
-0.162267
-0.0154185
-0.0161984
-0.016198
-0.0154174
0.196699
0.19604
0.19604
0.1967
0.0142312
0.0139732
0.0139736
0.0142318
-0.521725
-0.521761
-0.521761
-0.521726
-1.38337
-1.38312
-1.38312
-1.38337
-2.59387
-2.59362
-2.59362
-2.59387
-3.51208
-3.51171
-3.51172
-3.51209
-3.99255
-3.99237
-3.99237
-3.99256
-4.09098
-4.09156
-4.09156
-4.09098
-3.41287
-3.41391
-3.41391
-3.41287
-2.28581
-2.28622
-2.28622
-2.28581
-0.535556
-0.535304
-0.535303
-0.535553
0.231694
0.232641
0.232645
0.2317
0.76186
0.76322
0.763223
0.761868
1.08009
1.08264
1.08264
1.0801
1.9257
1.92488
1.92487
1.9257
1.36063
1.358
1.358
1.36062
0.907055
0.905487
0.905481
0.907049
1.28787
1.28751
1.28751
1.28786
2.55002
2.55119
2.55119
2.55003
3.28137
3.28451
3.28452
3.28139
5.89064
5.89461
5.89462
5.89067
10.5936
10.5974
10.5974
10.5936
13.4364
13.4426
13.4426
13.4364
14.1234
14.132
14.132
14.1234
13.483
13.4926
13.4927
13.4831
11.1298
11.141
11.141
11.1298
7.0616
7.07356
7.07356
7.06163
4.07381
4.07956
4.07956
4.07382
3.01824
3.01724
3.01724
3.01823
1.97751
1.97435
1.97435
1.9775
1.48076
1.47579
1.47579
1.48076
1.51782
1.51185
1.51185
1.51781
0.609046
0.606031
0.60603
0.609036
0.143277
0.141859
0.141858
0.14327
0.292488
0.29085
0.29085
0.292486
0.235539
0.235041
0.23504
0.235539
0.499867
0.500267
0.500268
0.499869
-0.107394
-0.107099
-0.107098
-0.107395
-0.369409
-0.373398
-0.3734
-0.369418
0.0743907
0.0723632
0.0723617
0.0743855
-0.830599
-0.823572