/*--------------------------------*- C++ -*----------------------------------*\
| =========                 |                                                 |
| \\      /  F ield         | OpenFOAM: The Open Source CFD Toolbox           |
|  \\    /   O peration     | Version:  v1806                                 |
|   \\  /    A nd           | Web:      www.OpenFOAM.com                      |
|    \\/     M anipulation  |                                                 |
\*---------------------------------------------------------------------------*/
FoamFile
{
    version     2.0;
    format      ascii;
    class       volScalarField;
    location    "480";
    object      p;
}
// * * * * * * * * * * * * * * * * * * * * * * * * * * * * * * * * * * * * * //

dimensions      [0 2 -2 0 0 0 0];


internalField   nonuniform List<scalar> 
4400
(
-0.00556272
0.00451289
0.0038706
0.00257482
0.0020895
0.00186319
0.00169583
0.00155222
0.00141745
0.00128495
0.00115343
0.00102327
0.000894874
0.000768386
0.000643807
0.000521074
0.000400164
0.000281103
0.000162745
4.46863e-05
0.0209018
0.013994
0.00940511
0.00666427
0.00517228
0.00425295
0.00358739
0.00306596
0.0026411
0.00228379
0.00197463
0.00170059
0.0014527
0.00122459
0.00101163
0.000810387
0.0006183
0.000433307
0.000252576
7.53333e-05
0.0250329
0.0181884
0.0135581
0.0102961
0.00803687
0.00646051
0.00531854
0.00445494
0.00377497
0.0032197
0.00275175
0.00234677
0.00198832
0.00166488
0.00136809
0.0010917
0.000830962
0.000581997
0.000340697
0.000105428
0.026837
0.0205883
0.0158634
0.0123971
0.00990313
0.00808224
0.00670926
0.0056379
0.00477674
0.00406634
0.00346617
0.00294784
0.00249108
0.00208113
0.00170703
0.00136042
0.00103485
0.000725009
0.000425734
0.00013444
0.0254891
0.0208187
0.0169042
0.013768
0.0113044
0.00937673
0.00785534
0.00663634
0.005641
0.00481145
0.00410574
0.00349357
0.00295277
0.00246687
0.00202341
0.00161271
0.00122715
0.000860398
0.000506489
0.000162009
0.0240868
0.0205745
0.017296
0.0144759
0.0121455
0.010249
0.00870088
0.0074232
0.00635423
0.00544651
0.00466374
0.0039781
0.00336827
0.00281775
0.00231365
0.00184572
0.0014057
0.000986635
0.00058203
0.000187846
0.0224021
0.0197629
0.017137
0.0147419
0.0126464
0.0108536
0.00933212
0.00803901
0.0069325
0.00597622
0.00514002
0.00439948
0.00373509
0.00313126
0.00257547
0.00205752
0.00156897
0.00110259
0.000651665
0.000211712
0.0209282
0.0189071
0.0167771
0.0147318
0.0128651
0.0112082
0.00975733
0.00849082
0.00738191
0.00640492
0.005537
0.00475855
0.00405304
0.00340666
0.00280791
0.00224711
0.00171606
0.00120759
0.000714951
0.000233449
0.0195615
0.0179838
0.0162585
0.0145354
0.0129004
0.0113957
0.0100353
0.00881571
0.00772421
0.00674484
0.00586142
0.00505892
0.00432391
0.00364469
0.00301109
0.00241432
0.00184669
0.00130131
0.000771667
0.000252973
0.0183959
0.0171352
0.0157153
0.0142491
0.0128135
0.0114536
0.0101912
0.00903232
0.00797349
0.00700633
0.00612051
0.00530539
0.00455076
0.00384717
0.00318604
0.00255967
0.00196107
0.00138383
0.000821798
0.000270268
0.0173735
0.0163459
0.0151641
0.0139121
0.0126526
0.0114276
0.0102621
0.00916829
0.00814929
0.0072028
0.00632336
0.00550409
0.00473765
0.00401677
0.00333448
0.00268421
0.00205981
0.00145546
0.000865497
0.00028538
0.0165087
0.0156522
0.0146512
0.013568
0.012454
0.0113466
0.0102709
0.00924171
0.00826597
0.00734544
0.00647843
0.00566124
0.00488907
0.00415666
0.00345856
0.00278938
0.00214384
0.00151677
0.000903051
0.000298398
0.0157695
0.015042
0.0141811
0.0132338
0.0122412
0.0112354
0.0102403
0.00927153
0.00833849
0.00744574
0.0065944
0.00578329
0.00500974
0.00427022
0.00356069
0.00287686
0.00221428
0.00156847
0.000934841
0.000309446
0.0151536
0.0145225
0.0137684
0.0129274
0.0120326
0.0111115
0.0101859
0.00927137
0.00837835
0.00751315
0.00667884
0.00587616
0.00510419
0.00436088
0.00364339
0.00294843
0.00227236
0.00161133
0.000961309
0.000318668
0.014643
0.014085
0.013413
0.0126555
0.0118393
0.010988
0.010121
0.00925332
0.00839598
0.00755631
0.00673872
0.00594539
0.00517673
0.0044319
0.0037091
0.00300589
0.00231934
0.00164619
0.000982921
0.000326218
0.0142328
0.013729
0.0131189
0.0124252
0.0116703
0.0108743
0.010055
0.00922634
0.00839945
0.00758219
0.0067799
0.00599574
0.00523116
0.00448626
0.00376008
0.00305091
0.00235642
0.00167384
0.00100013
0.000332248
0.0139133
0.0134494
0.0128852
0.0122394
0.0115309
0.0107776
0.00999545
0.0091978
0.00839547
0.00759668
0.00680733
0.00603129
0.00527076
0.00452653
0.00379832
0.00308496
0.00238462
0.00169498
0.00101334
0.000336892
0.0136814
0.0132455
0.0127133
0.0121012
0.0114258
0.0107031
0.00994796
0.00917308
0.00838905
0.00760422
0.00682483
0.00605522
0.00529809
0.00455474
0.00382535
0.00310919
0.0024048
0.00171015
0.00102286
0.000340256
0.0135331
0.0131148
0.0126028
0.0120118
0.0113572
0.010654
0.00991609
0.00915584
0.00838365
0.00760792
0.00683509
0.00606978
0.00531499
0.00457235
0.00384232
0.00312446
0.00241754
0.00171977
0.00102891
0.000342409
0.0134656
0.0130546
0.0125515
0.0119701
0.0113251
0.0106308
0.00990091
0.00914747
0.00838081
0.00760936
0.00683963
0.00607636
0.0053227
0.00458042
0.00385013
0.0031315
0.00242343
0.00172422
0.00103172
0.000343409
0.0333087
0.0406271
0.0459458
0.0500114
0.0531338
0.0554774
0.0571672
0.0582957
0.0589257
0.0590955
0.0588231
0.058108
0.0569313
0.0552541
0.053014
0.0501196
0.0464496
0.0418457
0.035987
0.0280519
0.0422456
0.0446781
0.046677
0.0483348
0.0496974
0.0507815
0.0515961
0.0521484
0.0524435
0.052484
0.0522706
0.0518025
0.0510771
0.0500901
0.0488346
0.0473002
0.0454811
0.0433987
0.041027
0.0377793
0.0371329
0.0386928
0.0401125
0.0413617
0.0424251
0.0432933
0.0439601
0.0444216
0.0446751
0.0447189
0.0445516
0.0441721
0.0435791
0.0427717
0.0417489
0.0405108
0.0390611
0.0374116
0.0355582
0.0334015
0.034608
0.035458
0.036226
0.0369004
0.0374723
0.0379348
0.0382824
0.0385112
0.0386179
0.0386006
0.0384577
0.0381888
0.0377938
0.0372737
0.0366298
0.0358647
0.0349832
0.0339941
0.0328951
0.0316312
0.0305502
0.0310931
0.031585
0.0320179
0.0323852
0.0326809
0.0329003
0.0330395
0.0330957
0.0330669
0.032952
0.032751
0.0324644
0.032094
0.0316425
0.0311134
0.0305119
0.0298445
0.0291169
0.028327
0.0278773
0.0282177
0.02852
0.0287807
0.0289965
0.0291648
0.029283
0.0293493
0.0293623
0.0293211
0.0292252
0.0290745
0.0288697
0.0286118
0.0283024
0.0279434
0.0275379
0.02709
0.0266015
0.0260618
0.0251214
0.0253475
0.0255463
0.0257158
0.0258541
0.0259592
0.0260299
0.0260649
0.0260633
0.0260246
0.0259486
0.0258354
0.0256854
0.0254996
0.025279
0.0250252
0.02474
0.0244257
0.0240845
0.0237172
0.0231184
0.0232722
0.0234051
0.023516
0.0236039
0.0236677
0.0237069
0.0237207
0.0237089
0.023671
0.023607
0.0235172
0.0234017
0.023261
0.0230959
0.022907
0.0226957
0.0224634
0.0222108
0.0219343
0.0212565
0.0213642
0.0214562
0.0215317
0.0215901
0.0216309
0.0216536
0.0216578
0.0216434
0.0216102
0.0215581
0.0214873
0.0213981
0.0212906
0.0211655
0.0210231
0.0208643
0.0206898
0.0205004
0.0202962
0.0198208
0.0198988
0.0199644
0.020017
0.0200564
0.0200821
0.020094
0.0200919
0.0200755
0.020045
0.0200002
0.0199413
0.0198683
0.0197816
0.0196813
0.0195678
0.0194416
0.0193033
0.0191532
0.0189896
0.0185411
0.0185989
0.0186467
0.0186844
0.0187117
0.0187284
0.0187343
0.0187294
0.0187135
0.0186866
0.0186488
0.0186001
0.0185406
0.0184704
0.0183898
0.0182989
0.0181981
0.0180877
0.017968
0.0178388
0.0175213
0.0175656
0.0176016
0.0176294
0.0176486
0.0176592
0.0176611
0.0176542
0.0176386
0.0176141
0.0175808
0.0175387
0.0174879
0.0174286
0.0173608
0.0172846
0.0172004
0.0171083
0.0170086
0.0169003
0.0166378
0.0166724
0.0167002
0.0167211
0.016735
0.0167418
0.0167415
0.016734
0.0167193
0.0166974
0.0166683
0.016632
0.0165887
0.0165383
0.016481
0.0164168
0.016346
0.0162686
0.0161849
0.0160946
0.0159282
0.0159562
0.0159783
0.0159944
0.0160047
0.0160088
0.016007
0.015999
0.015985
0.0159648
0.0159386
0.0159063
0.015868
0.0158237
0.0157735
0.0157176
0.0156559
0.0155886
0.0155159
0.0154373
0.0153341
0.0153572
0.0153752
0.0153881
0.0153959
0.0153984
0.0153957
0.0153877
0.0153745
0.0153561
0.0153324
0.0153035
0.0152695
0.0152303
0.015186
0.0151366
0.0150824
0.0150232
0.0149594
0.0148905
0.0148682
0.014888
0.0149032
0.0149138
0.0149198
0.0149212
0.0149179
0.0149099
0.0148973
0.01488
0.0148581
0.0148316
0.0148004
0.0147647
0.0147245
0.0146798
0.0146306
0.0145772
0.0145194
0.0144571
0.0145025
0.0145199
0.0145331
0.0145421
0.014547
0.0145476
0.0145441
0.0145363
0.0145242
0.014508
0.0144876
0.0144629
0.0144341
0.0144012
0.0143641
0.014323
0.0142778
0.0142287
0.0141757
0.0141186
0.0142418
0.0142575
0.0142694
0.0142774
0.0142815
0.0142817
0.0142779
0.0142702
0.0142585
0.0142429
0.0142234
0.0142
0.0141726
0.0141415
0.0141064
0.0140676
0.014025
0.0139787
0.0139287
0.0138749
0.0140696
0.0140844
0.0140955
0.0141029
0.0141065
0.0141064
0.0141026
0.014095
0.0140837
0.0140686
0.0140498
0.0140273
0.0140011
0.0139712
0.0139377
0.0139006
0.0138599
0.0138157
0.013768
0.0137168
0.0139991
0.0140135
0.0140243
0.0140314
0.0140348
0.0140346
0.0140307
0.0140231
0.0140118
0.0139969
0.0139783
0.013956
0.0139301
0.0139006
0.0138674
0.0138307
0.0137905
0.0137468
0.0136996
0.0136487
0.0115101
0.0119076
0.0122927
0.0126673
0.0130281
0.0133643
0.0136616
0.0139043
0.0140769
0.0141682
0.0141756
0.0141111
0.0140084
0.0139324
0.0139904
0.0143217
0.015047
0.0162794
0.0185491
0.0236542
0.0134509
0.0137743
0.0141657
0.0146069
0.0151031
0.0156668
0.0163119
0.017054
0.0179114
0.0189035
0.0200502
0.0213696
0.0228773
0.0245851
0.0264999
0.0286233
0.0309555
0.0335136
0.0363385
0.0393783
0.0167207
0.0172678
0.0178294
0.0184197
0.0190426
0.0197008
0.0203977
0.0211376
0.0219254
0.0227661
0.0236657
0.0246305
0.0256681
0.0267868
0.0279955
0.0293017
0.0307107
0.0322235
0.0338293
0.0354894
0.017775
0.0183074
0.0188811
0.0194886
0.020131
0.020811
0.0215299
0.0222889
0.0230883
0.0239277
0.0248061
0.0257215
0.0266707
0.0276493
0.0286515
0.0296699
0.0306955
0.031717
0.0327208
0.0336902
0.0184814
0.0189691
0.01947
0.0199873
0.0205213
0.0210719
0.021639
0.0222225
0.0228221
0.0234372
0.024067
0.0247102
0.0253651
0.0260294
0.0266998
0.0273723
0.0280418
0.0287021
0.0293459
0.0299648
0.0184897
0.0189219
0.0193656
0.0198202
0.0202853
0.0207602
0.0212441
0.021736
0.0222345
0.0227381
0.023245
0.023753
0.0242597
0.0247623
0.0252578
0.0257429
0.0262138
0.0266668
0.0270977
0.0275026
0.0181685
0.0185277
0.0188907
0.0192578
0.0196285
0.020002
0.0203775
0.0207544
0.0211314
0.0215077
0.0218818
0.0222524
0.0226179
0.0229766
0.0233267
0.023666
0.0239923
0.0243035
0.024597
0.0248705
0.0176826
0.0179891
0.0182961
0.018604
0.0189125
0.0192207
0.0195278
0.0198331
0.0201356
0.0204343
0.0207282
0.021016
0.0212966
0.0215687
0.021831
0.0220819
0.0223203
0.0225445
0.0227532
0.022945
0.0170739
0.0173262
0.0175772
0.017827
0.0180752
0.0183212
0.0185643
0.0188039
0.0190395
0.0192702
0.0194954
0.0197142
0.0199259
0.0201295
0.0203243
0.0205093
0.0206837
0.0208465
0.0209968
0.0211337
0.0164678
0.0166823
0.0168939
0.0171032
0.0173099
0.0175135
0.0177133
0.0179091
0.0181001
0.018286
0.0184661
0.0186399
0.0188068
0.0189661
0.0191173
0.0192598
0.0193929
0.0195162
0.0196289
0.0197306
0.0158552
0.0160347
0.0162113
0.016385
0.0165555
0.0167225
0.0168855
0.0170444
0.0171985
0.0173476
0.0174913
0.0176292
0.0177608
0.0178858
0.0180037
0.0181142
0.0182168
0.0183111
0.0183969
0.0184736
0.0152968
0.0154516
0.0156029
0.015751
0.0158958
0.016037
0.0161742
0.0163072
0.0164357
0.0165594
0.016678
0.0167913
0.0168988
0.0170004
0.0170958
0.0171846
0.0172666
0.0173415
0.0174091
0.0174691
0.0147804
0.0149136
0.0150435
0.0151702
0.0152936
0.0154134
0.0155294
0.0156414
0.0157492
0.0158526
0.0159513
0.0160451
0.0161339
0.0162173
0.0162954
0.0163677
0.0164341
0.0164946
0.0165488
0.0165966
0.0143319
0.0144496
0.0145639
0.014675
0.0147828
0.0148872
0.014988
0.0150849
0.0151779
0.0152667
0.0153513
0.0154314
0.0155069
0.0155777
0.0156436
0.0157044
0.01576
0.0158103
0.0158552
0.0158945
0.0139425
0.0140472
0.0141488
0.0142473
0.0143426
0.0144346
0.0145232
0.0146082
0.0146894
0.0147669
0.0148404
0.0149099
0.0149751
0.0150361
0.0150927
0.0151447
0.0151922
0.0152349
0.0152729
0.0153059
0.0136226
0.0137181
0.0138104
0.0138997
0.013986
0.0140691
0.0141489
0.0142253
0.0142983
0.0143676
0.0144333
0.0144951
0.0145532
0.0146072
0.0146572
0.0147031
0.0147448
0.0147822
0.0148153
0.014844
0.0133665
0.0134548
0.01354
0.0136223
0.0137017
0.013778
0.0138512
0.0139211
0.0139877
0.014051
0.0141107
0.0141669
0.0142195
0.0142684
0.0143136
0.0143549
0.0143924
0.0144259
0.0144555
0.014481
0.0131786
0.0132621
0.0133426
0.0134203
0.013495
0.0135668
0.0136356
0.0137012
0.0137636
0.0138228
0.0138786
0.0139311
0.0139801
0.0140256
0.0140675
0.0141059
0.0141405
0.0141715
0.0141987
0.0142222
0.0130554
0.0131353
0.0132124
0.0132869
0.0133585
0.0134272
0.0134929
0.0135556
0.0136152
0.0136717
0.0137249
0.0137749
0.0138216
0.0138648
0.0139047
0.0139411
0.013974
0.0140033
0.014029
0.0140511
0.013002
0.0130811
0.0131573
0.0132306
0.0133012
0.0133689
0.0134336
0.0134952
0.0135539
0.0136093
0.0136616
0.0137107
0.0137564
0.0137989
0.0138379
0.0138736
0.0139057
0.0139344
0.0139596
0.0139812
0.00398919
0.00650408
0.00777399
0.00860218
0.00916188
0.00950398
0.00968509
0.00975539
0.00975108
0.00969793
0.00961496
0.00951643
0.0094131
0.00931308
0.00922261
0.00914655
0.00908836
0.0090481
0.00903202
0.00904298
0.00571611
0.00673029
0.00728415
0.00768724
0.00799425
0.00821212
0.00835668
0.00844552
0.00849266
0.00850893
0.00850291
0.00848141
0.00844973
0.00841189
0.00837074
0.00832812
0.00828578
0.00824691
0.00820703
0.00816321
0.00598814
0.00659155
0.00704112
0.0073914
0.00766125
0.00785947
0.00799654
0.00808362
0.00813092
0.00814733
0.00814044
0.00811662
0.00808105
0.00803786
0.0079902
0.00794049
0.00789057
0.00784112
0.00778979
0.00773562
0.00623867
0.0065635
0.00681998
0.00702394
0.00718211
0.00729864
0.00737853
0.00742734
0.00745051
0.0074531
0.00743966
0.00741422
0.00738017
0.00734034
0.00729703
0.00725209
0.00720712
0.00716275
0.00711671
0.00706727
0.00596536
0.0061648
0.00633601
0.00647696
0.00658881
0.00667352
0.00673343
0.00677127
0.00679002
0.00679272
0.00678231
0.00676157
0.00673299
0.00669876
0.00666076
0.0066206
0.00657972
0.00653875
0.00649576
0.00644972
0.00560246
0.00573304
0.00584564
0.00593702
0.00600785
0.00605956
0.00609368
0.00611201
0.00611651
0.00610929
0.00609241
0.00606788
0.00603756
0.00600312
0.00596601
0.00592754
0.00588891
0.00585062
0.00581086
0.00576848
0.00507446
0.00516202
0.00524028
0.00530296
0.00535012
0.005383
0.00540266
0.00541028
0.00540721
0.00539496
0.00537505
0.00534899
0.00531825
0.00528412
0.00524781
0.0052104
0.00517292
0.00513579
0.00509717
0.00505594
0.00450322
0.00456175
0.00461484
0.00465539
0.00468344
0.00470009
0.0047062
0.00470265
0.00469052
0.00467101
0.00464539
0.00461492
0.00458082
0.00454422
0.00450615
0.00446756
0.00442939
0.00439198
0.00435351
0.00431289
0.00387105
0.003905
0.00393739
0.00395969
0.00397178
0.00397469
0.0039691
0.00395567
0.00393526
0.00390885
0.00387752
0.00384234
0.00380437
0.00376462
0.00372399
0.00368337
0.00364362
0.00360505
0.00356578
0.00352469
0.0032145
0.00322571
0.00323784
0.00324175
0.00323728
0.00322543
0.00320675
0.00318175
0.00315116
0.00311581
0.00307664
0.00303461
0.00299069
0.00294578
0.00290074
0.0028564
0.00281361
0.00277263
0.00273155
0.00268922
0.00253439
0.0025206
0.00250963
0.00249221
0.00246823
0.00243867
0.002404
0.00236465
0.00232121
0.0022744
0.00222501
0.00217391
0.00212194
0.00206993
0.00201868
0.00196896
0.00192161
0.00187687
0.00183275
0.00178804
0.00185066
0.00180624
0.0017653
0.00171962
0.00166933
0.00161544
0.00155842
0.00149869
0.00143677
0.00137329
0.00130891
0.00124437
0.0011804
0.00111776
0.00105714
0.000999309
0.000945078
0.000894686
0.000845985
0.000797612
0.00118776
0.00110444
0.00102335
0.000939286
0.000852838
0.000765086
0.000676681
0.000588149
0.000500021
0.000412833
0.000327121
0.000243431
0.000162324
8.43658e-05
1.01317e-05
-5.97261e-05
-0.000124429
-0.000183799
-0.00024019
-0.000294906
0.000575028
0.000437357
0.000297812
0.000156721
1.53508e-05
-0.000125019
-0.000263252
-0.000398375
-0.000529578
-0.000656201
-0.000777706
-0.000893639
-0.00100359
-0.00110716
-0.00120392
-0.00129329
-0.00137448
-0.00144728
-0.00151445
-0.00157804
0.0001008
-0.00010241
-0.000315931
-0.000530936
-0.000745085
-0.000956663
-0.00116358
-0.00136389
-0.00155603
-0.00173885
-0.00191157
-0.00207378
-0.00222535
-0.00236626
-0.00249658
-0.00261613
-0.00272442
-0.00282158
-0.00291086
-0.00299326
-0.000190574
-0.000491784
-0.000815961
-0.00114551
-0.00147754
-0.00180971
-0.00213832
-0.00245947
-0.00276961
-0.00306567
-0.00334521
-0.00360647
-0.00384838
-0.00407042
-0.0042724
-0.00445394
-0.00461406
-0.00475214
-0.0048723
-0.00497926
1.90477e-05
-0.000353844
-0.000769679
-0.00120177
-0.00164629
-0.00210036
-0.00255851
-0.0030143
-0.00346114
-0.00389272
-0.00430345
-0.00468898
-0.00504658
-0.00537527
-0.00567568
-0.00594924
-0.00619742
-0.00642271
-0.00663187
-0.00682232
0.00056063
3.53698e-05
-0.00055125
-0.00117711
-0.00184283
-0.00254778
-0.00328738
-0.00405449
-0.00483988
-0.00563242
-0.00641952
-0.0071879
-0.0079246
-0.00861811
-0.00925939
-0.0098418
-0.0103597
-0.0108095
-0.0112004
-0.0115433
0.00283748
0.00247702
0.0020295
0.00151684
0.000938676
0.000291552
-0.00042505
-0.00120866
-0.00205374
-0.00295136
-0.00388915
-0.00485185
-0.00582256
-0.00678495
-0.0077252
-0.00863216
-0.00949994
-0.0103547
-0.0113067
-0.0124267
0.00451386
0.00389894
0.00321977
0.00243974
0.0015377
0.000495161
-0.000708269
-0.0020938
-0.00368216
-0.00549237
-0.00754022
-0.0098367
-0.0123867
-0.0151875
-0.0182258
-0.0214689
-0.0248703
-0.0284422
-0.0323731
-0.036578
0.00021085
0.000647144
0.00108776
0.0015329
0.00198402
0.00244212
0.00290805
0.00338264
0.00386666
0.00436076
0.00486552
0.00538144
0.00590897
0.00644869
0.00700166
0.00757018
0.00816041
0.00878923
0.00949823
0.010422
0.000227227
0.000694858
0.00116729
0.00164509
0.00213013
0.00262396
0.00312817
0.0036445
0.00417493
0.00472177
0.00528785
0.00587676
0.00649333
0.00714416
0.00783832
0.00858785
0.00940877
0.0103266
0.0113951
0.0126745
0.000242823
0.000740268
0.0012429
0.00175165
0.00226876
0.00279627
0.00333642
0.00389173
0.00446522
0.00506054
0.00568232
0.00633657
0.00703141
0.0077781
0.00859282
0.00949974
0.0105363
0.0117588
0.0132415
0.015108
0.000257465
0.000782865
0.00131371
0.00185128
0.0023981
0.00295663
0.00352957
0.00412009
0.00473194
0.00536976
0.00603937
0.00674828
0.00750638
0.00832687
0.00922765
0.0102333
0.0113783
0.0127124
0.0143161
0.0163106
0.000271005
0.000822214
0.001379
0.00194292
0.0025167
0.00310308
0.0037051
0.00432632
0.00497096
0.00564418
0.00635241
0.00710384
0.00790911
0.0087822
0.00974181
0.010813
0.0120292
0.0134343
0.0150846
0.01705
0.000283331
0.00085799
0.00143822
0.00202578
0.00262349
0.00323427
0.00386132
0.00450835
0.00517976
0.00588081
0.006618
0.00739934
0.00823494
0.00913755
0.0101233
0.0112125
0.0124309
0.0138119
0.0153969
0.0172275
0.000294371
0.000889984
0.00149103
0.00209938
0.00271789
0.00334948
0.00399737
0.00466524
0.00535738
0.00607886
0.00683576
0.00763547
0.008487
0.00940138
0.010392
0.0114747
0.0126681
0.013993
0.0154684
0.0171004
0.000304094
0.000918115
0.0015373
0.0021636
0.00279975
0.0034486
0.00411324
0.00479716
0.00550432
0.00623932
0.00700753
0.00781523
0.0086698
0.00957979
0.0105549
0.011606
0.0127447
0.013982
0.0153237
0.0167637
0.000312511
0.000942419
0.00157713
0.00221858
0.00286933
0.00353207
0.00420964
0.00490521
0.00562227
0.00636478
0.00713723
0.00794466
0.00879272
0.00968763
0.0106359
0.0116439
0.0127171
0.013858
0.0150621
0.0163124
0.000319669
0.000963042
0.00161079
0.00226475
0.00292728
0.00360081
0.00428788
0.00499122
0.00571378
0.0064588
0.00722975
0.00803038
0.0088646
0.0097363
0.0106491
0.0116055
0.0126066
0.0136498
0.0147257
0.0158154
0.000325645
0.000980216
0.00163868
0.00230275
0.00297451
0.0036561
0.00434969
0.00505756
0.00578207
0.00652568
0.00729092
0.00808029
0.00889614
0.00974042
0.0106143
0.0115176
0.0124478
0.0133989
0.0143587
0.0153071
0.000330539
0.000994244
0.00166134
0.00233337
0.00301214
0.00369946
0.00439712
0.00510691
0.00583063
0.00656998
0.00732659
0.00810182
0.00889666
0.00971143
0.0105454
0.0113964
0.0122598
0.0131279
0.013988
0.0148216
0.000334469
0.00100547
0.00167937
0.0023575
0.0030414
0.00373254
0.00443233
0.0051421
0.00586309
0.00659634
0.00734264
0.00810242
0.00887552
0.00966102
0.0104568
0.0112592
0.0120624
0.0128578
0.0136328
0.0143704
0.000337558
0.00101427
0.00169339
0.00237608
0.00306357
0.00375703
0.00445751
0.00516593
0.00588298
0.00660913
0.00734447
0.00808863
0.00884055
0.00959833
0.0103589
0.0111177
0.0118683
0.012602
0.013307
0.0139683
0.000339931
0.001021
0.00170404
0.00239001
0.00307991
0.00377459
0.00447479
0.00518103
0.00589359
0.00661241
0.00733701
0.00806638
0.00879878
0.00953161
0.0102611
0.0109823
0.0116883
0.0123707
0.0130184
0.0136184
0.000341707
0.00102601
0.00171191
0.00240018
0.00309159
0.00378674
0.00448608
0.00518982
0.00589786
0.00660974
0.00732451
0.00804066
0.00875594
0.00946725
0.0101704
0.0108602
0.0115297
0.0121708
0.0127735
0.0133263
0.000342996
0.00102963
0.00171754
0.00240736
0.00309965
0.00379483
0.00449311
0.00519443
0.00589839
0.00660422
0.00731063
0.00801572
0.00871688
0.00941068
0.0100927
0.0107575
0.0113983
0.0120074
0.0125755
0.0130924
0.000343886
0.00103212
0.00172137
0.00241218
0.00310497
0.00379999
0.00449727
0.00519657
0.00589727
0.00659837
0.00729831
0.00799495
0.00868544
0.00936611
0.0100324
0.0106788
0.0112987
0.0118846
0.0124278
0.0129191
0.000344438
0.00103365
0.00172372
0.00241511
0.00310815
0.003803
0.00449956
0.00519748
0.00589599
0.00659394
0.00728962
0.00798072
0.00866425
0.0093364
0.00999253
0.0106271
0.0112336
0.0118047
0.0123321
0.0128069
0.000344687
0.00103434
0.00172478
0.00241643
0.00310958
0.00380433
0.00450054
0.00519779
0.00589527
0.00659173
0.0072854
0.0079739
0.00865417
0.00932234
0.00997375
0.0106028
0.0112032
0.0117675
0.0122879
0.0127558
-0.000170169
-0.000466637
-0.000772692
-0.00109063
-0.00142042
-0.00176373
-0.0021225
-0.00249865
-0.00289413
-0.003311
-0.00375124
-0.00421586
-0.00470364
-0.00521089
-0.00573063
-0.00622913
-0.00654137
-0.00630931
-0.00572764
-0.00932396
-0.000148184
-0.000402376
-0.00066448
-0.000934685
-0.00121276
-0.00149916
-0.00179405
-0.00209711
-0.00240727
-0.00272231
-0.00303794
-0.00334643
-0.00363519
-0.00388539
-0.00406351
-0.00408476
-0.00374135
-0.00276454
-0.0011833
0.000567028
-0.000126509
-0.000337477
-0.000554832
-0.000777436
-0.00100413
-0.00123441
-0.00146702
-0.0016998
-0.00192923
-0.00214974
-0.00235249
-0.00252379
-0.00264299
-0.00267841
-0.00257512
-0.00222982
-0.0014843
-0.000227722
0.00150408
0.00373505
-0.000104709
-0.000272896
-0.000445698
-0.000621398
-0.000798058
-0.000974321
-0.00114791
-0.00131533
-0.0014714
-0.00160845
-0.00171518
-0.00177527
-0.00176537
-0.00165068
-0.00137471
-0.000846525
4.6306e-05
0.00136971
0.00309432
0.00508195
-8.30664e-05
-0.000209277
-0.000338458
-0.000468608
-0.000597285
-0.000722543
-0.000841449
-0.000949757
-0.00104141
-0.00110778
-0.00113668
-0.00111114
-0.00100749
-0.000791839
-0.000414776
0.000189888
0.00108661
0.00229858
0.00377236
0.005305
-6.18706e-05
-0.000147169
-0.000234101
-0.000320524
-0.000403754
-0.000481545
-0.000550694
-0.000606726
-0.000643456
-0.000652374
-0.000621895
-0.00053641
-0.000374852
-0.000108359
0.000302133
0.000903518
0.00173438
0.00279521
0.00401095
0.00517603
-4.12617e-05
-8.69245e-05
-0.000133197
-0.000177951
-0.000218469
-0.000252479
-0.000276847
-0.000287314
-0.000278145
-0.00024166
-0.000167682
-4.28797e-05
0.000150125
0.00043376
0.000835557
0.00138436
0.00209885
0.00296862
0.0039264
0.00480647
-2.13056e-05
-2.86931e-05
-3.59534e-05
-4.11174e-05
-4.16096e-05
-3.53605e-05
-1.95869e-05
9.39528e-06
5.64192e-05
0.000127783
0.000231597
0.000378185
0.000580561
0.000854734
0.00121892
0.00169
0.00227547
0.00296067
0.00369007
0.00433787
-1.99054e-06
2.75792e-05
5.77725e-05
9.02756e-05
0.000127385
0.000170801
0.000222749
0.000286103
0.000364524
0.000462651
0.000586284
0.000742559
0.000940092
0.00118876
0.00149854
0.00187687
0.00232459
0.00282909
0.00335099
0.00379609
1.67458e-05
8.21032e-05
0.000148393
0.000216928
0.000289633
0.000367726
0.000452747
0.000546606
0.000651637
0.00077066
0.000907036
0.00106469
0.0012481
0.00146185
0.0017095
0.00199198
0.00230623
0.00264191
0.00297008
0.00321953
3.50081e-05
0.000135207
0.000236517
0.000339828
0.000446643
0.000557648
0.000673642
0.000795531
0.000924285
0.00106091
0.00120639
0.0013616
0.00152709
0.00170265
0.00188626
0.00207359
0.00225901
0.0024339
0.00257382
0.00262291
5.29225e-05
0.000187282
0.000322861
0.00046011
0.000600111
0.000743018
0.000888905
0.0010377
0.00118905
0.00134226
0.00149606
0.00164849
0.00179656
0.00193576
0.00205921
0.002158
0.00222349
0.00224538
0.00219613
0.00203118
7.06217e-05
0.000238733
0.000408154
0.000578924
0.000751741
0.000926285
0.00110198
0.00127787
0.00145245
0.00162348
0.00178769
0.00194055
0.00207584
0.00218502
0.0022566
0.00227698
0.00223327
0.00210958
0.00186834
0.00147216
8.82256e-05
0.000289923
0.000493052
0.000697299
0.000903054
0.00110962
0.00131591
0.00152025
0.0017202
0.00191221
0.00209135
0.0022509
0.00238176
0.00247176
0.00250501
0.00246276
0.0023258
0.00206818
0.00163563
0.00098823
0.000105827
0.000341132
0.000578057
0.000816026
0.00105523
0.00129474
0.00153313
0.00176824
0.00199698
0.00221488
0.00241574
0.00259108
0.00272943
0.0028154
0.00282892
0.00274575
0.00253837
0.0021667
0.00155439
0.000653036
0.000123478
0.000392516
0.000663452
0.000935559
0.00120896
0.00148266
0.0017551
0.00202396
0.00228583
0.00253581
0.002767
0.00296982
0.00313113
0.00323299
0.00325168
0.00315736
0.00291286
0.00246168
0.00170377
0.000568652
0.000141182
0.000444083
0.000749256
0.00105595
0.00136434
0.00167357
0.00198219
0.00228802
0.00258778
0.00287671
0.00314797
0.00339188
0.00359476
0.00373746
0.00379372
0.00372875
0.0034958
0.00302305
0.00219116
0.000906743
0.00015889
0.000495685
0.00083521
0.00117681
0.00152086
0.00186678
0.0022135
0.00255928
0.00290141
0.00323589
0.00355686
0.00385578
0.00412028
0.00433242
0.00446634
0.00448509
0.00433483
0.00393261
0.00314921
0.00181233
0.000176503
0.000547025
0.000920797
0.00129737
0.00167742
0.00206081
0.00244701
0.00283499
0.00322301
0.00360836
0.00398693
0.00435262
0.00469641
0.00500489
0.0052579
0.00542405
0.00545169
0.00525271
0.00468873
0.00363973
0.00019388
0.000597681
0.00100528
0.00141651
0.00183244
0.00225346
0.00267972
0.00311108
0.003547
0.0039864
0.00442744
0.00486724
0.00530142
0.00572356
0.00612411
0.0064876
0.00678462
0.00695417
0.00686904
0.00618295
-0.00030876
-0.000864727
-0.001455
-0.00206473
-0.00270093
-0.00336778
-0.00406926
-0.00480946
-0.00559205
-0.00641965
-0.00729259
-0.00820669
-0.00914975
-0.0100972
-0.0110079
-0.0118242
-0.0124873
-0.0129779
-0.0132785
-0.0137736
-0.000309176
-0.000865123
-0.00145492
-0.00206569
-0.00270352
-0.00337309
-0.0040788
-0.00482521
-0.00561658
-0.00645633
-0.00734574
-0.00828178
-0.00925342
-0.0102369
-0.0111908
-0.0120548
-0.0127631
-0.0132828
-0.0135953
-0.0139108
-0.00030884
-0.000863631
-0.00145211
-0.00206243
-0.0027006
-0.00337153
-0.00408007
-0.00483129
-0.00563009
-0.00648072
-0.00738554
-0.00834275
-0.00934269
-0.0103626
-0.0113608
-0.0122738
-0.0130257
-0.0135679
-0.0138873
-0.0141123
-0.000307925
-0.000860138
-0.00144625
-0.00205471
-0.00269175
-0.00336256
-0.00407239
-0.00482684
-0.00563152
-0.00649156
-0.00741046
-0.00838784
-0.00941549
-0.0104718
-0.0115152
-0.0124785
-0.0132757
-0.0138448
-0.014176
-0.0143777
-0.00030643
-0.000854618
-0.0014371
-0.00204225
-0.00267663
-0.00334569
-0.0040551
-0.00481101
-0.00561975
-0.00648742
-0.00741878
-0.008415
-0.00946961
-0.0105626
-0.0116527
-0.0126697
-0.0135181
-0.0141231
-0.0144723
-0.0146812
-0.000304255
-0.000847038
-0.00142449
-0.00202481
-0.00265488
-0.00332044
-0.00402755
-0.00478293
-0.00559366
-0.00646686
-0.00740869
-0.00842205
-0.00950258
-0.0106323
-0.0117712
-0.0128465
-0.0137547
-0.0144083
-0.0147837
-0.0150178
-0.000301357
-0.000837334
-0.00140825
-0.00200216
-0.00262618
-0.00328635
-0.00398911
-0.00474173
-0.00555208
-0.00642837
-0.00737824
-0.0084066
-0.00951157
-0.010678
-0.0118679
-0.0130072
-0.013986
-0.0147036
-0.0151145
-0.0153894
-0.0002977
-0.00082544
-0.00138825
-0.00197408
-0.00259022
-0.00324298
-0.00393917
-0.00468658
-0.00549387
-0.00637038
-0.00732536
-0.00836597
-0.00949327
-0.0106958
-0.0119387
-0.0131481
-0.0142099
-0.0150102
-0.0154667
-0.0158001
-0.000293265
-0.000811299
-0.00136441
-0.00194042
-0.00254676
-0.00318998
-0.00387718
-0.00461669
-0.0054179
-0.00629131
-0.00724787
-0.00829721
-0.0094439
-0.010681
-0.0119782
-0.0132638
-0.0144222
-0.015327
-0.015841
-0.0162557
-0.000288035
-0.000794872
-0.00133663
-0.00190105
-0.0024956
-0.00312703
-0.0038027
-0.00453135
-0.00532311
-0.00618958
-0.00714349
-0.00819714
-0.00935912
-0.010628
-0.0119795
-0.0133464
-0.0146157
-0.0156504
-0.0162363
-0.0167633
-0.000282005
-0.000776142
-0.00130489
-0.0018559
-0.00243663
-0.00305393
-0.00371535
-0.00442998
-0.00520855
-0.00606374
-0.00700997
-0.00806237
-0.00923399
-0.01053
-0.0119336
-0.0133852
-0.0147798
-0.0159724
-0.0166492
-0.0173295
-0.000275177
-0.000755111
-0.00126918
-0.00180497
-0.00236979
-0.00297057
-0.00361491
-0.00431214
-0.00507347
-0.00591246
-0.00684515
-0.00788942
-0.00906314
-0.0103788
-0.011829
-0.0133656
-0.0148984
-0.0162783
-0.0170731
-0.0179583
-0.000267559
-0.000731809
-0.00122954
-0.00174831
-0.00229515
-0.00287698
-0.00350133
-0.00417762
-0.00491735
-0.00573473
-0.00664715
-0.00767508
-0.00884115
-0.0101657
-0.0116521
-0.0132679
-0.0149469
-0.0165414
-0.0174958
-0.0186465
-0.000259167
-0.000706292
-0.00118608
-0.00168607
-0.00221288
-0.00277332
-0.00337476
-0.00402647
-0.00474001
-0.00552994
-0.00641459
-0.00741665
-0.00856321
-0.00988217
-0.0113884
-0.0130693
-0.0148912
-0.0167195
-0.017893
-0.0193787
-0.00025004
-0.000678655
-0.00113895
-0.00161848
-0.00212328
-0.00265998
-0.00323562
-0.00385911
-0.00454177
-0.00529809
-0.00614685
-0.00711235
-0.00822556
-0.00952122
-0.0110255
-0.012748
-0.014695
-0.0167587
-0.0182164
-0.0201139
-0.00024029
-0.000649047