x,y,z,p
0,0,0,0.000398259
0,0.1,0,0.000639626
0,0.2,0,0.000880994
0,0.3,0,0.00112236
0,0.4,0,0.00136373
0,0.5,0,0.00161369
0,0.6,0,0.00192954
0,0.7,0,0.00224539
0,0.8,0,0.00256125
0,0.9,0,0.0028771
0,1,0,0.00319011
0,1.1,0,0.00349364
0,1.2,0,0.00379717
0,1.3,0,0.00410071
0,1.4,0,0.00440424
0,1.5,0,0.00470286
0,1.6,0,0.00499218
0,1.7,0,0.00528151
0,1.8,0,0.00557083
0,1.9,0,0.00586016
0,2,0,0.00614209
0,2.1,0,0.0064154
0,2.2,0,0.00668871
0,2.3,0,0.00696201
0,2.4,0,0.00723532
0,2.5,0,0.00749705
0,2.6,0,0.00775028
0,2.7,0,0.00800351
0,2.8,0,0.00825674
0,2.9,0,0.00850997
0,3,0,0.00874581
0,3.1,0,0.00897391
0,3.2,0,0.00920201
0,3.3,0,0.00943011
0,3.4,0,0.00965821
0,3.5,0,0.00986321
0,3.6,0,0.0100627
0,3.7,0,0.0102622
0,3.8,0,0.0104617
0,3.9,0,0.0106612
0,4,0,0.0108315
0,4.1,0,0.0109993
0,4.2,0,0.0111671
0,4.3,0,0.011335
0,4.4,0,0.0115015
0,4.5,0,0.011635
0,4.6,0,0.0117686
0,4.7,0,0.0119022
0,4.8,0,0.0120357
0,4.9,0,0.0121637
0,5,0,0.0122609
0,5.1,0,0.0123581
0,5.2,0,0.0124553
0,5.3,0,0.0125525
0,5.4,0,0.0126394
0,5.5,0,0.0126987
0,5.6,0,0.0127579
0,5.7,0,0.0128171
0,5.8,0,0.0128764
0,5.9,0,0.0129206
0,6,0,0.0129408
0,6.1,0,0.012961
0,6.2,0,0.0129812
0,6.3,0,0.0130014
0,6.4,0,0.0130019
0,6.5,0,0.0129826
0,6.6,0,0.0129634
0,6.7,0,0.0129441
0,6.8,0,0.0129249
0,6.9,0,0.0128815
0,7,0,0.0128231
0,7.1,0,0.0127647
0,7.2,0,0.0127063
0,7.3,0,0.0126479
0,7.4,0,0.0125616
0,7.5,0,0.0124651
0,7.6,0,0.0123686
0,7.7,0,0.012272
0,7.8,0,0.0121755
0,7.9,0,0.0120481
0,8,0,0.0119152
0,8.1,0,0.0117822
0,8.2,0,0.0116492
0,8.3,0,0.0115162
0,8.4,0,0.0113502
0,8.5,0,0.0111828
0,8.6,0,0.0110155
0,8.7,0,0.0108481
0,8.8,0,0.0106783
0,8.9,0,0.0104791
0,9,0,0.0102799
0,9.1,0,0.0100807
0,9.2,0,0.00988151
0,9.3,0,0.00967678
0,9.4,0,0.0094488
0,9.5,0,0.00922082
0,9.6,0,0.00899284
0,9.7,0,0.00876487
0,9.8,0,0.00852914
0,9.9,0,0.008276
0,10,0,0.00802286
0,10.1,0,0.00776972
0,10.2,0,0.00751657
0,10.3,0,0.00725448
0,10.4,0,0.00698017
0,10.5,0,0.00670587
0,10.6,0,0.00643156
0,10.7,0,0.00615726
0,10.8,0,0.00587384
0,10.9,0,0.00558261
0,11,0,0.00529138
0,11.1,0,0.00500016
0,11.2,0,0.00470893
0,11.3,0,0.00440898
0,11.4,0,0.00410441
0,11.5,0,0.00379984
0,11.6,0,0.00349528
0,11.7,0,0.00319071
0,11.8,0,0.00287736
0,11.9,0,0.00256138
0,12,0,0.00224541
0,12.1,0,0.00192943
0,12.2,0,0.00161345
0,12.3,0,0.00136352
0,12.4,0,0.00112221
0,12.5,0,0.000880899
0,12.6,0,0.000639588
0,12.7,0,0.000398277
0.1,0,0,0.000318607
0.1,0.1,0,0.000638857
0.1,0.2,0,0.000880224
0.1,0.3,0,0.00112159
0.1,0.4,0,0.00136296
0.1,0.5,0,0.00161217
0.1,0.6,0,0.00192943
0.1,0.7,0,0.00224528
0.1,0.8,0,0.00256113
0.1,0.9,0,0.00287699
0.1,1,0,0.00319098
0.1,1.1,0,0.00349739
0.1,1.2,0,0.00380092
0.1,1.3,0,0.00410445
0.1,1.4,0,0.00440799
0.1,1.5,0,0.00470803
0.1,1.6,0,0.00499983
0.1,1.7,0,0.00528915
0.1,1.8,0,0.00557848
0.1,1.9,0,0.0058678
0.1,2,0,0.00615081
0.1,2.1,0,0.00642532
0.1,2.2,0,0.00669863
0.1,2.3,0,0.00697194
0.1,2.4,0,0.00724524
0.1,2.5,0,0.00750817
0.1,2.6,0,0.00776223
0.1,2.7,0,0.00801546
0.1,2.8,0,0.00826869
0.1,2.9,0,0.00852193
0.1,3,0,0.00875888
0.1,3.1,0,0.00898745
0.1,3.2,0,0.00921555
0.1,3.3,0,0.00944365
0.1,3.4,0,0.00967175
0.1,3.5,0,0.00987783
0.1,3.6,0,0.0100776
0.1,3.7,0,0.0102771
0.1,3.8,0,0.0104766
0.1,3.9,0,0.0106761
0.1,4,0,0.0108474
0.1,4.1,0,0.0110153
0.1,4.2,0,0.0111832
0.1,4.3,0,0.011351
0.1,4.4,0,0.0115176
0.1,4.5,0,0.0116522
0.1,4.6,0,0.0117857
0.1,4.7,0,0.0119193
0.1,4.8,0,0.0120529
0.1,4.9,0,0.012181
0.1,5,0,0.0122789
0.1,5.1,0,0.0123761
0.1,5.2,0,0.0124733
0.1,5.3,0,0.0125705
0.1,5.4,0,0.0126576
0.1,5.5,0,0.0127172
0.1,5.6,0,0.0127764
0.1,5.7,0,0.0128356
0.1,5.8,0,0.0128949
0.1,5.9,0,0.0129391
0.1,6,0,0.0129594
0.1,6.1,0,0.0129797
0.1,6.2,0,0.0129999
0.1,6.3,0,0.0130201
0.1,6.4,0,0.0130205
0.1,6.5,0,0.0130012
0.1,6.6,0,0.0129819
0.1,6.7,0,0.0129626
0.1,6.8,0,0.0129434
0.1,6.9,0,0.0128998
0.1,7,0,0.0128412
0.1,7.1,0,0.0127828
0.1,7.2,0,0.0127244
0.1,7.3,0,0.012666
0.1,7.4,0,0.0125791
0.1,7.5,0,0.0124824
0.1,7.6,0,0.0123859
0.1,7.7,0,0.0122893
0.1,7.8,0,0.0121928
0.1,7.9,0,0.0120645
0.1,8,0,0.0119313
0.1,8.1,0,0.0117983
0.1,8.2,0,0.0116654
0.1,8.3,0,0.0115324
0.1,8.4,0,0.011365
0.1,8.5,0,0.0111976
0.1,8.6,0,0.0110303
0.1,8.7,0,0.0108629
0.1,8.8,0,0.010693
0.1,8.9,0,0.0104924
0.1,9,0,0.0102932
0.1,9.1,0,0.010094
0.1,9.2,0,0.00989484
0.1,9.3,0,0.00968979
0.1,9.4,0,0.00946052
0.1,9.5,0,0.00923255
0.1,9.6,0,0.00900457
0.1,9.7,0,0.00877659
0.1,9.8,0,0.00854029
0.1,9.9,0,0.0082859
0.1,10,0,0.00803275
0.1,10.1,0,0.00777961
0.1,10.2,0,0.00752647
0.1,10.3,0,0.00726347
0.1,10.4,0,0.00698799
0.1,10.5,0,0.00671368
0.1,10.6,0,0.00643938
0.1,10.7,0,0.00616507
0.1,10.8,0,0.0058804
0.1,10.9,0,0.00558816
0.1,11,0,0.00529693
0.1,11.1,0,0.0050057
0.1,11.2,0,0.00471447
0.1,11.3,0,0.00441288
0.1,11.4,0,0.0041075
0.1,11.5,0,0.00380293
0.1,11.6,0,0.00349836
0.1,11.7,0,0.0031938
0.1,11.8,0,0.00288045
0.1,11.9,0,0.00256447
0.1,12,0,0.00224849
0.1,12.1,0,0.00193251
0.1,12.2,0,0.00161619
0.1,12.3,0,0.00136578
0.1,12.4,0,0.00112447
0.1,12.5,0,0.000883154
0.1,12.6,0,0.000641843
0.1,12.7,0,0.000318621
0.2,0,0,0.000238956
0.2,0.1,0,0.000559787
0.2,0.2,0,0.000879455
0.2,0.3,0,0.00112082
0.2,0.4,0,0.00136219
0.2,0.5,0,0.00161047
0.2,0.6,0,0.00192794
0.2,0.7,0,0.00224517
0.2,0.8,0,0.00256102
0.2,0.9,0,0.00287687
0.2,1,0,0.00319098
0.2,1.1,0,0.00349833
0.2,1.2,0,0.00380466
0.2,1.3,0,0.0041082
0.2,1.4,0,0.00441173
0.2,1.5,0,0.00471184
0.2,1.6,0,0.00500509
0.2,1.7,0,0.0052968
0.2,1.8,0,0.00558612
0.2,1.9,0,0.00587545
0.2,2,0,0.00615846
0.2,2.1,0,0.0064341
0.2,2.2,0,0.00670855
0.2,2.3,0,0.00698186
0.2,2.4,0,0.00725516
0.2,2.5,0,0.00751809
0.2,2.6,0,0.0077734
0.2,2.7,0,0.00802742
0.2,2.8,0,0.00828065
0.2,2.9,0,0.00853388
0.2,3,0,0.00877084
0.2,3.1,0,0.00900056
0.2,3.2,0,0.00922909
0.2,3.3,0,0.00945719
0.2,3.4,0,0.00968529
0.2,3.5,0,0.00989137
0.2,3.6,0,0.0100922
0.2,3.7,0,0.0102919
0.2,3.8,0,0.0104914
0.2,3.9,0,0.0106909
0.2,4,0,0.0108623
0.2,4.1,0,0.0110313
0.2,4.2,0,0.0111992
0.2,4.3,0,0.0113671
0.2,4.4,0,0.0115336
0.2,4.5,0,0.0116683
0.2,4.6,0,0.0118029
0.2,4.7,0,0.0119364
0.2,4.8,0,0.01207
0.2,4.9,0,0.0121981
0.2,5,0,0.0122962
0.2,5.1,0,0.0123941
0.2,5.2,0,0.0124913
0.2,5.3,0,0.0125885
0.2,5.4,0,0.0126756
0.2,5.5,0,0.0127353
0.2,5.6,0,0.0127949
0.2,5.7,0,0.0128541
0.2,5.8,0,0.0129134
0.2,5.9,0,0.0129576
0.2,6,0,0.012978
0.2,6.1,0,0.0129983
0.2,6.2,0,0.0130185
0.2,6.3,0,0.0130387
0.2,6.4,0,0.0130391
0.2,6.5,0,0.0130198
0.2,6.6,0,0.0130004
0.2,6.7,0,0.0129812
0.2,6.8,0,0.0129619
0.2,6.9,0,0.0129183
0.2,7,0,0.0128595
0.2,7.1,0,0.0128009
0.2,7.2,0,0.0127425
0.2,7.3,0,0.0126841
0.2,7.4,0,0.0125972
0.2,7.5,0,0.0124999
0.2,7.6,0,0.0124032
0.2,7.7,0,0.0123067
0.2,7.8,0,0.0122101
0.2,7.9,0,0.0120818
0.2,8,0,0.0119476
0.2,8.1,0,0.0118145
0.2,8.2,0,0.0116815
0.2,8.3,0,0.0115486
0.2,8.4,0,0.0113812
0.2,8.5,0,0.0112124
0.2,8.6,0,0.0110451
0.2,8.7,0,0.0108777
0.2,8.8,0,0.0107078
0.2,8.9,0,0.0105071
0.2,9,0,0.0103066
0.2,9.1,0,0.0101074
0.2,9.2,0,0.00990817
0.2,9.3,0,0.00970311
0.2,9.4,0,0.0094735
0.2,9.5,0,0.00924427
0.2,9.6,0,0.00901629
0.2,9.7,0,0.00878831
0.2,9.8,0,0.00855202
0.2,9.9,0,0.008297
0.2,10,0,0.00804265
0.2,10.1,0,0.00778951
0.2,10.2,0,0.00753636
0.2,10.3,0,0.00727337
0.2,10.4,0,0.00699693
0.2,10.5,0,0.0067215
0.2,10.6,0,0.00644719
0.2,10.7,0,0.00617289
0.2,10.8,0,0.00588822
0.2,10.9,0,0.00559467
0.2,11,0,0.00530247
0.2,11.1,0,0.00501124
0.2,11.2,0,0.00472002
0.2,11.3,0,0.00441842
0.2,11.4,0,0.00411134
0.2,11.5,0,0.00380602
0.2,11.6,0,0.00350145
0.2,11.7,0,0.00319688
0.2,11.8,0,0.00288354
0.2,11.9,0,0.00256756
0.2,12,0,0.00225158
0.2,12.1,0,0.00193527
0.2,12.2,0,0.00161889
0.2,12.3,0,0.00136803
0.2,12.4,0,0.00112672
0.2,12.5,0,0.00088541
0.2,12.6,0,0.000564387
0.2,12.7,0,0.000238966
0.3,0,0,0.000159304
0.3,0.1,0,0.000480135
0.3,0.2,0,0.000800966
0.3,0.3,0,0.00112005
0.3,0.4,0,0.00136142
0.3,0.5,0,0.00160877
0.3,0.6,0,0.00192623
0.3,0.7,0,0.0022437
0.3,0.8,0,0.00256091
0.3,0.9,0,0.00287676
0.3,1,0,0.00319098
0.3,1.1,0,0.00349833
0.3,1.2,0,0.00380568
0.3,1.3,0,0.00411194
0.3,1.4,0,0.00441548
0.3,1.5,0,0.00471565
0.3,1.6,0,0.0050089
0.3,1.7,0,0.00530215
0.3,1.8,0,0.00559377
0.3,1.9,0,0.00588309
0.3,2,0,0.0061661
0.3,2.1,0,0.00644174
0.3,2.2,0,0.00671738
0.3,2.3,0,0.00699178
0.3,2.4,0,0.00726509
0.3,2.5,0,0.00752801
0.3,2.6,0,0.00778332
0.3,2.7,0,0.00803863
0.3,2.8,0,0.0082926
0.3,2.9,0,0.00854583
0.3,3,0,0.00878279
0.3,3.1,0,0.00901251
0.3,3.2,0,0.00924224
0.3,3.3,0,0.00947073
0.3,3.4,0,0.00969883
0.3,3.5,0,0.00990491
0.3,3.6,0,0.0101058
0.3,3.7,0,0.0103066
0.3,3.8,0,0.0105063
0.3,3.9,0,0.0107058
0.3,4,0,0.0108771
0.3,4.1,0,0.0110462
0.3,4.2,0,0.0112152
0.3,4.3,0,0.0113831
0.3,4.4,0,0.0115497
0.3,4.5,0,0.0116843
0.3,4.6,0,0.011819
0.3,4.7,0,0.0119536
0.3,4.8,0,0.0120871
0.3,4.9,0,0.0122152
0.3,5,0,0.0123133
0.3,5.1,0,0.0124114
0.3,5.2,0,0.0125093
0.3,5.3,0,0.0126064
0.3,5.4,0,0.0126936
0.3,5.5,0,0.0127533
0.3,5.6,0,0.0128131
0.3,5.7,0,0.0128726
0.3,5.8,0,0.0129319
0.3,5.9,0,0.0129761
0.3,6,0,0.0129965
0.3,6.1,0,0.0130169
0.3,6.2,0,0.0130372
0.3,6.3,0,0.0130574
0.3,6.4,0,0.0130578
0.3,6.5,0,0.0130384
0.3,6.6,0,0.013019
0.3,6.7,0,0.0129997
0.3,6.8,0,0.0129805
0.3,6.9,0,0.0129368
0.3,7,0,0.012878
0.3,7.1,0,0.0128191
0.3,7.2,0,0.0127606
0.3,7.3,0,0.0127022
0.3,7.4,0,0.0126153
0.3,7.5,0,0.012518
0.3,7.6,0,0.0124207
0.3,7.7,0,0.012324
0.3,7.8,0,0.0122274
0.3,7.9,0,0.0120991
0.3,8,0,0.0119649
0.3,8.1,0,0.0118308
0.3,8.2,0,0.0116977
0.3,8.3,0,0.0115647
0.3,8.4,0,0.0113974
0.3,8.5,0,0.0112286
0.3,8.6,0,0.0110599
0.3,8.7,0,0.0108925
0.3,8.8,0,0.0107226
0.3,8.9,0,0.0105219
0.3,9,0,0.0103212
0.3,9.1,0,0.0101207
0.3,9.2,0,0.00992149
0.3,9.3,0,0.00971644
0.3,9.4,0,0.00948682
0.3,9.5,0,0.0092572
0.3,9.6,0,0.00902801
0.3,9.7,0,0.00880003
0.3,9.8,0,0.00856374
0.3,9.9,0,0.00830872
0.3,10,0,0.00805371
0.3,10.1,0,0.0077994
0.3,10.2,0,0.00754626
0.3,10.3,0,0.00728326
0.3,10.4,0,0.00700683
0.3,10.5,0,0.00673039
0.3,10.6,0,0.00645501
0.3,10.7,0,0.0061807
0.3,10.8,0,0.00589603
0.3,10.9,0,0.00560248
0.3,11,0,0.00530893
0.3,11.1,0,0.00501679
0.3,11.2,0,0.00472556
0.3,11.3,0,0.00442397
0.3,11.4,0,0.00411688
0.3,11.5,0,0.0038098
0.3,11.6,0,0.00350454
0.3,11.7,0,0.00319997
0.3,11.8,0,0.00288662
0.3,11.9,0,0.00257065
0.3,12,0,0.00225434
0.3,12.1,0,0.00193796
0.3,12.2,0,0.00162159
0.3,12.3,0,0.00137029
0.3,12.4,0,0.00112898
0.3,12.5,0,0.000810153
0.3,12.6,0,0.000484732
0.3,12.7,0,0.000159311
0.4,0,0,7.96518e-05
0.4,0.1,0,0.000400483
0.4,0.2,0,0.000721314
0.4,0.3,0,0.00104215
0.4,0.4,0,0.00136065
0.4,0.5,0,0.00160707
0.4,0.6,0,0.00192453
0.4,0.7,0,0.002242
0.4,0.8,0,0.00255946
0.4,0.9,0,0.00287665
0.4,1,0,0.00319097
0.4,1.1,0,0.00349833
0.4,1.2,0,0.00380568
0.4,1.3,0,0.00411303
0.4,1.4,0,0.00441922
0.4,1.5,0,0.00471946
0.4,1.6,0,0.00501271
0.4,1.7,0,0.00530596
0.4,1.8,0,0.00559921
0.4,1.9,0,0.00589074
0.4,2,0,0.00617375
0.4,2.1,0,0.00644938
0.4,2.2,0,0.00672502
0.4,2.3,0,0.00700066
0.4,2.4,0,0.00727501
0.4,2.5,0,0.00753793
0.4,2.6,0,0.00779325
0.4,2.7,0,0.00804856
0.4,2.8,0,0.00830387
0.4,2.9,0,0.00855779
0.4,3,0,0.00879475
0.4,3.1,0,0.00902447
0.4,3.2,0,0.00925419
0.4,3.3,0,0.00948392
0.4,3.4,0,0.00971237
0.4,3.5,0,0.00991845
0.4,3.6,0,0.0101193
0.4,3.7,0,0.0103201
0.4,3.8,0,0.010521
0.4,3.9,0,0.0107206
0.4,4,0,0.010892
0.4,4.1,0,0.011061
0.4,4.2,0,0.0112301
0.4,4.3,0,0.0113991
0.4,4.4,0,0.0115657
0.4,4.5,0,0.0117004
0.4,4.6,0,0.0118351
0.4,4.7,0,0.0119697
0.4,4.8,0,0.0121043
0.4,4.9,0,0.0122324
0.4,5,0,0.0123304
0.4,5.1,0,0.0124285
0.4,5.2,0,0.0125266
0.4,5.3,0,0.0126244
0.4,5.4,0,0.0127115
0.4,5.5,0,0.0127713
0.4,5.6,0,0.012831
0.4,5.7,0,0.0128908
0.4,5.8,0,0.0129504
0.4,5.9,0,0.0129946
0.4,6,0,0.013015
0.4,6.1,0,0.0130354
0.4,6.2,0,0.0130558
0.4,6.3,0,0.0130761
0.4,6.4,0,0.0130765
0.4,6.5,0,0.0130571
0.4,6.6,0,0.0130377
0.4,6.7,0,0.0130183
0.4,6.8,0,0.012999
0.4,6.9,0,0.0129554
0.4,7,0,0.0128965
0.4,7.1,0,0.0128377
0.4,7.2,0,0.0127788
0.4,7.3,0,0.0127203
0.4,7.4,0,0.0126334
0.4,7.5,0,0.0125361
0.4,7.6,0,0.0124388
0.4,7.7,0,0.0123414
0.4,7.8,0,0.0122448
0.4,7.9,0,0.0121164
0.4,8,0,0.0119823
0.4,8.1,0,0.0118481
0.4,8.2,0,0.011714
0.4,8.3,0,0.0115809
0.4,8.4,0,0.0114135
0.4,8.5,0,0.0112448
0.4,8.6,0,0.011076
0.4,8.7,0,0.0109073
0.4,8.8,0,0.0107374
0.4,8.9,0,0.0105367
0.4,9,0,0.010336
0.4,9.1,0,0.0101353
0.4,9.2,0,0.00993482
0.4,9.3,0,0.00972977
0.4,9.4,0,0.00950015
0.4,9.5,0,0.00927053
0.4,9.6,0,0.00904091
0.4,9.7,0,0.00881176
0.4,9.8,0,0.00857546
0.4,9.9,0,0.00832045
0.4,10,0,0.00806543
0.4,10.1,0,0.00781042
0.4,10.2,0,0.00755616
0.4,10.3,0,0.00729316
0.4,10.4,0,0.00701672
0.4,10.5,0,0.00674029
0.4,10.6,0,0.00646385
0.4,10.7,0,0.00618852
0.4,10.8,0,0.00590385
0.4,10.9,0,0.0056103
0.4,11,0,0.00531674
0.4,11.1,0,0.00502319
0.4,11.2,0,0.0047311
0.4,11.3,0,0.00442951
0.4,11.4,0,0.00412243
0.4,11.5,0,0.00381535
0.4,11.6,0,0.00350826
0.4,11.7,0,0.00320306
0.4,11.8,0,0.00288971
0.4,11.9,0,0.00257342
0.4,12,0,0.00225704
0.4,12.1,0,0.00194066
0.4,12.2,0,0.00162429
0.4,12.3,0,0.00137254
0.4,12.4,0,0.00105592
0.4,12.5,0,0.000730498
0.4,12.6,0,0.000405077
0.4,12.7,0,7.96554e-05
0.5,0,0,0
0.5,0.1,0,0.000321135
0.5,0.2,0,0.000642269
0.5,0.3,0,0.000963404
0.5,0.4,0,0.00128454
0.5,0.5,0,0.00160553
0.5,0.6,0,0.00192293
0.5,0.7,0,0.00224033
0.5,0.8,0,0.00255776
0.5,0.9,0,0.00287523
0.5,1,0,0.00319097
0.5,1.1,0,0.00349832
0.5,1.2,0,0.00380568
0.5,1.3,0,0.00411303
0.5,1.4,0,0.00442038
0.5,1.5,0,0.00472328
0.5,1.6,0,0.00501652
0.5,1.7,0,0.00530977
0.5,1.8,0,0.00560302
0.5,1.9,0,0.00589627
0.5,2,0,0.00618139
0.5,2.1,0,0.00645703
0.5,2.2,0,0.00673267
0.5,2.3,0,0.00700831
0.5,2.4,0,0.00728394
0.5,2.5,0,0.00754786
0.5,2.6,0,0.00780317
0.5,2.7,0,0.00805848
0.5,2.8,0,0.00831379
0.5,2.9,0,0.0085691
0.5,3,0,0.0088067
0.5,3.1,0,0.00903642
0.5,3.2,0,0.00926615
0.5,3.3,0,0.00949587
0.5,3.4,0,0.00972559
0.5,3.5,0,0.00993199
0.5,3.6,0,0.0101328
0.5,3.7,0,0.0103337
0.5,3.8,0,0.0105345
0.5,3.9,0,0.0107354
0.5,4,0,0.0109068
0.5,4.1,0,0.0110759
0.5,4.2,0,0.0112449
0.5,4.3,0,0.011414
0.5,4.4,0,0.0115817
0.5,4.5,0,0.0117164
0.5,4.6,0,0.0118511
0.5,4.7,0,0.0119858
0.5,4.8,0,0.0121205
0.5,4.9,0,0.0122495
0.5,5,0,0.0123476
0.5,5.1,0,0.0124456
0.5,5.2,0,0.0125437
0.5,5.3,0,0.0126418
0.5,5.4,0,0.0127295
0.5,5.5,0,0.0127893
0.5,5.6,0,0.012849
0.5,5.7,0,0.0129088
0.5,5.8,0,0.0129685
0.5,5.9,0,0.0130131
0.5,6,0,0.0130335
0.5,6.1,0,0.0130539
0.5,6.2,0,0.0130743
0.5,6.3,0,0.0130947
0.5,6.4,0,0.0130952
0.5,6.5,0,0.0130758
0.5,6.6,0,0.0130564
0.5,6.7,0,0.013037
0.5,6.8,0,0.0130176
0.5,6.9,0,0.0129739
0.5,7,0,0.0129151
0.5,7.1,0,0.0128562
0.5,7.2,0,0.0127974
0.5,7.3,0,0.0127385
0.5,7.4,0,0.0126515
0.5,7.5,0,0.0125542
0.5,7.6,0,0.0124569
0.5,7.7,0,0.0123595
0.5,7.8,0,0.0122622
0.5,7.9,0,0.0121337
0.5,8,0,0.0119996
0.5,8.1,0,0.0118654
0.5,8.2,0,0.0117313
0.5,8.3,0,0.0115971
0.5,8.4,0,0.0114297
0.5,8.5,0,0.011261
0.5,8.6,0,0.0110922
0.5,8.7,0,0.0109234
0.5,8.8,0,0.0107522
0.5,8.9,0,0.0105515
0.5,9,0,0.0103508
0.5,9.1,0,0.0101501
0.5,9.2,0,0.00994937
0.5,9.3,0,0.00974309
0.5,9.4,0,0.00951347
0.5,9.5,0,0.00928385
0.5,9.6,0,0.00905424
0.5,9.7,0,0.00882462
0.5,9.8,0,0.00858718
0.5,9.9,0,0.00833217
0.5,10,0,0.00807716
0.5,10.1,0,0.00782214
0.5,10.2,0,0.00756713
0.5,10.3,0,0.00730305
0.5,10.4,0,0.00702662
0.5,10.5,0,0.00675018
0.5,10.6,0,0.00647375
0.5,10.7,0,0.00619731
0.5,10.8,0,0.00591166
0.5,10.9,0,0.00561811
0.5,11,0,0.00532456
0.5,11.1,0,0.00503101
0.5,11.2,0,0.00473745
0.5,11.3,0,0.00443505
0.5,11.4,0,0.00412797
0.5,11.5,0,0.00382089
0.5,11.6,0,0.00351381
0.5,11.7,0,0.00320672
0.5,11.8,0,0.00289251
0.5,11.9,0,0.00257615
0.5,12,0,0.00225979
0.5,12.1,0,0.00194343
0.5,12.2,0,0.00162707
0.5,12.3,0,0.00130264
0.5,12.4,0,0.000976979
0.5,12.5,0,0.000651319
0.5,12.6,0,0.00032566
0.5,12.7,0,0
0.6,0,0,0
0.6,0.1,0,0.000325508
0.6,0.2,0,0.000646642
0.6,0.3,0,0.000967777
0.6,0.4,0,0.00128891
0.6,0.5,0,0.00161002
0.6,0.6,0,0.00193054
0.6,0.7,0,0.00224793
0.6,0.8,0,0.00256533
0.6,0.9,0,0.00288273
0.6,1,0,0.00319997
0.6,1.1,0,0.00351438
0.6,1.2,0,0.00382175
0.6,1.3,0,0.00412913
0.6,1.4,0,0.0044365
0.6,1.5,0,0.00474163
0.6,1.6,0,0.00503924
0.6,1.7,0,0.00533254
0.6,1.8,0,0.00562583
0.6,1.9,0,0.00591912
0.6,2,0,0.00620815
0.6,2.1,0,0.00648804
0.6,2.2,0,0.00676368
0.6,2.3,0,0.00703932
0.6,2.4,0,0.00731496
0.6,2.5,0,0.00758194
0.6,2.6,0,0.00783938
0.6,2.7,0,0.00809469
0.6,2.8,0,0.00835
0.6,2.9,0,0.00860531
0.6,3,0,0.00884644
0.6,3.1,0,0.00907762
0.6,3.2,0,0.00930734
0.6,3.3,0,0.00953707
0.6,3.4,0,0.00976679
0.6,3.5,0,0.00997689
0.6,3.6,0,0.0101785
0.6,3.7,0,0.0103793
0.6,3.8,0,0.0105802
0.6,3.9,0,0.010781
0.6,4,0,0.0109562
0.6,4.1,0,0.0111255
0.6,4.2,0,0.0112945
0.6,4.3,0,0.0114636
0.6,4.4,0,0.0116314
0.6,4.5,0,0.0117693
0.6,4.6,0,0.0119039
0.6,4.7,0,0.0120386
0.6,4.8,0,0.0121733
0.6,4.9,0,0.0123027
0.6,5,0,0.0124029
0.6,5.1,0,0.0125009
0.6,5.2,0,0.012599
0.6,5.3,0,0.0126971
0.6,5.4,0,0.0127852
0.6,5.5,0,0.0128461
0.6,5.6,0,0.0129059
0.6,5.7,0,0.0129656
0.6,5.8,0,0.0130254
0.6,5.9,0,0.0130702
0.6,6,0,0.0130909
0.6,6.1,0,0.0131113
0.6,6.2,0,0.0131317
0.6,6.3,0,0.0131521
0.6,6.4,0,0.0131524
0.6,6.5,0,0.0131328
0.6,6.6,0,0.0131134
0.6,6.7,0,0.013094
0.6,6.8,0,0.0130746
0.6,6.9,0,0.01303
0.6,7,0,0.0129706
0.6,7.1,0,0.0129117
0.6,7.2,0,0.0128529
0.6,7.3,0,0.012794
0.6,7.4,0,0.0127052
0.6,7.5,0,0.0126073
0.6,7.6,0,0.01251
0.6,7.7,0,0.0124126
0.6,7.8,0,0.0123153
0.6,7.9,0,0.012184
0.6,8,0,0.0120494
0.6,8.1,0,0.0119153
0.6,8.2,0,0.0117811
0.6,8.3,0,0.011647
0.6,8.4,0,0.0114757
0.6,8.5,0,0.0113069
0.6,8.6,0,0.0111382
0.6,8.7,0,0.0109694
0.6,8.8,0,0.0107978
0.6,8.9,0,0.0105929
0.6,9,0,0.0103922
0.6,9.1,0,0.0101915
0.6,9.2,0,0.00999077
0.6,9.3,0,0.00978348
0.6,9.4,0,0.00954972
0.6,9.5,0,0.0093201
0.6,9.6,0,0.00909048
0.6,9.7,0,0.00886087
0.6,9.8,0,0.0086216
0.6,9.9,0,0.0083626
0.6,10,0,0.00810758
0.6,10.1,0,0.00785257
0.6,10.2,0,0.00759756
0.6,10.3,0,0.00733084
0.6,10.4,0,0.00705094
0.6,10.5,0,0.00677451
0.6,10.6,0,0.00649807
0.6,10.7,0,0.00622164
0.6,10.8,0,0.00593166
0.6,10.9,0,0.00563467
0.6,11,0,0.00534112
0.6,11.1,0,0.00504757
0.6,11.2,0,0.00475402
0.6,11.3,0,0.00445152
0.6,11.4,0,0.00414444
0.6,11.5,0,0.00383736
0.6,11.6,0,0.00353028
0.6,11.7,0,0.00321734
0.6,11.8,0,0.0029013
0.6,11.9,0,0.00258495
0.6,12,0,0.00226859
0.6,12.1,0,0.00195223
0.6,12.2,0,0.00162872
0.6,12.3,0,0.00130317
0.6,12.4,0,0.000977514
0.6,12.5,0,0.000651855
0.6,12.6,0,0.000326195
0.6,12.7,0,0
0.7,0,0,0
0.7,0.1,0,0.000325539
0.7,0.2,0,0.000651016
0.7,0.3,0,0.00097215
0.7,0.4,0,0.00129328
0.7,0.5,0,0.0016144
0.7,0.6,0,0.00193508
0.7,0.7,0,0.00225554
0.7,0.8,0,0.00257294
0.7,0.9,0,0.00289034
0.7,1,0,0.0032076
0.7,1.1,0,0.00352393
0.7,1.2,0,0.00383806
0.7,1.3,0,0.00414543
0.7,1.4,0,0.0044528
0.7,1.5,0,0.00475799
0.7,1.6,0,0.00505801
0.7,1.7,0,0.0053554
0.7,1.8,0,0.0056487
0.7,1.9,0,0.00594199
0.7,2,0,0.00623109
0.7,2.1,0,0.00651499
0.7,2.2,0,0.00679469
0.7,2.3,0,0.00707033
0.7,2.4,0,0.00734597
0.7,2.5,0,0.00761295
0.7,2.6,0,0.00787358
0.7,2.7,0,0.0081309
0.7,2.8,0,0.00838621
0.7,2.9,0,0.00864153
0.7,3,0,0.00888266
0.7,3.1,0,0.00911748
0.7,3.2,0,0.00934854
0.7,3.3,0,0.00957827
0.7,3.4,0,0.00980799
0.7,3.5,0,0.0100181
0.7,3.6,0,0.0102235
0.7,3.7,0,0.010425
0.7,3.8,0,0.0106259
0.7,3.9,0,0.0108267
0.7,4,0,0.0110019
0.7,4.1,0,0.011175
0.7,4.2,0,0.0113441
0.7,4.3,0,0.0115132
0.7,4.4,0,0.011681
0.7,4.5,0,0.011819
0.7,4.6,0,0.0119568
0.7,4.7,0,0.0120915
0.7,4.8,0,0.0122261
0.7,4.9,0,0.0123556
0.7,5,0,0.0124561
0.7,5.1,0,0.0125562
0.7,5.2,0,0.0126543
0.7,5.3,0,0.0127523
0.7,5.4,0,0.0128405
0.7,5.5,0,0.0129019
0.7,5.6,0,0.0129627
0.7,5.7,0,0.0130225
0.7,5.8,0,0.0130822
0.7,5.9,0,0.0131271
0.7,6,0,0.013148
0.7,6.1,0,0.0131688
0.7,6.2,0,0.0131891
0.7,6.3,0,0.0132095
0.7,6.4,0,0.0132098
0.7,6.5,0,0.01319
0.7,6.6,0,0.0131704
0.7,6.7,0,0.013151
0.7,6.8,0,0.0131316
0.7,6.9,0,0.013087
0.7,7,0,0.0130266
0.7,7.1,0,0.0129673
0.7,7.2,0,0.0129084
0.7,7.3,0,0.0128496
0.7,7.4,0,0.0127608
0.7,7.5,0,0.012661
0.7,7.6,0,0.0125631
0.7,7.7,0,0.0124658
0.7,7.8,0,0.0123684
0.7,7.9,0,0.0122371
0.7,8,0,0.0120997
0.7,8.1,0,0.0119652
0.7,8.2,0,0.011831
0.7,8.3,0,0.0116969
0.7,8.4,0,0.0115256
0.7,8.5,0,0.0113529
0.7,8.6,0,0.0111841
0.7,8.7,0,0.0110153
0.7,8.8,0,0.0108438
0.7,8.9,0,0.0106384
0.7,9,0,0.0104336
0.7,9.1,0,0.0102329
0.7,9.2,0,0.0100322
0.7,9.3,0,0.00982487
0.7,9.4,0,0.00958999
0.7,9.5,0,0.00935635
0.7,9.6,0,0.00912673
0.7,9.7,0,0.00889711
0.7,9.8,0,0.00865785
0.7,9.9,0,0.00839687
0.7,10,0,0.00813801
0.7,10.1,0,0.007883
0.7,10.2,0,0.00762798
0.7,10.3,0,0.00736126
0.7,10.4,0,0.00707858
0.7,10.5,0,0.00679883
0.7,10.6,0,0.00652239
0.7,10.7,0,0.00624596
0.7,10.8,0,0.00595598
0.7,10.9,0,0.0056544
0.7,11,0,0.00535768
0.7,11.1,0,0.00506413
0.7,11.2,0,0.00477058
0.7,11.3,0,0.00446799
0.7,11.4,0,0.00416091
0.7,11.5,0,0.00385383
0.7,11.6,0,0.00354105
0.7,11.7,0,0.00322615
0.7,11.8,0,0.0029101
0.7,11.9,0,0.00259374
0.7,12,0,0.00227738
0.7,12.1,0,0.00195406
0.7,12.2,0,0.00162927
0.7,12.3,0,0.00130371
0.7,12.4,0,0.00097805
0.7,12.5,0,0.00065239
0.7,12.6,0,0.000326206
0.7,12.7,0,0
0.8,0,0,0
0.8,0.1,0,0.000325539
0.8,0.2,0,0.000651079
0.8,0.3,0,0.000976523
0.8,0.4,0,0.00129766
0.8,0.5,0,0.00161878
0.8,0.6,0,0.00193946
0.8,0.7,0,0.00226014
0.8,0.8,0,0.00258055
0.8,0.9,0,0.00289795
0.8,1,0,0.00321523
0.8,1.1,0,0.00353155
0.8,1.2,0,0.00384788
0.8,1.3,0,0.00416174
0.8,1.4,0,0.00446911
0.8,1.5,0,0.00477435
0.8,1.6,0,0.00507437
0.8,1.7,0,0.00537439
0.8,1.8,0,0.00567157
0.8,1.9,0,0.00596486
0.8,2,0,0.00625404
0.8,2.1,0,0.00653793
0.8,2.2,0,0.00682183
0.8,2.3,0,0.00710134
0.8,2.4,0,0.00737698
0.8,2.5,0,0.00764396
0.8,2.6,0,0.0079046
0.8,2.7,0,0.00816523
0.8,2.8,0,0.00842243
0.8,2.9,0,0.00867774
0.8,3,0,0.00891887
0.8,3.1,0,0.0091537
0.8,3.2,0,0.00938852
0.8,3.3,0,0.00961946
0.8,3.4,0,0.00984919
0.8,3.5,0,0.0100593
0.8,3.6,0,0.0102647
0.8,3.7,0,0.0104701
0.8,3.8,0,0.0106715
0.8,3.9,0,0.0108724
0.8,4,0,0.0110476
0.8,4.1,0,0.0112206
0.8,4.2,0,0.0113937
0.8,4.3,0,0.0115628
0.8,4.4,0,0.0117306
0.8,4.5,0,0.0118686
0.8,4.6,0,0.0120066
0.8,4.7,0,0.0121443
0.8,4.8,0,0.012279
0.8,4.9,0,0.0124084
0.8,5,0,0.012509
0.8,5.1,0,0.0126095
0.8,5.2,0,0.0127096
0.8,5.3,0,0.0128076
0.8,5.4,0,0.0128958
0.8,5.5,0,0.0129572
0.8,5.6,0,0.0130185
0.8,5.7,0,0.0130793
0.8,5.8,0,0.0131391
0.8,5.9,0,0.0131839
0.8,6,0,0.0132049
0.8,6.1,0,0.0132259
0.8,6.2,0,0.0132466
0.8,6.3,0,0.0132669
0.8,6.4,0,0.0132672
0.8,6.5,0,0.0132474
0.8,6.6,0,0.0132275
0.8,6.7,0,0.013208
0.8,6.8,0,0.0131886
0.8,6.9,0,0.013144
0.8,7,0,0.0130836
0.8,7.1,0,0.0130233
0.8,7.2,0,0.0129639
0.8,7.3,0,0.0129051
0.8,7.4,0,0.0128163
0.8,7.5,0,0.0127165
0.8,7.6,0,0.0126167
0.8,7.7,0,0.0125189
0.8,7.8,0,0.0124215
0.8,7.9,0,0.0122902
0.8,8,0,0.0121528
0.8,8.1,0,0.0120153
0.8,8.2,0,0.0118809
0.8,8.3,0,0.0117467
0.8,8.4,0,0.0115755
0.8,8.5,0,0.0114027
0.8,8.6,0,0.0112301
0.8,8.7,0,0.0110613
0.8,8.8,0,0.0108897
0.8,8.9,0,0.0106843
0.8,9,0,0.010479
0.8,9.1,0,0.0102743
0.8,9.2,0,0.0100736
0.8,9.3,0,0.00986627
0.8,9.4,0,0.00963138
0.8,9.5,0,0.00939649
0.8,9.6,0,0.00916298
0.8,9.7,0,0.00893336
0.8,9.8,0,0.0086941
0.8,9.9,0,0.00843312
0.8,10,0,0.00817215
0.8,10.1,0,0.00791342
0.8,10.2,0,0.00765841
0.8,10.3,0,0.00739169
0.8,10.4,0,0.00710901
0.8,10.5,0,0.00682632
0.8,10.6,0,0.00654672
0.8,10.7,0,0.00627028
0.8,10.8,0,0.00598031
0.8,10.9,0,0.00567872
0.8,11,0,0.00537713
0.8,11.1,0,0.00508069
0.8,11.2,0,0.00478714
0.8,11.3,0,0.00448446
0.8,11.4,0,0.00417738
0.8,11.5,0,0.00386476
0.8,11.6,0,0.00354986
0.8,11.7,0,0.00323497
0.8,11.8,0,0.0029189
0.8,11.9,0,0.00260254
0.8,12,0,0.0022794
0.8,12.1,0,0.00195461
0.8,12.2,0,0.00162982
0.8,12.3,0,0.00130424
0.8,12.4,0,0.000978585
0.8,12.5,0,0.000652412
0.8,12.6,0,0.000326206
0.8,12.7,0,0
0.9,0,0,0
0.9,0.1,0,0.000325539
0.9,0.2,0,0.000651079
0.9,0.3,0,0.000976618
0.9,0.4,0,0.00130203
0.9,0.5,0,0.00162315
0.9,0.6,0,0.00194383
0.9,0.7,0,0.00226451
0.9,0.8,0,0.0025852
0.9,0.9,0,0.00290556
0.9,1,0,0.00322285
0.9,1.1,0,0.00353918
0.9,1.2,0,0.00385551
0.9,1.3,0,0.00417184
0.9,1.4,0,0.00448541
0.9,1.5,0,0.00479071
0.9,1.6,0,0.00509073
0.9,1.7,0,0.00539075
0.9,1.8,0,0.00569078
0.9,1.9,0,0.00598773
0.9,2,0,0.00627698
0.9,2.1,0,0.00656088
0.9,2.2,0,0.00684477
0.9,2.3,0,0.00712867
0.9,2.4,0,0.00740799
0.9,2.5,0,0.00767497
0.9,2.6,0,0.00793561
0.9,2.7,0,0.00819624
0.9,2.8,0,0.00845688
0.9,2.9,0,0.00871395
0.9,3,0,0.00895508
0.9,3.1,0,0.00918991
0.9,3.2,0,0.00942474
0.9,3.3,0,0.00965956
0.9,3.4,0,0.00989039
0.9,3.5,0,0.0101005
0.9,3.6,0,0.0103059
0.9,3.7,0,0.0105113
0.9,3.8,0,0.0107168
0.9,3.9,0,0.0109181
0.9,4,0,0.0110933
0.9,4.1,0,0.0112663
0.9,4.2,0,0.0114394
0.9,4.3,0,0.0116124
0.9,4.4,0,0.0117802
0.9,4.5,0,0.0119182
0.9,4.6,0,0.0120562
0.9,4.7,0,0.0121942
0.9,4.8,0,0.0123318
0.9,4.9,0,0.0124613
0.9,5,0,0.0125618
0.9,5.1,0,0.0126624
0.9,5.2,0,0.012763
0.9,5.3,0,0.0128629
0.9,5.4,0,0.0129511
0.9,5.5,0,0.0130124
0.9,5.6,0,0.0130738
0.9,5.7,0,0.0131351
0.9,5.8,0,0.0131959
0.9,5.9,0,0.0132407
0.9,6,0,0.0132617
0.9,6.1,0,0.0132827
0.9,6.2,0,0.0133037
0.9,6.3,0,0.0133244
0.9,6.4,0,0.0133247
0.9,6.5,0,0.0133048
0.9,6.6,0,0.013285
0.9,6.7,0,0.0132651
0.9,6.8,0,0.0132456
0.9,6.9,0,0.013201
0.9,7,0,0.0131406
0.9,7.1,0,0.0130803
0.9,7.2,0,0.0130199
0.9,7.3,0,0.0129606
0.9,7.4,0,0.0128718
0.9,7.5,0,0.012772
0.9,7.6,0,0.0126722
0.9,7.7,0,0.0125724
0.9,7.8,0,0.0124746
0.9,7.9,0,0.0123433
0.9,8,0,0.0122059
0.9,8.1,0,0.0120684
0.9,8.2,0,0.0119309
0.9,8.3,0,0.0117966
0.9,8.4,0,0.0116253
0.9,8.5,0,0.0114526
0.9,8.6,0,0.0112798
0.9,8.7,0,0.0111072
0.9,8.8,0,0.0109357
0.9,8.9,0,0.0107303
0.9,9,0,0.0105249
0.9,9.1,0,0.0103195
0.9,9.2,0,0.010115
0.9,9.3,0,0.00990767
0.9,9.4,0,0.00967278
0.9,9.5,0,0.00943789
0.9,9.6,0,0.009203
0.9,9.7,0,0.00896961
0.9,9.8,0,0.00873035
0.9,9.9,0,0.00846937
0.9,10,0,0.0082084
0.9,10.1,0,0.00794742
0.9,10.2,0,0.00768883
0.9,10.3,0,0.00742211
0.9,10.4,0,0.00713943
0.9,10.5,0,0.00685675
0.9,10.6,0,0.00657407
0.9,10.7,0,0.00629461
0.9,10.8,0,0.00600463
0.9,10.9,0,0.00570304
0.9,11,0,0.00540146
0.9,11.1,0,0.00509987
0.9,11.2,0,0.0048037
0.9,11.3,0,0.00450093
0.9,11.4,0,0.00418847
0.9,11.5,0,0.00387357
0.9,11.6,0,0.00355868
0.9,11.7,0,0.00324378
0.9,11.8,0,0.0029277
0.9,11.9,0,0.00260473
0.9,12,0,0.00227995
0.9,12.1,0,0.00195516
0.9,12.2,0,0.00163037
0.9,12.3,0,0.00130478
0.9,12.4,0,0.000978618
0.9,12.5,0,0.000652412
0.9,12.6,0,0.000326206
0.9,12.7,0,0
1,0,0,0
1,0.1,0,0.000325539
1,0.2,0,0.000651079
1,0.3,0,0.000976618
1,0.4,0,0.00130216
1,0.5,0,0.00162753
1,0.6,0,0.00194821
1,0.7,0,0.00226889
1,0.8,0,0.00258957
1,0.9,0,0.00291025
1,1,0,0.00323048
1,1.1,0,0.00354681
1,1.2,0,0.00386314
1,1.3,0,0.00417947
1,1.4,0,0.00449579
1,1.5,0,0.00480707
1,1.6,0,0.00510709
1,1.7,0,0.00540711
1,1.8,0,0.00570714
1,1.9,0,0.00600716
1,2,0,0.00629993
1,2.1,0,0.00658382
1,2.2,0,0.00686772
1,2.3,0,0.00715161
1,2.4,0,0.00743551
1,2.5,0,0.00770598
1,2.6,0,0.00796662
1,2.7,0,0.00822725
1,2.8,0,0.00848789
1,2.9,0,0.00874852
1,3,0,0.00899129
1,3.1,0,0.00922612
1,3.2,0,0.00946095
1,3.3,0,0.00969578
1,3.4,0,0.0099306
1,3.5,0,0.0101417
1,3.6,0,0.0103471
1,3.7,0,0.0105525
1,3.8,0,0.010758
1,3.9,0,0.0109634
1,4,0,0.0111389
1,4.1,0,0.011312
1,4.2,0,0.011485
1,4.3,0,0.0116581
1,4.4,0,0.0118298
1,4.5,0,0.0119678
1,4.6,0,0.0121058
1,4.7,0,0.0122438
1,4.8,0,0.0123818
1,4.9,0,0.0125141
1,5,0,0.0126147
1,5.1,0,0.0127152
1,5.2,0,0.0128158
1,5.3,0,0.0129164
1,5.4,0,0.0130064
1,5.5,0,0.0130677
1,5.6,0,0.0131291
1,5.7,0,0.0131904
1,5.8,0,0.0132518
1,5.9,0,0.0132976
1,6,0,0.0133186
1,6.1,0,0.0133396
1,6.2,0,0.0133605
1,6.3,0,0.0133815
1,6.4,0,0.0133821
1,6.5,0,0.0133622
1,6.6,0,0.0133424
1,6.7,0,0.0133226
1,6.8,0,0.0133027
1,6.9,0,0.013258
1,7,0,0.0131976
1,7.1,0,0.0131373
1,7.2,0,0.0130769
1,7.3,0,0.0130165
1,7.4,0,0.0129274
1,7.5,0,0.0128276
1,7.6,0,0.0127277
1,7.7,0,0.0126279
1,7.8,0,0.0125281
1,7.9,0,0.0123965
1,8,0,0.012259
1,8.1,0,0.0121215
1,8.2,0,0.0119841
1,8.3,0,0.0118466
1,8.4,0,0.0116752
1,8.5,0,0.0115024
1,8.6,0,0.0113297
1,8.7,0,0.0111569
1,8.8,0,0.0109816
1,8.9,0,0.0107762
1,9,0,0.0105709
1,9.1,0,0.0103655
1,9.2,0,0.0101601
1,9.3,0,0.00994907
1,9.4,0,0.00971418
1,9.5,0,0.00947929
1,9.6,0,0.0092444
1,9.7,0,0.00900951
1,9.8,0,0.0087666
1,9.9,0,0.00850562
1,10,0,0.00824465
1,10.1,0,0.00798367
1,10.2,0,0.0077227
1,10.3,0,0.00745254
1,10.4,0,0.00716986
1,10.5,0,0.00688718
1,10.6,0,0.00660449
1,10.7,0,0.00632181
1,10.8,0,0.00602895
1,10.9,0,0.00572737
1,11,0,0.00542578
1,11.1,0,0.00512419
1,11.2,0,0.00482261
1,11.3,0,0.00451218
1,11.4,0,0.00419729
1,11.5,0,0.00388239
1,11.6,0,0.00356749
1,11.7,0,0.00325259
1,11.8,0,0.00293007
1,11.9,0,0.00260528
1,12,0,0.00228049
1,12.1,0,0.00195571
1,12.2,0,0.00163092
1,12.3,0,0.00130482
1,12.4,0,0.000978618
1,12.5,0,0.000652412
1,12.6,0,0.000326206
1,12.7,0,0
1.1,0,0,0
1.1,0.1,0,0.000325539
1.1,0.2,0,0.000651079
1.1,0.3,0,0.000976618
1.1,0.4,0,0.00130229
1.1,0.5,0,0.00163672
1.1,0.6,0,0.0019679
1.1,0.7,0,0.0022885
1.1,0.8,0,0.0026091
1.1,0.9,0,0.0029297
1.1,1,0,0.00325066
1.1,1.1,0,0.00357501
1.1,1.2,0,0.00389121
1.1,1.3,0,0.0042074
1.1,1.4,0,0.00452359
1.1,1.5,0,0.0048388
1.1,1.6,0,0.00514677
1.1,1.7,0,0.00544676
1.1,1.8,0,0.00574675
1.1,1.9,0,0.00604674
1.1,2,0,0.00634487
1.1,2.1,0,0.00663467
1.1,2.2,0,0.006919
1.1,2.3,0,0.00720333
1.1,2.4,0,0.00748766
1.1,2.5,0,0.00776319
1.1,2.6,0,0.0080272
1.1,2.7,0,0.00828783
1.1,2.8,0,0.00854847
1.1,2.9,0,0.0088091
1.1,3,0,0.00905812
1.1,3.1,0,0.00929552
1.1,3.2,0,0.00953035
1.1,3.3,0,0.00976517
1.1,3.4,0,0.01
1.1,3.5,0,0.0102178
1.1,3.6,0,0.0104246
1.1,3.7,0,0.0106301
1.1,3.8,0,0.0108355
1.1,3.9,0,0.0110409
1.1,4,0,0.0112231
1.1,4.1,0,0.0113966
1.1,4.2,0,0.0115696
1.1,4.3,0,0.0117427
1.1,4.4,0,0.0119146
1.1,4.5,0,0.0120581
1.1,4.6,0,0.0121961
1.1,4.7,0,0.0123341
1.1,4.8,0,0.0124721
1.1,4.9,0,0.012605
1.1,5,0,0.0127091
1.1,5.1,0,0.0128097
1.1,5.2,0,0.0129103
1.1,5.3,0,0.0130108
1.1,5.4,0,0.0131016
1.1,5.5,0,0.0131649
1.1,5.6,0,0.0132263
1.1,5.7,0,0.0132876
1.1,5.8,0,0.013349
1.1,5.9,0,0.0133952
1.1,6,0,0.0134168
1.1,6.1,0,0.0134378
1.1,6.2,0,0.0134587
1.1,6.3,0,0.0134797
1.1,6.4,0,0.0134799
1.1,6.5,0,0.0134597
1.1,6.6,0,0.0134398
1.1,6.7,0,0.01342
1.1,6.8,0,0.0134002
1.1,6.9,0,0.0133538
1.1,7,0,0.0132925
1.1,7.1,0,0.0132322
1.1,7.2,0,0.0131718
1.1,7.3,0,0.0131115
1.1,7.4,0,0.0130192
1.1,7.5,0,0.0129183
1.1,7.6,0,0.0128185
1.1,7.7,0,0.0127187
1.1,7.8,0,0.0126189
1.1,7.9,0,0.0124823
1.1,8,0,0.0123441
1.1,8.1,0,0.0122066
1.1,8.2,0,0.0120692
1.1,8.3,0,0.0119317
1.1,8.4,0,0.0117536
1.1,8.5,0,0.0115808