x,y,z,U_0,U_1,U_2
0,0,0,0.299995,-0.000296113,0
0,0.1,0,0.299997,-0.000177668,0
0,0.2,0,0.299999,-5.92226e-05,0
0,0.3,0,0.3,0,0
0,0.4,0,0.3,0,0
0,0.5,0,0.3,0,0
0,0.6,0,0.3,0,0
0,0.7,0,0.3,0,0
0,0.8,0,0.3,0,0
0,0.9,0,0.3,0,0
0,1,0,0.3,0,0
0,1.1,0,0.3,0,0
0,1.2,0,0.3,0,0
0,1.3,0,0.3,0,0
0,1.4,0,0.3,0,0
0,1.5,0,0.3,0,0
0,1.6,0,0.3,0,0
0,1.7,0,0.3,0,0
0,1.8,0,0.3,0,0
0,1.9,0,0.3,0,0
0,2,0,0.3,0,0
0,2.1,0,0.3,0,0
0,2.2,0,0.3,0,0
0,2.3,0,0.3,0,0
0,2.4,0,0.3,0,0
0,2.5,0,0.3,0,0
0,2.6,0,0.3,0,0
0,2.7,0,0.3,0,0
0,2.8,0,0.3,0,0
0,2.9,0,0.3,0,0
0,3,0,0.3,0,0
0,3.1,0,0.3,0,0
0,3.2,0,0.3,0,0
0,3.3,0,0.3,0,0
0,3.4,0,0.3,0,0
0,3.5,0,0.3,0,0
0,3.6,0,0.3,0,0
0,3.7,0,0.3,0,0
0,3.8,0,0.3,0,0
0,3.9,0,0.3,0,0
0,4,0,0.3,0,0
0,4.1,0,0.3,0,0
0,4.2,0,0.3,0,0
0,4.3,0,0.3,0,0
0,4.4,0,0.3,0,0
0,4.5,0,0.3,0,0
0,4.6,0,0.3,0,0
0,4.7,0,0.3,0,0
0,4.8,0,0.3,0,0
0,4.9,0,0.3,0,0
0,5,0,0.3,0,0
0,5.1,0,0.3,0,0
0,5.2,0,0.3,0,0
0,5.3,0,0.3,0,0
0,5.4,0,0.3,0,0
0,5.5,0,0.3,0,0
0,5.6,0,0.3,0,0
0,5.7,0,0.3,0,0
0,5.8,0,0.3,0,0
0,5.9,0,0.3,0,0
0,6,0,0.3,0,0
0,6.1,0,0.3,0,0
0,6.2,0,0.3,0,0
0,6.3,0,0.3,0,0
0,6.4,0,0.3,0,0
0,6.5,0,0.3,0,0
0,6.6,0,0.3,0,0
0,6.7,0,0.3,0,0
0,6.8,0,0.3,0,0
0,6.9,0,0.3,0,0
0,7,0,0.3,0,0
0,7.1,0,0.3,0,0
0,7.2,0,0.3,0,0
0,7.3,0,0.3,0,0
0,7.4,0,0.3,0,0
0,7.5,0,0.3,0,0
0,7.6,0,0.3,0,0
0,7.7,0,0.3,0,0
0,7.8,0,0.3,0,0
0,7.9,0,0.3,0,0
0,8,0,0.3,0,0
0,8.1,0,0.3,0,0
0,8.2,0,0.3,0,0
0,8.3,0,0.3,0,0
0,8.4,0,0.3,0,0
0,8.5,0,0.3,0,0
0,8.6,0,0.3,0,0
0,8.7,0,0.3,0,0
0,8.8,0,0.3,0,0
0,8.9,0,0.3,0,0
0,9,0,0.3,0,0
0,9.1,0,0.3,0,0
0,9.2,0,0.3,0,0
0,9.3,0,0.3,0,0
0,9.4,0,0.3,0,0
0,9.5,0,0.3,0,0
0,9.6,0,0.3,0,0
0,9.7,0,0.3,0,0
0,9.8,0,0.3,0,0
0,9.9,0,0.3,0,0
0,10,0,0.3,0,0
0,10.1,0,0.3,0,0
0,10.2,0,0.3,0,0
0,10.3,0,0.3,0,0
0,10.4,0,0.3,0,0
0,10.5,0,0.3,0,0
0,10.6,0,0.3,0,0
0,10.7,0,0.3,0,0
0,10.8,0,0.3,0,0
0,10.9,0,0.3,0,0
0,11,0,0.3,0,0
0,11.1,0,0.3,0,0
0,11.2,0,0.3,0,0
0,11.3,0,0.3,0,0
0,11.4,0,0.3,0,0
0,11.5,0,0.3,0,0
0,11.6,0,0.3,0,0
0,11.7,0,0.3,0,0
0,11.8,0,0.3,0,0
0,11.9,0,0.3,0,0
0,12,0,0.3,0,0
0,12.1,0,0.3,0,0
0,12.2,0,0.3,0,0
0,12.3,0,0.3,0,0
0,12.4,0,0.3,3.05567e-05,0
0,12.5,0,0.3,0.000117861,0
0,12.6,0,0.3,0.000205166,0
0,12.7,0,0.3,0.000292471,0
0.1,0,0,0.299995,-0.000444251,0
0.1,0.1,0,0.299994,-0.000328647,0
0.1,0.2,0,0.299996,-0.000210202,0
0.1,0.3,0,0.299996,-0.000195506,0
0.1,0.4,0,0.299996,-0.000195506,0
0.1,0.5,0,0.299998,-0.000192064,0
0.1,0.6,0,0.299996,-0.0001937,0
0.1,0.7,0,0.299996,-0.0001937,0
0.1,0.8,0,0.299996,-0.000191147,0
0.1,0.9,0,0.299996,-0.000191147,0
0.1,1,0,0.299996,-0.000187328,0
0.1,1.1,0,0.299995,-0.000187872,0
0.1,1.2,0,0.299995,-0.000187872,0
0.1,1.3,0,0.299995,-0.000183921,0
0.1,1.4,0,0.299995,-0.000183921,0
0.1,1.5,0,0.299994,-0.000179532,0
0.1,1.6,0,0.299995,-0.000179318,0
0.1,1.7,0,0.299995,-0.000179318,0
0.1,1.8,0,0.299995,-0.000174076,0
0.1,1.9,0,0.299995,-0.000174076,0
0.1,2,0,0.299992,-0.000168837,0
0.1,2.1,0,0.299995,-0.000168204,0
0.1,2.2,0,0.299995,-0.000168204,0
0.1,2.3,0,0.299995,-0.00016171,0
0.1,2.4,0,0.299995,-0.00016171,0
0.1,2.5,0,0.29999,-0.000155459,0
0.1,2.6,0,0.299996,-0.000154603,0
0.1,2.7,0,0.299996,-0.000154603,0
0.1,2.8,0,0.299996,-0.00014689,0
0.1,2.9,0,0.299996,-0.00014689,0
0.1,3,0,0.299989,-0.00013968,0
0.1,3.1,0,0.299997,-0.000138583,0
0.1,3.2,0,0.299997,-0.000138583,0
0.1,3.3,0,0.299998,-0.000129699,0
0.1,3.4,0,0.299998,-0.000129699,0
0.1,3.5,0,0.299987,-0.000121819,0
0.1,3.6,0,0.299998,-0.000120265,0
0.1,3.7,0,0.299998,-0.000120265,0
0.1,3.8,0,0.299999,-0.000110316,0
0.1,3.9,0,0.299999,-0.000110316,0
0.1,4,0,0.299986,-0.000102214,0
0.1,4.1,0,0.3,-9.98975e-05,0
0.1,4.2,0,0.3,-9.98975e-05,0
0.1,4.3,0,0.3,-8.90677e-05,0
0.1,4.4,0,0.3,-8.90677e-05,0
0.1,4.5,0,0.299985,-8.11925e-05,0
0.1,4.6,0,0.300001,-7.79203e-05,0
0.1,4.7,0,0.300001,-7.79203e-05,0
0.1,4.8,0,0.300001,-6.65465e-05,0
0.1,4.9,0,0.300001,-6.65465e-05,0
0.1,5,0,0.299984,-6.07682e-05,0
0.1,5.1,0,0.299984,-5.45985e-05,0
0.1,5.2,0,0.299984,-5.0048e-05,0
0.1,5.3,0,0.299984,-4.54738e-05,0
0.1,5.4,0,0.299984,-4.08774e-05,0
0.1,5.5,0,0.299984,-3.62594e-05,0
0.1,5.6,0,0.299984,-3.16221e-05,0
0.1,5.7,0,0.299984,-2.69673e-05,0
0.1,5.8,0,0.299984,-2.22957e-05,0
0.1,5.9,0,0.299984,-1.76069e-05,0
0.1,6,0,0.299984,-1.02339e-05,0
0.1,6.1,0,0.3,-3.20662e-06,0
0.1,6.2,0,0.3,-3.20662e-06,0
0.1,6.3,0,0.299995,-1.27375e-06,0
0.1,6.4,0,0.299999,1.22134e-05,0
0.1,6.5,0,0.299999,1.22134e-05,0
0.1,6.6,0,0.299999,1.22134e-05,0
0.1,6.7,0,0.299992,2.37367e-05,0
0.1,6.8,0,0.299998,2.75291e-05,0
0.1,6.9,0,0.299998,2.75291e-05,0
0.1,7,0,0.299986,3.32989e-05,0
0.1,7.1,0,0.299998,4.25548e-05,0
0.1,7.2,0,0.299998,4.25548e-05,0
0.1,7.3,0,0.299995,4.40203e-05,0
0.1,7.4,0,0.299998,5.72071e-05,0
0.1,7.5,0,0.299998,5.72071e-05,0
0.1,7.6,0,0.299998,5.72071e-05,0
0.1,7.7,0,0.299991,6.75447e-05,0
0.1,7.8,0,0.299997,7.14317e-05,0
0.1,7.9,0,0.299997,7.14317e-05,0
0.1,8,0,0.299988,7.68543e-05,0
0.1,8.1,0,0.299997,8.51732e-05,0
0.1,8.2,0,0.299997,8.51732e-05,0
0.1,8.3,0,0.299996,8.60184e-05,0
0.1,8.4,0,0.299997,9.83723e-05,0
0.1,8.5,0,0.299997,9.83723e-05,0
0.1,8.6,0,0.299997,9.83723e-05,0
0.1,8.7,0,0.299991,0.000107206,0
0.1,8.8,0,0.299998,0.000110963,0
0.1,8.9,0,0.299998,0.000110963,0
0.1,9,0,0.299991,0.000115277,0
0.1,9.1,0,0.299998,0.000122875,0
0.1,9.2,0,0.299998,0.000122875,0
0.1,9.3,0,0.299998,0.000123042,0
0.1,9.4,0,0.299998,0.000133872,0
0.1,9.5,0,0.299998,0.000134039,0
0.1,9.6,0,0.299998,0.000134039,0
0.1,9.7,0,0.299992,0.000140527,0
0.1,9.8,0,0.299998,0.000144385,0
0.1,9.9,0,0.299998,0.000144385,0
0.1,10,0,0.299994,0.0001469,0
0.1,10.1,0,0.299998,0.000153853,0
0.1,10.2,0,0.299998,0.000153853,0
0.1,10.3,0,0.299998,0.000153853,0
0.1,10.4,0,0.299998,0.00016171,0
0.1,10.5,0,0.299999,0.000162388,0
0.1,10.6,0,0.299999,0.000162388,0
0.1,10.7,0,0.299994,0.000165599,0
0.1,10.8,0,0.299999,0.000169944,0
0.1,10.9,0,0.299999,0.000169944,0
0.1,11,0,0.299996,0.000170472,0
0.1,11.1,0,0.299999,0.000176488,0
0.1,11.2,0,0.299999,0.000176488,0
0.1,11.3,0,0.299999,0.000176488,0
0.1,11.4,0,0.299998,0.000180709,0
0.1,11.5,0,0.299999,0.000181991,0
0.1,11.6,0,0.299999,0.000181991,0
0.1,11.7,0,0.299996,0.000180996,0
0.1,11.8,0,0.299999,0.000186381,0
0.1,11.9,0,0.299999,0.000186381,0
0.1,12,0,0.299998,0.000185123,0
0.1,12.1,0,0.299999,0.000189624,0
0.1,12.2,0,0.299999,0.000189624,0
0.1,12.3,0,0.299999,0.000189624,0
0.1,12.4,0,0.299999,0.000189638,0
0.1,12.5,0,0.3,0.000264629,0
0.1,12.6,0,0.299999,0.000351934,0
0.1,12.7,0,0.299998,0.000433222,0
0.2,0,0,0.299995,-0.000592389,0
0.2,0.1,0,0.299992,-0.000479626,0
0.2,0.2,0,0.299995,-0.000390785,0
0.2,0.3,0,0.299994,-0.000389448,0
0.2,0.4,0,0.299993,-0.000391012,0
0.2,0.5,0,0.299995,-0.000384128,0
0.2,0.6,0,0.299992,-0.000387399,0
0.2,0.7,0,0.299992,-0.000384874,0
0.2,0.8,0,0.299992,-0.000381555,0
0.2,0.9,0,0.299991,-0.000382294,0
0.2,1,0,0.299992,-0.000374656,0
0.2,1.1,0,0.299991,-0.000375743,0
0.2,1.2,0,0.29999,-0.000372894,0
0.2,1.3,0,0.29999,-0.000367758,0
0.2,1.4,0,0.29999,-0.000367841,0
0.2,1.5,0,0.299988,-0.000359063,0
0.2,1.6,0,0.29999,-0.000358636,0
0.2,1.7,0,0.299989,-0.000355288,0
0.2,1.8,0,0.299989,-0.000348473,0
0.2,1.9,0,0.29999,-0.000348151,0
0.2,2,0,0.299984,-0.000337674,0
0.2,2.1,0,0.29999,-0.000336407,0
0.2,2.2,0,0.299988,-0.000332392,0
0.2,2.3,0,0.299988,-0.000323951,0
0.2,2.4,0,0.299991,-0.000323421,0
0.2,2.5,0,0.299981,-0.000310918,0
0.2,2.6,0,0.299991,-0.000309207,0
0.2,2.7,0,0.299987,-0.00030448,0
0.2,2.8,0,0.299988,-0.000294452,0
0.2,2.9,0,0.299993,-0.00029378,0
0.2,3,0,0.299978,-0.000279359,0
0.2,3.1,0,0.299994,-0.000277166,0
0.2,3.2,0,0.299988,-0.000271849,0
0.2,3.3,0,0.299988,-0.000260301,0
0.2,3.4,0,0.299995,-0.000259399,0
0.2,3.5,0,0.299974,-0.000243639,0
0.2,3.6,0,0.299997,-0.00024053,0
0.2,3.7,0,0.299988,-0.000234894,0
0.2,3.8,0,0.299989,-0.000221961,0
0.2,3.9,0,0.299998,-0.000220632,0
0.2,4,0,0.299971,-0.000204428,0
0.2,4.1,0,0.299999,-0.000199795,0
0.2,4.2,0,0.299989,-0.000194168,0
0.2,4.3,0,0.29999,-0.00018009,0
0.2,4.4,0,0.300001,-0.000178135,0
0.2,4.5,0,0.299969,-0.000162385,0
0.2,4.6,0,0.300002,-0.000155841,0
0.2,4.7,0,0.29999,-0.000150481,0
0.2,4.8,0,0.299991,-0.000135695,0
0.2,4.9,0,0.300002,-0.000133093,0
0.2,5,0,0.299968,-0.000121536,0
0.2,5.1,0,0.299968,-0.000109197,0
0.2,5.2,0,0.299967,-0.000100096,0
0.2,5.3,0,0.299967,-9.09477e-05,0
0.2,5.4,0,0.299967,-8.17548e-05,0
0.2,5.5,0,0.299967,-7.25188e-05,0
0.2,5.6,0,0.299967,-6.32441e-05,0
0.2,5.7,0,0.299967,-5.39347e-05,0
0.2,5.8,0,0.299967,-4.45914e-05,0
0.2,5.9,0,0.299967,-3.52138e-05,0
0.2,6,0,0.299967,-2.04677e-05,0
0.2,6.1,0,0.299999,-6.83277e-06,0
0.2,6.2,0,0.3,-6.41323e-06,0
0.2,6.3,0,0.299979,1.54297e-06,0
0.2,6.4,0,0.299987,1.74845e-05,0
0.2,6.5,0,0.299998,2.44268e-05,0
0.2,6.6,0,0.299989,2.84322e-05,0
0.2,6.7,0,0.299977,4.2191e-05,0
0.2,6.8,0,0.299997,5.50582e-05,0
0.2,6.9,0,0.299997,5.50582e-05,0
0.2,7,0,0.299971,6.72177e-05,0
0.2,7.1,0,0.299994,8.37561e-05,0
0.2,7.2,0,0.299996,8.51095e-05,0
0.2,7.3,0,0.29998,9.31209e-05,0
0.2,7.4,0,0.299985,0.000107639,0
0.2,7.5,0,0.299995,0.000114414,0
0.2,7.6,0,0.299989,0.000118051,0
0.2,7.7,0,0.299977,0.000131428,0
0.2,7.8,0,0.299994,0.000142863,0
0.2,7.9,0,0.299994,0.000142863,0
0.2,8,0,0.299974,0.000155014,0
0.2,8.1,0,0.299992,0.000168567,0
0.2,8.2,0,0.299994,0.000170346,0
0.2,8.3,0,0.299983,0.000177854,0
0.2,8.4,0,0.299985,0.000190646,0
0.2,8.5,0,0.299994,0.000196745,0
0.2,8.6,0,0.29999,0.000199633,0
0.2,8.7,0,0.299979,0.00021203,0
0.2,8.8,0,0.299995,0.000221926,0
0.2,8.9,0,0.299995,0.000221926,0
0.2,9,0,0.299979,0.000232326,0
0.2,9.1,0,0.299992,0.000243707,0
0.2,9.2,0,0.299996,0.000245751,0
0.2,9.3,0,0.299986,0.000251484,0
0.2,9.4,0,0.299987,0.000262314,0
0.2,9.5,0,0.299996,0.000268078,0
0.2,9.6,0,0.299993,0.000269798,0
0.2,9.7,0,0.299982,0.000279471,0
0.2,9.8,0,0.299997,0.00028877,0
0.2,9.9,0,0.299997,0.00028877,0
0.2,10,0,0.299984,0.000295395,0
0.2,10.1,0,0.299993,0.000305306,0
0.2,10.2,0,0.299997,0.000307705,0
0.2,10.3,0,0.29999,0.000310685,0
0.2,10.4,0,0.299989,0.000318758,0
0.2,10.5,0,0.299998,0.000324775,0
0.2,10.6,0,0.299996,0.000325325,0
0.2,10.7,0,0.299986,0.000330153,0
0.2,10.8,0,0.299998,0.000339887,0
0.2,10.9,0,0.299998,0.000339887,0
0.2,11,0,0.29999,0.000341442,0
0.2,11.1,0,0.299995,0.000349969,0
0.2,11.2,0,0.299998,0.000352975,0
0.2,11.3,0,0.299994,0.000352789,0
0.2,11.4,0,0.299993,0.000356975,0
0.2,11.5,0,0.299999,0.000363983,0
0.2,11.6,0,0.299998,0.000363736,0
0.2,11.7,0,0.299992,0.000361413,0
0.2,11.8,0,0.299999,0.000372762,0
0.2,11.9,0,0.299999,0.000372762,0
0.2,12,0,0.299995,0.000368493,0
0.2,12.1,0,0.299997,0.000375235,0
0.2,12.2,0,0.299999,0.000379249,0
0.2,12.3,0,0.299998,0.000375936,0
0.2,12.4,0,0.299997,0.000374779,0
0.2,12.5,0,0.299999,0.000411397,0
0.2,12.6,0,0.299999,0.000498343,0
0.2,12.7,0,0.299997,0.000573972,0
0.3,0,0,0.299995,-0.000740527,0
0.3,0.1,0,0.29999,-0.000629468,0
0.3,0.2,0,0.299993,-0.000584056,0
0.3,0.3,0,0.299993,-0.000582719,0
0.3,0.4,0,0.299989,-0.000585142,0
0.3,0.5,0,0.299993,-0.000576193,0
0.3,0.6,0,0.299989,-0.000580445,0
0.3,0.7,0,0.299989,-0.000574967,0
0.3,0.8,0,0.299989,-0.000571648,0
0.3,0.9,0,0.299987,-0.000571913,0
0.3,1,0,0.299987,-0.000561984,0
0.3,1.1,0,0.299986,-0.000563398,0
0.3,1.2,0,0.299985,-0.000556695,0
0.3,1.3,0,0.299985,-0.000551559,0
0.3,1.4,0,0.299985,-0.000550006,0
0.3,1.5,0,0.299982,-0.000538595,0
0.3,1.6,0,0.299985,-0.000538039,0
0.3,1.7,0,0.299982,-0.000529823,0
0.3,1.8,0,0.299982,-0.000523008,0
0.3,1.9,0,0.299984,-0.000520132,0
0.3,2,0,0.299977,-0.000506512,0
0.3,2.1,0,0.299984,-0.000504864,0
0.3,2.2,0,0.299979,-0.000494859,0
0.3,2.3,0,0.299979,-0.000486418,0
0.3,2.4,0,0.299984,-0.000482631,0
0.3,2.5,0,0.299971,-0.000466378,0
0.3,2.6,0,0.299985,-0.000464152,0
0.3,2.7,0,0.299977,-0.00045233,0
0.3,2.8,0,0.299978,-0.000442302,0
0.3,2.9,0,0.299986,-0.000437786,0
0.3,3,0,0.299966,-0.000419039,0
0.3,3.1,0,0.299988,-0.000416187,0
0.3,3.2,0,0.299976,-0.000402838,0
0.3,3.3,0,0.299976,-0.000391289,0
0.3,3.4,0,0.299988,-0.000385946,0
0.3,3.5,0,0.299961,-0.000365458,0
0.3,3.6,0,0.299991,-0.000361417,0
0.3,3.7,0,0.299975,-0.000347108,0
0.3,3.8,0,0.299976,-0.000334175,0
0.3,3.9,0,0.299992,-0.000327707,0
0.3,4,0,0.299957,-0.000306642,0
0.3,4.1,0,0.299993,-0.000300619,0
0.3,4.2,0,0.299974,-0.000286028,0
0.3,4.3,0,0.299975,-0.000271949,0
0.3,4.4,0,0.299995,-0.000264053,0
0.3,4.5,0,0.299954,-0.000243578,0
0.3,4.6,0,0.299996,-0.00023507,0
0.3,4.7,0,0.299974,-0.000220744,0
0.3,4.8,0,0.299975,-0.000205958,0
0.3,4.9,0,0.299997,-0.000197328,0
0.3,5,0,0.299952,-0.000182305,0
0.3,5.1,0,0.299952,-0.000163795,0
0.3,5.2,0,0.299951,-0.000150144,0
0.3,5.3,0,0.299951,-0.000136422,0
0.3,5.4,0,0.299951,-0.000122632,0
0.3,5.5,0,0.299951,-0.000108778,0
0.3,5.6,0,0.299951,-9.48662e-05,0
0.3,5.7,0,0.299951,-8.0902e-05,0
0.3,5.8,0,0.299951,-6.68871e-05,0
0.3,5.9,0,0.299951,-5.28207e-05,0
0.3,6,0,0.299951,-3.07016e-05,0
0.3,6.1,0,0.299983,-1.70666e-05,0
0.3,6.2,0,0.299994,-7.32738e-06,0
0.3,6.3,0,0.299963,4.35969e-06,0
0.3,6.4,0,0.299971,2.03012e-05,0
0.3,6.5,0,0.299997,3.66402e-05,0
0.3,6.6,0,0.299973,4.68865e-05,0
0.3,6.7,0,0.299961,6.06454e-05,0
0.3,6.8,0,0.299989,7.8253e-05,0
0.3,6.9,0,0.299982,8.87385e-05,0
0.3,7,0,0.299955,0.000101136,0
0.3,7.1,0,0.299978,0.000117675,0
0.3,7.2,0,0.29999,0.000129521,0
0.3,7.3,0,0.299965,0.000142221,0
0.3,7.4,0,0.29997,0.000156739,0
0.3,7.5,0,0.299993,0.000171621,0
0.3,7.6,0,0.299974,0.000181934,0
0.3,7.7,0,0.299962,0.000195311,0
0.3,7.8,0,0.299985,0.000209957,0
0.3,7.9,0,0.299982,0.000220119,0
0.3,8,0,0.299961,0.000233174,0
0.3,8.1,0,0.299978,0.000246727,0
0.3,8.2,0,0.29999,0.000256763,0
0.3,8.3,0,0.299969,0.000269689,0
0.3,8.4,0,0.299971,0.000282482,0
0.3,8.5,0,0.299992,0.000295117,0
0.3,8.6,0,0.299977,0.000304457,0
0.3,8.7,0,0.299966,0.000316853,0
0.3,8.8,0,0.299986,0.000328766,0
0.3,8.9,0,0.299985,0.000337567,0
0.3,9,0,0.299967,0.000349375,0
0.3,9.1,0,0.29998,0.000360756,0
0.3,9.2,0,0.299993,0.000369125,0
0.3,9.3,0,0.299975,0.000379926,0
0.3,9.4,0,0.299976,0.000390756,0
0.3,9.5,0,0.299994,0.000401615,0
0.3,9.6,0,0.299983,0.000408741,0
0.3,9.7,0,0.299972,0.000418414,0
0.3,9.8,0,0.299989,0.000428973,0
0.3,9.9,0,0.29999,0.000435916,0
0.3,10,0,0.299975,0.00044389,0
0.3,10.1,0,0.299984,0.000453801,0
0.3,10.2,0,0.299995,0.000461558,0
0.3,10.3,0,0.299982,0.000467733,0
0.3,10.4,0,0.299981,0.000475805,0
0.3,10.5,0,0.299995,0.000486167,0
0.3,10.6,0,0.299988,0.000489878,0
0.3,10.7,0,0.299979,0.000494706,0
0.3,10.8,0,0.299992,0.000505165,0
0.3,10.9,0,0.299994,0.000510421,0
0.3,11,0,0.299983,0.000512411,0
0.3,11.1,0,0.299989,0.000520939,0
0.3,11.2,0,0.299997,0.000529463,0
0.3,11.3,0,0.299989,0.000529055,0
0.3,11.4,0,0.299987,0.00053324,0
0.3,11.5,0,0.299997,0.00054435,0
0.3,11.6,0,0.299994,0.000544153,0
0.3,11.7,0,0.299987,0.000541831,0
0.3,11.8,0,0.299995,0.000553402,0
0.3,11.9,0,0.299997,0.000557706,0
0.3,12,0,0.299992,0.000551864,0
0.3,12.1,0,0.299994,0.000558605,0
0.3,12.2,0,0.299998,0.000568873,0
0.3,12.3,0,0.299996,0.000561078,0
0.3,12.4,0,0.299995,0.000559921,0
0.3,12.5,0,0.299998,0.00057277,0
0.3,12.6,0,0.299998,0.000639093,0
0.3,12.7,0,0.299996,0.000714723,0
0.4,0,0,0.299995,-0.000888664,0
0.4,0.1,0,0.29999,-0.000781835,0
0.4,0.2,0,0.299992,-0.000777327,0
0.4,0.3,0,0.299992,-0.000775989,0
0.4,0.4,0,0.299987,-0.000776982,0
0.4,0.5,0,0.299991,-0.000768257,0
0.4,0.6,0,0.299986,-0.000772148,0
0.4,0.7,0,0.299986,-0.000765059,0
0.4,0.8,0,0.299985,-0.00076174,0
0.4,0.9,0,0.299983,-0.000759135,0
0.4,1,0,0.299983,-0.000749312,0
0.4,1.1,0,0.299982,-0.000750319,0
0.4,1.2,0,0.29998,-0.000740497,0
0.4,1.3,0,0.29998,-0.00073536,0
0.4,1.4,0,0.299979,-0.000729526,0
0.4,1.5,0,0.299976,-0.000718127,0
0.4,1.6,0,0.299979,-0.000717093,0
0.4,1.7,0,0.299975,-0.000704359,0
0.4,1.8,0,0.299975,-0.000697544,0
0.4,1.9,0,0.299976,-0.000689015,0
0.4,2,0,0.299969,-0.000675349,0
0.4,2.1,0,0.299976,-0.000673128,0
0.4,2.2,0,0.29997,-0.000657327,0
0.4,2.3,0,0.299971,-0.000648885,0
0.4,2.4,0,0.299974,-0.000638166,0
0.4,2.5,0,0.299962,-0.000621837,0
0.4,2.6,0,0.299975,-0.000618936,0
0.4,2.7,0,0.299966,-0.00060018,0
0.4,2.8,0,0.299967,-0.000590153,0
0.4,2.9,0,0.299974,-0.000577562,0
0.4,3,0,0.299955,-0.000558718,0
0.4,3.1,0,0.299975,-0.000555107,0
0.4,3.2,0,0.299963,-0.000533826,0
0.4,3.3,0,0.299964,-0.000522278,0
0.4,3.4,0,0.299975,-0.000507894,0
0.4,3.5,0,0.299949,-0.000487278,0
0.4,3.6,0,0.299977,-0.000482431,0
0.4,3.7,0,0.299961,-0.000459323,0
0.4,3.8,0,0.299962,-0.000446389,0
0.4,3.9,0,0.299976,-0.000430111,0
0.4,4,0,0.299943,-0.000408856,0
0.4,4.1,0,0.299978,-0.000402029,0
0.4,4.2,0,0.299959,-0.000377887,0
0.4,4.3,0,0.29996,-0.000363808,0
0.4,4.4,0,0.299978,-0.000345525,0
0.4,4.5,0,0.299938,-0.00032477,0
0.4,4.6,0,0.299979,-0.000315497,0
0.4,4.7,0,0.299959,-0.000291007,0
0.4,4.8,0,0.299959,-0.000276221,0
0.4,4.9,0,0.299979,-0.000258468,0
0.4,5,0,0.299936,-0.000243073,0
0.4,5.1,0,0.299935,-0.000218394,0
0.4,5.2,0,0.299935,-0.000200192,0
0.4,5.3,0,0.299935,-0.000181895,0
0.4,5.4,0,0.299935,-0.00016351,0
0.4,5.5,0,0.299935,-0.000145038,0
0.4,5.6,0,0.299934,-0.000126488,0
0.4,5.7,0,0.299934,-0.000107869,0
0.4,5.8,0,0.299935,-8.91829e-05,0
0.4,5.9,0,0.299935,-7.04275e-05,0
0.4,6,0,0.299935,-4.09354e-05,0
0.4,6.1,0,0.299966,-2.73005e-05,0
0.4,6.2,0,0.299976,-5.34973e-06,0
0.4,6.3,0,0.299946,7.17642e-06,0
0.4,6.4,0,0.299955,2.31179e-05,0
0.4,6.5,0,0.299974,4.57282e-05,0
0.4,6.6,0,0.299957,6.53409e-05,0
0.4,6.7,0,0.299945,7.90998e-05,0
0.4,6.8,0,0.299972,9.68505e-05,0
0.4,6.9,0,0.299967,0.000122657,0
0.4,7,0,0.29994,0.000135055,0
0.4,7.1,0,0.299963,0.000151594,0
0.4,7.2,0,0.299972,0.000176752,0
0.4,7.3,0,0.29995,0.000191322,0
0.4,7.4,0,0.299955,0.00020584,0
0.4,7.5,0,0.299972,0.000225604,0
0.4,7.6,0,0.29996,0.000245817,0
0.4,7.7,0,0.299948,0.000259194,0
0.4,7.8,0,0.299971,0.00027384,0
0.4,7.9,0,0.299968,0.000298279,0
0.4,8,0,0.299947,0.000311333,0
0.4,8.1,0,0.299964,0.000324886,0
0.4,8.2,0,0.299973,0.000346399,0
0.4,8.3,0,0.299956,0.000361524,0
0.4,8.4,0,0.299958,0.000374317,0
0.4,8.5,0,0.299974,0.000390275,0
0.4,8.6,0,0.299965,0.000409281,0
0.4,8.7,0,0.299954,0.000421677,0
0.4,8.8,0,0.299973,0.000433589,0
0.4,8.9,0,0.299973,0.000454616,0
0.4,9,0,0.299955,0.000466423,0
0.4,9.1,0,0.299969,0.000477804,0
0.4,9.2,0,0.299978,0.000495175,0
0.4,9.3,0,0.299964,0.000508369,0
0.4,9.4,0,0.299965,0.000519199,0
0.4,9.5,0,0.299979,0.000532071,0
0.4,9.6,0,0.299973,0.000547685,0
0.4,9.7,0,0.299961,0.000557357,0
0.4,9.8,0,0.299978,0.000567916,0
0.4,9.9,0,0.299981,0.000584411,0
0.4,10,0,0.299965,0.000592386,0
0.4,10.1,0,0.299975,0.000602297,0
0.4,10.2,0,0.299983,0.000615863,0
0.4,10.3,0,0.299973,0.00062478,0
0.4,10.4,0,0.299972,0.000632852,0
0.4,10.5,0,0.299984,0.000643893,0
0.4,10.6,0,0.299981,0.000654432,0
0.4,10.7,0,0.299971,0.000659259,0
0.4,10.8,0,0.299984,0.000669718,0
0.4,10.9,0,0.299988,0.00068139,0
0.4,11,0,0.299977,0.000683381,0
0.4,11.1,0,0.299982,0.000691909,0
0.4,11.2,0,0.299989,0.000702416,0
0.4,11.3,0,0.299983,0.00070532,0
0.4,11.4,0,0.299982,0.000709505,0
0.4,11.5,0,0.299991,0.000720275,0
0.4,11.6,0,0.299989,0.000724571,0
0.4,11.7,0,0.299983,0.000722248,0
0.4,11.8,0,0.29999,0.00073382,0
0.4,11.9,0,0.299994,0.000740942,0
0.4,12,0,0.299989,0.000735234,0
0.4,12.1,0,0.299991,0.000741975,0
0.4,12.2,0,0.299995,0.00075053,0
0.4,12.3,0,0.299994,0.000746219,0
0.4,12.4,0,0.299993,0.000745062,0
0.4,12.5,0,0.299996,0.000757192,0
0.4,12.6,0,0.299997,0.000779844,0
0.4,12.7,0,0.299994,0.000855474,0
0.5,0,0,0.299995,-0.0010368,0
0.5,0.1,0,0.299991,-0.000972265,0
0.5,0.2,0,0.299991,-0.000970597,0
0.5,0.3,0,0.29999,-0.00096926,0
0.5,0.4,0,0.299987,-0.000966811,0
0.5,0.5,0,0.299988,-0.000960321,0
0.5,0.6,0,0.299985,-0.000960605,0
0.5,0.7,0,0.299983,-0.000955151,0
0.5,0.8,0,0.299982,-0.000951832,0
0.5,0.9,0,0.29998,-0.000945409,0
0.5,1,0,0.299979,-0.00093664,0
0.5,1.1,0,0.299977,-0.000933576,0
0.5,1.2,0,0.299975,-0.000924298,0
0.5,1.3,0,0.299975,-0.000919162,0
0.5,1.4,0,0.299972,-0.000908939,0
0.5,1.5,0,0.29997,-0.000897659,0
0.5,1.6,0,0.299971,-0.000891842,0
0.5,1.7,0,0.299968,-0.000878894,0
0.5,1.8,0,0.299968,-0.000872079,0
0.5,1.9,0,0.299966,-0.000858312,0
0.5,2,0,0.299961,-0.000844186,0
0.5,2.1,0,0.299964,-0.000836229,0
0.5,2.2,0,0.299962,-0.000819794,0
0.5,2.3,0,0.299962,-0.000811353,0
0.5,2.4,0,0.299961,-0.000794382,0
0.5,2.5,0,0.299952,-0.000777296,0
0.5,2.6,0,0.299959,-0.000767642,0
0.5,2.7,0,0.299956,-0.00074803,0
0.5,2.8,0,0.299957,-0.000738003,0
0.5,2.9,0,0.299956,-0.000718201,0
0.5,3,0,0.299944,-0.000698397,0
0.5,3.1,0,0.299955,-0.000687192,0
0.5,3.2,0,0.299951,-0.000664814,0
0.5,3.3,0,0.299952,-0.000653266,0
0.5,3.4,0,0.299952,-0.000631003,0
0.5,3.5,0,0.299936,-0.000609097,0
0.5,3.6,0,0.299952,-0.000596199,0
0.5,3.7,0,0.299948,-0.000571537,0
0.5,3.8,0,0.299948,-0.000558603,0
0.5,3.9,0,0.299949,-0.000534223,0
0.5,4,0,0.299928,-0.000511069,0
0.5,4.1,0,0.299949,-0.000496205,0
0.5,4.2,0,0.299944,-0.000469747,0
0.5,4.3,0,0.299945,-0.000455668,0
0.5,4.4,0,0.299947,-0.000429509,0
0.5,4.5,0,0.299923,-0.000405963,0
0.5,4.6,0,0.299947,-0.000389032,0
0.5,4.7,0,0.299943,-0.00036127,0
0.5,4.8,0,0.299943,-0.000346484,0
0.5,4.9,0,0.299946,-0.000322953,0
0.5,5,0,0.29992,-0.000303841,0
0.5,5.1,0,0.299919,-0.000272993,0
0.5,5.2,0,0.299919,-0.00025024,0
0.5,5.3,0,0.299918,-0.000227369,0
0.5,5.4,0,0.299918,-0.000204387,0
0.5,5.5,0,0.299918,-0.000181297,0
0.5,5.6,0,0.299918,-0.00015811,0
0.5,5.7,0,0.299918,-0.000134837,0
0.5,5.8,0,0.299918,-0.000111479,0
0.5,5.9,0,0.299918,-8.80344e-05,0
0.5,6,0,0.299919,-5.11693e-05,0
0.5,6.1,0,0.299943,-3.48823e-05,0
0.5,6.2,0,0.299943,-9.56025e-06,0
0.5,6.3,0,0.29993,9.99314e-06,0
0.5,6.4,0,0.299939,2.59346e-05,0
0.5,6.5,0,0.299943,5.47859e-05,0
0.5,6.6,0,0.299941,8.37953e-05,0
0.5,6.7,0,0.299929,9.75541e-05,0
0.5,6.8,0,0.299943,0.000121695,0
0.5,6.9,0,0.299944,0.0001517,0
0.5,7,0,0.299924,0.000168974,0
0.5,7.1,0,0.299943,0.00018776,0
0.5,7.2,0,0.299944,0.000217217,0
0.5,7.3,0,0.299935,0.000240423,0
0.5,7.4,0,0.29994,0.00025494,0
0.5,7.5,0,0.299945,0.000281381,0
0.5,7.6,0,0.299945,0.0003097,0
0.5,7.7,0,0.299934,0.000323077,0
0.5,7.8,0,0.299946,0.000343949,0
0.5,7.9,0,0.299947,0.00037165,0
0.5,8,0,0.299933,0.000389493,0
0.5,8.1,0,0.299948,0.000404687,0
0.5,8.2,0,0.299949,0.000431221,0
0.5,8.3,0,0.299943,0.000453359,0
0.5,8.4,0,0.299945,0.000466152,0
0.5,8.5,0,0.299951,0.000488561,0
0.5,8.6,0,0.299952,0.000513763,0
0.5,8.7,0,0.299941,0.000526501,0
0.5,8.8,0,0.299953,0.000543454,0
0.5,8.9,0,0.299954,0.000567174,0
0.5,9,0,0.299943,0.000583472,0
0.5,9.1,0,0.299955,0.000595684,0
0.5,9.2,0,0.299957,0.000617791,0
0.5,9.3,0,0.299953,0.000636811,0
0.5,9.4,0,0.299953,0.000647641,0
0.5,9.5,0,0.29996,0.000665418,0
0.5,9.6,0,0.299961,0.000685793,0
0.5,9.7,0,0.299951,0.000696301,0
0.5,9.8,0,0.299962,0.000709865,0
0.5,9.9,0,0.299964,0.000728398,0
0.5,10,0,0.299956,0.000740881,0
0.5,10.1,0,0.299965,0.000750959,0
0.5,10.2,0,0.299967,0.000767552,0
0.5,10.3,0,0.299965,0.000781827,0
0.5,10.4,0,0.299964,0.0007899,0
0.5,10.5,0,0.29997,0.000803106,0
0.5,10.6,0,0.299972,0.00081767,0
0.5,10.7,0,0.299964,0.000823813,0
0.5,10.8,0,0.299973,0.000834922,0
0.5,10.9,0,0.299975,0.000847372,0
0.5,11,0,0.29997,0.000854351,0
0.5,11.1,0,0.299976,0.000862878,0
0.5,11.2,0,0.299978,0.000873163,0
0.5,11.3,0,0.299978,0.000881585,0
0.5,11.4,0,0.299976,0.00088577,0
0.5,11.5,0,0.299981,0.000894966,0
0.5,11.6,0,0.299983,0.000903022,0
0.5,11.7,0,0.299978,0.000902665,0
0.5,11.8,0,0.299984,0.000912619,0
0.5,11.9,0,0.299987,0.000918349,0
0.5,12,0,0.299985,0.000918604,0
0.5,12.1,0,0.299987,0.000925346,0
0.5,12.2,0,0.29999,0.000929417,0
0.5,12.3,0,0.299992,0.00093136,0
0.5,12.4,0,0.299991,0.000930203,0
0.5,12.5,0,0.299993,0.000936316,0
0.5,12.6,0,0.299994,0.00093749,0
0.5,12.7,0,0.299993,0.000996224,0
0.6,0,0,0.299995,-0.00118494,0
0.6,0.1,0,0.299993,-0.00116269,0
0.6,0.2,0,0.299991,-0.0011616,0
0.6,0.3,0,0.29999,-0.00115978,0
0.6,0.4,0,0.299987,-0.00115664,0
0.6,0.5,0,0.299986,-0.00115239,0
0.6,0.6,0,0.299983,-0.00114906,0
0.6,0.7,0,0.299981,-0.00114394,0
0.6,0.8,0,0.299979,-0.00113887,0
0.6,0.9,0,0.299977,-0.00113168,0
0.6,1,0,0.299975,-0.00112397,0
0.6,1.1,0,0.299972,-0.00111683,0
0.6,1.2,0,0.29997,-0.00110766,0
0.6,1.3,0,0.299968,-0.00109945,0
0.6,1.4,0,0.299966,-0.00108835,0
0.6,1.5,0,0.299964,-0.00107719,0
0.6,1.6,0,0.299963,-0.00106659,0
0.6,1.7,0,0.29996,-0.0010536,0
0.6,1.8,0,0.299959,-0.00104242,0
0.6,1.9,0,0.299957,-0.00102761,0
0.6,2,0,0.299953,-0.00101302,0
0.6,2.1,0,0.299953,-0.00099933,0
0.6,2.2,0,0.299951,-0.000982768,0
0.6,2.3,0,0.299949,-0.000968819,0
0.6,2.4,0,0.299947,-0.000950598,0
0.6,2.5,0,0.299943,-0.000932755,0
0.6,2.6,0,0.299944,-0.000916348,0
0.6,2.7,0,0.299942,-0.000896565,0
0.6,2.8,0,0.299941,-0.000880084,0
0.6,2.9,0,0.299938,-0.000858841,0
0.6,3,0,0.299933,-0.000838077,0
0.6,3.1,0,0.299935,-0.000819277,0
0.6,3.2,0,0.299933,-0.00079668,0
0.6,3.3,0,0.299932,-0.00077795,0
0.6,3.4,0,0.29993,-0.000754111,0
0.6,3.5,0,0.299923,-0.000730916,0
0.6,3.6,0,0.299927,-0.000709968,0
0.6,3.7,0,0.299925,-0.000684994,0
0.6,3.8,0,0.299924,-0.000664336,0
0.6,3.9,0,0.299922,-0.000638335,0
0.6,4,0,0.299914,-0.000613283,0
0.6,4.1,0,0.29992,-0.000590381,0
0.6,4.2,0,0.299918,-0.000563459,0
0.6,4.3,0,0.299918,-0.000541227,0
0.6,4.4,0,0.299916,-0.000513493,0
0.6,4.5,0,0.299907,-0.000487155,0
0.6,4.6,0,0.299915,-0.000462567,0
0.6,4.7,0,0.299914,-0.000434151,0
0.6,4.8,0,0.299913,-0.000412124,0
0.6,4.9,0,0.299913,-0.000387438,0
0.6,5,0,0.299904,-0.000364609,0
0.6,5.1,0,0.299903,-0.000327591,0
0.6,5.2,0,0.299902,-0.000300288,0
0.6,5.3,0,0.299902,-0.000272843,0
0.6,5.4,0,0.299902,-0.000245264,0
0.6,5.5,0,0.299902,-0.000217557,0
0.6,5.6,0,0.299902,-0.000189732,0
0.6,5.7,0,0.299902,-0.000161804,0
0.6,5.8,0,0.299902,-0.000133774,0
0.6,5.9,0,0.299902,-0.000105641,0
0.6,6,0,0.299902,-6.14032e-05,0
0.6,6.1,0,0.299911,-3.90928e-05,0
0.6,6.2,0,0.299911,-1.37708e-05,0
0.6,6.3,0,0.299911,1.15513e-05,0
0.6,6.4,0,0.299911,3.35019e-05,0
0.6,6.5,0,0.299912,6.38436e-05,0
0.6,6.6,0,0.299912,9.41853e-05,0
0.6,6.7,0,0.299912,0.000116533,0
0.6,6.8,0,0.299913,0.000146539,0
0.6,6.9,0,0.299914,0.000176544,0
0.6,7,0,0.299909,0.000202893,0
0.6,7.1,0,0.299915,0.000228224,0
0.6,7.2,0,0.299916,0.000257681,0
0.6,7.3,0,0.299917,0.000287139,0
0.6,7.4,0,0.299917,0.000308475,0
0.6,7.5,0,0.299918,0.000337157,0
0.6,7.6,0,0.299919,0.00036584,0
0.6,7.7,0,0.299919,0.00038696,0
0.6,7.8,0,0.29992,0.00041456,0
0.6,7.9,0,0.299922,0.000442261,0
0.6,8,0,0.299919,0.000467653,0
0.6,8.1,0,0.299923,0.000489508,0
0.6,8.2,0,0.299924,0.000516043,0
0.6,8.3,0,0.299926,0.000542577,0
0.6,8.4,0,0.299926,0.000561646,0
0.6,8.5,0,0.299927,0.000586848,0
0.6,8.6,0,0.299929,0.000612049,0
0.6,8.7,0,0.299928,0.000631324,0
0.6,8.8,0,0.299931,0.000654363,0
0.6,8.9,0,0.299932,0.000678083,0
0.6,9,0,0.299931,0.000700521,0
0.6,9.1,0,0.299934,0.0007183,0
0.6,9.2,0,0.299936,0.000740407,0
0.6,9.3,0,0.299937,0.000762514,0
0.6,9.4,0,0.299938,0.000778389,0
0.6,9.5,0,0.29994,0.000798764,0
0.6,9.6,0,0.299942,0.00081914,0
0.6,9.7,0,0.299941,0.000835244,0
0.6,9.8,0,0.299944,0.000852919,0
0.6,9.9,0,0.299946,0.000871452,0
0.6,10,0,0.299947,0.000889376,0
0.6,10.1,0,0.299948,0.000902648,0
0.6,10.2,0,0.29995,0.000919242,0
0.6,10.3,0,0.299952,0.000935836,0
0.6,10.4,0,0.299953,0.000947755,0
0.6,10.5,0,0.299955,0.000962319,0
0.6,10.6,0,0.299957,0.000976883,0
0.6,10.7,0,0.299956,0.000988366,0
0.6,10.8,0,0.29996,0.0010005,0
0.6,10.9,0,0.299962,0.00101295,0
0.6,11,0,0.299964,0.00102532,0
0.6,11.1,0,0.299965,0.00103364,0
0.6,11.2,0,0.299967,0.00104391,0
0.6,11.3,0,0.299969,0.00105419,0
0.6,11.4,0,0.29997,0.0010616,0
0.6,11.5,0,0.299972,0.00106966,0
0.6,11.6,0,0.299974,0.00107771,0
0.6,11.7,0,0.299974,0.00108308,0
0.6,11.8,0,0.299977,0.00109003,0
0.6,11.9,0,0.29998,0.00109576,0
0.6,12,0,0.299982,0.00110148,0
0.6,12.1,0,0.299983,0.00110487,0
0.6,12.2,0,0.299985,0.0011083,0
0.6,12.3,0,0.299988,0.00111174,0
0.6,12.4,0,0.299989,0.00111427,0
0.6,12.5,0,0.29999,0.00111544,0
0.6,12.6,0,0.299991,0.00111661,0
0.6,12.7,0,0.299992,0.00113698,0
0.7,0,0,0.299993,-0.00135167,0
0.7,0.1,0,0.299994,-0.00135355,0
0.7,0.2,0,0.299993,-0.00135245,0
0.7,0.3,0,0.29999,-0.00134997,0
0.7,0.4,0,0.299987,-0.00134683,0
0.7,0.5,0,0.299982,-0.00134079,0
0.7,0.6,0,0.299981,-0.00133792,0
0.7,0.7,0,0.299979,-0.0013328,0
0.7,0.8,0,0.299976,-0.00132553,0
0.7,0.9,0,0.299973,-0.00131834,0
0.7,1,0,0.299966,-0.0013083,0
0.7,1.1,0,0.299968,-0.00130047,0
0.7,1.2,0,0.299965,-0.0012913,0
0.7,1.3,0,0.299962,-0.00127923,0
0.7,1.4,0,0.29996,-0.00126813,0
0.7,1.5,0,0.299951,-0.00125441,0
0.7,1.6,0,0.299955,-0.0012417,0
0.7,1.7,0,0.299952,-0.00122871,0
0.7,1.8,0,0.299949,-0.00121206,0
0.7,1.9,0,0.299947,-0.00119725,0
0.7,2,0,0.299937,-0.0011802,0
0.7,2.1,0,0.299941,-0.00116276,0
0.7,2.2,0,0.299939,-0.0011462,0
0.7,2.3,0,0.299936,-0.00112535,0
0.7,2.4,0,0.299934,-0.00110712,0
0.7,2.5,0,0.299924,-0.00108716,0
0.7,2.6,0,0.299928,-0.00106535,0
0.7,2.7,0,0.299926,-0.00104556,0
0.7,2.8,0,0.299923,-0.00102099,0
0.7,2.9,0,0.299921,-0.000999751,0
0.7,3,0,0.299911,-0.000977209,0
0.7,3.1,0,0.299915,-0.000951612,0
0.7,3.2,0,0.299913,-0.000929015,0
0.7,3.3,0,0.299909,-0.000901287,0
0.7,3.4,0,0.299907,-0.000877448,0
0.7,3.5,0,0.299898,-0.000852546,0
0.7,3.6,0,0.299902,-0.000823945,0
0.7,3.7,0,0.2999,-0.000798971,0
0.7,3.8,0,0.299897,-0.000768635,0
0.7,3.9,0,0.299895,-0.000742634,0
0.7,4,0,0.299888,-0.000715474,0
0.7,4.1,0,0.299891,-0.000684724,0
0.7,4.2,0,0.299889,-0.000657802,0
0.7,4.3,0,0.299887,-0.000625357,0
0.7,4.4,0,0.299886,-0.000597623,0
0.7,4.5,0,0.299879,-0.000568317,0
0.7,4.6,0,0.299883,-0.00053622,0
0.7,4.7,0,0.299882,-0.000507804,0
0.7,4.8,0,0.29988,-0.000475057,0
0.7,4.9,0,0.29988,-0.000450371,0
0.7,5,0,0.299875,-0.000425214,0
0.7,5.1,0,0.299874,-0.000381951,0
0.7,5.2,0,0.299873,-0.000350038,0
0.7,5.3,0,0.299872,-0.000317958,0
0.7,5.4,0,0.299872,-0.000285724,0
0.7,5.5,0,0.299872,-0.000253342,0
0.7,5.6,0,0.299872,-0.000220829,0
0.7,5.7,0,0.299871,-0.000188201,0
0.7,5.8,0,0.299872,-0.000155462,0
0.7,5.9,0,0.299872,-0.000122613,0
0.7,6,0,0.299872,-7.09833e-05,0
0.7,6.1,0,0.299878,-4.59528e-05,0
0.7,6.2,0,0.299879,-2.06308e-05,0
0.7,6.3,0,0.299879,4.69122e-06,0
0.7,6.4,0,0.29988,4.26221e-05,0
0.7,6.5,0,0.299881,7.29638e-05,0
0.7,6.6,0,0.299881,0.000103305,0
0.7,6.7,0,0.299883,0.000141488,0
0.7,6.8,0,0.299883,0.000171493,0
0.7,6.9,0,0.299884,0.000201499,0