x,y,z,p
0,0,0,1.91543e-05
0,0.1,0,4.00237e-05
0,0.2,0,6.0893e-05
0,0.3,0,8.55348e-05
0,0.4,0,0.000113949
0,0.5,0,0.000142363
0,0.6,0,0.000170558
0,0.7,0,0.000198752
0,0.8,0,0.000226782
0,0.9,0,0.000254647
0,1,0,0.000282512
0,1.1,0,0.00030994
0,1.2,0,0.000337369
0,1.3,0,0.000364528
0,1.4,0,0.000391416
0,1.5,0,0.000418304
0,1.6,0,0.000444547
0,1.7,0,0.000470791
0,1.8,0,0.000496662
0,1.9,0,0.00052216
0,2,0,0.000547657
0,2.1,0,0.000572309
0,2.2,0,0.000596961
0,2.3,0,0.00062114
0,2.4,0,0.000644848
0,2.5,0,0.000668556
0,2.6,0,0.000691225
0,2.7,0,0.000713893
0,2.8,0,0.000735995
0,2.9,0,0.000757531
0,3,0,0.000779067
0,3.1,0,0.000799378
0,3.2,0,0.000819689
0,3.3,0,0.000839342
0,3.4,0,0.000858338
0,3.5,0,0.000877333
0,3.6,0,0.000894924
0,3.7,0,0.000912514
0,3.8,0,0.000929358
0,3.9,0,0.000945457
0,4,0,0.000961555
0,4.1,0,0.000976072
0,4.2,0,0.00099059
0,4.3,0,0.00100427
0,4.4,0,0.00101711
0,4.5,0,0.00102994
0,4.6,0,0.00104102
0,4.7,0,0.00105209
0,4.8,0,0.0010617
0,4.9,0,0.00106983
0,5,0,0.00107796
0,5.1,0,0.00108925
0,5.2,0,0.00109664
0,5.3,0,0.00110331
0,5.4,0,0.00110932
0,5.5,0,0.00111465
0,5.6,0,0.00111929
0,5.7,0,0.00112325
0,5.8,0,0.00112655
0,5.9,0,0.00112914
0,6,0,0.00113164
0,6.1,0,0.00113161
0,6.2,0,0.00113159
0,6.3,0,0.00113157
0,6.4,0,0.00113012
0,6.5,0,0.0011279
0,6.6,0,0.00112568
0,6.7,0,0.00112271
0,6.8,0,0.001118
0,6.9,0,0.00111329
0,7,0,0.00110859
0,7.1,0,0.00110169
0,7.2,0,0.00109467
0,7.3,0,0.00108766
0,7.4,0,0.00107933
0,7.5,0,0.00107014
0,7.6,0,0.00106094
0,7.7,0,0.00105123
0,7.8,0,0.00103998
0,7.9,0,0.00102874
0,8,0,0.00101749
0,8.1,0,0.0010045
0,8.2,0,0.000991328
0,8.3,0,0.000978152
0,8.4,0,0.000963981
0,8.5,0,0.000948997
0,8.6,0,0.000934012
0,8.7,0,0.00091869
0,8.8,0,0.000902014
0,8.9,0,0.000885338
0,9,0,0.000868662
0,9.1,0,0.000850648
0,9.2,0,0.000832398
0,9.3,0,0.000814147
0,9.4,0,0.000795169
0,9.5,0,0.000775464
0,9.6,0,0.000755759
0,9.7,0,0.000735854
0,9.8,0,0.000714818
0,9.9,0,0.000693782
0,10,0,0.000672746
0,10.1,0,0.00065075
0,10.2,0,0.000628513
0,10.3,0,0.000606276
0,10.4,0,0.00058356
0,10.5,0,0.000560257
0,10.6,0,0.000536954
0,10.7,0,0.000513559
0,10.8,0,0.000489331
0,10.9,0,0.000465103
0,11,0,0.000440875
0,11.1,0,0.000416062
0,11.2,0,0.000391054
0,11.3,0,0.000366046
0,11.4,0,0.000340786
0,11.5,0,0.000315148
0,11.6,0,0.00028951
0,11.7,0,0.000263848
0,11.8,0,0.000237733
0,11.9,0,0.000211617
0,12,0,0.000185501
0,12.1,0,0.000159162
0,12.2,0,0.000132726
0,12.3,0,0.000106291
0,12.4,0,8.22727e-05
0,12.5,0,6.27435e-05
0,12.6,0,4.32144e-05
0,12.7,0,2.36853e-05
0.1,0,0,1.62075e-05
0.1,0.1,0,3.70906e-05
0.1,0.2,0,5.79599e-05
0.1,0.3,0,8.5566e-05
0.1,0.4,0,0.00011398
0.1,0.5,0,0.000142754
0.1,0.6,0,0.000170611
0.1,0.7,0,0.000198805
0.1,0.8,0,0.000226856
0.1,0.9,0,0.00025472
0.1,1,0,0.000283246
0.1,1.1,0,0.000310034
0.1,1.2,0,0.000337463
0.1,1.3,0,0.000364642
0.1,1.4,0,0.00039153
0.1,1.5,0,0.000419307
0.1,1.6,0,0.000444681
0.1,1.7,0,0.000470925
0.1,1.8,0,0.000496815
0.1,1.9,0,0.000522313
0.1,2,0,0.000548829
0.1,2.1,0,0.000572481
0.1,2.2,0,0.000597133
0.1,2.3,0,0.000621331
0.1,2.4,0,0.000645039
0.1,2.5,0,0.000669781
0.1,2.6,0,0.000691434
0.1,2.7,0,0.000714102
0.1,2.8,0,0.000736222
0.1,2.9,0,0.000757758
0.1,3,0,0.000780238
0.1,3.1,0,0.000799622
0.1,3.2,0,0.000819933
0.1,3.3,0,0.000839604
0.1,3.4,0,0.000858599
0.1,3.5,0,0.000878373
0.1,3.6,0,0.000895202
0.1,3.7,0,0.000912793
0.1,3.8,0,0.000929654
0.1,3.9,0,0.000945752
0.1,4,0,0.000962445
0.1,4.1,0,0.000976385
0.1,4.2,0,0.000990902
0.1,4.3,0,0.0010046
0.1,4.4,0,0.00101744
0.1,4.5,0,0.00103076
0.1,4.6,0,0.00104136
0.1,4.7,0,0.00105244
0.1,4.8,0,0.00106248
0.1,4.9,0,0.00107061
0.1,5,0,0.00107878
0.1,5.1,0,0.00109007
0.1,5.2,0,0.00109747
0.1,5.3,0,0.00110416
0.1,5.4,0,0.00111018
0.1,5.5,0,0.00111551
0.1,5.6,0,0.00112016
0.1,5.7,0,0.00112411
0.1,5.8,0,0.00112739
0.1,5.9,0,0.00112996
0.1,6,0,0.0011325
0.1,6.1,0,0.00113208
0.1,6.2,0,0.00113205
0.1,6.3,0,0.00113217
0.1,6.4,0,0.00113079
0.1,6.5,0,0.00112857
0.1,6.6,0,0.00112635
0.1,6.7,0,0.00112344
0.1,6.8,0,0.00111861
0.1,6.9,0,0.0011139
0.1,7,0,0.00110959
0.1,7.1,0,0.00110226
0.1,7.2,0,0.00109525
0.1,7.3,0,0.00108838
0.1,7.4,0,0.00107988
0.1,7.5,0,0.00107068
0.1,7.6,0,0.00106149
0.1,7.7,0,0.0010522
0.1,7.8,0,0.0010405
0.1,7.9,0,0.00102925
0.1,8,0,0.00101882
0.1,8.1,0,0.00100499
0.1,8.2,0,0.000991809
0.1,8.3,0,0.000978779
0.1,8.4,0,0.000964432
0.1,8.5,0,0.000949448
0.1,8.6,0,0.000934463
0.1,8.7,0,0.000919882
0.1,8.8,0,0.000902435
0.1,8.9,0,0.000885759
0.1,9,0,0.000869971
0.1,9.1,0,0.000851039
0.1,9.2,0,0.000832788
0.1,9.3,0,0.000814574
0.1,9.4,0,0.000795566
0.1,9.5,0,0.000775823
0.1,9.6,0,0.000756118
0.1,9.7,0,0.000737024
0.1,9.8,0,0.000715144
0.1,9.9,0,0.000694108
0.1,10,0,0.000673721
0.1,10.1,0,0.000651042
0.1,10.2,0,0.000628805
0.1,10.3,0,0.000606569
0.1,10.4,0,0.00058394
0.1,10.5,0,0.000560514
0.1,10.6,0,0.000537211
0.1,10.7,0,0.000514458
0.1,10.8,0,0.000489551
0.1,10.9,0,0.000465323
0.1,11,0,0.000441438
0.1,11.1,0,0.000416244
0.1,11.2,0,0.000391236
0.1,11.3,0,0.000366228
0.1,11.4,0,0.000341056
0.1,11.5,0,0.000315291
0.1,11.6,0,0.000289653
0.1,11.7,0,0.000264337
0.1,11.8,0,0.000237836
0.1,11.9,0,0.00021172
0.1,12,0,0.000185709
0.1,12.1,0,0.000159223
0.1,12.2,0,0.000132788
0.1,12.3,0,0.000106352
0.1,12.4,0,7.98707e-05
0.1,12.5,0,5.91226e-05
0.1,12.6,0,3.95935e-05
0.1,12.7,0,2.00414e-05
0.2,0,0,1.32607e-05
0.2,0.1,0,3.41575e-05
0.2,0.2,0,5.72192e-05
0.2,0.3,0,8.57147e-05
0.2,0.4,0,0.000114011
0.2,0.5,0,0.000143144
0.2,0.6,0,0.000170664
0.2,0.7,0,0.00019922
0.2,0.8,0,0.000227277
0.2,0.9,0,0.000254794
0.2,1,0,0.00028398
0.2,1.1,0,0.000310128
0.2,1.2,0,0.000338107
0.2,1.3,0,0.000365292
0.2,1.4,0,0.000391644
0.2,1.5,0,0.00042031
0.2,1.6,0,0.000444815
0.2,1.7,0,0.000471736
0.2,1.8,0,0.000497632
0.2,1.9,0,0.000522466
0.2,2,0,0.00055
0.2,2.1,0,0.000572654
0.2,2.2,0,0.000598034
0.2,2.3,0,0.000622237
0.2,2.4,0,0.00064523
0.2,2.5,0,0.000671007
0.2,2.6,0,0.000691643
0.2,2.7,0,0.000715012
0.2,2.8,0,0.000737137
0.2,2.9,0,0.000757985
0.2,3,0,0.000781409
0.2,3.1,0,0.000799867
0.2,3.2,0,0.000820785
0.2,3.3,0,0.000840461
0.2,3.4,0,0.000858861
0.2,3.5,0,0.000879413
0.2,3.6,0,0.000895481
0.2,3.7,0,0.000913551
0.2,3.8,0,0.000930417
0.2,3.9,0,0.000946047
0.2,4,0,0.000963335
0.2,4.1,0,0.000976697
0.2,4.2,0,0.00099158
0.2,4.3,0,0.00100528
0.2,4.4,0,0.00101777
0.2,4.5,0,0.00103157
0.2,4.6,0,0.00104171
0.2,4.7,0,0.00105313
0.2,4.8,0,0.0010633
0.2,4.9,0,0.0010714
0.2,5,0,0.00107961
0.2,5.1,0,0.00109088
0.2,5.2,0,0.0010983
0.2,5.3,0,0.00110501
0.2,5.4,0,0.00111104
0.2,5.5,0,0.00111638
0.2,5.6,0,0.00112102
0.2,5.7,0,0.00112496
0.2,5.8,0,0.00112822
0.2,5.9,0,0.00113078
0.2,6,0,0.00113337
0.2,6.1,0,0.00113256
0.2,6.2,0,0.00113252
0.2,6.3,0,0.00113305
0.2,6.4,0,0.00113162
0.2,6.5,0,0.00112925
0.2,6.6,0,0.00112717
0.2,6.7,0,0.00112435
0.2,6.8,0,0.00111922
0.2,6.9,0,0.00111451
0.2,7,0,0.00111063
0.2,7.1,0,0.00110292
0.2,7.2,0,0.00109583
0.2,7.3,0,0.00108959
0.2,7.4,0,0.00108098
0.2,7.5,0,0.00107123
0.2,7.6,0,0.00106249
0.2,7.7,0,0.00105358
0.2,7.8,0,0.00104101
0.2,7.9,0,0.00102976
0.2,8,0,0.00102035
0.2,8.1,0,0.00100573
0.2,8.2,0,0.00099229
0.2,8.3,0,0.000980413
0.2,8.4,0,0.000965986
0.2,8.5,0,0.000949898
0.2,8.6,0,0.000935465
0.2,8.7,0,0.000921563
0.2,8.8,0,0.000902856
0.2,8.9,0,0.00088618
0.2,9,0,0.000871645
0.2,9.1,0,0.000851879
0.2,9.2,0,0.000833179
0.2,9.3,0,0.00081619
0.2,9.4,0,0.000797182
0.2,9.5,0,0.000776182
0.2,9.6,0,0.000756883
0.2,9.7,0,0.000738541
0.2,9.8,0,0.000715471
0.2,9.9,0,0.000694435
0.2,10,0,0.000675106
0.2,10.1,0,0.000651824
0.2,10.2,0,0.000629098
0.2,10.3,0,0.000607737
0.2,10.4,0,0.000585171
0.2,10.5,0,0.000560771
0.2,10.6,0,0.000537673
0.2,10.7,0,0.000515521
0.2,10.8,0,0.000489771
0.2,10.9,0,0.000465543
0.2,11,0,0.000442325
0.2,11.1,0,0.00041681
0.2,11.2,0,0.000391418
0.2,11.3,0,0.00036685
0.2,11.4,0,0.000341764
0.2,11.5,0,0.000315434
0.2,11.6,0,0.000289857
0.2,11.7,0,0.000264867
0.2,11.8,0,0.000237939
0.2,11.9,0,0.000211823
0.2,12,0,0.000186063
0.2,12.1,0,0.000159472
0.2,12.2,0,0.000132849
0.2,12.3,0,0.0001065
0.2,12.4,0,8.00485e-05
0.2,12.5,0,5.55018e-05
0.2,12.6,0,3.59713e-05
0.2,12.7,0,1.63975e-05
0.3,0,0,1.03139e-05
0.3,0.1,0,3.12189e-05
0.3,0.2,0,5.74182e-05
0.3,0.3,0,8.59136e-05
0.3,0.4,0,0.000114186
0.3,0.5,0,0.000143535
0.3,0.6,0,0.000170852
0.3,0.7,0,0.00019979
0.3,0.8,0,0.000227846
0.3,0.9,0,0.000255132
0.3,1,0,0.000284714
0.3,1.1,0,0.000310478
0.3,1.2,0,0.000338987
0.3,1.3,0,0.000366172
0.3,1.4,0,0.000392113
0.3,1.5,0,0.000421313
0.3,1.6,0,0.000445296
0.3,1.7,0,0.000472837
0.3,1.8,0,0.000498733
0.3,1.9,0,0.000523026
0.3,2,0,0.000551172
0.3,2.1,0,0.000573226
0.3,2.2,0,0.000599247
0.3,2.3,0,0.00062345
0.3,2.4,0,0.000645834
0.3,2.5,0,0.000672232
0.3,2.6,0,0.000692258
0.3,2.7,0,0.000716223
0.3,2.8,0,0.000738348
0.3,2.9,0,0.000758589
0.3,3,0,0.00078258
0.3,3.1,0,0.000800482
0.3,3.2,0,0.000821897
0.3,3.3,0,0.000841573
0.3,3.4,0,0.000859434
0.3,3.5,0,0.000880453
0.3,3.6,0,0.000896064
0.3,3.7,0,0.000914514
0.3,3.8,0,0.00093138
0.3,3.9,0,0.000946581
0.3,4,0,0.000964225
0.3,4.1,0,0.000977241
0.3,4.2,0,0.000992414
0.3,4.3,0,0.00100612
0.3,4.4,0,0.0010183
0.3,4.5,0,0.00103238
0.3,4.6,0,0.00104224
0.3,4.7,0,0.00105396
0.3,4.8,0,0.00106414
0.3,4.9,0,0.0010722
0.3,5,0,0.00108044
0.3,5.1,0,0.0010917
0.3,5.2,0,0.00109913
0.3,5.3,0,0.00110587
0.3,5.4,0,0.00111191
0.3,5.5,0,0.00111725
0.3,5.6,0,0.00112189
0.3,5.7,0,0.00112582
0.3,5.8,0,0.00112906
0.3,5.9,0,0.0011316
0.3,6,0,0.00113424
0.3,6.1,0,0.00113343
0.3,6.2,0,0.00113314
0.3,6.3,0,0.00113393
0.3,6.4,0,0.0011325
0.3,6.5,0,0.00112992
0.3,6.6,0,0.00112808
0.3,6.7,0,0.00112525
0.3,6.8,0,0.00111997
0.3,6.9,0,0.00111554
0.3,7,0,0.00111167
0.3,7.1,0,0.00110396
0.3,7.2,0,0.00109659
0.3,7.3,0,0.00109081
0.3,7.4,0,0.0010822
0.3,7.5,0,0.00107177
0.3,7.6,0,0.00106388
0.3,7.7,0,0.00105497
0.3,7.8,0,0.00104202
0.3,7.9,0,0.00103116
0.3,8,0,0.00102189
0.3,8.1,0,0.00100727
0.3,8.2,0,0.000992986
0.3,8.3,0,0.000982046
0.3,8.4,0,0.00096762
0.3,8.5,0,0.000950349
0.3,8.6,0,0.000937146
0.3,8.7,0,0.000923244
0.3,8.8,0,0.000904123
0.3,8.9,0,0.000887564
0.3,9,0,0.000873319
0.3,9.1,0,0.000853553
0.3,9.2,0,0.000833679
0.3,9.3,0,0.000817807
0.3,9.4,0,0.000798798
0.3,9.5,0,0.000776654
0.3,9.6,0,0.0007584
0.3,9.7,0,0.000740057
0.3,9.8,0,0.000716712
0.3,9.9,0,0.000695472
0.3,10,0,0.000676491
0.3,10.1,0,0.000653209
0.3,10.2,0,0.00062939
0.3,10.3,0,0.000608968
0.3,10.4,0,0.000586402
0.3,10.5,0,0.00056121
0.3,10.6,0,0.000538735
0.3,10.7,0,0.000516584
0.3,10.8,0,0.000490721
0.3,10.9,0,0.000466146
0.3,11,0,0.000443212
0.3,11.1,0,0.000417697
0.3,11.2,0,0.0003916
0.3,11.3,0,0.000367558
0.3,11.4,0,0.000342472
0.3,11.5,0,0.000315737
0.3,11.6,0,0.000290387
0.3,11.7,0,0.000265398
0.3,11.8,0,0.000238454
0.3,11.9,0,0.000212046
0.3,12,0,0.000186417
0.3,12.1,0,0.000159826
0.3,12.2,0,0.000132911
0.3,12.3,0,0.000106677
0.3,12.4,0,8.02262e-05
0.3,12.5,0,5.33266e-05
0.3,12.6,0,3.23274e-05
0.3,12.7,0,1.27536e-05
0.4,0,0,7.36705e-06
0.4,0.1,0,2.85852e-05
0.4,0.2,0,5.76171e-05
0.4,0.3,0,8.61126e-05
0.4,0.4,0,0.000114594
0.4,0.5,0,0.000143925
0.4,0.6,0,0.000171294
0.4,0.7,0,0.00020036
0.4,0.8,0,0.000228416
0.4,0.9,0,0.000255916
0.4,1,0,0.000285448
0.4,1.1,0,0.000311291
0.4,1.2,0,0.000339867
0.4,1.3,0,0.000367051
0.4,1.4,0,0.000393193
0.4,1.5,0,0.000422317
0.4,1.6,0,0.000446396
0.4,1.7,0,0.000473938
0.4,1.8,0,0.000499834
0.4,1.9,0,0.000524293
0.4,2,0,0.000552344
0.4,2.1,0,0.000574501
0.4,2.2,0,0.000600459
0.4,2.3,0,0.000624663
0.4,2.4,0,0.000647162
0.4,2.5,0,0.000673458
0.4,2.6,0,0.000693584
0.4,2.7,0,0.000717433
0.4,2.8,0,0.000739558
0.4,2.9,0,0.000759858
0.4,3,0,0.000783751
0.4,3.1,0,0.00080174
0.4,3.2,0,0.000823009
0.4,3.3,0,0.000842685
0.4,3.4,0,0.000860559
0.4,3.5,0,0.000881493
0.4,3.6,0,0.000897173
0.4,3.7,0,0.000915477
0.4,3.8,0,0.000932343
0.4,3.9,0,0.000947538
0.4,4,0,0.000965116
0.4,4.1,0,0.000978183
0.4,4.2,0,0.000993247
0.4,4.3,0,0.00100695
0.4,4.4,0,0.00101916
0.4,4.5,0,0.00103319
0.4,4.6,0,0.0010431
0.4,4.7,0,0.0010548
0.4,4.8,0,0.00106497
0.4,4.9,0,0.00107304
0.4,5,0,0.00108127
0.4,5.1,0,0.00109251
0.4,5.2,0,0.00109996
0.4,5.3,0,0.00110672
0.4,5.4,0,0.00111277
0.4,5.5,0,0.00111812
0.4,5.6,0,0.00112275
0.4,5.7,0,0.00112667
0.4,5.8,0,0.00112989
0.4,5.9,0,0.00113242
0.4,6,0,0.00113511
0.4,6.1,0,0.0011343
0.4,6.2,0,0.00113407
0.4,6.3,0,0.00113481
0.4,6.4,0,0.00113338
0.4,6.5,0,0.00113092
0.4,6.6,0,0.00112898
0.4,6.7,0,0.00112615
0.4,6.8,0,0.00112089
0.4,6.9,0,0.00111658
0.4,7,0,0.00111271
0.4,7.1,0,0.001105
0.4,7.2,0,0.0010979
0.4,7.3,0,0.00109202
0.4,7.4,0,0.00108341
0.4,7.5,0,0.00107343
0.4,7.6,0,0.00106526
0.4,7.7,0,0.00105635
0.4,7.8,0,0.00104341
0.4,7.9,0,0.00103269
0.4,8,0,0.00102342
0.4,8.1,0,0.0010088
0.4,8.2,0,0.000994949
0.4,8.3,0,0.00098368
0.4,8.4,0,0.000969253
0.4,8.5,0,0.000952598
0.4,8.6,0,0.000938827
0.4,8.7,0,0.000924925
0.4,8.8,0,0.000905804
0.4,8.9,0,0.000889237
0.4,9,0,0.000874992
0.4,9.1,0,0.000855227
0.4,9.2,0,0.000835822
0.4,9.3,0,0.000819423
0.4,9.4,0,0.000800414
0.4,9.5,0,0.000778745
0.4,9.6,0,0.000759916
0.4,9.7,0,0.000741574
0.4,9.8,0,0.000718229
0.4,9.9,0,0.000696858
0.4,10,0,0.000677876
0.4,10.1,0,0.000654594
0.4,10.2,0,0.000631169
0.4,10.3,0,0.000610199
0.4,10.4,0,0.000587633
0.4,10.5,0,0.000562693
0.4,10.6,0,0.000539798
0.4,10.7,0,0.000517646
0.4,10.8,0,0.000491783
0.4,10.9,0,0.000467033
0.4,11,0,0.000444099
0.4,11.1,0,0.000418583
0.4,11.2,0,0.000392679
0.4,11.3,0,0.000368267
0.4,11.4,0,0.000343181
0.4,11.5,0,0.000316529
0.4,11.6,0,0.000290917
0.4,11.7,0,0.000265928
0.4,11.8,0,0.000238984
0.4,11.9,0,0.00021241
0.4,12,0,0.000186771
0.4,12.1,0,0.00016018
0.4,12.2,0,0.00013327
0.4,12.3,0,0.000106855
0.4,12.4,0,8.0404e-05
0.4,12.5,0,5.35016e-05
0.4,12.6,0,2.86835e-05
0.4,12.7,0,9.10971e-06
0.5,0,0,4.42023e-06
0.5,0.1,0,2.87705e-05
0.5,0.2,0,5.78161e-05
0.5,0.3,0,8.63115e-05
0.5,0.4,0,0.000115152
0.5,0.5,0,0.000144316
0.5,0.6,0,0.000172201
0.5,0.7,0,0.00020093
0.5,0.8,0,0.000228986
0.5,0.9,0,0.000257146
0.5,1,0,0.000286182
0.5,1.1,0,0.000312811
0.5,1.2,0,0.000340747
0.5,1.3,0,0.000367931
0.5,1.4,0,0.000394962
0.5,1.5,0,0.00042332
0.5,1.6,0,0.000448367
0.5,1.7,0,0.00047504
0.5,1.8,0,0.000500936
0.5,1.9,0,0.000526412
0.5,2,0,0.000553515
0.5,2.1,0,0.000576713
0.5,2.2,0,0.000601672
0.5,2.3,0,0.000625876
0.5,2.4,0,0.000649409
0.5,2.5,0,0.000674683
0.5,2.6,0,0.00069581
0.5,2.7,0,0.000718643
0.5,2.8,0,0.000740769
0.5,2.9,0,0.000762013
0.5,3,0,0.000784922
0.5,3.1,0,0.000803778
0.5,3.2,0,0.000824121
0.5,3.3,0,0.000843797
0.5,3.4,0,0.000862449
0.5,3.5,0,0.000882533
0.5,3.6,0,0.000898897
0.5,3.7,0,0.00091644
0.5,3.8,0,0.000933306
0.5,3.9,0,0.000949096
0.5,4,0,0.000966006
0.5,4.1,0,0.000979595
0.5,4.2,0,0.000994081
0.5,4.3,0,0.00100779
0.5,4.4,0,0.00102047
0.5,4.5,0,0.001034
0.5,4.6,0,0.0010444
0.5,4.7,0,0.00105563
0.5,4.8,0,0.00106581
0.5,4.9,0,0.00107391
0.5,5,0,0.0010821
0.5,5.1,0,0.00109333
0.5,5.2,0,0.00110079
0.5,5.3,0,0.00110757
0.5,5.4,0,0.00111363
0.5,5.5,0,0.00111899
0.5,5.6,0,0.00112362
0.5,5.7,0,0.00112753
0.5,5.8,0,0.00113073
0.5,5.9,0,0.00113324
0.5,6,0,0.00113598
0.5,6.1,0,0.00113535
0.5,6.2,0,0.00113536
0.5,6.3,0,0.00113569
0.5,6.4,0,0.00113426
0.5,6.5,0,0.00113203
0.5,6.6,0,0.00112988
0.5,6.7,0,0.00112706
0.5,6.8,0,0.00112222
0.5,6.9,0,0.00111778
0.5,7,0,0.00111376
0.5,7.1,0,0.00110626
0.5,7.2,0,0.00109958
0.5,7.3,0,0.00109323
0.5,7.4,0,0.00108463
0.5,7.5,0,0.00107548
0.5,7.6,0,0.00106665
0.5,7.7,0,0.00105774
0.5,7.8,0,0.00104574
0.5,7.9,0,0.00103477
0.5,8,0,0.00102495
0.5,8.1,0,0.00101061
0.5,8.2,0,0.000997634
0.5,8.3,0,0.000985313
0.5,8.4,0,0.000970887
0.5,8.5,0,0.000955462
0.5,8.6,0,0.00094057
0.5,8.7,0,0.000926606
0.5,8.8,0,0.000908523
0.5,8.9,0,0.000891833
0.5,9,0,0.000876666
0.5,9.1,0,0.000857083
0.5,9.2,0,0.000838721
0.5,9.3,0,0.000821039
0.5,9.4,0,0.00080203
0.5,9.5,0,0.000781519
0.5,9.6,0,0.000761621
0.5,9.7,0,0.000743091
0.5,9.8,0,0.00072052
0.5,9.9,0,0.000699229
0.5,10,0,0.000679261
0.5,10.1,0,0.000656028
0.5,10.2,0,0.000633493
0.5,10.3,0,0.00061143
0.5,10.4,0,0.000588864
0.5,10.5,0,0.00056473
0.5,10.6,0,0.0005411
0.5,10.7,0,0.000518709
0.5,10.8,0,0.000493269
0.5,10.9,0,0.000468699
0.5,11,0,0.000444985
0.5,11.1,0,0.00041947
0.5,11.2,0,0.000394093
0.5,11.3,0,0.000368975
0.5,11.4,0,0.000343889
0.5,11.5,0,0.000317625
0.5,11.6,0,0.000291642
0.5,11.7,0,0.000266458
0.5,11.8,0,0.000239649
0.5,11.9,0,0.000213191
0.5,12,0,0.000187124
0.5,12.1,0,0.000160534
0.5,12.2,0,0.00013374
0.5,12.3,0,0.000107033
0.5,12.4,0,8.05817e-05
0.5,12.5,0,5.36564e-05
0.5,12.6,0,2.67121e-05
0.5,12.7,0,5.46583e-06
0.6,0,0,1.47341e-06
0.6,0.1,0,2.89557e-05
0.6,0.2,0,5.80041e-05
0.6,0.3,0,8.67979e-05
0.6,0.4,0,0.00011571
0.6,0.5,0,0.000144706
0.6,0.6,0,0.000173109
0.6,0.7,0,0.000201769
0.6,0.8,0,0.000230084
0.6,0.9,0,0.000258376
0.6,1,0,0.000286916
0.6,1.1,0,0.000314331
0.6,1.2,0,0.000342139
0.6,1.3,0,0.000369523
0.6,1.4,0,0.000396732
0.6,1.5,0,0.000424323
0.6,1.6,0,0.000450338
0.6,1.7,0,0.000476837
0.6,1.8,0,0.000502852
0.6,1.9,0,0.000528532
0.6,2,0,0.000554687
0.6,2.1,0,0.000578925
0.6,2.2,0,0.000603685
0.6,2.3,0,0.000627917
0.6,2.4,0,0.000651657
0.6,2.5,0,0.000675908
0.6,2.6,0,0.000698037
0.6,2.7,0,0.000720667
0.6,2.8,0,0.000742734
0.6,2.9,0,0.000764168
0.6,3,0,0.000786093
0.6,3.1,0,0.000805817
0.6,3.2,0,0.000825975
0.6,3.3,0,0.000845532
0.6,3.4,0,0.00086434
0.6,3.5,0,0.000883573
0.6,3.6,0,0.000900621
0.6,3.7,0,0.000918012
0.6,3.8,0,0.000934745
0.6,3.9,0,0.000950654
0.6,4,0,0.000966896
0.6,4.1,0,0.000981007
0.6,4.2,0,0.000995377
0.6,4.3,0,0.001009
0.6,4.4,0,0.00102178
0.6,4.5,0,0.00103482
0.6,4.6,0,0.0010457
0.6,4.7,0,0.00105684
0.6,4.8,0,0.00106667
0.6,4.9,0,0.00107479
0.6,5,0,0.00108293
0.6,5.1,0,0.00109414
0.6,5.2,0,0.00110163
0.6,5.3,0,0.00110842
0.6,5.4,0,0.0011145
0.6,5.5,0,0.00111985
0.6,5.6,0,0.00112448
0.6,5.7,0,0.00112839
0.6,5.8,0,0.00113157
0.6,5.9,0,0.00113406
0.6,6,0,0.00113685
0.6,6.1,0,0.00113664
0.6,6.2,0,0.00113664
0.6,6.3,0,0.00113665
0.6,6.4,0,0.00113532
0.6,6.5,0,0.00113314
0.6,6.6,0,0.00113096
0.6,6.7,0,0.001128
0.6,6.8,0,0.00112356
0.6,6.9,0,0.00111912
0.6,7,0,0.0011148
0.6,7.1,0,0.00110794
0.6,7.2,0,0.00110126
0.6,7.3,0,0.00109458
0.6,7.4,0,0.0010864
0.6,7.5,0,0.00107754
0.6,7.6,0,0.00106867
0.6,7.7,0,0.00105913
0.6,7.8,0,0.00104815
0.6,7.9,0,0.00103718
0.6,8,0,0.00102648
0.6,8.1,0,0.0010133
0.6,8.2,0,0.00100032
0.6,8.3,0,0.000987339
0.6,8.4,0,0.000973218
0.6,8.5,0,0.000958326
0.6,8.6,0,0.000943434
0.6,8.7,0,0.000928287
0.6,8.8,0,0.000911457
0.6,8.9,0,0.000894766
0.6,9,0,0.000878339
0.6,9.1,0,0.000859982
0.6,9.2,0,0.00084162
0.6,9.3,0,0.000823258
0.6,9.4,0,0.000804191
0.6,9.5,0,0.000784293
0.6,9.6,0,0.000764394
0.6,9.7,0,0.000744608
0.6,9.8,0,0.000723095
0.6,9.9,0,0.000701804
0.6,10,0,0.000680646
0.6,10.1,0,0.000658352
0.6,10.2,0,0.000635816
0.6,10.3,0,0.00061328
0.6,10.4,0,0.000590396
0.6,10.5,0,0.000566767
0.6,10.6,0,0.000543137
0.6,10.7,0,0.000519771
0.6,10.8,0,0.000494998
0.6,10.9,0,0.000470429
0.6,11,0,0.000445872
0.6,11.1,0,0.00042086
0.6,11.2,0,0.000395506
0.6,11.3,0,0.000370152
0.6,11.4,0,0.000344704
0.6,11.5,0,0.000318721
0.6,11.6,0,0.000292737
0.6,11.7,0,0.000266989
0.6,11.8,0,0.00024043
0.6,11.9,0,0.000213971
0.6,12,0,0.000187513
0.6,12.1,0,0.000160987
0.6,12.2,0,0.00013421
0.6,12.3,0,0.000107433
0.6,12.4,0,8.07554e-05
0.6,12.5,0,5.38111e-05
0.6,12.6,0,2.68669e-05
0.6,12.7,0,1.82194e-06
0.7,0,0,0
0.7,0.1,0,2.91563e-05
0.7,0.2,0,5.82046e-05
0.7,0.3,0,8.73931e-05
0.7,0.4,0,0.000116305
0.7,0.5,0,0.00014534
0.7,0.6,0,0.000174076
0.7,0.7,0,0.000202736
0.7,0.8,0,0.000231396
0.7,0.9,0,0.000259689
0.7,1,0,0.000288144
0.7,1.1,0,0.000315955
0.7,1.2,0,0.000343763
0.7,1.3,0,0.000371418
0.7,1.4,0,0.000398627
0.7,1.5,0,0.000426092
0.7,1.6,0,0.000452456
0.7,1.7,0,0.000478955
0.7,1.8,0,0.000505139
0.7,1.9,0,0.000530819
0.7,2,0,0.000556925
0.7,2.1,0,0.000581324
0.7,2.2,0,0.000606084
0.7,2.3,0,0.000630369
0.7,2.4,0,0.00065411
0.7,2.5,0,0.000678531
0.7,2.6,0,0.000700486
0.7,2.7,0,0.000723116
0.7,2.8,0,0.000745127
0.7,2.9,0,0.00076656
0.7,3,0,0.000789012
0.7,3.1,0,0.000808108
0.7,3.2,0,0.000828266
0.7,3.3,0,0.000847688
0.7,3.4,0,0.000866497
0.7,3.5,0,0.000886711
0.7,3.6,0,0.000902625
0.7,3.7,0,0.000920015
0.7,3.8,0,0.000936593
0.7,3.9,0,0.000952502
0.7,4,0,0.000970197
0.7,4.1,0,0.000982719
0.7,4.2,0,0.00099709
0.7,4.3,0,0.00101063
0.7,4.4,0,0.00102341
0.7,4.5,0,0.00103827
0.7,4.6,0,0.00104733
0.7,4.7,0,0.00105846
0.7,4.8,0,0.00106839
0.7,4.9,0,0.00107651
0.7,5,0,0.00108657
0.7,5.1,0,0.00109783
0.7,5.2,0,0.00110534
0.7,5.3,0,0.00111216
0.7,5.4,0,0.00111825
0.7,5.5,0,0.00112362
0.7,5.6,0,0.00112825
0.7,5.7,0,0.00113214
0.7,5.8,0,0.0011353
0.7,5.9,0,0.00113778
0.7,6,0,0.00114051
0.7,6.1,0,0.00113847
0.7,6.2,0,0.00113848
0.7,6.3,0,0.00113848
0.7,6.4,0,0.00113701
0.7,6.5,0,0.00113483
0.7,6.6,0,0.00113265
0.7,6.7,0,0.00112992
0.7,6.8,0,0.00112548
0.7,6.9,0,0.00112104
0.7,7,0,0.001118
0.7,7.1,0,0.00111019
0.7,7.2,0,0.00110351
0.7,7.3,0,0.00109683
0.7,7.4,0,0.00108901
0.7,7.5,0,0.00108014
0.7,7.6,0,0.00107128
0.7,7.7,0,0.00106208
0.7,7.8,0,0.00105108
0.7,7.9,0,0.00104012
0.7,8,0,0.00102975
0.7,8.1,0,0.00101649
0.7,8.2,0,0.00100351
0.7,8.3,0,0.00099053
0.7,8.4,0,0.000976561
0.7,8.5,0,0.000961669
0.7,8.6,0,0.000946777
0.7,8.7,0,0.00093165
0.7,8.8,0,0.000914838
0.7,8.9,0,0.000898148
0.7,9,0,0.000881621
0.7,9.1,0,0.000863295
0.7,9.2,0,0.000844933
0.7,9.3,0,0.000826571
0.7,9.4,0,0.000807342
0.7,9.5,0,0.000787444
0.7,9.6,0,0.000767546
0.7,9.7,0,0.000747437
0.7,9.8,0,0.000726011
0.7,9.9,0,0.00070472
0.7,10,0,0.000683457
0.7,10.1,0,0.000660977
0.7,10.2,0,0.000638442
0.7,10.3,0,0.000615906
0.7,10.4,0,0.000592695
0.7,10.5,0,0.000569065
0.7,10.6,0,0.000545436
0.7,10.7,0,0.000521673
0.7,10.8,0,0.00049695
0.7,10.9,0,0.000472381
0.7,11,0,0.000447812
0.7,11.1,0,0.000422455
0.7,11.2,0,0.000397101
0.7,11.3,0,0.000371747
0.7,11.4,0,0.000345942
0.7,11.5,0,0.000319959
0.7,11.6,0,0.000293975
0.7,11.7,0,0.000267922
0.7,11.8,0,0.000241313
0.7,11.9,0,0.000214855
0.7,12,0,0.000188397
0.7,12.1,0,0.000161519
0.7,12.2,0,0.000134742
0.7,12.3,0,0.000107965
0.7,12.4,0,8.09344e-05
0.7,12.5,0,5.39901e-05
0.7,12.6,0,2.70459e-05
0.7,12.7,0,0
0.8,0,0,0
0.8,0.1,0,2.93722e-05
0.8,0.2,0,5.84665e-05
0.8,0.3,0,8.79881e-05
0.8,0.4,0,0.000116938
0.8,0.5,0,0.000146217
0.8,0.6,0,0.000175102
0.8,0.7,0,0.000203818
0.8,0.8,0,0.000232772
0.8,0.9,0,0.000261083
0.8,1,0,0.000289865
0.8,1.1,0,0.000317684
0.8,1.2,0,0.000345573
0.8,1.3,0,0.000373461
0.8,1.4,0,0.000400648
0.8,1.5,0,0.000428627
0.8,1.6,0,0.000454721
0.8,1.7,0,0.000481352
0.8,1.8,0,0.000507688
0.8,1.9,0,0.000533274
0.8,2,0,0.000560229
0.8,2.1,0,0.00058391
0.8,2.2,0,0.000608886
0.8,2.3,0,0.000633229
0.8,2.4,0,0.000656767
0.8,2.5,0,0.000682551
0.8,2.6,0,0.000703157
0.8,2.7,0,0.000726123
0.8,2.8,0,0.000748102
0.8,2.9,0,0.000769191
0.8,3,0,0.00079368
0.8,3.1,0,0.000810652
0.8,3.2,0,0.000831294
0.8,3.3,0,0.000850619
0.8,3.4,0,0.00086892
0.8,3.5,0,0.000891946
0.8,3.6,0,0.000904907
0.8,3.7,0,0.000922938
0.8,3.8,0,0.000939402
0.8,3.9,0,0.000954642
0.8,4,0,0.000975908
0.8,4.1,0,0.000984732
0.8,4.2,0,0.000999883
0.8,4.3,0,0.00101336
0.8,4.4,0,0.00102534
0.8,4.5,0,0.00104436
0.8,4.6,0,0.00104928
0.8,4.7,0,0.00106127
0.8,4.8,0,0.00107168
0.8,4.9,0,0.00107906
0.8,5,0,0.001093
0.8,5.1,0,0.00110438
0.8,5.2,0,0.00111194
0.8,5.3,0,0.00111879
0.8,5.4,0,0.0011249
0.8,5.5,0,0.00113027
0.8,5.6,0,0.0011349
0.8,5.7,0,0.00113879
0.8,5.8,0,0.00114194
0.8,5.9,0,0.00114438
0.8,6,0,0.00114696
0.8,6.1,0,0.00114085
0.8,6.2,0,0.00114086
0.8,6.3,0,0.00114404
0.8,6.4,0,0.00114023
0.8,6.5,0,0.0011371
0.8,6.6,0,0.00113547
0.8,6.7,0,0.00113574
0.8,6.8,0,0.00112799
0.8,6.9,0,0.00112355
0.8,7,0,0.00112398
0.8,7.1,0,0.00111301
0.8,7.2,0,0.00110633
0.8,7.3,0,0.00110182
0.8,7.4,0,0.00109306
0.8,7.5,0,0.0010833
0.8,7.6,0,0.00107455
0.8,7.7,0,0.00106772
0.8,7.8,0,0.00105455
0.8,7.9,0,0.00104359
0.8,8,0,0.00103519
0.8,8.1,0,0.00102019
0.8,8.2,0,0.00100721
0.8,8.3,0,0.000995166
0.8,8.4,0,0.000980976
0.8,8.5,0,0.00096549
0.8,8.6,0,0.000950598
0.8,8.7,0,0.000936568
0.8,8.8,0,0.000918668
0.8,8.9,0,0.000901977
0.8,9,0,0.000886229
0.8,9.1,0,0.000867022
0.8,9.2,0,0.00084866
0.8,9.3,0,0.000830585
0.8,9.4,0,0.000811263
0.8,9.5,0,0.000790973
0.8,9.6,0,0.000771075
0.8,9.7,0,0.000751338
0.8,9.8,0,0.000729266
0.8,9.9,0,0.000707975
0.8,10,0,0.000686968
0.8,10.1,0,0.000663904
0.8,10.2,0,0.000641368
0.8,10.3,0,0.000618908
0.8,10.4,0,0.000595595
0.8,10.5,0,0.000571626
0.8,10.6,0,0.000547997
0.8,10.7,0,0.000524352
0.8,10.8,0,0.000499124
0.8,10.9,0,0.000474555
0.8,11,0,0.000450058
0.8,11.1,0,0.000424254
0.8,11.2,0,0.000398879
0.8,11.3,0,0.000373534
0.8,11.4,0,0.00034763
0.8,11.5,0,0.000321339
0.8,11.6,0,0.000295356
0.8,11.7,0,0.000269282
0.8,11.8,0,0.000242298
0.8,11.9,0,0.00021584
0.8,12,0,0.000189315
0.8,12.1,0,0.000162158
0.8,12.2,0,0.000135336
0.8,12.3,0,0.000108528
0.8,12.4,0,8.13497e-05
0.8,12.5,0,5.41934e-05
0.8,12.6,0,2.72491e-05
0.8,12.7,0,0
0.9,0,0,0
0.9,0.1,0,2.95881e-05
0.9,0.2,0,5.89123e-05
0.9,0.3,0,8.84339e-05
0.9,0.4,0,0.00011757
0.9,0.5,0,0.000147095
0.9,0.6,0,0.000176129
0.9,0.7,0,0.00020512
0.9,0.8,0,0.000234074
0.9,0.9,0,0.000262477
0.9,1,0,0.000291585
0.9,1.1,0,0.000319413
0.9,1.2,0,0.000347705
0.9,1.3,0,0.000375594
0.9,1.4,0,0.000402669
0.9,1.5,0,0.000431161
0.9,1.6,0,0.000456986
0.9,1.7,0,0.000484278
0.9,1.8,0,0.000510613
0.9,1.9,0,0.000535728
0.9,2,0,0.000563534
0.9,2.1,0,0.000586496
0.9,2.2,0,0.000612556
0.9,2.3,0,0.000636899
0.9,2.4,0,0.000659425
0.9,2.5,0,0.00068657
0.9,2.6,0,0.000705828
0.9,2.7,0,0.000730476
0.9,2.8,0,0.000752455
0.9,2.9,0,0.000771821
0.9,3,0,0.000798348
0.9,3.1,0,0.000813196
0.9,3.2,0,0.000836256
0.9,3.3,0,0.000855582
0.9,3.4,0,0.000871343
0.9,3.5,0,0.000897181
0.9,3.6,0,0.00090719
0.9,3.7,0,0.000928423
0.9,3.8,0,0.000944887
0.9,3.9,0,0.000956782
0.9,4,0,0.000981619
0.9,4.1,0,0.000986745
0.9,4.2,0,0.0010058
0.9,4.3,0,0.00101927
0.9,4.4,0,0.00102728
0.9,4.5,0,0.00105045
0.9,4.6,0,0.00105123
0.9,4.7,0,0.00106754
0.9,4.8,0,0.00107794
0.9,4.9,0,0.00108161
0.9,5,0,0.00109944
0.9,5.1,0,0.00111092
0.9,5.2,0,0.00111853
0.9,5.3,0,0.00112541
0.9,5.4,0,0.00113154
0.9,5.5,0,0.00113693
0.9,5.6,0,0.00114156
0.9,5.7,0,0.00114544
0.9,5.8,0,0.00114857
0.9,5.9,0,0.00115099
0.9,6,0,0.00115341
0.9,6.1,0,0.00114551
0.9,6.2,0,0.00114324
0.9,6.3,0,0.00115028
0.9,6.4,0,0.00114648
0.9,6.5,0,0.00113937
0.9,6.6,0,0.00114158
0.9,6.7,0,0.00114185
0.9,6.8,0,0.00113049
0.9,6.9,0,0.00112766
0.9,7,0,0.00112995
0.9,7.1,0,0.0011179
0.9,7.2,0,0.00110915
0.9,7.3,0,0.00110764
0.9,7.4,0,0.00109888
0.9,7.5,0,0.00108646
0.9,7.6,0,0.0010802
0.9,7.7,0,0.00107336
0.9,7.8,0,0.00105818
0.9,7.9,0,0.00104777
0.9,8,0,0.00104062
0.9,8.1,0,0.00102519
0.9,8.2,0,0.00101091
0.9,8.3,0,0.00100036
0.9,8.4,0,0.000986169
0.9,8.5,0,0.000969312
0.9,8.6,0,0.000955459
0.9,8.7,0,0.000941486
0.9,8.8,0,0.000922684
0.9,8.9,0,0.000906016
0.9,9,0,0.000890838
0.9,9.1,0,0.000871499
0.9,9.2,0,0.000852387
0.9,9.3,0,0.000834853
0.9,9.4,0,0.000815531
0.9,9.5,0,0.000794502
0.9,9.6,0,0.000774921
0.9,9.7,0,0.000755239
0.9,9.8,0,0.000732695
0.9,9.9,0,0.000711275
0.9,10,0,0.000690479
0.9,10.1,0,0.000667384
0.9,10.2,0,0.000644295
0.9,10.3,0,0.00062201
0.9,10.4,0,0.000598696
0.9,10.5,0,0.000574187
0.9,10.6,0,0.000550646
0.9,10.7,0,0.000527031
0.9,10.8,0,0.000501482
0.9,10.9,0,0.000476734
0.9,11,0,0.000452303
0.9,11.1,0,0.000426499
0.9,11.2,0,0.000400656
0.9,11.3,0,0.000375339
0.9,11.4,0,0.000349435
0.9,11.5,0,0.000322719
0.9,11.6,0,0.000296723
0.9,11.7,0,0.000270642
0.9,11.8,0,0.000243457
0.9,11.9,0,0.000216826
0.9,12,0,0.000190228
0.9,12.1,0,0.000163071
0.9,12.2,0,0.00013593
0.9,12.3,0,0.000108989
0.9,12.4,0,8.18113e-05
0.9,12.5,0,5.43966e-05
0.9,12.6,0,2.73386e-05
0.9,12.7,0,0
1,0,0,0
1,0.1,0,2.96097e-05
1,0.2,0,5.93581e-05
1,0.3,0,8.88797e-05
1,0.4,0,0.000118423
1,0.5,0,0.000147972
1,0.6,0,0.000177021
1,0.7,0,0.000206421
1,0.8,0,0.000235376
1,0.9,0,0.000264165
1,1,0,0.000293306
1,1.1,0,0.000321134
1,1.2,0,0.000349837
1,1.3,0,0.000377726
1,1.4,0,0.000405153
1,1.5,0,0.000433696
1,1.6,0,0.000459494
1,1.7,0,0.000487204
1,1.8,0,0.000513539
1,1.9,0,0.000538948
1,2,0,0.000566839
1,2.1,0,0.000589729
1,2.2,0,0.000616226
1,2.3,0,0.000640569
1,2.4,0,0.000663308
1,2.5,0,0.00069059
1,2.6,0,0.000709713
1,2.7,0,0.000734829
1,2.8,0,0.000756808
1,2.9,0,0.000776285
1,3,0,0.000803015
1,3.1,0,0.000817652
1,3.2,0,0.000841218
1,3.3,0,0.000860544
1,3.4,0,0.000876297
1,3.5,0,0.000902416
1,3.6,0,0.000912129
1,3.7,0,0.000933908
1,3.8,0,0.000950372
1,3.9,0,0.000962135
1,4,0,0.000987329
1,4.1,0,0.000992086
1,4.2,0,0.00101171
1,4.3,0,0.00102518
1,4.4,0,0.00103295
1,4.5,0,0.00105654
1,4.6,0,0.0010569
1,4.7,0,0.0010738
1,4.8,0,0.00108421
1,4.9,0,0.00108765
1,5,0,0.00110587
1,5.1,0,0.00111747
1,5.2,0,0.00112513
1,5.3,0,0.00113203
1,5.4,0,0.00113819
1,5.5,0,0.00114358
1,5.6,0,0.00114822
1,5.7,0,0.00115209
1,5.8,0,0.00115521
1,5.9,0,0.0011576
1,6,0,0.00115987
1,6.1,0,0.00115197
1,6.2,0,0.00114902
1,6.3,0,0.00115653
1,6.4,0,0.00115273
1,6.5,0,0.0011436
1,6.6,0,0.0011477
1,6.7,0,0.00114796
1,6.8,0,0.00113653
1,6.9,0,0.00113364
1,7,0,0.00113593
1,7.1,0,0.00112388
1,7.2,0,0.00111432
1,7.3,0,0.00111346
1,7.4,0,0.0011047
1,7.5,0,0.00109094
1,7.6,0,0.00108584
1,7.7,0,0.00107901
1,7.8,0,0.00106382
1,7.9,0,0.00105321
1,8,0,0.00104606
1,8.1,0,0.00103063
1,8.2,0,0.00101563
1,8.3,0,0.00100555
1,8.4,0,0.000991363
1,8.5,0,0.000973818
1,8.6,0,0.000960376
1,8.7,0,0.000946403
1,8.8,0,0.000927601
1,8.9,0,0.000910625
1,9,0,0.000895446
1,9.1,0,0.000876107
1,9.2,0,0.000856433
1,9.3,0,0.000839122
1,9.4,0,0.0008198
1,9.5,0,0.000798467
1,9.6,0,0.000778822
1,9.7,0,0.00075914
1,9.8,0,0.000736597
1,9.9,0,0.000714785
1,10,0,0.000693989
1,10.1,0,0.000670895
1,10.2,0,0.000647312
1,10.3,0,0.000625111
1,10.4,0,0.000601798
1,10.5,0,0.000577119
1,10.6,0,0.000553325
1,10.7,0,0.000529709
1,10.8,0,0.000504161
1,10.9,0,0.000478979
1,11,0,0.000454548
1,11.1,0,0.000428744
1,11.2,0,0.000402493
1,11.3,0,0.000377144
1,11.4,0,0.00035124
1,11.5,0,0.000324432
1,11.6,0,0.000298083
1,11.7,0,0.000272002
1,11.8,0,0.000244817
1,11.9,0,0.00021774
1,12,0,0.00019114
1,12.1,0,0.000163984
1,12.2,0,0.000136549
1,12.3,0,0.000109451
1,12.4,0,8.22729e-05
1,12.5,0,5.48274e-05
1,12.6,0,2.73386e-05
1,12.7,0,0
1.1,0,0,0
1.1,0.1,0,2.97476e-05
1.1,0.2,0,5.98039e-05
1.1,0.3,0,8.93255e-05
1.1,0.4,0,0.000119188
1.1,0.5,0,0.000148849
1.1,0.6,0,0.000178063
1.1,0.7,0,0.000207723