/*--------------------------------*- C++ -*----------------------------------*\
| =========                 |                                                 |
| \\      /  F ield         | OpenFOAM: The Open Source CFD Toolbox           |
|  \\    /   O peration     | Version:  v1806                                 |
|   \\  /    A nd           | Web:      www.OpenFOAM.com                      |
|    \\/     M anipulation  |                                                 |
\*---------------------------------------------------------------------------*/
FoamFile
{
    version     2.0;
    format      ascii;
    class       volVectorField;
    location    "10";
    object      U;
}
// * * * * * * * * * * * * * * * * * * * * * * * * * * * * * * * * * * * * * //

dimensions      [0 1 -1 0 0 0 0];


internalField   nonuniform List<vector> 
24000
(
(2.69953 0.0403678 0.0845427)
(2.42395 0.0545286 0.0929542)
(2.05795 0.048936 0.0762552)
(1.70905 0.0404787 0.0593426)
(1.44658 0.0303391 0.0403838)
(1.26994 0.021055 0.0230116)
(1.15532 0.0148753 0.0117815)
(1.08162 0.0108058 0.00609593)
(1.03393 0.00766298 0.00364448)
(1.00543 0.00434993 0.00267779)
(0.990419 0.000792873 0.00256127)
(0.986918 -0.00286022 0.00273836)
(0.992078 -0.00618547 0.00308764)
(1.00558 -0.00920039 0.00335547)
(1.02517 -0.0115362 0.00356161)
(1.04999 -0.0130685 0.0035229)
(1.07764 -0.0134402 0.0033002)
(1.10677 -0.0129904 0.00272997)
(1.136 -0.0114742 0.00180085)
(1.16336 -0.00893267 0.000583143)
(2.77042 0.0521071 0.0856719)
(2.57441 0.0725007 0.0976281)
(2.31739 0.0663319 0.0795315)
(2.05609 0.0561971 0.0658141)
(1.83932 0.0430504 0.0508092)
(1.67738 0.028808 0.0345477)
(1.56217 0.017124 0.0216936)
(1.48544 0.0073841 0.0133987)
(1.43627 -0.000696101 0.00873391)
(1.41012 -0.00875003 0.00603113)
(1.39979 -0.0167342 0.00475805)
(1.403 -0.0250949 0.00415612)
(1.41618 -0.0327716 0.00398423)
(1.43796 -0.0398376 0.00386157)
(1.46703 -0.045279 0.00380969)
(1.5008 -0.0492271 0.0036224)
(1.53892 -0.0503987 0.00347446)
(1.57752 -0.0496405 0.0031106)
(1.61846 -0.0461219 0.0023462)
(1.65631 -0.0394905 0.00115023)
(2.76993 0.0217177 0.0856122)
(2.56235 0.0372205 0.0976501)
(2.31209 0.0371361 0.0784187)
(2.06651 0.0316764 0.0644369)
(1.86558 0.0229654 0.050169)
(1.71559 0.0112249 0.034637)
(1.60895 -0.000395381 0.0220087)
(1.53816 -0.0130125 0.0134322)
(1.49418 -0.0243686 0.00821606)
(1.47185 -0.0363378 0.00493041)
(1.46597 -0.0471372 0.00300754)
(1.47242 -0.0592177 0.00199956)
(1.49041 -0.0696006 0.00145237)
(1.51512 -0.0797353 0.0012348)
(1.54881 -0.0868852 0.000982479)
(1.58552 -0.092639 0.000785187)
(1.62834 -0.0939042 0.000608702)
(1.66996 -0.0930676 0.000426506)
(1.71642 -0.0872192 -0.000390353)
(1.75818 -0.0767684 -0.000548261)
(2.76931 0.0154429 0.0857729)
(2.55005 0.0288229 0.098262)
(2.29308 0.0296335 0.0788088)
(2.04614 0.0231888 0.0642709)
(1.84699 0.013442 0.049864)
(1.6998 0.000653531 0.0344248)
(1.59574 -0.0121033 0.0218481)
(1.52808 -0.0271527 0.0131091)
(1.48634 -0.0410897 0.00786006)
(1.46682 -0.0563379 0.0044184)
(1.46217 -0.0697959 0.00239091)
(1.47122 -0.0854374 0.00105044)
(1.49087 -0.0982455 0.000393606)
(1.5187 -0.111238 -8.20179e-05)
(1.55435 -0.120625 -0.000373323)
(1.59556 -0.127894 -0.000818158)
(1.6404 -0.129505 -0.000631397)
(1.68704 -0.128721 -0.00129432)
(1.73669 -0.121281 -0.00162294)
(1.78441 -0.107042 -0.00330781)
(2.76896 0.0087842 0.0859136)
(2.5421 0.0150184 0.0985922)
(2.28 0.0146749 0.0791448)
(2.02979 0.00745066 0.0641787)
(1.83082 -0.00207369 0.0495747)
(1.68318 -0.0156577 0.0340088)
(1.58079 -0.0288174 0.0211956)
(1.51337 -0.0459229 0.0123729)
(1.47386 -0.0613342 0.00708919)
(1.45446 -0.0792821 0.00381887)
(1.45145 -0.094546 0.00175536)
(1.46029 -0.113986 0.000464762)
(1.48299 -0.128258 -0.000301801)
(1.5105 -0.144426 -0.000622435)
(1.55078 -0.156009 -0.00128699)
(1.5932 -0.164971 -0.00134839)
(1.64331 -0.166859 -0.00141262)
(1.69196 -0.166701 -0.00174036)
(1.74929 -0.157725 -0.00284692)
(1.80015 -0.139206 -0.00239627)
(2.76864 0.00494401 0.0860663)
(2.53744 0.00582333 0.0987616)
(2.27155 0.00494224 0.0795416)
(2.01811 -0.00382006 0.0642616)
(1.81772 -0.0129192 0.0497897)
(1.66795 -0.0283121 0.0341378)
(1.56524 -0.0419107 0.0214085)
(1.49706 -0.0619828 0.0123483)
(1.45823 -0.0788789 0.00707158)
(1.43899 -0.10001 0.00377882)
(1.43585 -0.117097 0.00180212)
(1.446 -0.141599 0.000293311)
(1.46962 -0.156536 -0.000198636)
(1.49871 -0.177406 -0.000734829)
(1.54167 -0.191367 -0.00148094)
(1.58844 -0.202783 -0.00134088)
(1.64045 -0.205288 -0.00128145)
(1.69647 -0.207108 -0.00214095)
(1.75817 -0.19644 -0.00284514)
(1.81756 -0.173582 -0.00310773)
(2.76852 0.00234655 0.0862529)
(2.53396 -0.00202426 0.0987989)
(2.26547 -0.00382865 0.0799663)
(2.00825 -0.0160071 0.0643406)
(1.80726 -0.0242171 0.0501042)
(1.65355 -0.042917 0.0340028)
(1.55248 -0.0557559 0.0214087)
(1.48037 -0.0796424 0.0121758)
(1.44499 -0.0969278 0.00688065)
(1.42153 -0.121834 0.00372026)
(1.42208 -0.140064 0.00164985)
(1.4291 -0.171169 1.81346e-05)
(1.45791 -0.184827 -0.000167706)
(1.48323 -0.213278 -0.000877913)
(1.53518 -0.22858 -0.0020937)
(1.58003 -0.24387 -0.000698186)
(1.64001 -0.24742 -0.00176503)
(1.69966 -0.252901 -0.0022093)
(1.77186 -0.240674 -0.00336911)
(1.83719 -0.212434 -0.00278857)
(2.76856 0.000404961 0.0864808)
(2.53112 -0.00859971 0.0987211)
(2.26085 -0.0107694 0.0803783)
(2.00011 -0.0273992 0.0641944)
(1.79846 -0.033067 0.0506489)
(1.63997 -0.0572885 0.0335791)
(1.54101 -0.0673203 0.0216682)
(1.46324 -0.0972482 0.0118651)
(1.43224 -0.112979 0.00689185)
(1.40202 -0.143648 0.00361472)
(1.40784 -0.161645 0.00167043)
(1.40986 -0.201788 -0.000579908)
(1.44405 -0.211241 0.000388803)
(1.4652 -0.252477 -0.00159884)
(1.52644 -0.265437 -0.00251103)
(1.56912 -0.289094 0.000307179)
(1.63642 -0.291934 -0.00247376)
(1.70367 -0.306053 -0.00229682)
(1.78497 -0.289997 -0.00348352)
(1.85954 -0.25725 -0.00224982)
(2.76951 -0.00114581 0.0866997)
(2.52771 -0.0140927 0.0986142)
(2.25822 -0.0159849 0.0807794)
(1.99165 -0.0383443 0.0639027)
(1.7922 -0.0396425 0.0513804)
(1.62506 -0.0721658 0.0328652)
(1.53216 -0.0764462 0.022143)
(1.4434 -0.115478 0.011338)
(1.42187 -0.126356 0.00694007)
(1.37726 -0.166241 0.00343636)
(1.39664 -0.181122 0.00150397)
(1.38331 -0.233622 -0.00149605)
(1.43235 -0.235756 0.00118845)
(1.43933 -0.296057 -0.00295537)
(1.51931 -0.300594 -0.00305089)
(1.55006 -0.341348 0.00211322)
(1.63433 -0.338016 -0.00445732)
(1.70392 -0.370565 -0.000514663)
(1.79979 -0.34579 -0.00382058)
(1.88472 -0.310743 -0.000679488)
(2.77189 -0.00208144 0.086861)
(2.52276 -0.0189883 0.0985292)
(2.25794 -0.0194824 0.081139)
(1.98165 -0.0488799 0.0634581)
(1.78869 -0.0437529 0.0522598)
(1.60842 -0.0873188 0.0318235)
(1.5254 -0.0826879 0.0228733)
(1.42169 -0.133789 0.0104885)
(1.41221 -0.135896 0.00710893)
(1.34863 -0.189862 0.00298628)
(1.38735 -0.19637 0.00117972)
(1.34909 -0.266343 -0.00306421)
(1.42391 -0.258065 0.00244948)
(1.40421 -0.343386 -0.0053039)
(1.51429 -0.332529 -0.00280098)
(1.52277 -0.405403 0.00364054)
(1.63682 -0.380891 -0.0071694)
(1.69627 -0.454473 0.00494057)
(1.81932 -0.408595 -0.00339175)
(1.91597 -0.377141 0.0010973)
(2.77579 -0.00157167 0.0869751)
(2.51578 -0.0243301 0.0985811)
(2.26036 -0.0206775 0.0813075)
(1.96941 -0.0594433 0.0630359)
(1.78828 -0.0450912 0.0530552)
(1.59002 -0.102525 0.0308274)
(1.52065 -0.0860555 0.0235605)
(1.3992 -0.151371 0.00970976)
(1.4033 -0.140935 0.00710975)
(1.31794 -0.214614 0.00232432)
(1.38283 -0.204356 0.000307523)
(1.30475 -0.30132 -0.00455384)
(1.43073 -0.27619 0.00257943)
(1.35099 -0.393319 -0.00743609)
(1.52886 -0.361216 -0.00233809)
(1.47909 -0.486948 0.00436091)
(1.66214 -0.410192 -0.0119849)
(1.66643 -0.572926 0.0185807)
(1.85935 -0.482851 -0.0028564)
(1.95332 -0.462137 0.00350811)
(2.77781 0.00154365 0.0871672)
(2.51113 -0.0318762 0.0987651)
(2.26049 -0.0187001 0.0815001)
(1.96168 -0.0709966 0.062922)
(1.78344 -0.0437011 0.0537425)
(1.58075 -0.117667 0.0302358)
(1.50811 -0.0873946 0.0241226)
(1.39095 -0.167362 0.00905315)
(1.38501 -0.142101 0.00745243)
(1.30277 -0.240691 0.000973972)
(1.37608 -0.200897 -0.000438024)
(1.26517 -0.344514 -0.00516899)
(1.456 -0.282674 0.000811132)
(1.28361 -0.448496 -0.00925875)
(1.58138 -0.382053 -0.00242171)
(1.4155 -0.589998 0.00310427)
(1.72399 -0.406431 -0.0211629)
(1.60698 -0.743198 0.0414824)
(1.93281 -0.573452 -0.00264108)
(1.97746 -0.565129 0.0131348)
(2.77108 0.00637557 0.0873097)
(2.51884 -0.0415783 0.0987954)
(2.24759 -0.0149128 0.0821092)
(1.97362 -0.0828344 0.0630812)
(1.75861 -0.0424245 0.0547189)
(1.60213 -0.129728 0.029778)
(1.46831 -0.0905856 0.0250859)
(1.42198 -0.178667 0.00795077)
(1.33748 -0.142144 0.00904252)
(1.33005 -0.268098 -0.000727007)
(1.34379 -0.18396 0.00137402)
(1.26381 -0.402715 -0.0047903)
(1.47272 -0.267151 0.000109002)
(1.23021 -0.520821 -0.0108498)
(1.67033 -0.375407 -0.00476765)
(1.33202 -0.721794 0.00188259)
(1.83011 -0.347308 -0.0363038)
(1.52662 -0.976781 0.0636494)
(2.0616 -0.669493 -0.0117329)
(1.94633 -0.682426 0.0422433)
(2.75196 0.00715437 0.0871503)
(2.54579 -0.0474144 0.0980545)
(2.21481 -0.0152463 0.0830027)
(2.01527 -0.0874354 0.0625577)
(1.7043 -0.0498954 0.0558525)
(1.66281 -0.128169 0.0285305)
(1.39091 -0.104266 0.0264527)
(1.49538 -0.177545 0.00677482)
(1.24402 -0.149118 0.0117081)
(1.40685 -0.288898 -0.00189408)
(1.23786 -0.169173 0.0085634)
(1.33885 -0.460987 -0.00700353)
(1.38354 -0.237169 0.0086632)
(1.26235 -0.624306 -0.013108)
(1.68619 -0.31306 -0.000458075)
(1.29814 -0.917704 0.000287432)
(1.91496 -0.221464 -0.041895)
(1.51066 -1.28264 0.0553096)
(2.23105 -0.708865 -0.0430386)
(1.86686 -0.856629 0.100843)
(2.73473 -0.0034934 0.0862121)
(2.57441 -0.0393044 0.0970723)
(2.18448 -0.0272651 0.0829961)
(2.05576 -0.0726921 0.061711)
(1.65464 -0.0719851 0.055487)
(1.71102 -0.104332 0.0284217)
(1.3267 -0.131051 0.0255132)
(1.53812 -0.157525 0.00818322)
(1.1579 -0.175126 0.0126876)
(1.45629 -0.278259 -0.00240986)
(1.08621 -0.204246 0.0159976)
(1.4311 -0.460851 -0.0116969)
(1.14644 -0.252669 0.0192444)
(1.38904 -0.717507 -0.0140117)
(1.44794 -0.215797 0.0367207)
(1.40538 -1.18882 -0.011555)
(1.86812 -0.0772357 0.00309592)
(1.62741 -1.68929 0.00264757)
(2.34749 -0.559163 -0.0750579)
(1.84266 -1.21626 0.186034)
(2.74652 -0.0199287 0.0846575)
(2.567 -0.0181914 0.0984946)
(2.19953 -0.0467812 0.082121)
(2.03391 -0.0433251 0.0633956)
(1.67126 -0.097984 0.0536214)
(1.66262 -0.0715181 0.033274)
(1.35979 -0.158915 0.0221542)
(1.44944 -0.127407 0.015157)
(1.19141 -0.220013 0.012976)
(1.35184 -0.22882 0.00018442)
(1.07074 -0.304776 0.0191273)
(1.35797 -0.370568 -0.0104814)
(1.02152 -0.385435 0.0160272)
(1.42765 -0.677194 -0.008449)
(1.07737 -0.315339 0.0502665)
(1.62066 -1.31754 -0.0500001)
(1.40538 0.0501821 0.218196)
(1.79697 -2.15462 -0.0369557)
(2.40807 -0.380923 -0.0978321)
(1.86314 -1.99082 0.232864)
(2.78485 -0.026533 0.0838229)
(2.52417 -0.00342167 0.100298)
(2.25896 -0.0601841 0.0820302)
(1.94994 -0.0235085 0.0682538)
(1.75659 -0.114965 0.0515385)
(1.52449 -0.0546642 0.038863)
(1.48656 -0.173951 0.0208531)
(1.25125 -0.114629 0.0216803)
(1.34815 -0.261705 0.0119588)
(1.10664 -0.187552 0.00843817)
(1.25738 -0.406161 0.0209209)
(1.06536 -0.291474 0.00301188)
(1.21738 -0.55971 0.0247419)
(1.16079 -0.533426 0.0096527)
(1.11271 -0.727884 0.0319826)
(1.54723 -1.05396 -0.0357562)
(1.07461 -0.684728 0.154618)
(1.90044 -2.44338 -0.137146)
(2.03225 0.166844 0.36977)
(1.83219 -3.32774 0.152928)
(2.81766 -0.0195743 0.0840317)
(2.48495 -0.00622198 0.101439)
(2.3131 -0.0578522 0.0808517)
(1.87272 -0.0264855 0.0709588)
(1.84555 -0.109916 0.0490339)
(1.39952 -0.0653849 0.0405598)
(1.60564 -0.162152 0.0192229)
(1.08457 -0.134472 0.0209803)
(1.49642 -0.262213 0.00631528)
(0.895554 -0.20435 0.0102426)
(1.47025 -0.425097 0.0117833)
(0.798312 -0.32729 0.0115068)
(1.4687 -0.629435 0.0268143)
(0.852993 -0.535597 0.0290485)
(1.37232 -1.01176 0.0359555)
(1.04284 -0.848524 0.0381467)
(1.31662 -1.63873 -0.029237)
(1.40641 -1.79965 -0.00814283)
(1.50253 -1.24105 0.227822)
(1.84736 -4.68961 -0.201143)
(2.82867 -0.00858029 0.0845957)
(2.46863 -0.0181449 0.101657)
(2.33243 -0.0419599 0.0795651)
(1.83797 -0.0432128 0.0721276)
(1.87797 -0.0797618 0.0470037)
(1.34905 -0.0934168 0.0421387)
(1.63258 -0.128921 0.0162265)
(1.03264 -0.167642 0.021647)
(1.51961 -0.222567 -0.00122518)
(0.844944 -0.261313 0.0135055)
(1.49254 -0.369032 -0.00571293)
(0.756929 -0.417048 0.018747)
(1.46247 -0.598685 0.00159331)
(0.748566 -0.672213 0.0401205)
(1.37064 -0.988002 0.0084717)
(0.669893 -1.07628 0.0128975)
(1.30996 -1.72085 0.0288918)
(0.633297 -1.65292 0.0528176)
(0.996629 -3.00111 0.0717379)
(1.58214 -5.27838 -0.526572)
(2.81857 0.00714532 0.0842663)
(2.48333 -0.0372151 0.103124)
(2.31231 -0.021055 0.079321)
(1.8581 -0.068041 0.0759329)
(1.82808 -0.0438931 0.0463984)
(1.38896 -0.126504 0.0456321)
(1.542 -0.0885594 0.0134744)
(1.09819 -0.203677 0.027024)
(1.38416 -0.167968 -0.00577874)
(0.928303 -0.31075 0.0217642)
(1.28652 -0.301191 -0.0153457)
(0.824821 -0.475937 0.0293123)
(1.17603 -0.519333 -0.0209546)
(0.698612 -0.752782 0.0364225)
(1.01848 -0.866265 -0.0283762)
(0.459434 -1.1765 -0.0185755)
(0.892589 -1.57213 0.00807115)
(0.108611 -2.05981 -0.0135933)
(0.298294 -3.27813 0.068556)
(0.942956 -4.90343 -0.802068)
(2.9227 0.0419985 0.122334)
(2.96 0.0622564 0.145574)
(2.89743 0.0611131 0.128338)
(2.76918 0.0586239 0.113085)
(2.62859 0.0539247 0.0921299)
(2.49831 0.0468873 0.067517)
(2.38172 0.0400926 0.0466101)
(2.28166 0.0336975 0.0320502)
(2.19616 0.0280992 0.0229915)
(2.12918 0.0223431 0.0170337)
(2.07811 0.0166161 0.0134973)
(2.04548 0.0105187 0.0116148)
(2.02764 0.00480214 0.0106943)
(2.02642 -0.0010042 0.0100939)
(2.03759 -0.00607802 0.00991391)
(2.06155 -0.0107626 0.0100032)
(2.09361 -0.0137599 0.0097253)
(2.13286 -0.0161414 0.00916122)
(2.17649 -0.017061 0.00787008)
(2.22235 -0.0168618 0.00628564)
(2.99963 0.0541503 0.12342)
(3.12711 0.0825623 0.151105)
(3.19207 0.082695 0.133502)
(3.19652 0.080204 0.121406)
(3.16995 0.0756022 0.10684)
(3.1364 0.0663813 0.087347)
(3.0996 0.0566645 0.0686018)
(3.06798 0.0460202 0.0530795)
(3.03869 0.0358814 0.0420913)
(3.0198 0.0243582 0.0337048)
(3.00872 0.0135919 0.0276306)
(3.00863 0.000915792 0.0236747)
(3.01944 -0.0112374 0.0206657)
(3.04151 -0.0240772 0.0182427)
(3.07556 -0.0347516 0.0162985)
(3.11753 -0.0459848 0.0151437)
(3.16951 -0.0539237 0.0141777)
(3.22525 -0.0605524 0.0132947)
(3.2892 -0.064379 0.0115456)
(3.35322 -0.0652494 0.0106624)
(3.00011 0.0224969 0.123135)
(3.11615 0.0420102 0.15078)
(3.18616 0.0467362 0.131929)
(3.20537 0.0458587 0.118772)
(3.19815 0.0440665 0.104778)
(3.1843 0.0362508 0.0861673)
(3.16837 0.028131 0.0680993)
(3.15573 0.0159631 0.0527902)
(3.14659 0.00449296 0.0416109)
(3.1439 -0.0113466 0.0329614)
(3.15071 -0.0239067 0.0262957)
(3.16216 -0.0414047 0.0218066)
(3.18729 -0.0575156 0.0177094)
(3.21753 -0.0760364 0.0150147)
(3.26217 -0.0897529 0.0124009)
(3.3096 -0.105548 0.0110626)
(3.36931 -0.116221 0.00935904)
(3.4286 -0.126779 0.00869458)
(3.49892 -0.131776 0.0063129)
(3.56763 -0.133393 0.00636423)
(3.00002 0.016132 0.123257)
(3.10512 0.0323479 0.151558)
(3.16831 0.0373409 0.132515)
(3.18488 0.0347433 0.118561)
(3.17695 0.0313757 0.104209)
(3.16464 0.0210971 0.0855254)
(3.14939 0.0116617 0.0675204)
(3.14008 -0.0037318 0.0517578)
(3.13273 -0.0177469 0.0405069)
(3.13483 -0.0381 0.0314142)
(3.14378 -0.0529152 0.0248532)
(3.15896 -0.0755255 0.0199764)
(3.18648 -0.0959983 0.0154906)
(3.22202 -0.119005 0.0122183)
(3.26755 -0.137244 0.00995151)
(3.3212 -0.157238 0.00780392)
(3.38213 -0.170834 0.0066079)
(3.4474 -0.184114 0.00500948)
(3.51966 -0.191795 0.00312079)
(3.5954 -0.192951 0.00252978)
(3.00041 0.00965374 0.123458)
(3.09736 0.0168954 0.15203)
(3.15702 0.0194999 0.133061)
(3.16843 0.0143195 0.118695)
(3.16031 0.0102645 0.103881)
(3.1448 -0.00267889 0.0850788)
(3.13011 -0.0126347 0.0667146)
(3.11861 -0.0313882 0.0506087)
(3.1129 -0.0472667 0.0390448)
(3.1137 -0.0724189 0.0299822)
(3.12566 -0.0875832 0.0232727)
(3.13655 -0.116668 0.0188865)
(3.17034 -0.140388 0.013374)
(3.20294 -0.167308 0.010958)
(3.25396 -0.189887 0.00790889)
(3.30672 -0.214728 0.0065717)
(3.37424 -0.230651 0.00475353)
(3.43956 -0.24706 0.00387826)
(3.52046 -0.257465 0.000804471)
(3.59946 -0.258107 0.00180264)
(3.00056 0.00645874 0.123808)
(3.0927 0.00618947 0.152173)
(3.15022 0.00840612 0.133704)
(3.15692 -0.000150496 0.119183)
(3.14781 -0.00397525 0.104338)
(3.12871 -0.0204108 0.085601)
(3.11164 -0.0305867 0.0672888)
(3.09859 -0.0533574 0.0506997)
(3.0902 -0.0714003 0.0392462)
(3.09193 -0.102458 0.0297582)
(3.10146 -0.116295 0.0234844)
(3.11115 -0.155431 0.018778)
(3.14681 -0.181295 0.0129798)
(3.17997 -0.212406 0.0108505)
(3.23018 -0.241033 0.00776921)
(3.29021 -0.271241 0.00600572)
(3.35509 -0.289764 0.0055979)
(3.42859 -0.311165 0.00303515)
(3.51247 -0.324939 0.00132828)
(3.60127 -0.326111 -9.08311e-05)
(3.00176 0.00512729 0.124325)
(3.08797 -0.00376647 0.151992)
(3.14721 -0.000112996 0.134442)
(3.14522 -0.0156445 0.119614)
(3.14039 -0.0173597 0.104949)
(3.11162 -0.0398118 0.086013)
(3.09858 -0.0490693 0.0674404)
(3.07723 -0.0770792 0.050688)
(3.07326 -0.0962519 0.0389615)
(3.06723 -0.134933 0.0297979)
(3.0829 -0.143675 0.0231421)
(3.08122 -0.198755 0.018866)
(3.12996 -0.221978 0.0117099)
(3.15022 -0.259263 0.0119027)
(3.21122 -0.296254 0.00617093)
(3.27032 -0.330421 0.00679861)
(3.33855 -0.351795 0.00530578)
(3.41226 -0.381282 0.00392832)
(3.50896 -0.400508 0.000321315)
(3.60361 -0.399919 0.00195617)
(3.00428 0.00526723 0.125008)
(3.08247 -0.0137685 0.15144)
(3.14691 -0.00463798 0.135364)
(3.13327 -0.0316741 0.119466)
(3.13644 -0.0262994 0.106075)
(3.0942 -0.058879 0.0858673)
(3.08786 -0.0639979 0.0680236)
(3.05602 -0.0999905 0.0502806)
(3.05779 -0.117527 0.0390176)
(3.04095 -0.167912 0.0298136)
(3.06475 -0.165505 0.0230734)
(3.04968 -0.246237 0.0185149)
(3.11106 -0.256952 0.011091)
(3.11804 -0.307139 0.0130997)
(3.18598 -0.354037 0.00470205)
(3.25185 -0.390468 0.00783002)
(3.31257 -0.412199 0.00620968)
(3.39332 -0.458936 0.00430099)
(3.50018 -0.483842 0.00134126)
(3.60528 -0.480229 0.00325211)
(3.01201 0.0068723 0.125547)
(3.07125 -0.0245076 0.150892)
(3.153 -0.00457351 0.136383)
(3.11525 -0.049618 0.118949)
(3.13953 -0.0303471 0.107662)
(3.07091 -0.0791045 0.085111)
(3.08292 -0.0754733 0.0690442)
(3.02964 -0.12375 0.0493627)
(3.04865 -0.134127 0.0391365)
(3.00428 -0.204044 0.0300559)
(3.05651 -0.180373 0.0220111)
(3.00501 -0.30025 0.0186602)
(3.09812 -0.28439 0.00987445)
(3.07402 -0.358802 0.0153876)
(3.16158 -0.414614 0.00135154)
(3.22196 -0.453983 0.011748)
(3.2867 -0.468854 0.00467021)
(3.36506 -0.548781 0.00726066)
(3.48906 -0.578417 0.0024124)
(3.60629 -0.569004 0.00613299)
(3.02789 0.0106612 0.125514)
(3.05054 -0.036552 0.150784)
(3.16718 0.000112013 0.137307)
(3.08865 -0.0701885 0.118198)
(3.14896 -0.0295892 0.109712)
(3.04236 -0.100257 0.0833924)
(3.08055 -0.0838961 0.0710078)
(3.0017 -0.148352 0.0470214)
(3.04185 -0.143291 0.0403063)
(2.95877 -0.246368 0.0293204)
(3.05885 -0.184622 0.0204997)
(2.94345 -0.361145 0.0188889)
(3.09282 -0.303799 0.00879238)
(3.017 -0.415003 0.0171969)
(3.13947 -0.473105 -0.00235565)
(3.17344 -0.528893 0.0183203)
(3.27164 -0.516876 -0.000594759)
(3.32891 -0.653949 0.0134331)
(3.47647 -0.684661 0.00702086)
(3.61461 -0.668662 0.00773358)
(3.05225 0.0186217 0.124478)
(3.01889 -0.0511464 0.151961)
(3.19009 0.00964397 0.137408)
(3.05351 -0.0937096 0.118115)
(3.16405 -0.025062 0.11133)
(3.01097 -0.121019 0.0814667)
(3.08161 -0.0908124 0.073265)
(2.9724 -0.173319 0.0436764)
(3.04343 -0.142309 0.0422721)
(2.89984 -0.299113 0.0273267)
(3.08677 -0.172359 0.0174385)
(2.84798 -0.431258 0.0211385)
(3.12595 -0.316429 0.00433299)
(2.92062 -0.474975 0.0213218)
(3.15997 -0.521751 -0.0112566)
(3.08223 -0.631041 0.0326213)
(3.30569 -0.550078 -0.0163837)
(3.27508 -0.773434 0.0296956)
(3.48307 -0.803297 0.00878334)
(3.64001 -0.781013 0.0202217)
(3.06886 0.0335387 0.12315)
(2.99619 -0.0711074 0.154083)
(3.20343 0.0237706 0.137083)
(3.03709 -0.119797 0.118431)
(3.16196 -0.0190573 0.112883)
(3.0096 -0.139915 0.0787462)
(3.0681 -0.0969493 0.0761003)
(2.96697 -0.199556 0.0381501)
(3.04748 -0.128354 0.0462063)
(2.8485 -0.367847 0.0216533)
(3.13943 -0.135085 0.0146363)
(2.7353 -0.518797 0.0232342)
(3.22066 -0.319809 -0.00543195)
(2.77425 -0.540752 0.0306602)
(3.27063 -0.552051 -0.0345456)
(2.94654 -0.771637 0.0584802)
(3.40113 -0.562295 -0.0422666)
(3.21086 -0.898418 0.0542766)
(3.52114 -0.930332 0.0115332)
(3.67268 -0.901727 0.0362559)
(3.04582 0.0539834 0.1241)
(3.02489 -0.0958956 0.153669)
(3.16867 0.0380927 0.139339)
(3.09283 -0.142654 0.115481)
(3.09811 -0.0174206 0.117339)
(3.09318 -0.153447 0.0719068)
(3.00357 -0.0985228 0.0818471)
(3.02724 -0.232683 0.027792)
(3.02858 -0.094094 0.0544772)
(2.85352 -0.45794 0.0086362)
(3.1778 -0.0681142 0.0197557)
(2.68205 -0.63304 0.0143365)
(3.35107 -0.296846 -0.0161772)
(2.6126 -0.635425 0.0446973)
(3.49696 -0.547825 -0.0853837)
(2.76272 -0.944317 0.103811)
(3.54948 -0.557986 -0.0859045)
(3.13308 -1.02325 0.0938845)
(3.61276 -1.04918 -0.00113884)
(3.6562 -1.02266 0.0848687)
(2.96291 0.0661323 0.130493)
(3.13279 -0.111113 0.145248)
(3.05313 0.0392572 0.147513)
(3.24729 -0.142579 0.104175)
(2.93934 -0.0320558 0.127396)
(3.27046 -0.152407 0.0584235)
(2.85616 -0.090988 0.0922412)
(3.16604 -0.274371 0.0136915)
(2.9158 -0.0437785 0.0712625)
(2.98197 -0.547893 -0.0157175)
(3.05232 0.00653911 0.0534211)
(2.82591 -0.752567 -0.0289597)
(3.32268 -0.217676 0.0044635)
(2.59309 -0.805024 0.0329867)
(3.6676 -0.466401 -0.134053)
(2.6349 -1.16341 0.13093)
(3.6498 -0.556202 -0.142854)
(3.08252 -1.18465 0.14002)
(3.75699 -1.11733 -0.0477247)
(3.55592 -1.13818 0.156443)
(2.87641 0.0479312 0.136997)
(3.24987 -0.0921006 0.133537)
(2.9214 0.00844363 0.156669)
(3.39477 -0.101069 0.0897325)
(2.78093 -0.0715796 0.136085)
(3.39805 -0.129477 0.048426)
(2.72038 -0.0892413 0.0986747)
(3.25946 -0.293887 0.00784806)
(2.72267 -0.0313161 0.0907908)
(3.15836 -0.551946 -0.0404141)
(2.66111 0.00583291 0.114103)
(3.11816 -0.795681 -0.0992982)
(2.88526 -0.0892507 0.0924895)
(2.7994 -1.04108 -0.0481205)
(3.44073 -0.253645 -0.0717847)
(2.76355 -1.46625 0.0476323)
(3.54032 -0.533628 -0.166554)
(3.15279 -1.51211 0.147251)
(3.9055 -1.08078 -0.135203)
(3.46855 -1.27679 0.256561)
(2.90985 0.0019589 0.132198)
(3.22678 -0.0349744 0.136023)
(2.94703 -0.0538893 0.154976)
(3.34872 -0.0277764 0.0912983)
(2.84578 -0.128509 0.132622)
(3.27303 -0.0854897 0.0574255)
(2.83886 -0.122117 0.0905655)
(3.09746 -0.242819 0.0266823)
(2.74302 -0.127106 0.0886649)
(3.09698 -0.40279 -0.0316731)
(2.44955 -0.186322 0.131993)
(3.1786 -0.655908 -0.109563)
(2.36929 -0.136333 0.160417)
(3.05845 -1.14845 -0.148687)
(2.60815 0.0139333 0.159857)
(3.17605 -1.74907 -0.182289)
(2.95083 -0.267622 0.0914075)
(3.36526 -2.13232 0.00559175)
(3.99828 -1.02779 -0.210812)
(3.45597 -1.49097 0.414876)
(3.07512 -0.0354979 0.118742)
(3.04116 0.0245333 0.152605)
(3.17736 -0.11499 0.141955)
(3.06812 0.0362278 0.114681)
(3.18841 -0.169364 0.116776)
(2.86911 -0.0469298 0.0843355)
(3.25435 -0.163088 0.0719562)
(2.65372 -0.152134 0.0628201)
(3.15873 -0.279744 0.0576797)
(2.6387 -0.197352 0.0180777)
(2.95675 -0.458994 0.074641)
(2.66349 -0.394391 -0.0230415)
(2.76955 -0.49501 0.101216)
(2.85394 -0.864364 -0.0861804)
(2.251 -0.29408 0.273756)
(3.43611 -1.72698 -0.304593)
(1.91613 0.130888 0.603312)
(3.61883 -2.88782 -0.407171)
(3.66483 -0.743822 0.187983)
(3.30245 -2.03241 0.521405)
(3.23222 -0.0331114 0.108611)
(2.84656 0.0328993 0.166638)
(3.42647 -0.116021 0.124627)
(2.74835 0.0283097 0.137638)
(3.54615 -0.140347 0.0947645)
(2.45549 -0.0665247 0.111446)
(3.63177 -0.14933 0.0485216)
(2.21714 -0.128368 0.0873005)
(3.61733 -0.3179 0.0131796)
(2.04111 -0.146534 0.0719735)
(3.65077 -0.506331 -0.0197084)
(1.92524 -0.279946 0.0812301)
(3.57162 -0.713554 -0.0128845)
(2.18979 -0.518672 0.0725543)
(3.12789 -0.955537 0.123759)
(2.90106 -1.13556 -0.0531749)
(2.22841 -0.915637 0.527647)
(3.56567 -2.8935 -0.452044)
(2.36003 -0.0335715 0.996917)
(3.07413 -3.40454 0.160213)
(3.28509 0.000358356 0.105771)
(2.76938 -0.0123418 0.171789)
(3.52702 -0.0544418 0.114489)
(2.61635 -0.0468645 0.150669)
(3.66136 -0.057775 0.0800556)
(2.34463 -0.130938 0.125096)
(3.70946 -0.0990454 0.0318697)
(2.13478 -0.185515 0.0967848)
(3.73649 -0.228245 -0.0180515)
(1.90657 -0.272224 0.0920309)
(3.82256 -0.379638 -0.0690741)
(1.78897 -0.415504 0.104218)
(3.85859 -0.615508 -0.0810685)
(1.79881 -0.670791 0.147468)
(3.78696 -1.07063 -0.0330532)
(1.99106 -0.838383 0.184622)
(3.38331 -2.14869 0.0550129)
(2.38714 -1.54667 0.198074)
(2.19214 -2.27659 0.620825)
(3.08967 -5.25043 -0.57547)
(3.21375 0.0430954 0.107471)
(2.86598 -0.0696612 0.174492)
(3.42525 0.013886 0.115467)
(2.7755 -0.12145 0.158163)
(3.46986 0.0111568 0.0829582)
(2.60997 -0.18807 0.130432)
(3.4498 -0.0358585 0.0269586)
(2.45266 -0.257277 0.105886)
(3.44779 -0.122803 -0.0236893)
(2.28849 -0.372613 0.0961808)
(3.45529 -0.254417 -0.0615341)
(2.16665 -0.575978 0.0997502)
(3.46896 -0.397112 -0.0640235)
(2.0277 -0.942931 0.11677)
(3.31604 -0.769011 -0.0592316)
(1.8523 -1.2819 0.149862)
(2.99288 -1.63494 -0.144734)
(1.14994 -1.5841 0.396975)
(2.67615 -3.49273 -0.319508)
(2.33468 -4.71465 -1.10897)
(2.92478 0.0416706 0.0635962)
(2.98462 0.0616567 0.0917177)
(2.99741 0.0605526 0.085216)
(2.9662 0.0588048 0.0816311)
(2.91558 0.056372 0.0728425)
(2.85991 0.0514104 0.0584472)
(2.79999 0.0460316 0.0444883)
(2.74074 0.040125 0.0337712)
(2.68138 0.0348859 0.0267769)
(2.63 0.0293404 0.0216066)
(2.5857 0.024052 0.0178047)
(2.55434 0.0182293 0.0155541)
(2.5334 0.0126825 0.0139847)
(2.52762 0.00683985 0.0127688)
(2.53337 0.00172238 0.0118217)
(2.55195 -0.0035087 0.011822)
(2.58004 -0.00711436 0.0115995)
(2.6159 -0.0102918 0.0112865)
(2.65883 -0.0122981 0.0102107)
(2.70454 -0.0127882 0.00930164)
(3.00132 0.0536545 0.0637216)
(3.15283 0.0818559 0.0939355)
(3.28969 0.0824227 0.0899759)
(3.39056 0.0801538 0.0871608)
(3.46132 0.0784912 0.0825606)
(3.51854 0.0724134 0.0726898)
(3.56081 0.0654501 0.061649)
(3.59745 0.0562201 0.0513665)
(3.62424 0.0482075 0.0440531)
(3.65121 0.037783 0.038309)
(3.6776 0.028688 0.0332829)
(3.7071 0.0179444 0.0301028)
(3.7405 0.00704459 0.0274237)
(3.77995 -0.0056662 0.0250691)
(3.8292 -0.0160604 0.0224108)
(3.88338 -0.0262062 0.0208921)
(3.9456 -0.0348937 0.0199975)
(4.00956 -0.0428828 0.0193971)
(4.08254 -0.0491312 0.0170023)
(4.15447 -0.0518501 0.0167924)
(3.0017 0.0222752 0.0633081)
(3.14237 0.0419865 0.0934431)
(3.28373 0.0479077 0.0891705)
(3.39709 0.0462721 0.0848925)
(3.48584 0.0467602 0.0804429)
(3.56117 0.0411546 0.0710519)
(3.62519 0.0362316 0.0603972)
(3.68157 0.0253511 0.0501755)
(3.7322 0.0175321 0.0428722)
(3.77793 0.00271246 0.0372247)
(3.82788 -0.00785857 0.0319798)
(3.8745 -0.0219322 0.0289744)
(3.92751 -0.0352933 0.0253511)
(3.97948 -0.0541694 0.0228819)
(4.04384 -0.0689516 0.0196893)
(4.11019 -0.0826858 0.01827)
(4.1841 -0.0925152 0.0165556)
(4.25489 -0.105184 0.0161077)
(4.3354 -0.114746 0.0129)
(4.41565 -0.119401 0.0132965)
(3.00157 0.016031 0.0631919)
(3.13181 0.03257 0.0938232)
(3.26662 0.0391456 0.0893576)
(3.37801 0.035341 0.0844286)
(3.46603 0.0344567 0.0796222)
(3.54246 0.0259218 0.0701312)
(3.60677 0.0200961 0.0595768)
(3.66548 0.00564212 0.0486587)
(3.71756 -0.00384392 0.0414269)
(3.76648 -0.023762 0.0351294)
(3.81951 -0.0369697 0.0299942)
(3.8698 -0.0541329 0.0269319)
(3.92386 -0.0712887 0.0232277)
(3.98067 -0.0948779 0.0192955)
(4.04617 -0.115909 0.0171937)
(4.11915 -0.133304 0.0145143)
(4.19402 -0.144968 0.0145457)
(4.26937 -0.160696 0.0112708)
(4.35147 -0.175113 0.00986743)
(4.43782 -0.18093 0.00498586)
(3.0022 0.00972621 0.063225)
(3.1241 0.0169911 0.0941574)
(3.25583 0.0214599 0.0896094)
(3.36275 0.0143036 0.0845543)
(3.45086 0.0130679 0.0792287)
(3.52435 0.00119671 0.0697677)
(3.58859 -0.00484995 0.0590717)
(3.64456 -0.0233495 0.0476272)
(3.69761 -0.0333846 0.0400954)
(3.74338 -0.0599913 0.0338876)
(3.80109 -0.0738601 0.0279034)
(3.84613 -0.0946723 0.0264214)
(3.90331 -0.115347 0.0208513)
(3.9578 -0.144059 0.0178136)
(4.02834 -0.170648 0.0144391)
(4.10102 -0.191914 0.0136487)
(4.18014 -0.204268 0.0120515)
(4.25467 -0.224672 0.0107298)
(4.34349 -0.243314 0.00624794)
(4.43371 -0.251093 0.00759657)
(3.00261 0.00688184 0.0634613)
(3.11932 0.00605574 0.0942718)
(3.24945 0.010542 0.0898987)
(3.3525 -0.000710479 0.0851447)
(3.43947 -0.00131618 0.0795235)
(3.5113 -0.0169837 0.0702097)
(3.57201 -0.0229546 0.0598798)
(3.62728 -0.046035 0.0474324)
(3.67688 -0.0562515 0.04048)
(3.72221 -0.0919667 0.0337161)
(3.78063 -0.104462 0.0277286)
(3.8222 -0.130117 0.0269596)
(3.87776 -0.155834 0.0205469)
(3.93509 -0.189412 0.0167093)
(4.00341 -0.223582 0.014995)
(4.08303 -0.247707 0.0124055)
(4.15946 -0.261744 0.0136928)
(4.23843 -0.287792 0.00894732)
(4.32977 -0.313257 0.00772276)
(4.42854 -0.320717 0.00275518)
(3.00473 0.00635047 0.0638779)
(3.11346 -0.00461706 0.0941592)
(3.24772 0.00254079 0.0901456)
(3.34115 -0.0169148 0.0858887)
(3.43313 -0.0149519 0.0798266)
(3.49756 -0.036621 0.070804)
(3.56 -0.041077 0.0604296)
(3.60851 -0.0706929 0.0473003)
(3.66122 -0.0789691 0.04021)
(3.69831 -0.128003 0.0344566)
(3.76599 -0.133773 0.0264146)
(3.79369 -0.168045 0.0288595)
(3.85739 -0.198033 0.0183333)
(3.90943 -0.23611 0.017463)
(3.98062 -0.280139 0.0140844)
(4.06239 -0.306973 0.013609)
(4.14267 -0.320967 0.0125476)
(4.21841 -0.355209 0.0107825)
(4.31932 -0.389924 0.00639414)
(4.42385 -0.395253 0.00858508)
(3.00917 0.00806052 0.0644342)
(3.10566 -0.0163019 0.0937905)
(3.24963 -0.000788949 0.0904337)
(3.32853 -0.0339361 0.0862883)
(3.42992 -0.0244766 0.0806235)
(3.48437 -0.0554941 0.0708363)
(3.54884 -0.0548146 0.0617292)
(3.59035 -0.0948394 0.0464266)
(3.64665 -0.0967714 0.0403192)
(3.67381 -0.166099 0.0354494)
(3.75112 -0.156681 0.0250891)
(3.76469 -0.207215 0.0306746)
(3.83433 -0.238077 0.0167029)
(3.88629 -0.280324 0.0178248)
(3.94951 -0.337634 0.0152786)
(4.04334 -0.369006 0.01369)
(4.12066 -0.377379 0.0142738)
(4.19665 -0.424612 0.010075)
(4.30329 -0.471566 0.0105056)
(4.41851 -0.474629 0.00660976)
(3.02155 0.0121726 0.064658)