/*--------------------------------*- C++ -*----------------------------------*\
| =========                 |                                                 |
| \\      /  F ield         | OpenFOAM: The Open Source CFD Toolbox           |
|  \\    /   O peration     | Version:  v1806                                 |
|   \\  /    A nd           | Web:      www.OpenFOAM.com                      |
|    \\/     M anipulation  |                                                 |
\*---------------------------------------------------------------------------*/
FoamFile
{
    version     2.0;
    format      ascii;
    class       volScalarField;
    location    "20";
    object      p;
}
// * * * * * * * * * * * * * * * * * * * * * * * * * * * * * * * * * * * * * //

dimensions      [0 2 -2 0 0 0 0];


internalField   nonuniform List<scalar> 
2400
(
0.000511887
0.000516898
0.000528714
0.000544008
0.000560626
0.000586795
0.000630909
0.000683165
0.000728079
0.000776155
0.000867604
0.00103072
0.0012308
0.00140311
0.00151884
0.00159043
0.00163746
0.00166959
0.00168994
0.0017215
0.00153442
0.00154855
0.00157723
0.00161948
0.00167806
0.00175922
0.00186266
0.00197654
0.00209811
0.00225541
0.00248778
0.00278928
0.00309407
0.00333974
0.0035183
0.00365733
0.0037755
0.00387443
0.00394743
0.00398302
0.00254956
0.00257145
0.00261672
0.00268648
0.00278207
0.00290669
0.00306194
0.00324077
0.00343906
0.00367864
0.00399324
0.00438215
0.00479612
0.00518022
0.00550443
0.00576858
0.00597745
0.00613295
0.00623634
0.00629727
0.00355258
0.00358201
0.00364327
0.00373764
0.00386614
0.00403198
0.004237
0.00447322
0.00473484
0.00504287
0.00542965
0.00589346
0.00638155
0.0068331
0.0072144
0.00752611
0.0077737
0.00796068
0.008086
0.00815278
0.00453927
0.00457575
0.00465177
0.00476911
0.00492868
0.00513246
0.00538157
0.00566877
0.00598813
0.00635641
0.00679816
0.00730835
0.00784148
0.00834804
0.00879325
0.00916522
0.00945555
0.00966449
0.00979442
0.0098581
0.00550546
0.00554852
0.00563849
0.00577741
0.00596564
0.00620409
0.0064937
0.00682759
0.00719808
0.00761711
0.0081039
0.00865375
0.00922495
0.00976921
0.0102453
0.0106376
0.010935
0.0111416
0.0112612
0.0113113
0.0064473
0.00649659
0.0065997
0.00675876
0.00697372
0.00724457
0.00757173
0.00794826
0.00836498
0.00882971
0.00935629
0.00993823
0.0105356
0.0111046
0.0116017
0.0120075
0.0123021
0.0124913
0.0125811
0.0125997
0.00736118
0.00741634
0.00753186
0.00770995
0.00795012
0.00825147
0.00861389
0.00903033
0.00949001
0.00999679
0.0105598
0.0111715
0.0117928
0.0123809
0.0128856
0.0132853
0.0135541
0.0137052
0.0137447
0.0137149
0.00824364
0.00830439
0.0084317
0.0086279
0.00889203
0.00922247
0.0096186
0.0100731
0.0105738
0.011121
0.01172
0.0123616
0.0130054
0.0136088
0.0141148
0.0145006
0.0147297
0.0148248
0.0147892
0.0146864
0.00909142
0.00915751
0.00929611
0.00950963
0.00979677
0.0101553
0.0105841
0.0110758
0.0116167
0.0122045
0.0128407
0.0135148
0.0141842
0.0148045
0.0153089
0.0156727
0.0158463
0.0158668
0.0157272
0.0155235
0.00990142
0.00997264
0.0101221
0.0103523
0.0106616
0.0110475
0.0115085
0.0120371
0.0126186
0.0132485
0.0139251
0.0146364
0.0153371
0.0159793
0.0164847
0.0168253
0.0169323
0.0168611
0.0165823
0.0162422
0.0106707
0.0107468
0.0109067
0.0111529
0.0114839
0.0118965
0.0123895
0.0129552
0.0135785
0.0142529
0.0149748
0.0157303
0.0164716
0.0171453
0.01766
0.0179811
0.0180148
0.017837
0.0173762
0.016857
0.0113963
0.0114771
0.011647
0.0119088
0.0122607
0.0126996
0.0132245
0.0138279
0.0144946
0.0152169
0.01599
0.0167986
0.0175928
0.0183122
0.0188522
0.0191655
0.0191277
0.0188325
0.0181385
0.0173894
0.0120756
0.0121609
0.0123404
0.0126171
0.0129893
0.0134539
0.0140104
0.014652
0.0153638
0.0161378
0.0169689
0.0178407
0.0187037
0.019488
0.0200783
0.0204042
0.0203108
0.0198935
0.0189094
0.0178722
0.0127059
0.0127955
0.0129841
0.013275
0.0136665
0.0141562
0.0147439
0.0154237
0.0161821
0.0170112
0.0179072
0.0188535
0.0198034
0.0206774
0.0213537
0.0217244
0.0216118
0.0210764
0.0197506
0.018358
0.0132849
0.0133784
0.0135754
0.0138796
0.0142895
0.014803
0.0154209
0.0161386
0.0169442
0.017831
0.0187977
0.0198294
0.020886
0.0218794
0.0226895
0.0231547
0.0230884
0.0224473
0.0207619
0.0189177
0.0138102
0.0139073
0.0141121
0.0144285
0.0148552
0.015391
0.0160375
0.0167915
0.0176437
0.0185891
0.0196303
0.0207561
0.0219377
0.0230835
0.0240861
0.0247212
0.0248129
0.0240927
0.0221004
0.0195959
0.0142798
0.01438
0.0145917
0.014919
0.0153609
0.0159167
0.0165894
0.017377
0.0182735
0.0192758
0.0203917
0.0216161
0.0229356
0.0242647
0.0255221
0.0264332
0.026864
0.0261595
0.0240042
0.0202444
0.0146918
0.0147946
0.0150123
0.0153489
0.0158038
0.016377
0.0170723
0.0178897
0.0188258
0.0198804
0.0210665
0.0223869
0.0238466
0.0253786
0.02694
0.028254
0.0292642
0.0288853
0.0269843
0.0200264
0.0150449
0.0151493
0.0153721
0.0157163
0.0161816
0.016769
0.0174827
0.0183243
0.0192934
0.0203921
0.0216385
0.0230438
0.0246319
0.0263614
0.0282413
0.0300552
0.0318809
0.0325207
0.0324506
0.0188333
0.00188084
0.0019466
0.00196131
0.00195806
0.00195046
0.00193852
0.00192074
0.00189601
0.00186155
0.00181039
0.0039216
0.00389285
0.00388945
0.00388978
0.0038858
0.00387851
0.00386938
0.00385889
0.00384757
0.00383824
0.00636049
0.00638241
0.00638011
0.00636852
0.00635326
0.00633373
0.00630896
0.0062786
0.00624217
0.006198
0.00813863
0.00812852
0.0081244
0.00811839
0.00810745
0.00809181
0.00807186
0.00804772
0.00801944
0.00798741
0.00987624
0.00988054
0.0098757
0.00986502
0.00984985
0.00983014
0.00980567
0.00977623
0.00974164
0.00970115
0.0113014
0.0112938
0.0112859
0.011275
0.0112601
0.0112412
0.0112183
0.0111913
0.01116
0.011124
0.0125804
0.0125705
0.0125584
0.0125435
0.0125256
0.0125047
0.0124806
0.0124533
0.0124223
0.0123868
0.0136644
0.0136422
0.0136219
0.0136013
0.0135793
0.0135561
0.0135316
0.0135054
0.0134771
0.0134457
0.0145945
0.0145568
0.0145241
0.014494
0.0144651
0.0144374
0.014411
0.0143854
0.0143597
0.0143328
0.0153673
0.0153046
0.015253
0.0152084
0.0151689
0.0151344
0.0151051
0.0150801
0.0150583
0.0150382
0.0159917
0.015892
0.0158121
0.0157462
0.015691
0.0156463
0.0156121
0.0155875
0.0155708
0.0155599
0.0164644
0.0163086
0.0161869
0.0160899
0.0160116
0.0159513
0.0159095
0.0158847
0.0158744
0.0158762
0.0167771
0.0165349
0.016351
0.0162088
0.0160963
0.0160122
0.0159573
0.0159298
0.0159264
0.0159442
0.0169062
0.0165273
0.0162503
0.0160418
0.0158779
0.0157562
0.0156785
0.0156429
0.0156444
0.01568
0.0168007
0.0162034
0.0157885
0.0154838
0.0152425
0.015061
0.0149445
0.0148909
0.0148932
0.0149463
0.0163347
0.0153917
0.0147867
0.0143588
0.0140155
0.0137532
0.0135839
0.0135059
0.0135096
0.0135848
0.0152339
0.0137299
0.0128699
0.0123202
0.0118964
0.0115863
0.011406
0.0113478
0.0113923
0.0115231
0.0132285
0.0109329
0.00976215
0.00911631
0.00868944
0.00844609
0.00838402
0.00846846
0.00865269
0.00892042
0.00979422
0.00729308
0.00634367
0.00589812
0.00571622
0.00576121
0.00596484
0.00625592
0.00658633
0.00698475
-0.0023147
-0.00180367
-0.000242327
0.00053766
0.00121559
0.00206576
0.00301103
0.00394407
0.00479882
0.00558093
0.00153607
0.00134479
0.00109027
0.000852948
0.000654646
0.0005046
0.000392754
0.000309114
0.00024536
0.000195799
0.000156599
0.000125166
9.96811e-05
7.88098e-05
6.15318e-05
4.70327e-05
3.46463e-05
2.378e-05
1.39681e-05
4.51332e-06
0.00379331
0.00341984
0.00284233
0.00228281
0.00179445
0.00140996
0.00111357
0.000885766
0.000708427
0.000568387
0.000456348
0.000365762
0.000291877
0.000231101
0.000180625
0.000138163
0.000101821
6.98989e-05
4.10406e-05
1.32434e-05
0.00595602
0.00537255
0.00448364
0.00362431
0.00287073
0.00227203
0.00180543
0.00144295
0.00115818
0.000931659
0.000749429
0.000601491
0.000480462
0.000380684
0.000297677
0.000227761
0.000167866
0.000115223
6.76147e-05
2.18036e-05
0.00781117
0.00709978
0.00596392
0.00485583
0.00387416
0.00308693
0.00246692
0.00198042
0.00159492
0.00128616
0.00103647
0.000832961
0.000665989
0.000528038
0.000413087
0.000316146
0.000233023
0.00015992
9.37923e-05
3.02289e-05
0.00947266
0.00865433
0.00730482
0.00598413
0.00480479
0.00385226
0.00309504
0.00249539
0.0020163
0.00162999
0.00131594
0.00105898
0.000847524
0.000672434
0.000526293
0.000402894
0.000296983
0.000203781
0.000119453
3.84779e-05
0.0109193
0.010038
0.00850973
0.00701129
0.00566275
0.00456714
0.00368845
0.0029864
0.00242091
0.00196189
0.00158677
0.00127863
0.00102431
0.000813257
0.000636807
0.000487625
0.000359464
0.000246613
0.000144488
4.65152e-05
0.0121799
0.0112646
0.00958462
0.00793991
0.00644866
0.0052313
0.00424644
0.00345254
0.00280784
0.00228098
0.00184818
0.00149124
0.00119578
0.000950042
0.000744254
0.000570049
0.000420254
0.000288272
0.000168819
5.43161e-05
0.0132556
0.0123405
0.0105331
0.00877231
0.00716345
0.00584493
0.00476865
0.00389323
0.00317638
0.00258657
0.00209951
0.00169623
0.00136143
0.00108237
0.000848296
0.000649903
0.000479156
0.000328628
0.000192372
6.18589e-05
0.0141524
0.0132707
0.0113575
0.00951078
0.00780837
0.00640864
0.00525516
0.00430814
0.00352602
0.00287807
0.00234016
0.00189305
0.00152079
0.00120985
0.000948612
0.000726935
0.000535986
0.000367554
0.000215078
6.91221e-05
0.0148657
0.0140565
0.0120587
0.0101576
0.00838509
0.00692352
0.00570634
0.0046972
0.00385641
0.00315499
0.00256965
0.00208124
0.00167344
0.0013321
0.0010449
0.000800907
0.000590566
0.000404933
0.000236872
7.60853e-05
0.0153855
0.0146964
0.0126366
0.0107155
0.00889573
0.0073911
0.00612296
0.0050606
0.00416736
0.00341699
0.00278754
0.00226035
0.00181897
0.0014488
0.00113688
0.000871597
0.000642731
0.000440649
0.000257689
8.27285e-05
0.0156911
0.0151866
0.0130902
0.0111877
0.00934305
0.00781344
0.00650611
0.00539871
0.00445885
0.00366379
0.00299347
0.00243001
0.00195704
0.00155963
0.00122428
0.000938795
0.000692323
0.000474597
0.000277471
8.90328e-05
0.0157488
0.0155222
0.0134194
0.0115786
0.00973065
0.00819317
0.00685721
0.00571215
0.00473095
0.00389521
0.00318712
0.00258987
0.00208731
0.00166428
0.00130687
0.0010023
0.000739197
0.000506677
0.000296161
9.49799e-05
0.0155096
0.0157013
0.0136267
0.0118944
0.0100632
0.00853347
0.00717797
0.00600165
0.00498385
0.00411113
0.00336826
0.00273964
0.00220949
0.0017625
0.00138441
0.00106195
0.000783216
0.000536794
0.000313707
0.000100553
0.0149206
0.0157303
0.0137197
0.0121441
0.0103469
0.00883818
0.00747037
0.00626813
0.00521781
0.00431149
0.00353666
0.00287906
0.0023233
0.00185405
0.0014567
0.00111755
0.000824253
0.000564862
0.00033006
0.000105734
0.0139689
0.0156317
0.0137143
0.0123396
0.0105891
0.00911166
0.00773656
0.00651256
0.00543316
0.00449627
0.00369215
0.00300787
0.0024285
0.00193868
0.00152353
0.00116896
0.000862191
0.000590799
0.000345176
0.000110508
0.0127328
0.0154474
0.0136368
0.0124964
0.0107993
0.00935867
0.0079788
0.00673594
0.00563021
0.00466548
0.00383456
0.00312587
0.00252488
0.00201621
0.00158475
0.00121603
0.000896922
0.00061453
0.000359014
0.00011486
0.0114006
0.0152234
0.0135246
0.0126322
0.0109876
0.00958397
0.00819931
0.00693924
0.00580928
0.0048191
0.00396377
0.00323286
0.00261221
0.00208643
0.00164017
0.00125863
0.000928346
0.000635987
0.000371535
0.000118779
0.010383
0.0149986
0.0134252
0.0127643
0.0111642
0.00979204
0.00840013
0.0071233
0.00597062
0.00495713
0.00407961
0.00332865
0.00269032
0.00214918
0.00168966
0.00129665
0.000956374
0.000655108
0.000382704
0.000122255
0.00967575
0.0147948
0.0133749
0.0129098
0.0113363
0.00998744
0.00858262
0.00728882
0.00611437
0.00507952
0.00418196
0.00341306
0.00275902
0.00220429
0.00173308
0.00132996
0.000980927
0.000671827
0.000392522
0.000125237
0.00961941
0.0147808
0.0133887
0.0130375
0.0114551
0.0101189
0.00869792
0.00739212
0.00620269
0.00515419
0.00424405
0.00346408
0.00280043
0.00223743
0.00175914
0.00134993
0.000995649
0.000681795
0.000398502
0.000126853
0.00962045
0.0147603
0.0134072
0.0131104
0.0115249
0.0101913
0.00876139
0.00744819
0.00625039
0.00519433
0.00427733
0.00349137
0.00282253
0.00225511
0.00177303
0.00136057
0.00100348
0.000687105
0.000401647
0.000127763
0.00957455
0.0147323
0.0134388
0.0131843
0.0115971
0.0102613
0.00882251
0.0075013
0.00629532
0.00523194
0.00430841
0.00351679
0.00284308
0.00227151
0.00178591
0.00137042
0.00101072
0.000692029
0.000404525
0.000128649
0.00948318
0.0147103
0.0134832
0.0132614
0.0116709
0.0103293
0.00888113
0.00755147
0.00633747
0.00526701
0.00433728
0.00354033
0.00286208
0.00228665
0.00179777
0.00137948
0.00101737
0.00069656
0.000407161
0.000129474
0.00935698
0.0147002
0.0135406
0.0133421
0.0117463
0.0103953
0.00893722
0.00759869
0.00637681
0.00529952
0.00436392
0.00356198
0.0028795
0.00230051
0.00180861
0.00138776
0.00102345
0.000700692
0.000409555
0.000130234
0.00920139
0.014707
0.0136117
0.0134261
0.0118231
0.0104593
0.00899074
0.00764293
0.00641331
0.00532947
0.00438833
0.00358173
0.00289535
0.00231308
0.00181843
0.00139525
0.00102893
0.000704424
0.000411706
0.00013093
0.00901517
0.0147373
0.0136972
0.0135133
0.0119011
0.0105212
0.00904163
0.00768416
0.00644698
0.00535682
0.00441049
0.00359957
0.00290961
0.00232436
0.00182722
0.00140194
0.00103382
0.000707755
0.000413611
0.000131562
0.0087774
0.014797
0.0137981
0.0136037
0.0119801
0.0105808
0.00908982
0.00772235
0.00647776
0.00538157
0.00443039
0.00361549
0.00292227
0.00233434
0.00183497
0.00140783
0.00103811
0.000710681
0.000415272
0.000132126
0.00845169
0.0148809
0.0139165
0.0136961
0.0120602
0.0106379
0.00913527
0.00775746
0.00650566
0.00540371
0.00444801
0.00362949
0.00293334
0.00234302
0.00184168
0.00141291
0.00104181
0.000713205
0.000416684
0.000132629
0.00814281
0.0149591
0.0140564
0.0137863
0.0121426
0.0106919
0.00917819
0.00778949
0.00653071
0.00542326
0.00446338
0.00364157
0.00294281
0.0023504
0.00184736
0.0014172
0.0010449
0.000715333
0.000417813
0.000133123
0.00858326
0.0151058
0.0144019
0.0139765
0.012325
0.0108021
0.00926567
0.00785235
0.00657892
0.00546006
0.00449187
0.00366364
0.00295992
0.0023636
0.00185743
0.00142476
0.00105032
0.000719099
0.000419635
0.000134219
0.0110478
0.0160175
0.015123
0.0143157
0.0125741
0.0109449
0.00935977
0.00791225
0.0066184
0.00548617
0.00450935
0.00367541
0.00296787
0.00236899
0.00186107
0.00142721
0.0010519
0.000720149
0.000420083
0.000134483
0.0139428
0.0169133
0.0157927
0.0146086
0.0127721
0.0110455
0.00941243
0.00793282
0.00662213
0.00548103
0.0045001
0.00366473
0.0029573
0.00235935
0.00185277
0.00142044
0.00104667
0.000716509
0.000417836
0.000133897
0.016237
0.0176758
0.0163219
0.0148244
0.0129062
0.0110906
0.0094136
0.00791012
0.00658834
0.00544369
0.00446358
0.00363131
0.00292804
0.0023346
0.0018325
0.00140443
0.00103461
0.000708188
0.0004129
0.000132412
0.0177024
0.0181782
0.0166585
0.0149368
0.0129469
0.0110708
0.00936082
0.00784158
0.00651546
0.00537327
0.00439933
0.00357492
0.00287999
0.00229471
0.00180025
0.00137919
0.00101576
0.000695208
0.000405281
0.000130037
0.0185992
0.0184387
0.0168044
0.0149348
0.0128953
0.0109797
0.00924975
0.00772458
0.00640201
0.00526896
0.00430696
0.0034954
0.00281313
0.00223972
0.00175609
0.00134481
0.000990165
0.000677614
0.000394999
0.000126789
0.0190402
0.0184753
0.0167698
0.0148128
0.0127465
0.0108122
0.00907687
0.00755688
0.00624669
0.00513009
0.00418619
0.0033927
0.00272752
0.00216974
0.00170015
0.0013014
0.000957925
0.000655476
0.000382089
0.000122687
0.0191391
0.0183143
0.0165686
0.0145683
0.0124973
0.0105647
0.00883939
0.0073366
0.00604844
0.00495615
0.00403685
0.00326685
0.00262329
0.00208495
0.00163262
0.00124911
0.000919169
0.000628888
0.000366602
0.000117752
0.0189651
0.0179737
0.016211
0.0142001
0.0121459
0.0102346
0.00853511
0.00706231
0.00580646
0.00474684
0.00385894
0.00311803
0.00250071
0.00198563
0.00155374
0.00118817
0.000874064
0.000597967
0.000348604
0.000112007
0.0185591
0.0174637
0.0157028
0.0137079
0.0116906
0.00981964
0.00816231
0.0067329
0.00552023
0.00450204
0.00365264
0.00294655
0.00236013
0.00187213
0.00146384
0.00111885
0.000822818
0.00056286
0.000328177
0.000105479
0.0179436
0.0167879
0.0150462
0.0130904
0.0111299
0.00931818
0.00771973
0.00634769
0.00518955
0.00422192
0.00341829
0.00275286
0.00220202
0.00174491
0.00136331
0.00104146
0.000765675
0.000523735
0.000305417
9.82003e-05
0.017129
0.0159451
0.0142402
0.0123453
0.0104616
0.00872869
0.00720645
0.00590632
0.00481454
0.00390687
0.00315647
0.00253758
0.00202701
0.00160451
0.00125263
0.000956391
0.000702925
0.000480791
0.000280437
9.02059e-05
0.0161143
0.0149293
0.0132806
0.0114691
0.00968366
0.00804983
0.0066219
0.00540884
0.00439564
0.0035576
0.00286798
0.00230154
0.00183585
0.0014516
0.00113233
0.000864079
0.000634897
0.000434252
0.000253364
8.15357e-05
0.0148943
0.0137309
0.0121609
0.0104572
0.00879329
0.00728038
0.00596587
0.00485567
0.00393366
0.00317509
0.00255386
0.0020457
0.00162942
0.00128694
0.00100307
0.000765025
0.000561963
0.000384372
0.000224341
7.22338e-05
0.0134466
0.0123349
0.0108714
0.00930366
0.00778756
0.00641931
0.00523851
0.00424768
0.00342981
0.00276068
0.0022154
0.00177128
0.00140876
0.00111141
0.000865551
0.000659788
0.000484536
0.00033143
0.000193524
6.23482e-05
0.0117635
0.0107263
0.0094009
0.0080017
0.00666332
0.00546584
0.00444043
0.00358619
0.00288572
0.00231603
0.00185418
0.00147966
0.00117508
0.000926004
0.000720572
0.000548986
0.00040307
0.000275731
0.000161083
5.19304e-05
0.00978337
0.00887591
0.00773358
0.00654314
0.0054172
0.00441952
0.00357277
0.00287305
0.00230346
0.00184317
0.00147204
0.00117245
0.000929716
0.000731826
0.000569015
0.000433296
0.000318062
0.000217606
0.000127201
4.10357e-05
0.00753919
0.00677722
0.00585896
0.0049211
0.00404657
0.00328059
0.00263732
0.00211079
0.00168574
0.00134467
0.00107125
0.000851594
0.000674295
0.000530191
0.000411919
0.000313519
0.000230095
0.000157447
9.20957e-05
2.97314e-05
0.00483008
0.00434192
0.00373642
0.00311815
0.00254528
0.00204892
0.00163699
0.00130345
0.0010367
0.000824284
0.000655049
0.000519741
0.000410944
0.00032278
0.000250591
0.000190642
0.00013989
9.57373e-05
5.60383e-05
1.81048e-05
0.00197196
0.00171012
0.00143121
0.00116381
0.000929441
0.000735273
0.000579607
0.000456835
0.00036057
0.000285049
0.000225553
0.000178387
0.000140705
0.000110321
8.55374e-05
6.50165e-05
4.76835e-05
3.26285e-05
1.9109e-05
6.18059e-06
0.0103712
0.00941647
0.0101142
0.0101527
0.00971534
0.00921527
0.00876329
0.00833792
0.00789378
0.00750608
0.0213728
0.0189499
0.0172599
0.0158782
0.0146627
0.0136403
0.0128234
0.0121848
0.0116895
0.0113236
0.0208287
0.0192416
0.0181849
0.017398
0.0167063
0.0160884
0.0155638
0.0151393
0.0148113
0.0145754
0.0214755
0.0206513
0.0199938
0.0194326
0.0189183
0.0184498
0.0180396
0.0176939
0.0174122
0.0171932
0.0215266
0.0210069
0.0205511
0.020148
0.0197815
0.01945
0.0191572
0.0189051
0.0186927
0.0185193
0.0213625
0.0210357
0.0207424
0.020476
0.0202286
0.0199995
0.019791
0.019604
0.0194381
0.0192927
0.021108
0.0208988
0.0207055
0.0205235
0.0203492
0.0201832
0.0200272
0.0198821
0.0197477
0.0196237
0.0207488
0.0206109
0.0204799
0.0203526
0.020227
0.0201038
0.0199842
0.0198687
0.0197571
0.0196494
0.0202717
0.02018
0.0200901
0.0199995
0.0199068
0.0198126
0.0197176
0.0196222
0.0195264
0.0194302
0.0196673
0.0196065
0.019544
0.0194779
0.0194071
0.0193321
0.0192535
0.0191715
0.0190864
0.0189979
0.0189219
0.0188818
0.0188377
0.0187879
0.0187318
0.0186696
0.0186019
0.0185289
0.0184507
0.0183675
0.0180272
0.0180011
0.0179689
0.0179297
0.017883
0.017829
0.0177682
0.0177007
0.0176269
0.0175466
0.0169561
0.0169377
0.0169131
0.0168808
0.0168402
0.0167916
0.0167353
0.0166718
0.0166011
0.0165234
0.015716
0.0157052
0.0156848
0.0156555
0.0156176
0.0155712
0.0155168
0.0154545
0.0153847
0.0153073
0.0142103
0.0141963
0.0141789
0.0141543
0.0141206
0.0140784
0.014028
0.0139699
0.0139044
0.0138317
0.0125723
0.0125705
0.0125507
0.01252
0.0124816
0.0124355
0.0123814
0.0123197
0.0122505
0.0121737
0.0104074
0.0103842
0.0103712
0.0103546
0.0103289
0.0102949
0.0102536
0.0102057
0.0101516
0.0100921
0.00832647
0.00834118
0.00831982
0.00828465
0.00824445
0.0081985
0.00814547
0.00808513
0.00801747
0.00794137
0.00509039
0.00505094
0.00504347
0.00504018
0.00502992
0.00501405
0.00499491
0.00497332
0.00494975
0.0049272
0.00251907
0.00258528
0.00259479
0.00258293
0.00256475
0.00254006
0.00250701
0.00246469
0.00241111
0.002341
0.015899
0.016006
0.016232
0.0165814
0.0170538
0.0176494
0.0183732
0.0192277
0.020211
0.0213253
0.0225881
0.0240144
0.0256287
0.0274105
0.0293697
0.0313395
0.0333385
0.0343523
0.034309
0.0245861
0.0158498
0.0159552
0.0161762
0.0165179
0.0169796
0.0175595
0.0182625
0.0190898
0.0200339
0.0210934
0.0222793
0.0235968
0.0250446
0.0265812
0.0281501
0.0295779
0.0307068
0.0311145
0.0303192
0.0281683
0.0156928
0.0157953
0.0160098
0.0163411
0.0167882
0.0173477
0.0180233
0.0188147
0.0197101
0.0207034
0.0217995
0.0229954
0.0242698
0.0255708
0.0268039
0.0278238
0.028418
0.0284058
0.0272034
0.0249974
0.0154308
0.0155298
0.0157365
0.0160552
0.0164849
0.0170207
0.0176646
0.0184151
0.019257
0.0201803
0.0211848
0.0222626
0.0233803
0.0244821
0.025462
0.0262018
0.0265012
0.026284
0.0251782
0.0235061
0.0150675
0.0151624
0.0153603
0.0156653
0.0160758
0.0165857
0.017196
0.017904
0.018692
0.0195472
0.0204668
0.02144
0.0224287
0.0233775
0.024186
0.0247589
0.0249452
0.0247198
0.0239014
0.0227108
0.014607
0.0146976
0.0148862
0.0151765
0.0155668
0.0160504
0.016627
0.0172932
0.01803
0.0188231
0.0196688
0.0205557
0.0214456
0.0222867
0.0229926
0.0234872
0.0236638
0.0235099
0.022947
0.0221086
0.0140538
0.0141398
0.0143189
0.0145944
0.0149644
0.0154218
0.0159659
0.0165926
0.0172827
0.0180217
0.0188063
0.0196256
0.0204446
0.0212167
0.0218706
0.0223424
0.0225555
0.0224991
0.0221469
0.021586
0.0134124
0.0134939
0.0136634
0.0139241
0.014274
0.0147062
0.0152196
0.0158101
0.0164588
0.017152
0.0178877
0.0186567
0.0194278
0.0201599
0.0207941
0.0212749
0.0215443
0.0215905
0.0214096
0.0210593
0.0126874
0.0127644
0.0129245
0.0131706
0.0135009
0.0139089
0.0143937
0.0149513
0.0155638
0.0162186
0.0169159
0.0176487
0.0183896
0.0191017
0.0197355
0.0202412
0.020572
0.0207135
0.0206678
0.0204729
0.0118837
0.0119562
0.0121069
0.0123386
0.0126499
0.0130345
0.0134922
0.0140197
0.0146003
0.0152233
0.0158907
0.0165972
0.0173189
0.0180236
0.0186684
0.0192069
0.0195964
0.0198194
0.0198771
0.0197946
0.0110057
0.0110737
0.0112149
0.0114323
0.0117247
0.0120868
0.0125188
0.0130179
0.0135688
0.0141635
0.0148072
0.0154962
0.0162076
0.0169107
0.0175675
0.0181352
0.0185741
0.0188633
0.0189998
0.0189992
0.0100583
0.0101216
0.0102532
0.010456
0.0107292
0.0110684
0.0114749
0.0119468
0.01247
0.0130383
0.0136594
0.0143319
0.0150359
0.0157431
0.0164163
0.0170119
0.0174896
0.0178261
0.0180163
0.0180704
0.00904616
0.0091047
0.00922622
0.0094137
0.00966703
0.00998252
0.0103623
0.0108052
0.0112993
0.0118422
0.0124444
0.0131048
0.0138015
0.0145048
0.0151797
0.0157865
0.0162873
0.0166572
0.0168866
0.0169797
0.0079745
0.00802784
0.00813852
0.00830954
0.00854127
0.00883125
0.00918273
0.0095947
0.0100563
0.0105684
0.0111461
0.0117895
0.0124759
0.0131751
0.0138532
0.0144691
0.0149825
0.0153666
0.0156115
0.0157213
0.00684876
0.00689637
0.00699509
0.00714797
0.00735586
0.00761727
0.00793641
0.00831278
0.00873688
0.00921372
0.00976353
0.0103892
0.0110636
0.0117469
0.0123991
0.0129852
0.0134769
0.0138539
0.0141044
0.0142246
0.00567495
0.00571616
0.00580149
0.00593387
0.00611467
0.00634356
0.00662526
0.00695941
0.00733872
0.00777226
0.00828248
0.00887074
0.00950977
0.0101647
0.0107985
0.0113714
0.0118486
0.0122071
0.0124393
0.0125505
0.0044598
0.00449381
0.00456404
0.00467306
0.00482256
0.00501398
0.0052521
0.0055341
0.00585401
0.00623029
0.00669624
0.00725093
0.00784864
0.00843356
0.00897074
0.00944433
0.00984234
0.0101523
0.0103606
0.0104546
0.00321088
0.00323666
0.00328982
0.00337259
0.00348605
0.00363245
0.00381833
0.00404079
0.00429192
0.0045906
0.00497554
0.00545207
0.00597978
0.00650384
0.00698488
0.00740267
0.00774428
0.00799847
0.00816414
0.00825504
0.00193682
0.00195349
0.0019872
0.00203898
0.00211158
0.00220862
0.00233246
0.00247628
0.00263823
0.00284754
0.00314569
0.00352532
0.00391524
0.00424667
0.00450657
0.0047205
0.00490699
0.00506205
0.00516708
0.00519171
0.000646878
0.000653047
0.000667025
0.00068562
0.000706712
0.000739351
0.000793533
0.000859116
0.000919275
0.000988327
0.00111522
0.00133244
0.00159941
0.00183693
0.00200329
0.00210928
0.00218087
0.00223196
0.00227124
0.00233493
0.0152504
0.0153548
0.0155806
0.0159289
0.0163993
0.0169939
0.0177174
0.0185716
0.0195579
0.0206793
0.0219584
0.0234086
0.0250716
0.0269136
0.0290021
0.0311526
0.0336486
0.035647
0.0386005
0.0336754
0.0153578
0.0154624
0.0156896
0.0160398
0.0165128
0.0171109
0.0178389
0.0186993
0.0196939
0.0208262
0.022121
0.023593
0.025292
0.0271904
0.0293822
0.0317113
0.0345471
0.0372514
0.0412003
0.0405156
0.0154553
0.0155601
0.0157885
0.0161403
0.0166153
0.0172162
0.0179479
0.0188131
0.0198144
0.0209556
0.0222626
0.0237521
0.0254793
0.0274239
0.0296991
0.0321793
0.0352903
0.0385623
0.0431983
0.0452199
0.015543
0.015648
0.0158772
0.0162301
0.0167068
0.0173098
0.0180443
0.0189132
0.0199193
0.021067
0.0223831
0.0238852
0.0256328
0.0276114
0.0299485
0.0325425
0.0358607
0.0395518
0.0447071
0.0483944
0.0156207
0.0157259
0.0159557
0.0163095
0.0167872
0.0173917
0.0181281
0.0189994
0.0200087
0.0211605
0.0224819
0.0239917
0.0257515
0.0277506
0.030126
0.0327907
0.0362423
0.0401967
0.0457158
0.0503755
0.0156885
0.0157939
0.016024
0.0163782
0.0168566
0.0174618
0.0181991
0.0190716
0.0200823
0.0212357
0.0225591
0.0240713
0.0258346
0.0278402
0.0302287
0.0329177
0.0364238
0.0404796
0.0462135
0.0512958
0.0157464
0.0158519
0.016082
0.0164363
0.0169149
0.0175201
0.0182575
0.0191298
0.0201401
0.0212927
0.0226144
0.0241238
0.0258821
0.0278801
0.0302561
0.0329216
0.0364011
0.040393
0.0461932
0.0511798
0.0157944
0.0158999
0.0161298
0.0164839
0.0169621
0.0175667
0.0183031
0.0191742
0.0201823
0.0213317
0.0226481
0.0241497
0.0258946
0.0278713
0.0302101
0.0328058
0.036177
0.0399404
0.0456625
0.0499604
0.0158324
0.015938
0.0161674
0.0165208
0.0169982
0.0176015
0.0183361
0.0192047
0.0202089
0.0213526
0.0226605
0.0241495
0.0258729
0.0278157
0.0300939
0.0325783
0.0357557
0.0391243
0.044634
0.0474622
0.0158603
0.0159663
0.0161947
0.0165472
0.0170233
0.0176246
0.0183565
0.0192214
0.02022
0.0213559
0.0226517
0.0241237
0.0258176
0.0277158
0.0299094
0.0322497
0.0351279
0.0379026
0.0427874
0.0429044
)
;

boundaryField
{
    inlet
    {
        type            zeroGradient;
    }
    outlet
    {
        type            fixedValue;
        value           uniform 0;
    }
    upAndBottom
    {
        type            empty;
    }
    obstacle
    {
        type            zeroGradient;
    }
}


// ************************************************************************* //
