x,y,z,p
0,0,0,1.09208e-05
0,0.1,0,2.18059e-05
0,0.2,0,3.2691e-05
0,0.3,0,4.57305e-05
0,0.4,0,6.09242e-05
0,0.5,0,7.61179e-05
0,0.6,0,9.11881e-05
0,0.7,0,0.000106258
0,0.8,0,0.000121238
0,0.9,0,0.000136128
0,1,0,0.000151017
0,1.1,0,0.00016567
0,1.2,0,0.000180322
0,1.3,0,0.000194826
0,1.4,0,0.000209183
0,1.5,0,0.00022354
0,1.6,0,0.000237545
0,1.7,0,0.000251551
0,1.8,0,0.000265353
0,1.9,0,0.000278952
0,2,0,0.000292551
0,2.1,0,0.00030569
0,2.2,0,0.000318829
0,2.3,0,0.000331712
0,2.4,0,0.000344339
0,2.5,0,0.000356966
0,2.6,0,0.000369031
0,2.7,0,0.000381096
0,2.8,0,0.000392856
0,2.9,0,0.000404311
0,3,0,0.000415766
0,3.1,0,0.000426565
0,3.2,0,0.000437365
0,3.3,0,0.000447815
0,3.4,0,0.000457915
0,3.5,0,0.000468015
0,3.6,0,0.000477374
0,3.7,0,0.000486734
0,3.8,0,0.000495703
0,3.9,0,0.000504283
0,4,0,0.000512863
0,4.1,0,0.000520626
0,4.2,0,0.000528388
0,4.3,0,0.000535719
0,4.4,0,0.000542619
0,4.5,0,0.000549518
0,4.6,0,0.000555523
0,4.7,0,0.000561528
0,4.8,0,0.000566666
0,4.9,0,0.000570939
0,5,0,0.000575212
0,5.1,0,0.000582229
0,5.2,0,0.000586416
0,5.3,0,0.00059029
0,5.4,0,0.00059384
0,5.5,0,0.00059706
0,5.6,0,0.000599947
0,5.7,0,0.000602497
0,5.8,0,0.000604705
0,5.9,0,0.000606569
0,6,0,0.000608067
0,6.1,0,0.00060918
0,6.2,0,0.000609998
0,6.3,0,0.000610465
0,6.4,0,0.000610579
0,6.5,0,0.000610341
0,6.6,0,0.000609749
0,6.7,0,0.000608806
0,6.8,0,0.000607512
0,6.9,0,0.000605879
0,7,0,0.000602444
0,7.1,0,0.000600094
0,7.2,0,0.000597744
0,7.3,0,0.000595166
0,7.4,0,0.000591299
0,7.5,0,0.000587432
0,7.6,0,0.000583218
0,7.7,0,0.000578191
0,7.8,0,0.000573165
0,7.9,0,0.000567645
0,8,0,0.000561523
0,8.1,0,0.000555401
0,8.2,0,0.000548665
0,8.3,0,0.000541518
0,8.4,0,0.000534372
0,8.5,0,0.000526503
0,8.6,0,0.000518394
0,8.7,0,0.000510284
0,8.8,0,0.000501365
0,8.9,0,0.000492355
0,9,0,0.000483304
0,9.1,0,0.000473459
0,9.2,0,0.000463614
0,9.3,0,0.000453616
0,9.4,0,0.000443001
0,9.5,0,0.000432386
0,9.6,0,0.000421525
0,9.7,0,0.000410205
0,9.8,0,0.000398886
0,9.9,0,0.000387246
0,10,0,0.000375285
0,10.1,0,0.000363325
0,10.2,0,0.000350989
0,10.3,0,0.000338452
0,10.4,0,0.000325914
0,10.5,0,0.000312966
0,10.6,0,0.000299915
0,10.7,0,0.000286865
0,10.8,0,0.000273387
0,10.9,0,0.000259887
0,11,0,0.000246348
0,11.1,0,0.000232462
0,11.2,0,0.000218576
0,11.3,0,0.000204609
0,11.4,0,0.0001904
0,11.5,0,0.000176192
0,11.6,0,0.000161879
0,11.7,0,0.000147412
0,11.8,0,0.000132944
0,11.9,0,0.00011837
0,12,0,0.000103709
0,12.1,0,8.90482e-05
0,12.2,0,7.42935e-05
0,12.3,0,5.94984e-05
0,12.4,0,4.47034e-05
0,12.5,0,3.34395e-05
0,12.6,0,2.27988e-05
0,12.7,0,1.2158e-05
0.1,0,0,9.77127e-06
0.1,0.1,0,2.06596e-05
0.1,0.2,0,3.15447e-05
0.1,0.3,0,4.5743e-05
0.1,0.4,0,6.09367e-05
0.1,0.5,0,7.6152e-05
0.1,0.6,0,9.12081e-05
0.1,0.7,0,0.000106278
0.1,0.8,0,0.000121266
0.1,0.9,0,0.000136155
0.1,1,0,0.000151084
0.1,1.1,0,0.000165705
0.1,1.2,0,0.000180357
0.1,1.3,0,0.000194869
0.1,1.4,0,0.000209226
0.1,1.5,0,0.000223637
0.1,1.6,0,0.000237595
0.1,1.7,0,0.000251601
0.1,1.8,0,0.00026541
0.1,1.9,0,0.000279009
0.1,2,0,0.000292679
0.1,2.1,0,0.000305754
0.1,2.2,0,0.000318893
0.1,2.3,0,0.000331783
0.1,2.4,0,0.00034441
0.1,2.5,0,0.000357127
0.1,2.6,0,0.000369108
0.1,2.7,0,0.000381173
0.1,2.8,0,0.000392939
0.1,2.9,0,0.000404394
0.1,3,0,0.000415966
0.1,3.1,0,0.000426655
0.1,3.2,0,0.000437454
0.1,3.3,0,0.000447909
0.1,3.4,0,0.00045801
0.1,3.5,0,0.000468269
0.1,3.6,0,0.000477475
0.1,3.7,0,0.000486834
0.1,3.8,0,0.000495808
0.1,3.9,0,0.000504388
0.1,4,0,0.000513197
0.1,4.1,0,0.000520736
0.1,4.2,0,0.000528498
0.1,4.3,0,0.000535836
0.1,4.4,0,0.000542736
0.1,4.5,0,0.000549979
0.1,4.6,0,0.000555641
0.1,4.7,0,0.000561646
0.1,4.8,0,0.000567004
0.1,4.9,0,0.000571277
0.1,5,0,0.000575813
0.1,5.1,0,0.000582853
0.1,5.2,0,0.000587076
0.1,5.3,0,0.000590981
0.1,5.4,0,0.000594557
0.1,5.5,0,0.000597798
0.1,5.6,0,0.000600702
0.1,5.7,0,0.000603264
0.1,5.8,0,0.000605481
0.1,5.9,0,0.00060735
0.1,6,0,0.000608851
0.1,6.1,0,0.000609966
0.1,6.2,0,0.000610778
0.1,6.3,0,0.000611235
0.1,6.4,0,0.000611336
0.1,6.5,0,0.00061108
0.1,6.6,0,0.000610467
0.1,6.7,0,0.000609499
0.1,6.8,0,0.000608176
0.1,6.9,0,0.000606509
0.1,7,0,0.000603054
0.1,7.1,0,0.000600371
0.1,7.2,0,0.000598022
0.1,7.3,0,0.00059554
0.1,7.4,0,0.000591477
0.1,7.5,0,0.00058761
0.1,7.6,0,0.000583388
0.1,7.7,0,0.000578361
0.1,7.8,0,0.000573335
0.1,7.9,0,0.000567803
0.1,8,0,0.000561681
0.1,8.1,0,0.00055556
0.1,8.2,0,0.000548814
0.1,8.3,0,0.000541667
0.1,8.4,0,0.000534579
0.1,8.5,0,0.000526643
0.1,8.6,0,0.000518534
0.1,8.7,0,0.000510686
0.1,8.8,0,0.000501495
0.1,8.9,0,0.000492485
0.1,9,0,0.000483804
0.1,9.1,0,0.000473579
0.1,9.2,0,0.000463735
0.1,9.3,0,0.000453896
0.1,9.4,0,0.000443112
0.1,9.5,0,0.000432497
0.1,9.6,0,0.000421626
0.1,9.7,0,0.000410306
0.1,9.8,0,0.000398987
0.1,9.9,0,0.000387337
0.1,10,0,0.000375377
0.1,10.1,0,0.000363416
0.1,10.2,0,0.000351071
0.1,10.3,0,0.000338533
0.1,10.4,0,0.000326198
0.1,10.5,0,0.000313038
0.1,10.6,0,0.000299987
0.1,10.7,0,0.000287428
0.1,10.8,0,0.00027345
0.1,10.9,0,0.000259949
0.1,11,0,0.000246775
0.1,11.1,0,0.000232515
0.1,11.2,0,0.000218629
0.1,11.3,0,0.000204736
0.1,11.4,0,0.000190444
0.1,11.5,0,0.000176235
0.1,11.6,0,0.000161914
0.1,11.7,0,0.000147446
0.1,11.8,0,0.000132978
0.1,11.9,0,0.000118394
0.1,12,0,0.000103733
0.1,12.1,0,8.90721e-05
0.1,12.2,0,7.43098e-05
0.1,12.3,0,5.95148e-05
0.1,12.4,0,4.47714e-05
0.1,12.5,0,3.21769e-05
0.1,12.6,0,2.15361e-05
0.1,12.7,0,1.08782e-05
0.2,0,0,8.62171e-06
0.2,0.1,0,1.95133e-05
0.2,0.2,0,3.05148e-05
0.2,0.3,0,4.5756e-05
0.2,0.4,0,6.09492e-05
0.2,0.5,0,7.61861e-05
0.2,0.6,0,9.12281e-05
0.2,0.7,0,0.000106301
0.2,0.8,0,0.000121295
0.2,0.9,0,0.000136183
0.2,1,0,0.00015115
0.2,1.1,0,0.00016574
0.2,1.2,0,0.000180396
0.2,1.3,0,0.000194915
0.2,1.4,0,0.000209268
0.2,1.5,0,0.000223734
0.2,1.6,0,0.000237645
0.2,1.7,0,0.000251657
0.2,1.8,0,0.000265473
0.2,1.9,0,0.000279066
0.2,2,0,0.000292807
0.2,2.1,0,0.000305818
0.2,2.2,0,0.000318965
0.2,2.3,0,0.000331861
0.2,2.4,0,0.00034448
0.2,2.5,0,0.000357288
0.2,2.6,0,0.000369185
0.2,2.7,0,0.000381261
0.2,2.8,0,0.000393032
0.2,2.9,0,0.000404478
0.2,3,0,0.000416167
0.2,3.1,0,0.000426744
0.2,3.2,0,0.000437557
0.2,3.3,0,0.000448017
0.2,3.4,0,0.000458104
0.2,3.5,0,0.000468523
0.2,3.6,0,0.000477575
0.2,3.7,0,0.000486953
0.2,3.8,0,0.000495932
0.2,3.9,0,0.000504493
0.2,4,0,0.000513531
0.2,4.1,0,0.000520846
0.2,4.2,0,0.000528636
0.2,4.3,0,0.000535981
0.2,4.4,0,0.000542853
0.2,4.5,0,0.00055044
0.2,4.6,0,0.000555759
0.2,4.7,0,0.000561808
0.2,4.8,0,0.000567363
0.2,4.9,0,0.000571614
0.2,5,0,0.000576415
0.2,5.1,0,0.000583476
0.2,5.2,0,0.000587737
0.2,5.3,0,0.000591672
0.2,5.4,0,0.000595274
0.2,5.5,0,0.000598536
0.2,5.6,0,0.000601457
0.2,5.7,0,0.000604032
0.2,5.8,0,0.000606258
0.2,5.9,0,0.000608132
0.2,6,0,0.000609635
0.2,6.1,0,0.000610752
0.2,6.2,0,0.000611558
0.2,6.3,0,0.000612005
0.2,6.4,0,0.000612092
0.2,6.5,0,0.000611819
0.2,6.6,0,0.000611185
0.2,6.7,0,0.000610192
0.2,6.8,0,0.000608841
0.2,6.9,0,0.000607138
0.2,7,0,0.000603664
0.2,7.1,0,0.000600649
0.2,7.2,0,0.000598299
0.2,7.3,0,0.00059611
0.2,7.4,0,0.000591654
0.2,7.5,0,0.000587787
0.2,7.6,0,0.000583887
0.2,7.7,0,0.000578532
0.2,7.8,0,0.000573555
0.2,7.9,0,0.000568117
0.2,8,0,0.00056184
0.2,8.1,0,0.000555927
0.2,8.2,0,0.000548963
0.2,8.3,0,0.000541817
0.2,8.4,0,0.000535074
0.2,8.5,0,0.000526783
0.2,8.6,0,0.000518674
0.2,8.7,0,0.000511219
0.2,8.8,0,0.000501625
0.2,8.9,0,0.000492615
0.2,9,0,0.00048438
0.2,9.1,0,0.0004737
0.2,9.2,0,0.000463855
0.2,9.3,0,0.000454515
0.2,9.4,0,0.000443222
0.2,9.5,0,0.000432608
0.2,9.6,0,0.00042219
0.2,9.7,0,0.000410407
0.2,9.8,0,0.000399282
0.2,9.9,0,0.000387626
0.2,10,0,0.000375468
0.2,10.1,0,0.00036401
0.2,10.2,0,0.000351153
0.2,10.3,0,0.000338615
0.2,10.4,0,0.000326886
0.2,10.5,0,0.00031311
0.2,10.6,0,0.00030006
0.2,10.7,0,0.000288089
0.2,10.8,0,0.000273512
0.2,10.9,0,0.000260012
0.2,11,0,0.000247389
0.2,11.1,0,0.000232568
0.2,11.2,0,0.000218682
0.2,11.3,0,0.000205283
0.2,11.4,0,0.000190488
0.2,11.5,0,0.000176279
0.2,11.6,0,0.000162232
0.2,11.7,0,0.00014748
0.2,11.8,0,0.000133175
0.2,11.9,0,0.000118474
0.2,12,0,0.000103757
0.2,12.1,0,8.93156e-05
0.2,12.2,0,7.43262e-05
0.2,12.3,0,5.95312e-05
0.2,12.4,0,4.48909e-05
0.2,12.5,0,3.09142e-05
0.2,12.6,0,2.02735e-05
0.2,12.7,0,9.59841e-06
0.3,0,0,7.47215e-06
0.3,0.1,0,1.83669e-05
0.3,0.2,0,3.05331e-05
0.3,0.3,0,4.57743e-05
0.3,0.4,0,6.09617e-05
0.3,0.5,0,7.62202e-05
0.3,0.6,0,9.12481e-05
0.3,0.7,0,0.000106351
0.3,0.8,0,0.000121346
0.3,0.9,0,0.00013621
0.3,1,0,0.000151216
0.3,1.1,0,0.000165775
0.3,1.2,0,0.000180478
0.3,1.3,0,0.000194997
0.3,1.4,0,0.000209311
0.3,1.5,0,0.000223831
0.3,1.6,0,0.000237695
0.3,1.7,0,0.000251769
0.3,1.8,0,0.000265585
0.3,1.9,0,0.000279123
0.3,2,0,0.000292935
0.3,2.1,0,0.000305882
0.3,2.2,0,0.000319109
0.3,2.3,0,0.000332005
0.3,2.4,0,0.000344551
0.3,2.5,0,0.000357448
0.3,2.6,0,0.000369263
0.3,2.7,0,0.00038144
0.3,2.8,0,0.000393212
0.3,2.9,0,0.000404561
0.3,3,0,0.000416367
0.3,3.1,0,0.000426833
0.3,3.2,0,0.000437782
0.3,3.3,0,0.000448242
0.3,3.4,0,0.000458199
0.3,3.5,0,0.000468778
0.3,3.6,0,0.000477675
0.3,3.7,0,0.000487243
0.3,3.8,0,0.000496222
0.3,3.9,0,0.000504598
0.3,4,0,0.000513865
0.3,4.1,0,0.000520956
0.3,4.2,0,0.000529025
0.3,4.3,0,0.000536369
0.3,4.4,0,0.00054297
0.3,4.5,0,0.000550901
0.3,4.6,0,0.000555878
0.3,4.7,0,0.000562363
0.3,4.8,0,0.000567918
0.3,4.9,0,0.000571952
0.3,5,0,0.000577016
0.3,5.1,0,0.0005841
0.3,5.2,0,0.000588397
0.3,5.3,0,0.000592363
0.3,5.4,0,0.00059599
0.3,5.5,0,0.000599274
0.3,5.6,0,0.000602211
0.3,5.7,0,0.000604799
0.3,5.8,0,0.000607034
0.3,5.9,0,0.000608913
0.3,6,0,0.000610419
0.3,6.1,0,0.000611538
0.3,6.2,0,0.000612337
0.3,6.3,0,0.000612775
0.3,6.4,0,0.000612849
0.3,6.5,0,0.000612559
0.3,6.6,0,0.000611904
0.3,6.7,0,0.000610886
0.3,6.8,0,0.000609505
0.3,6.9,0,0.000607768
0.3,7,0,0.000604274
0.3,7.1,0,0.000600927
0.3,7.2,0,0.000598626
0.3,7.3,0,0.00059668
0.3,7.4,0,0.000591832
0.3,7.5,0,0.000588179
0.3,7.6,0,0.000584386
0.3,7.7,0,0.000578702
0.3,7.8,0,0.000574024
0.3,7.9,0,0.000568586
0.3,8,0,0.000561998
0.3,8.1,0,0.000556398
0.3,8.2,0,0.000549434
0.3,8.3,0,0.000541966
0.3,8.4,0,0.000535569
0.3,8.5,0,0.000527101
0.3,8.6,0,0.000518814
0.3,8.7,0,0.000511751
0.3,8.8,0,0.000501755
0.3,8.9,0,0.000492746
0.3,9,0,0.000484956
0.3,9.1,0,0.00047382
0.3,9.2,0,0.000464142
0.3,9.3,0,0.000455135
0.3,9.4,0,0.000443333
0.3,9.5,0,0.000433174
0.3,9.6,0,0.000422847
0.3,9.7,0,0.000410508
0.3,9.8,0,0.000399965
0.3,9.9,0,0.000388309
0.3,10,0,0.000375559
0.3,10.1,0,0.000364705
0.3,10.2,0,0.000351745
0.3,10.3,0,0.000338697
0.3,10.4,0,0.000327574
0.3,10.5,0,0.000313388
0.3,10.6,0,0.000300132
0.3,10.7,0,0.000288751
0.3,10.8,0,0.000273575
0.3,10.9,0,0.000260075
0.3,11,0,0.000248003
0.3,11.1,0,0.000232621
0.3,11.2,0,0.000218982
0.3,11.3,0,0.00020583
0.3,11.4,0,0.000190531
0.3,11.5,0,0.00017674
0.3,11.6,0,0.000162693
0.3,11.7,0,0.000147514
0.3,11.8,0,0.000133534
0.3,11.9,0,0.000118832
0.3,12,0,0.000103781
0.3,12.1,0,8.95591e-05
0.3,12.2,0,7.4494e-05
0.3,12.3,0,5.95476e-05
0.3,12.4,0,4.50104e-05
0.3,12.5,0,2.98819e-05
0.3,12.6,0,1.90108e-05
0.3,12.7,0,8.31862e-06
0.4,0,0,6.32259e-06
0.4,0.1,0,1.72199e-05
0.4,0.2,0,3.05514e-05
0.4,0.3,0,4.57926e-05
0.4,0.4,0,6.09785e-05
0.4,0.5,0,7.62543e-05
0.4,0.6,0,9.1271e-05
0.4,0.7,0,0.000106402
0.4,0.8,0,0.000121396
0.4,0.9,0,0.000136246
0.4,1,0,0.000151282
0.4,1.1,0,0.000165816
0.4,1.2,0,0.00018056
0.4,1.3,0,0.000195078
0.4,1.4,0,0.000209364
0.4,1.5,0,0.000223928
0.4,1.6,0,0.000237755
0.4,1.7,0,0.000251882
0.4,1.8,0,0.000265697
0.4,1.9,0,0.000279194
0.4,2,0,0.000293063
0.4,2.1,0,0.000305959
0.4,2.2,0,0.000319253
0.4,2.3,0,0.000332148
0.4,2.4,0,0.00034464
0.4,2.5,0,0.000357609
0.4,2.6,0,0.000369357
0.4,2.7,0,0.000381619
0.4,2.8,0,0.000393391
0.4,2.9,0,0.000404668
0.4,3,0,0.000416567
0.4,3.1,0,0.000426944
0.4,3.2,0,0.000438007
0.4,3.3,0,0.000448467
0.4,3.4,0,0.000458326
0.4,3.5,0,0.000469032
0.4,3.6,0,0.000477806
0.4,3.7,0,0.000487533
0.4,3.8,0,0.000496512
0.4,3.9,0,0.000504749
0.4,4,0,0.000514198
0.4,4.1,0,0.000521111
0.4,4.2,0,0.000529413
0.4,4.3,0,0.000536758
0.4,4.4,0,0.000543156
0.4,4.5,0,0.000551362
0.4,4.6,0,0.000556065
0.4,4.7,0,0.000562917
0.4,4.8,0,0.000568473
0.4,4.9,0,0.000572342
0.4,5,0,0.000577618
0.4,5.1,0,0.000584723
0.4,5.2,0,0.000589058
0.4,5.3,0,0.000593054
0.4,5.4,0,0.000596707
0.4,5.5,0,0.000600012
0.4,5.6,0,0.000602966
0.4,5.7,0,0.000605567
0.4,5.8,0,0.00060781
0.4,5.9,0,0.000609695
0.4,6,0,0.000611203
0.4,6.1,0,0.000612323
0.4,6.2,0,0.000613117
0.4,6.3,0,0.000613545
0.4,6.4,0,0.000613605
0.4,6.5,0,0.000613298
0.4,6.6,0,0.000612622
0.4,6.7,0,0.000611579
0.4,6.8,0,0.000610169
0.4,6.9,0,0.000608397
0.4,7,0,0.000604885
0.4,7.1,0,0.000601426
0.4,7.2,0,0.000599195
0.4,7.3,0,0.00059725
0.4,7.4,0,0.000592075
0.4,7.5,0,0.000588678
0.4,7.6,0,0.000584885
0.4,7.7,0,0.000578873
0.4,7.8,0,0.000574492
0.4,7.9,0,0.000569054
0.4,8,0,0.000562156
0.4,8.1,0,0.000556869
0.4,8.2,0,0.000549905
0.4,8.3,0,0.000542115
0.4,8.4,0,0.000536065
0.4,8.5,0,0.000527596
0.4,8.6,0,0.000519084
0.4,8.7,0,0.000512284
0.4,8.8,0,0.000502288
0.4,8.9,0,0.000493247
0.4,9,0,0.000485532
0.4,9.1,0,0.000474168
0.4,9.2,0,0.000464761
0.4,9.3,0,0.000455754
0.4,9.4,0,0.000443443
0.4,9.5,0,0.00043383
0.4,9.6,0,0.000423504
0.4,9.7,0,0.000410609
0.4,9.8,0,0.000400649
0.4,9.9,0,0.000388992
0.4,10,0,0.00037565
0.4,10.1,0,0.0003654
0.4,10.2,0,0.00035244
0.4,10.3,0,0.000338779
0.4,10.4,0,0.000328262
0.4,10.5,0,0.000314076
0.4,10.6,0,0.000300499
0.4,10.7,0,0.000289412
0.4,10.8,0,0.000274137
0.4,10.9,0,0.000260689
0.4,11,0,0.000248618
0.4,11.1,0,0.000232861
0.4,11.2,0,0.000219529
0.4,11.3,0,0.000206377
0.4,11.4,0,0.000190575
0.4,11.5,0,0.000177201
0.4,11.6,0,0.000163154
0.4,11.7,0,0.000147548
0.4,11.8,0,0.000133892
0.4,11.9,0,0.000119191
0.4,12,0,0.000103805
0.4,12.1,0,8.98026e-05
0.4,12.2,0,7.47375e-05
0.4,12.3,0,5.95812e-05
0.4,12.4,0,4.51299e-05
0.4,12.5,0,3.00015e-05
0.4,12.6,0,1.77367e-05
0.4,12.7,0,7.03883e-06
0.5,0,0,5.17302e-06
0.5,0.1,0,1.60704e-05
0.5,0.2,0,3.05697e-05
0.5,0.3,0,4.58109e-05
0.5,0.4,0,6.10126e-05
0.5,0.5,0,7.62884e-05
0.5,0.6,0,9.13051e-05
0.5,0.7,0,0.000106452
0.5,0.8,0,0.000121446
0.5,0.9,0,0.000136312
0.5,1,0,0.000151348
0.5,1.1,0,0.000165882
0.5,1.2,0,0.000180641
0.5,1.3,0,0.00019516
0.5,1.4,0,0.000209461
0.5,1.5,0,0.000224025
0.5,1.6,0,0.000237852
0.5,1.7,0,0.000251994
0.5,1.8,0,0.00026581
0.5,1.9,0,0.000279322
0.5,2,0,0.00029319
0.5,2.1,0,0.000306087
0.5,2.2,0,0.000319397
0.5,2.3,0,0.000332292
0.5,2.4,0,0.000344801
0.5,2.5,0,0.00035777
0.5,2.6,0,0.000369517
0.5,2.7,0,0.000381799
0.5,2.8,0,0.00039357
0.5,2.9,0,0.000404868
0.5,3,0,0.000416768
0.5,3.1,0,0.000427145
0.5,3.2,0,0.000438231
0.5,3.3,0,0.000448692
0.5,3.4,0,0.00045858
0.5,3.5,0,0.000469286
0.5,3.6,0,0.00047806
0.5,3.7,0,0.000487823
0.5,3.8,0,0.000496802
0.5,3.9,0,0.000505083
0.5,4,0,0.000514532
0.5,4.1,0,0.000521444
0.5,4.2,0,0.000529802
0.5,4.3,0,0.000537146
0.5,4.4,0,0.000543617
0.5,4.5,0,0.000551823
0.5,4.6,0,0.000556526
0.5,4.7,0,0.000563472
0.5,4.8,0,0.000569027
0.5,4.9,0,0.000572943
0.5,5,0,0.000578219
0.5,5.1,0,0.000585347
0.5,5.2,0,0.000589718
0.5,5.3,0,0.000593745
0.5,5.4,0,0.000597424
0.5,5.5,0,0.00060075
0.5,5.6,0,0.000603721
0.5,5.7,0,0.000606334
0.5,5.8,0,0.000608587
0.5,5.9,0,0.000610476
0.5,6,0,0.000611988
0.5,6.1,0,0.000613109
0.5,6.2,0,0.000613897
0.5,6.3,0,0.000614315
0.5,6.4,0,0.000614362
0.5,6.5,0,0.000614037
0.5,6.6,0,0.00061334
0.5,6.7,0,0.000612272
0.5,6.8,0,0.000610834
0.5,6.9,0,0.000609027
0.5,7,0,0.000605495
0.5,7.1,0,0.000602036
0.5,7.2,0,0.000599765
0.5,7.3,0,0.000597819
0.5,7.4,0,0.000592645
0.5,7.5,0,0.000589177
0.5,7.6,0,0.000585384
0.5,7.7,0,0.000579262
0.5,7.8,0,0.000574961
0.5,7.9,0,0.000569523
0.5,8,0,0.000562471
0.5,8.1,0,0.00055734
0.5,8.2,0,0.000550377
0.5,8.3,0,0.000542552
0.5,8.4,0,0.00053656
0.5,8.5,0,0.000528091
0.5,8.6,0,0.000519617
0.5,8.7,0,0.000512816
0.5,8.8,0,0.00050282
0.5,8.9,0,0.000493824
0.5,9,0,0.000486109
0.5,9.1,0,0.000474745
0.5,9.2,0,0.000465381
0.5,9.3,0,0.000456374
0.5,9.4,0,0.000444063
0.5,9.5,0,0.000434487
0.5,9.6,0,0.000424161
0.5,9.7,0,0.000410988
0.5,9.8,0,0.000401332
0.5,9.9,0,0.000389676
0.5,10,0,0.000376044
0.5,10.1,0,0.000366094
0.5,10.2,0,0.000353135
0.5,10.3,0,0.000339467
0.5,10.4,0,0.00032895
0.5,10.5,0,0.000314764
0.5,10.6,0,0.00030116
0.5,10.7,0,0.000290074
0.5,10.8,0,0.000274798
0.5,10.9,0,0.000261303
0.5,11,0,0.000249232
0.5,11.1,0,0.000233475
0.5,11.2,0,0.000220075
0.5,11.3,0,0.000206923
0.5,11.4,0,0.000191038
0.5,11.5,0,0.000177661
0.5,11.6,0,0.000163615
0.5,11.7,0,0.000147779
0.5,11.8,0,0.000134251
0.5,11.9,0,0.00011955
0.5,12,0,0.000103975
0.5,12.1,0,9.00461e-05
0.5,12.2,0,7.4981e-05
0.5,12.3,0,5.97007e-05
0.5,12.4,0,4.52495e-05
0.5,12.5,0,3.0121e-05
0.5,12.6,0,1.64569e-05
0.5,12.7,0,5.75904e-06
0.6,0,0,4.02346e-06
0.6,0.1,0,1.52702e-05
0.6,0.2,0,3.05879e-05
0.6,0.3,0,4.58291e-05
0.6,0.4,0,6.10484e-05
0.6,0.5,0,7.63225e-05
0.6,0.6,0,9.13482e-05
0.6,0.7,0,0.000106502
0.6,0.8,0,0.000121496
0.6,0.9,0,0.000136384
0.6,1,0,0.000151414
0.6,1.1,0,0.000165962
0.6,1.2,0,0.000180723
0.6,1.3,0,0.000195242
0.6,1.4,0,0.00020957
0.6,1.5,0,0.000224122
0.6,1.6,0,0.000237968
0.6,1.7,0,0.000252107
0.6,1.8,0,0.000265922
0.6,1.9,0,0.000279467
0.6,2,0,0.000293318
0.6,2.1,0,0.000306239
0.6,2.2,0,0.000319541
0.6,2.3,0,0.000332436
0.6,2.4,0,0.000344983
0.6,2.5,0,0.000357931
0.6,2.6,0,0.000369709
0.6,2.7,0,0.000381978
0.6,2.8,0,0.00039375
0.6,2.9,0,0.000405097
0.6,3,0,0.000416968
0.6,3.1,0,0.000427386
0.6,3.2,0,0.000438456
0.6,3.3,0,0.000448917
0.6,3.4,0,0.000458873
0.6,3.5,0,0.00046954
0.6,3.6,0,0.000478371
0.6,3.7,0,0.000488113
0.6,3.8,0,0.000497092
0.6,3.9,0,0.000505472
0.6,4,0,0.000514866
0.6,4.1,0,0.000521862
0.6,4.2,0,0.00053019
0.6,4.3,0,0.000537535
0.6,4.4,0,0.000544159
0.6,4.5,0,0.000552284
0.6,4.6,0,0.000557117
0.6,4.7,0,0.000564027
0.6,4.8,0,0.000569582
0.6,4.9,0,0.00057361
0.6,5,0,0.000578821
0.6,5.1,0,0.000585971
0.6,5.2,0,0.000590379
0.6,5.3,0,0.000594436
0.6,5.4,0,0.00059814
0.6,5.5,0,0.000601488
0.6,5.6,0,0.000604476
0.6,5.7,0,0.000607102
0.6,5.8,0,0.000609363
0.6,5.9,0,0.000611257
0.6,6,0,0.000612772
0.6,6.1,0,0.000613895
0.6,6.2,0,0.000614677
0.6,6.3,0,0.000615085
0.6,6.4,0,0.000615118
0.6,6.5,0,0.000614776
0.6,6.6,0,0.000614058
0.6,6.7,0,0.000612965
0.6,6.8,0,0.000611498
0.6,6.9,0,0.000609656
0.6,7,0,0.000606105
0.6,7.1,0,0.000602647
0.6,7.2,0,0.000600335
0.6,7.3,0,0.000598389
0.6,7.4,0,0.000593322
0.6,7.5,0,0.000589676
0.6,7.6,0,0.000585883
0.6,7.7,0,0.00058001
0.6,7.8,0,0.00057543
0.6,7.9,0,0.000569991
0.6,8,0,0.000563252
0.6,8.1,0,0.000557812
0.6,8.2,0,0.000550848
0.6,8.3,0,0.000543262
0.6,8.4,0,0.000537055
0.6,8.5,0,0.000528587
0.6,8.6,0,0.000520209
0.6,8.7,0,0.000513349
0.6,8.8,0,0.000503353
0.6,8.9,0,0.0004944
0.6,9,0,0.000486685
0.6,9.1,0,0.000475321
0.6,9.2,0,0.000466
0.6,9.3,0,0.000456994
0.6,9.4,0,0.000444956
0.6,9.5,0,0.000435144
0.6,9.6,0,0.000424818
0.6,9.7,0,0.000412228
0.6,9.8,0,0.000402015
0.6,9.9,0,0.000390359
0.6,10,0,0.00037733
0.6,10.1,0,0.000366789
0.6,10.2,0,0.000353829
0.6,10.3,0,0.000340461
0.6,10.4,0,0.000329638
0.6,10.5,0,0.000315452
0.6,10.6,0,0.000301821
0.6,10.7,0,0.000290735
0.6,10.8,0,0.000275459
0.6,10.9,0,0.000261917
0.6,11,0,0.000249846
0.6,11.1,0,0.000234172
0.6,11.2,0,0.000220622
0.6,11.3,0,0.00020747
0.6,11.4,0,0.000191863
0.6,11.5,0,0.000178122
0.6,11.6,0,0.000164075
0.6,11.7,0,0.000148564
0.6,11.8,0,0.00013461
0.6,11.9,0,0.000119909
0.6,12,0,0.000104498
0.6,12.1,0,9.02896e-05
0.6,12.2,0,7.52245e-05
0.6,12.3,0,5.98959e-05
0.6,12.4,0,4.5369e-05
0.6,12.5,0,3.02405e-05
0.6,12.6,0,1.51772e-05
0.6,12.7,0,4.47926e-06
0.7,0,0,2.8739e-06
0.7,0.1,0,1.52853e-05
0.7,0.2,0,3.06062e-05
0.7,0.3,0,4.58474e-05
0.7,0.4,0,6.10883e-05
0.7,0.5,0,7.63566e-05
0.7,0.6,0,9.14124e-05
0.7,0.7,0,0.000106552
0.7,0.8,0,0.000121546
0.7,0.9,0,0.000136473
0.7,1,0,0.00015148
0.7,1.1,0,0.000166075
0.7,1.2,0,0.000180805
0.7,1.3,0,0.000195323
0.7,1.4,0,0.000209706
0.7,1.5,0,0.00022422
0.7,1.6,0,0.000238127
0.7,1.7,0,0.000252219
0.7,1.8,0,0.000266035
0.7,1.9,0,0.00027965
0.7,2,0,0.000293446
0.7,2.1,0,0.000306446
0.7,2.2,0,0.000319684
0.7,2.3,0,0.00033258
0.7,2.4,0,0.000345217
0.7,2.5,0,0.000358092
0.7,2.6,0,0.000369972
0.7,2.7,0,0.000382157
0.7,2.8,0,0.000393929
0.7,2.9,0,0.000405394
0.7,3,0,0.000417168
0.7,3.1,0,0.000427722
0.7,3.2,0,0.000438681
0.7,3.3,0,0.000449142
0.7,3.4,0,0.000459258
0.7,3.5,0,0.000469795
0.7,3.6,0,0.000478815
0.7,3.7,0,0.000488403
0.7,3.8,0,0.000497382
0.7,3.9,0,0.000505991
0.7,4,0,0.0005152
0.7,4.1,0,0.000522474
0.7,4.2,0,0.000530579
0.7,4.3,0,0.000537923
0.7,4.4,0,0.000544891
0.7,4.5,0,0.000552745
0.7,4.6,0,0.000558015
0.7,4.7,0,0.000564582
0.7,4.8,0,0.000570137
0.7,4.9,0,0.000574429
0.7,5,0,0.000579422
0.7,5.1,0,0.000586594
0.7,5.2,0,0.00059104
0.7,5.3,0,0.000595127
0.7,5.4,0,0.000598857
0.7,5.5,0,0.000602226
0.7,5.6,0,0.000605231
0.7,5.7,0,0.000607869
0.7,5.8,0,0.00061014
0.7,5.9,0,0.000612039
0.7,6,0,0.000613556
0.7,6.1,0,0.000614681
0.7,6.2,0,0.000615456
0.7,6.3,0,0.000615855
0.7,6.4,0,0.000615874
0.7,6.5,0,0.000615515
0.7,6.6,0,0.000614776
0.7,6.7,0,0.000613659
0.7,6.8,0,0.000612162
0.7,6.9,0,0.000610286
0.7,7,0,0.000606716
0.7,7.1,0,0.000603501
0.7,7.2,0,0.000601016
0.7,7.3,0,0.000598959
0.7,7.4,0,0.000594213
0.7,7.5,0,0.000590175
0.7,7.6,0,0.000586382
0.7,7.7,0,0.000580807
0.7,7.8,0,0.000575898
0.7,7.9,0,0.00057046
0.7,8,0,0.000564034
0.7,8.1,0,0.000558283
0.7,8.2,0,0.000551319
0.7,8.3,0,0.00054408
0.7,8.4,0,0.000537551
0.7,8.5,0,0.000529082
0.7,8.6,0,0.000521097
0.7,8.7,0,0.000513882
0.7,8.8,0,0.000504109
0.7,8.9,0,0.000495244
0.7,9,0,0.000487261
0.7,9.1,0,0.000476396
0.7,9.2,0,0.000466696
0.7,9.3,0,0.000457613
0.7,9.4,0,0.000446122
0.7,9.5,0,0.000435801
0.7,9.6,0,0.000425475
0.7,9.7,0,0.000413467
0.7,9.8,0,0.000402699
0.7,9.9,0,0.000391043
0.7,10,0,0.000378617
0.7,10.1,0,0.000367484
0.7,10.2,0,0.000354524
0.7,10.3,0,0.000341762
0.7,10.4,0,0.000330326
0.7,10.5,0,0.000316238
0.7,10.6,0,0.000303099
0.7,10.7,0,0.000291396
0.7,10.8,0,0.000276489
0.7,10.9,0,0.000262831
0.7,11,0,0.00025046
0.7,11.1,0,0.00023528
0.7,11.2,0,0.000221169
0.7,11.3,0,0.000208017
0.7,11.4,0,0.000192827
0.7,11.5,0,0.000178583
0.7,11.6,0,0.000164536
0.7,11.7,0,0.00014935
0.7,11.8,0,0.000134969
0.7,11.9,0,0.000120268
0.7,12,0,0.000105076
0.7,12.1,0,9.05331e-05
0.7,12.2,0,7.5468e-05
0.7,12.3,0,6.02425e-05
0.7,12.4,0,4.54885e-05
0.7,12.5,0,3.03543e-05
0.7,12.6,0,1.50492e-05
0.7,12.7,0,3.19947e-06
0.8,0,0,1.72434e-06
0.8,0.1,0,1.53003e-05
0.8,0.2,0,3.06232e-05
0.8,0.3,0,4.58743e-05
0.8,0.4,0,6.11282e-05
0.8,0.5,0,7.63907e-05
0.8,0.6,0,9.14766e-05
0.8,0.7,0,0.000106608
0.8,0.8,0,0.000121612
0.8,0.9,0,0.000136562
0.8,1,0,0.000151546
0.8,1.1,0,0.000166187
0.8,1.2,0,0.000180899
0.8,1.3,0,0.000195427
0.8,1.4,0,0.000209842
0.8,1.5,0,0.000224317
0.8,1.6,0,0.000238287
0.8,1.7,0,0.00025235
0.8,1.8,0,0.000266175
0.8,1.9,0,0.000279833
0.8,2,0,0.000293574
0.8,2.1,0,0.000306654
0.8,2.2,0,0.000319854
0.8,2.3,0,0.00033276
0.8,2.4,0,0.000345451
0.8,2.5,0,0.000358253
0.8,2.6,0,0.000370235
0.8,2.7,0,0.00038237
0.8,2.8,0,0.000394155
0.8,2.9,0,0.00040569
0.8,3,0,0.000417369
0.8,3.1,0,0.000428058
0.8,3.2,0,0.00043895
0.8,3.3,0,0.00044943
0.8,3.4,0,0.000459642
0.8,3.5,0,0.000470049
0.8,3.6,0,0.000479259
0.8,3.7,0,0.000488755
0.8,3.8,0,0.000497763
0.8,3.9,0,0.00050651
0.8,4,0,0.000515534
0.8,4.1,0,0.000523086
0.8,4.2,0,0.000531057
0.8,4.3,0,0.000538449
0.8,4.4,0,0.000545624
0.8,4.5,0,0.000553206
0.8,4.6,0,0.000558912
0.8,4.7,0,0.000565273
0.8,4.8,0,0.000570797
0.8,4.9,0,0.000575247
0.8,5,0,0.000580024
0.8,5.1,0,0.000587218
0.8,5.2,0,0.0005917
0.8,5.3,0,0.000595818
0.8,5.4,0,0.000599574
0.8,5.5,0,0.000602963
0.8,5.6,0,0.000605985
0.8,5.7,0,0.000608637
0.8,5.8,0,0.000610916
0.8,5.9,0,0.00061282
0.8,6,0,0.00061434
0.8,6.1,0,0.000615467
0.8,6.2,0,0.000616236
0.8,6.3,0,0.000616625
0.8,6.4,0,0.000616631
0.8,6.5,0,0.000616254
0.8,6.6,0,0.000615494
0.8,6.7,0,0.000614352
0.8,6.8,0,0.000612827
0.8,6.9,0,0.000610915
0.8,7,0,0.000607326
0.8,7.1,0,0.000604403
0.8,7.2,0,0.000601918
0.8,7.3,0,0.000599529
0.8,7.4,0,0.000595104
0.8,7.5,0,0.000591001
0.8,7.6,0,0.000586881
0.8,7.7,0,0.000581604
0.8,7.8,0,0.000576477
0.8,7.9,0,0.000570929
0.8,8,0,0.000564816
0.8,8.1,0,0.000558754
0.8,8.2,0,0.000551964
0.8,8.3,0,0.000544898
0.8,8.4,0,0.000538046
0.8,8.5,0,0.00052997
0.8,8.6,0,0.000521985
0.8,8.7,0,0.000514414
0.8,8.8,0,0.000505087
0.8,8.9,0,0.000496223
0.8,9,0,0.000487837
0.8,9.1,0,0.000477471
0.8,9.2,0,0.000467771
0.8,9.3,0,0.000458233
0.8,9.4,0,0.000447287
0.8,9.5,0,0.000436798
0.8,9.6,0,0.000426132
0.8,9.7,0,0.000414706
0.8,9.8,0,0.000403475
0.8,9.9,0,0.000391826
0.8,10,0,0.000379904
0.8,10.1,0,0.000368179
0.8,10.2,0,0.000355623
0.8,10.3,0,0.000343063
0.8,10.4,0,0.000331014
0.8,10.5,0,0.000317515
0.8,10.6,0,0.000304376
0.8,10.7,0,0.000292058
0.8,10.8,0,0.000277701
0.8,10.9,0,0.000264044
0.8,11,0,0.000251074
0.8,11.1,0,0.000236388
0.8,11.2,0,0.000222277
0.8,11.3,0,0.000208564
0.8,11.4,0,0.000193791
0.8,11.5,0,0.000179296
0.8,11.6,0,0.000164997
0.8,11.7,0,0.000150136
0.8,11.8,0,0.000135328
0.8,11.9,0,0.0001207
0.8,12,0,0.000105655
0.8,12.1,0,9.07766e-05
0.8,12.2,0,7.57975e-05
0.8,12.3,0,6.05892e-05
0.8,12.4,0,4.5608e-05
0.8,12.5,0,3.04567e-05
0.8,12.6,0,1.51515e-05
0.8,12.7,0,1.91968e-06
0.9,0,0,5.74781e-07
0.9,0.1,0,1.53154e-05
0.9,0.2,0,3.06383e-05
0.9,0.3,0,4.59142e-05
0.9,0.4,0,6.1168e-05
0.9,0.5,0,7.64248e-05
0.9,0.6,0,9.15408e-05
0.9,0.7,0,0.000106672
0.9,0.8,0,0.0001217
0.9,0.9,0,0.00013665
0.9,1,0,0.000151612
0.9,1.1,0,0.0001663
0.9,1.2,0,0.000181011
0.9,1.3,0,0.000195563
0.9,1.4,0,0.000209979
0.9,1.5,0,0.000224414
0.9,1.6,0,0.000238446
0.9,1.7,0,0.00025251
0.9,1.8,0,0.000266359
0.9,1.9,0,0.000280017
0.9,2,0,0.000293702
0.9,2.1,0,0.000306862
0.9,2.2,0,0.000320062
0.9,2.3,0,0.000332994
0.9,2.4,0,0.000345685
0.9,2.5,0,0.000358413
0.9,2.6,0,0.000370498
0.9,2.7,0,0.000382633
0.9,2.8,0,0.000394451
0.9,2.9,0,0.000405986
0.9,3,0,0.000417569
0.9,3.1,0,0.000428394
0.9,3.2,0,0.000439286
0.9,3.3,0,0.000449814
0.9,3.4,0,0.000460026
0.9,3.5,0,0.000470303
0.9,3.6,0,0.000479704
0.9,3.7,0,0.000489199
0.9,3.8,0,0.000498282
0.9,3.9,0,0.000507029
0.9,4,0,0.000515868
0.9,4.1,0,0.000523699
0.9,4.2,0,0.000531669
0.9,4.3,0,0.000539181
0.9,4.4,0,0.000546356
0.9,4.5,0,0.000553667
0.9,4.6,0,0.00055981
0.9,4.7,0,0.000566171
0.9,4.8,0,0.000571616
0.9,4.9,0,0.000576066
0.9,5,0,0.000580625
0.9,5.1,0,0.000587841
0.9,5.2,0,0.000592361
0.9,5.3,0,0.000596509
0.9,5.4,0,0.00060029
0.9,5.5,0,0.000603701
0.9,5.6,0,0.00060674
0.9,5.7,0,0.000609404
0.9,5.8,0,0.000611692
0.9,5.9,0,0.000613602
0.9,6,0,0.000615124
0.9,6.1,0,0.000616253
0.9,6.2,0,0.000617016
0.9,6.3,0,0.000617395
0.9,6.4,0,0.000617387
0.9,6.5,0,0.000616994
0.9,6.6,0,0.000616213
0.9,6.7,0,0.000615045
0.9,6.8,0,0.000613491
0.9,6.9,0,0.000611545
0.9,7,0,0.000607936
0.9,7.1,0,0.000605305
0.9,7.2,0,0.000602821
0.9,7.3,0,0.000600099
0.9,7.4,0,0.000595996
0.9,7.5,0,0.000591893
0.9,7.6,0,0.000587529
0.9,7.7,0,0.000582402
0.9,7.8,0,0.000577274
0.9,7.9,0,0.000571711
0.9,8,0,0.000565597
0.9,8.1,0,0.000559484
0.9,8.2,0,0.000552781
0.9,8.3,0,0.000545715
0.9,8.4,0,0.000538649
0.9,8.5,0,0.000530858
0.9,8.6,0,0.000522873
0.9,8.7,0,0.000514947
0.9,8.8,0,0.000506066
0.9,8.9,0,0.000497201
0.9,9,0,0.000488413
0.9,9.1,0,0.000478547
0.9,9.2,0,0.000468847
0.9,9.3,0,0.000458943
0.9,9.4,0,0.000448453
0.9,9.5,0,0.000437963
0.9,9.6,0,0.000427177
0.9,9.7,0,0.000415946
0.9,9.8,0,0.000404714
0.9,9.9,0,0.000393113
0.9,10,0,0.000381191
0.9,10.1,0,0.000369268
0.9,10.2,0,0.000356924
0.9,10.3,0,0.000344364
0.9,10.4,0,0.000331804
0.9,10.5,0,0.000318793
0.9,10.6,0,0.000305653
0.9,10.7,0,0.000292719
0.9,10.8,0,0.000278914
0.9,10.9,0,0.000265257
0.9,11,0,0.000251689
0.9,11.1,0,0.000237495
0.9,11.2,0,0.000223384
0.9,11.3,0,0.00020925
0.9,11.4,0,0.000194755
0.9,11.5,0,0.00018026
0.9,11.6,0,0.000165729
0.9,11.7,0,0.000150921
0.9,11.8,0,0.000136114
0.9,11.9,0,0.000121279
0.9,12,0,0.000106233
0.9,12.1,0,9.11876e-05
0.9,12.2,0,7.61441e-05
0.9,12.3,0,6.09358e-05
0.9,12.4,0,4.57275e-05
0.9,12.5,0,3.0559e-05
0.9,12.6,0,1.52539e-05
0.9,12.7,0,6.39894e-07
1,0,0,0
1,0.1,0,1.53363e-05
1,0.2,0,3.06592e-05
1,0.3,0,4.59664e-05
1,0.4,0,6.12202e-05
1,0.5,0,7.67706e-05
1,0.6,0,9.1625e-05
1,0.7,0,0.000106756
1,0.8,0,0.000121817
1,0.9,0,0.000136767
1,1,0,0.000152293
1,1.1,0,0.000166448
1,1.2,0,0.000181159
1,1.3,0,0.000195742
1,1.4,0,0.000210157
1,1.5,0,0.000225421
1,1.6,0,0.000238656
1,1.7,0,0.000252719
1,1.8,0,0.000266599
1,1.9,0,0.000280257
1,2,0,0.000295023
1,2.1,0,0.000307133
1,2.2,0,0.000320333
1,2.3,0,0.000333298
1,2.4,0,0.000345989
1,2.5,0,0.000360034
1,2.6,0,0.000370837
1,2.7,0,0.000382972
1,2.8,0,0.00039483
1,2.9,0,0.000406364
1,3,0,0.000419474
1,3.1,0,0.000428817
1,3.2,0,0.00043971
1,3.3,0,0.000450291
1,3.4,0,0.000460503
1,3.5,0,0.000472476
1,3.6,0,0.000480244
1,3.7,0,0.000489739
1,3.8,0,0.000498902
1,3.9,0,0.000507648
1,4,0,0.000518295
1,4.1,0,0.000524415
1,4.2,0,0.000532385
1,4.3,0,0.000540019
1,4.4,0,0.000547194
1,4.5,0,0.000556338
1,4.6,0,0.000560815
1,4.7,0,0.000567177
1,4.8,0,0.000572829
1,4.9,0,0.000577279
1,5,0,0.000583518
1,5.1,0,0.000590796
1,5.2,0,0.000595354
1,5.3,0,0.000599536
1,5.4,0,0.000603347
1,5.5,0,0.000606782
1,5.6,0,0.000609841
1,5.7,0,0.00061252
1,5.8,0,0.000614819
1,5.9,0,0.000616735
1,6,0,0.000618261
1,6.1,0,0.000619392
1,6.2,0,0.000620149
1,6.3,0,0.000620518
1,6.4,0,0.000620497
1,6.5,0,0.000620086
1,6.6,0,0.000619283
1,6.7,0,0.00061809
1,6.8,0,0.000616506
1,6.9,0,0.000614525
1,7,0,0.000610852
1,7.1,0,0.000606536
1,7.2,0,0.000604052
1,7.3,0,0.000601147
1,7.4,0,0.000597044
1,7.5,0,0.000592941
1,7.6,0,0.000588477
1,7.7,0,0.000583349
1,7.8,0,0.000578221
1,7.9,0,0.000572638
1,8,0,0.000566524
1,8.1,0,0.000560411
1,8.2,0,0.00055374
1,8.3,0,0.000546673
1,8.4,0,0.000539607
1,8.5,0,0.000531881
1,8.6,0,0.000523896
1,8.7,0,0.000516417
1,8.8,0,0.000507173
1,8.9,0,0.000498309
1,9,0,0.000490328
1,9.1,0,0.000479744
1,9.2,0,0.000470044
1,9.3,0,0.000460224
1,9.4,0,0.000449734
1,9.5,0,0.000439244
1,9.6,0,0.000428524
1,9.7,0,0.000417293
1,9.8,0,0.000406061
1,9.9,0,0.0003945
1,10,0,0.000382577
1,10.1,0,0.000370655
1,10.2,0,0.000358317
1,10.3,0,0.000345757
1,10.4,0,0.000333197
1,10.5,0,0.000320153
1,10.6,0,0.000307013
1,10.7,0,0.000294161
1,10.8,0,0.0002802
1,10.9,0,0.000266543
1,11,0,0.000252903