/*--------------------------------*- C++ -*----------------------------------*\
| =========                 |                                                 |
| \\      /  F ield         | OpenFOAM: The Open Source CFD Toolbox           |
|  \\    /   O peration     | Version:  v1806                                 |
|   \\  /    A nd           | Web:      www.OpenFOAM.com                      |
|    \\/     M anipulation  |                                                 |
\*---------------------------------------------------------------------------*/
FoamFile
{
    version     2.0;
    format      ascii;
    class       volVectorField;
    location    "440";
    object      U;
}
// * * * * * * * * * * * * * * * * * * * * * * * * * * * * * * * * * * * * * //

dimensions      [0 1 -1 0 0 0 0];


internalField   nonuniform List<vector> 
2400
(
(0.299999 2.06643e-05 0)
(0.299994 -0.000413138 0)
(0.29999 -0.000363355 0)
(0.299978 -0.00087546 0)
(0.299968 -0.00083711 0)
(0.29994 -0.00148181 0)
(0.299921 -0.00152185 0)
(0.29987 -0.00235312 0)
(0.299839 -0.00255258 0)
(0.299758 -0.00363008 0)
(0.299707 -0.00410529 0)
(0.29959 -0.0054879 0)
(0.299514 -0.00636747 0)
(0.299365 -0.00807347 0)
(0.29927 -0.00943114 0)
(0.299122 -0.0113494 0)
(0.299046 -0.0130178 0)
(0.298983 -0.0147543 0)
(0.299017 -0.0160829 0)
(0.299146 -0.0168987 0)
(0.299996 2.51237e-05 0)
(0.299989 -0.000416965 0)
(0.299977 -0.000352001 0)
(0.299961 -0.000877598 0)
(0.299936 -0.00081786 0)
(0.299896 -0.00148251 0)
(0.299856 -0.0014911 0)
(0.299786 -0.00235084 0)
(0.299726 -0.00250608 0)
(0.299614 -0.00362319 0)
(0.299529 -0.00403954 0)
(0.299366 -0.00547474 0)
(0.299259 -0.00628419 0)
(0.299056 -0.00805526 0)
(0.29895 -0.00934732 0)
(0.298772 -0.011337 0)
(0.298746 -0.0129772 0)
(0.298745 -0.014779 0)
(0.298933 -0.0161392 0)
(0.299266 -0.0169918 0)
(0.299992 3.25417e-05 0)
(0.299984 -0.000422758 0)
(0.299961 -0.000333042 0)
(0.299941 -0.000880785 0)
(0.299895 -0.000785859 0)
(0.299841 -0.00148395 0)
(0.299772 -0.00144088 0)
(0.299675 -0.00234922 0)
(0.299578 -0.00243133 0)
(0.299419 -0.00361728 0)
(0.29929 -0.00393527 0)
(0.299059 -0.0054643 0)
(0.298907 -0.00615426 0)
(0.298621 -0.00804666 0)
(0.298494 -0.00922183 0)
(0.298256 -0.0113535 0)
(0.29828 -0.0129333 0)
(0.298329 -0.0148698 0)
(0.2987 -0.0162676 0)
(0.299278 -0.0171975 0)
(0.299988 4.30818e-05 0)
(0.29998 -0.000430593 0)
(0.299946 -0.000306181 0)
(0.29992 -0.000884932 0)
(0.299854 -0.000740589 0)
(0.299783 -0.00148602 0)
(0.299685 -0.00137022 0)
(0.299557 -0.00234817 0)
(0.29942 -0.00232656 0)
(0.299211 -0.00361257 0)
(0.299031 -0.00378937 0)
(0.298725 -0.00545786 0)
(0.29852 -0.00597226 0)
(0.298137 -0.00805091 0)
(0.29798 -0.00904562 0)
(0.297657 -0.0114051 0)
(0.297731 -0.0128745 0)
(0.2978 -0.0150352 0)
(0.298373 -0.0164691 0)
(0.299204 -0.0175112 0)
(0.299985 5.61945e-05 0)
(0.299978 -0.000439882 0)
(0.299931 -0.000271891 0)
(0.299901 -0.00088916 0)
(0.299813 -0.00068243 0)
(0.299727 -0.00148734 0)
(0.299597 -0.00127903 0)
(0.299441 -0.00234556 0)
(0.299261 -0.00219074 0)
(0.299001 -0.00360617 0)
(0.298768 -0.00359878 0)
(0.298383 -0.00545208 0)
(0.29812 -0.00573108 0)
(0.29763 -0.00806547 0)
(0.297439 -0.00880413 0)
(0.297005 -0.0114932 0)
(0.297132 -0.0127781 0)
(0.297184 -0.0152847 0)
(0.297984 -0.0167282 0)
(0.299067 -0.0179497 0)
(0.299982 7.11449e-05 0)
(0.299976 -0.000449614 0)
(0.299917 -0.000231322 0)
(0.299883 -0.000892266 0)
(0.299773 -0.000612891 0)
(0.299674 -0.00148628 0)
(0.299512 -0.00116905 0)
(0.299328 -0.00233933 0)
(0.299103 -0.00202542 0)
(0.298796 -0.00359566 0)
(0.298506 -0.00336384 0)
(0.298042 -0.00544463 0)
(0.297717 -0.00542738 0)
(0.297112 -0.00808957 0)
(0.29688 -0.00848604 0)
(0.29631 -0.0116223 0)
(0.296492 -0.0126214 0)
(0.296478 -0.0156348 0)
(0.297544 -0.0170254 0)
(0.298867 -0.0185384 0)
(0.299979 8.70845e-05 0)
(0.299976 -0.000458641 0)
(0.299905 -0.000185894 0)
(0.299866 -0.000892892 0)
(0.299735 -0.000533918 0)
(0.299623 -0.00148111 0)
(0.299429 -0.00104271 0)
(0.29922 -0.00232738 0)
(0.29895 -0.00183328 0)
(0.298597 -0.00357859 0)
(0.298247 -0.00308652 0)
(0.297706 -0.00543294 0)
(0.297311 -0.0050599 0)
(0.296586 -0.00812165 0)
(0.296303 -0.00808189 0)
(0.295572 -0.0117958 0)
(0.295808 -0.0123808 0)
(0.295668 -0.0161047 0)
(0.297052 -0.0173349 0)
(0.298584 -0.0193107 0)
(0.299976 0.000103035 0)
(0.299979 -0.000465656 0)
(0.299893 -0.000137259 0)
(0.299852 -0.000889458 0)
(0.299698 -0.000447809 0)
(0.299576 -0.00146976 0)
(0.29935 -0.000902991 0)
(0.299117 -0.00230708 0)
(0.298802 -0.00161782 0)
(0.298405 -0.00355167 0)
(0.297993 -0.00277002 0)
(0.297376 -0.00541299 0)
(0.296906 -0.00462918 0)
(0.296054 -0.00815733 0)
(0.295709 -0.0075839 0)
(0.294788 -0.0120131 0)
(0.295072 -0.012032 0)
(0.294735 -0.0167129 0)
(0.2965 -0.0176253 0)
(0.298181 -0.0203122 0)
(0.299973 0.000117898 0)
(0.299984 -0.000469162 0)
(0.299882 -8.73383e-05 0)
(0.29984 -0.000880137 0)
(0.299663 -0.000357261 0)
(0.299534 -0.00144977 0)
(0.299273 -0.000753497 0)
(0.299023 -0.00227517 0)
(0.298658 -0.00138353 0)
(0.298224 -0.00351056 0)
(0.297744 -0.00241908 0)
(0.297056 -0.00537883 0)
(0.296501 -0.00413795 0)
(0.29552 -0.00818877 0)
(0.295094 -0.00698691 0)
(0.293959 -0.012268 0)
(0.294271 -0.0115519 0)
(0.293662 -0.0174745 0)
(0.295874 -0.0178604 0)
(0.297604 -0.0216025 0)
(0.299969 0.000130457 0)
(0.299994 -0.000467456 0)
(0.29987 -3.83624e-05 0)
(0.299834 -0.000862826 0)
(0.299626 -0.000265435 0)
(0.2995 -0.00141821 0)
(0.299198 -0.000598556 0)
(0.298939 -0.00222768 0)
(0.298518 -0.001136 0)
(0.298056 -0.00344972 0)
(0.297501 -0.00204016 0)
(0.296749 -0.00532249 0)
(0.296097 -0.00359163 0)
(0.294988 -0.00820425 0)
(0.294457 -0.00628921 0)
(0.293086 -0.0125475 0)
(0.293394 -0.0109191 0)
(0.292431 -0.0183989 0)
(0.295151 -0.0179993 0)
(0.296784 -0.0232604 0)
(0.299962 0.000139375 0)
(0.30001 -0.000458624 0)
(0.299855 7.18514e-06 0)
(0.299836 -0.000835025 0)
(0.299586 -0.000176038 0)
(0.299479 -0.00137151 0)
(0.299119 -0.000443393 0)
(0.298872 -0.00215964 0)
(0.298376 -0.00088225 0)
(0.29791 -0.00336218 0)
(0.297258 -0.00164187 0)
(0.296466 -0.00523377 0)
(0.295691 -0.00299876 0)
(0.294467 -0.00818812 0)
(0.293794 -0.00549323 0)
(0.292175 -0.0128301 0)
(0.292426 -0.0101149 0)
(0.291027 -0.0194858 0)
(0.294297 -0.0179935 0)
(0.295636 -0.0253931 0)
(0.299951 0.000143184 0)
(0.300034 -0.000440445 0)
(0.299834 4.63509e-05 0)
(0.29985 -0.00079376 0)
(0.299538 -9.35434e-05 0)
(0.299476 -0.00130527 0)
(0.29903 -0.000294515 0)
(0.298833 -0.00206472 0)
(0.298222 -0.000631259 0)
(0.297801 -0.00323892 0)
(0.297001 -0.00123564 0)
(0.296226 -0.00509963 0)
(0.295266 -0.0023717 0)
(0.293981 -0.00812063 0)
(0.293092 -0.00460644 0)
(0.291244 -0.0130862 0)
(0.291347 -0.0091234 0)
(0.289442 -0.0207233 0)
(0.293267 -0.0177828 0)
(0.29406 -0.0281536 0)
(0.299937 0.000140395 0)
(0.300065 -0.000410527 0)
(0.299807 7.57639e-05 0)
(0.299878 -0.00073548 0)
(0.299478 -2.34699e-05 0)
(0.299497 -0.00121396 0)
(0.298922 -0.0001604 0)
(0.298833 -0.00193438 0)
(0.298039 -0.000395279 0)
(0.297752 -0.00306734 0)
(0.296704 -0.000837596 0)
(0.296066 -0.00490234 0)
(0.294786 -0.00172851 0)
(0.293582 -0.00797641 0)
(0.292308 -0.00364288 0)
(0.29035 -0.0132786 0)
(0.290112 -0.00793257 0)
(0.287693 -0.0220835 0)
(0.291995 -0.0172892 0)
(0.291935 -0.0317354 0)
(0.299924 0.000129772 0)
(0.3001 -0.000366874 0)
(0.299776 9.24547e-05 0)
(0.299915 -0.000656841 0)
(0.299408 2.92614e-05 0)
(0.299541 -0.00109093 0)
(0.298794 -5.10631e-05 0)
(0.298878 -0.00175738 0)
(0.297817 -0.000191484 0)
(0.297782 -0.00282888 0)
(0.296337 -0.000473226 0)
(0.296033 -0.00461439 0)
(0.294189 -0.00109917 0)
(0.293356 -0.00771743 0)
(0.291342 -0.00262781 0)
(0.289621 -0.0133593 0)
(0.288596 -0.00654016 0)
(0.285884 -0.0235194 0)
(0.290367 -0.0164245 0)
(0.289111 -0.0363105 0)
(0.299918 0.00011071 0)
(0.300127 -0.000308373 0)
(0.299752 9.43743e-05 0)
(0.299948 -0.00055549 0)
(0.299343 6.05742e-05 0)
(0.299591 -0.000931292 0)
(0.298659 2.54965e-05 0)
(0.298953 -0.00152224 0)
(0.297565 -3.80374e-05 0)
(0.297887 -0.00249995 0)
(0.29589 -0.000179208 0)
(0.296155 -0.00419081 0)
(0.29342 -0.000543243 0)
(0.293402 -0.00727522 0)
(0.29004 -0.00161725 0)
(0.289278 -0.0132492 0)
(0.286505 -0.00496197 0)
(0.284334 -0.0249944 0)
(0.288076 -0.015058 0)
(0.285486 -0.0422095 0)
(0.299931 8.38092e-05 0)
(0.300129 -0.000235486 0)
(0.299754 8.12104e-05 0)
(0.299951 -0.000431264 0)
(0.299311 6.85185e-05 0)
(0.299611 -0.000733775 0)
(0.298563 6.49543e-05 0)
(0.299005 -0.00122361 0)
(0.297344 5.51052e-05 0)
(0.298003 -0.00206192 0)
(0.295432 1.38416e-05 0)
(0.296374 -0.00357954 0)
(0.292513 -0.00014641 0)
(0.293732 -0.00653598 0)
(0.288296 -0.000749061 0)
(0.28953 -0.0127655 0)
(0.283358 -0.00327293 0)
(0.283678 -0.0264696 0)
(0.28415 -0.0129664 0)
(0.281481 -0.0504011 0)
(0.299974 5.13011e-05 0)
(0.300086 -0.000150998 0)
(0.299801 5.5363e-05 0)
(0.299895 -0.000288016 0)
(0.299351 5.62392e-05 0)
(0.299549 -0.000502535 0)
(0.298572 6.92779e-05 0)
(0.298951 -0.000865698 0)
(0.297268 8.82229e-05 0)
(0.29799 -0.00151556 0)
(0.295148 0.000102386 0)
(0.296472 -0.00276353 0)
(0.291736 6.87369e-05 0)
(0.294077 -0.00537993 0)
(0.286367 -0.000202925 0)
(0.290225 -0.0115545 0)
(0.27888 -0.00173167 0)
(0.284485 -0.0275284 0)
(0.2764 -0.010035 0)
(0.279207 -0.0622945 0)
(0.300051 1.66308e-05 0)
(0.29999 -5.99591e-05 0)
(0.299905 2.12315e-05 0)
(0.299759 -0.000133077 0)
(0.29949 2.86012e-05 0)
(0.299363 -0.000250633 0)
(0.298746 4.67113e-05 0)
(0.298704 -0.000465736 0)
(0.297463 6.97864e-05 0)
(0.297677 -0.000882964 0)
(0.295296 8.76487e-05 0)
(0.29612 -0.0017588 0)
(0.291614 5.8238e-05 0)
(0.293787 -0.0038007 0)
(0.285212 -0.000123306 0)
(0.290328 -0.00929755 0)
(0.274204 -0.000950006 0)
(0.285727 -0.0268316 0)
(0.262536 -0.00622862 0)
(0.282515 -0.0780278 0)
(0.300152 -1.26374e-05 0)
(0.299849 2.79567e-05 0)
(0.300058 -7.73695e-06 0)
(0.299553 2.14872e-05 0)
(0.299722 1.27447e-05 0)
(0.299059 4.91426e-06 0)
(0.299092 3.52089e-05 0)
(0.298247 -5.85683e-05 0)
(0.297973 6.23783e-05 0)
(0.296985 -0.000230041 0)
(0.29603 7.97911e-05 0)
(0.295061 -0.000682283 0)
(0.292591 4.0021e-05 0)
(0.292187 -0.00193432 0)
(0.286162 -0.00022383 0)
(0.287991 -0.00588739 0)
(0.272903 -0.00135083 0)
(0.283152 -0.0219529 0)
(0.246835 -0.00603334 0)
(0.291127 -0.0980785 0)
(0.300254 -3.88727e-05 0)
(0.299698 0.00011733 0)
(0.300221 -4.26679e-05 0)
(0.29933 0.000174401 0)
(0.299988 -1.39763e-05 0)
(0.29871 0.000257863 0)
(0.299518 1.30653e-05 0)
(0.297693 0.000351175 0)
(0.298661 3.98178e-05 0)
(0.296078 0.000439322 0)
(0.297156 4.44877e-05 0)
(0.293529 0.00044138 0)
(0.294477 -4.0063e-05 0)
(0.289432 5.85555e-05 0)
(0.289385 -0.000451201 0)
(0.282507 -0.00204464 0)
(0.278127 -0.00172125 0)
(0.270098 -0.014447 0)
(0.247738 -0.00642266 0)
(0.286943 -0.140752 0)
(0.299291 -0.016879 0)
(0.299319 -0.0168655 0)
(0.299344 -0.0168434 0)
(0.299369 -0.0168134 0)
(0.299393 -0.0167756 0)
(0.299419 -0.0167301 0)
(0.299445 -0.0166769 0)
(0.299471 -0.0166161 0)
(0.299497 -0.0165478 0)
(0.299522 -0.0164726 0)
(0.299532 -0.0170004 0)
(0.299582 -0.0169928 0)
(0.299629 -0.0169762 0)
(0.299675 -0.0169507 0)
(0.299722 -0.0169165 0)
(0.299768 -0.0168737 0)
(0.299815 -0.0168223 0)
(0.299862 -0.0167627 0)
(0.299908 -0.0166949 0)
(0.299953 -0.0166193 0)
(0.299719 -0.0172116 0)
(0.299802 -0.0172038 0)
(0.299881 -0.0171861 0)
(0.299957 -0.0171588 0)
(0.300033 -0.0171223 0)
(0.300109 -0.0170765 0)
(0.300183 -0.0170217 0)
(0.300257 -0.0169581 0)
(0.300329 -0.0168859 0)
(0.3004 -0.0168055 0)
(0.299838 -0.017536 0)
(0.299958 -0.0175294 0)
(0.300072 -0.0175116 0)
(0.300183 -0.0174832 0)
(0.300292 -0.0174443 0)
(0.300401 -0.0173951 0)
(0.300509 -0.0173357 0)
(0.300614 -0.0172664 0)
(0.300717 -0.0171874 0)
(0.300818 -0.0170993 0)
(0.299918 -0.01799 0)
(0.30008 -0.0179845 0)
(0.300235 -0.0179659 0)
(0.300385 -0.0179346 0)
(0.300534 -0.0178911 0)
(0.300681 -0.0178355 0)
(0.300827 -0.0177681 0)
(0.300969 -0.0176893 0)
(0.301107 -0.0175993 0)
(0.301242 -0.0174989 0)
(0.299975 -0.0185976 0)
(0.300187 -0.0185925 0)
(0.300391 -0.0185713 0)
(0.300589 -0.0185349 0)
(0.300784 -0.0184839 0)
(0.300976 -0.0184186 0)
(0.301165 -0.0183394 0)
(0.30135 -0.0182467 0)
(0.301529 -0.018141 0)
(0.301703 -0.0180231 0)
(0.300018 -0.0193912 0)
(0.300293 -0.0193849 0)
(0.300558 -0.0193582 0)
(0.300812 -0.0193129 0)
(0.301062 -0.0192502 0)
(0.301308 -0.0191703 0)
(0.301549 -0.0190737 0)
(0.301784 -0.0189611 0)
(0.302011 -0.0188329 0)
(0.302231 -0.0186905 0)
(0.300052 -0.0204136 0)
(0.30041 -0.020403 0)
(0.300751 -0.0203659 0)
(0.301074 -0.0203061 0)
(0.30139 -0.0202252 0)
(0.301701 -0.0201238 0)
(0.302005 -0.0200022 0)
(0.302299 -0.0198612 0)
(0.302584 -0.0197018 0)
(0.302856 -0.0195255 0)
(0.300084 -0.0217198 0)
(0.300557 -0.0216998 0)
(0.300994 -0.0216447 0)
(0.301401 -0.0215619 0)
(0.301796 -0.0214539 0)
(0.302185 -0.021321 0)
(0.302564 -0.0211636 0)
(0.302931 -0.0209828 0)
(0.303283 -0.0207801 0)
(0.303619 -0.0205573 0)
(0.30013 -0.0233794 0)
(0.30076 -0.0233419 0)
(0.30132 -0.023258 0)
(0.301829 -0.02314 0)
(0.30232 -0.0229919 0)
(0.302803 -0.0228136 0)
(0.303274 -0.0226055 0)
(0.303727 -0.0223692 0)
(0.30416 -0.0221066 0)
(0.304571 -0.0218205 0)
(0.300215 -0.0254817 0)
(0.30106 -0.0254138 0)
(0.301778 -0.0252849 0)
(0.30241 -0.0251145 0)
(0.303017 -0.024908 0)
(0.303615 -0.0246648 0)
(0.304198 -0.0243854 0)
(0.304755 -0.024072 0)
(0.305284 -0.023727 0)
(0.305782 -0.0233547 0)
(0.300382 -0.0281443 0)
(0.301521 -0.0280249 0)
(0.30244 -0.0278266 0)
(0.303221 -0.0275783 0)
(0.303967 -0.027287 0)
(0.304705 -0.0269513 0)
(0.305423 -0.0265717 0)
(0.306105 -0.026151 0)
(0.306748 -0.0256931 0)
(0.30735 -0.0252034 0)
(0.300709 -0.0315162 0)
(0.302241 -0.031314 0)
(0.303411 -0.0310118 0)
(0.304371 -0.0306504 0)
(0.305286 -0.0302378 0)
(0.306197 -0.0297717 0)
(0.30708 -0.0292523 0)
(0.307914 -0.0286838 0)
(0.308693 -0.0280713 0)
(0.309416 -0.0274224 0)
(0.301317 -0.0357513 0)
(0.303374 -0.0354302 0)
(0.304862 -0.0349824 0)
(0.306044 -0.0344625 0)
(0.307173 -0.0338806 0)
(0.308303 -0.0332335 0)
(0.309398 -0.032522 0)
(0.310425 -0.0317522 0)
(0.311375 -0.0309307 0)
(0.31225 -0.0300679 0)
(0.302496 -0.0411351 0)
(0.305267 -0.0406503 0)
(0.30719 -0.040007 0)
(0.30868 -0.0392728 0)
(0.310103 -0.0384581 0)
(0.311529 -0.0375593 0)
(0.312904 -0.036579 0)
(0.314183 -0.0355268 0)
(0.315354 -0.0344126 0)
(0.316422 -0.0332518 0)
(0.305153 -0.0482078 0)
(0.308877 -0.0474415 0)
(0.311384 -0.0465034 0)
(0.313308 -0.0454722 0)
(0.315141 -0.04435 0)
(0.316962 -0.0431247 0)
(0.318688 -0.0417958 0)
(0.320256 -0.040374 0)
(0.321654 -0.0388691 0)
(0.322879 -0.0373061 0)
(0.31135 -0.0578007 0)
(0.316064 -0.0564292 0)
(0.31901 -0.0548106 0)
(0.321177 -0.0530915 0)
(0.323229 -0.0512868 0)
(0.325244 -0.0493784 0)
(0.327096 -0.0473615 0)
(0.328697 -0.0452486 0)
(0.330033 -0.0430485 0)
(0.331116 -0.0408085 0)
(0.322128 -0.0709059 0)
(0.327491 -0.0689483 0)
(0.330028 -0.0666697 0)
(0.331217 -0.064164 0)
(0.332114 -0.0614319 0)
(0.33289 -0.0584811 0)
(0.3334 -0.0553374 0)
(0.333537 -0.0520333 0)
(0.333301 -0.048568 0)
(0.332696 -0.0450353 0)
(0.320246 -0.0722681 0)
(0.322265 -0.0672623 0)
(0.320841 -0.0629608 0)
(0.318068 -0.0590517 0)
(0.315046 -0.0552286 0)
(0.311863 -0.0514029 0)
(0.308398 -0.0475745 0)
(0.304651 -0.0437415 0)
(0.300759 -0.0398677 0)
(0.296583 -0.0359704 0)
(0.258569 -0.0817495 0)
(0.242275 -0.070942 0)
(0.221989 -0.0614723 0)
(0.204313 -0.0530733 0)
(0.189579 -0.0454634 0)
(0.176632 -0.0385699 0)
(0.164934 -0.0323863 0)
(0.154451 -0.0268658 0)
(0.145063 -0.0218092 0)
(0.136389 -0.0162249 0)
(0.29957 -0.016318 0)
(0.299645 -0.016042 0)
(0.29972 -0.015722 0)
(0.299793 -0.0153651 0)
(0.299861 -0.0149794 0)
(0.299923 -0.0145732 0)
(0.299979 -0.0141549 0)
(0.300028 -0.0137323 0)
(0.300071 -0.0133134 0)
(0.300105 -0.012905 0)
(0.300133 -0.0125141 0)
(0.300152 -0.0121458 0)
(0.300165 -0.0118067 0)
(0.300168 -0.0114995 0)
(0.30017 -0.0112308 0)
(0.300156 -0.0110002 0)
(0.300149 -0.0108153 0)
(0.300117 -0.0106716 0)
(0.300108 -0.0105786 0)
(0.300054 -0.0105281 0)
(0.300037 -0.0164615 0)
(0.30015 -0.0161768 0)
(0.300253 -0.0158468 0)
(0.300343 -0.0154789 0)
(0.30042 -0.0150813 0)
(0.300481 -0.0146623 0)
(0.300528 -0.0142306 0)
(0.300559 -0.0137943 0)
(0.300576 -0.0133616 0)
(0.300578 -0.0129395 0)
(0.300568 -0.0125353 0)
(0.300543 -0.0121541 0)
(0.300512 -0.0118029 0)
(0.300463 -0.0114841 0)
(0.300416 -0.0112048 0)
(0.300345 -0.010964 0)
(0.300293 -0.0107704 0)
(0.300195 -0.0106178 0)
(0.300154 -0.0105188 0)
(0.300014 -0.0104604 0)
(0.300528 -0.016639 0)
(0.300699 -0.0163386 0)
(0.300851 -0.015989 0)
(0.30098 -0.0155986 0)
(0.301083 -0.0151765 0)
(0.30116 -0.0147322 0)
(0.30121 -0.014275 0)
(0.301234 -0.0138137 0)
(0.301234 -0.013357 0)
(0.30121 -0.0129124 0)
(0.301166 -0.0124874 0)
(0.301099 -0.0120873 0)
(0.301021 -0.0117192 0)
(0.300917 -0.0113854 0)
(0.300817 -0.0110933 0)
(0.300679 -0.0108413 0)
(0.300574 -0.0106389 0)
(0.300395 -0.0104785 0)
(0.300316 -0.010375 0)
(0.300065 -0.0103116 0)
(0.301 -0.0169157 0)
(0.301241 -0.0165839 0)
(0.301452 -0.0161983 0)
(0.301627 -0.0157688 0)
(0.301764 -0.0153059 0)
(0.301862 -0.0148203 0)
(0.301921 -0.0143225 0)
(0.301942 -0.0138222 0)
(0.301929 -0.0133288 0)
(0.30188 -0.01285 0)
(0.301805 -0.012394 0)
(0.301697 -0.0119661 0)
(0.301574 -0.0115735 0)
(0.301415 -0.0112184 0)
(0.301262 -0.0109084 0)
(0.301057 -0.0106412 0)
(0.3009 -0.0104271 0)
(0.300638 -0.0102568 0)
(0.30052 -0.0101475 0)
(0.300156 -0.0100785 0)
(0.301485 -0.0172897 0)
(0.301804 -0.0169125 0)
(0.302079 -0.0164755 0)
(0.302305 -0.0159906 0)
(0.302479 -0.0154706 0)
(0.302599 -0.0149277 0)
(0.302667 -0.014374 0)
(0.302683 -0.0138203 0)
(0.302654 -0.013277 0)
(0.302579 -0.0127523 0)
(0.302469 -0.0122548 0)
(0.302317 -0.01179 0)
(0.302146 -0.0113652 0)
(0.30193 -0.0109823 0)
(0.301722 -0.010649 0)
(0.301447 -0.0103624 0)
(0.301235 -0.0101333 0)
(0.300887 -0.00995075 0)
(0.300729 -0.00983387 0)
(0.300249 -0.00975838 0)
(0.302016 -0.0177776 0)
(0.302423 -0.0173368 0)
(0.30277 -0.016829 0)
(0.303051 -0.0162691 0)
(0.303262 -0.0156724 0)
(0.303403 -0.0150534 0)
(0.303476 -0.0144263 0)
(0.303483 -0.0138033 0)
(0.303433 -0.0131957 0)
(0.303325 -0.0126126 0)
(0.303175 -0.0120629 0)
(0.302972 -0.011552 0)
(0.302748 -0.0110874 0)
(0.302467 -0.0106705 0)
(0.302199 -0.0103092 0)
(0.301848 -0.00999925 0)
(0.301578 -0.0097523 0)
(0.301139 -0.00955551 0)
(0.300939 -0.00942986 0)
(0.300335 -0.00934737 0)
(0.302625 -0.0183946 0)
(0.303132 -0.0178676 0)
(0.303559 -0.0172653 0)
(0.303898 -0.0166064 0)
(0.304147 -0.0159098 0)
(0.304305 -0.0151932 0)
(0.304378 -0.014473 0)
(0.304369 -0.013763 0)
(0.30429 -0.0130759 0)
(0.304141 -0.0124212 0)
(0.30394 -0.0118083 0)
(0.303678 -0.0112424 0)
(0.303391 -0.0107309 0)
(0.303038 -0.0102744 0)
(0.302702 -0.00988069 0)
(0.302268 -0.00954437 0)
(0.301934 -0.00927735 0)
(0.301396 -0.00906484 0)
(0.301151 -0.00892958 0)
(0.300415 -0.00883988 0)
(0.303346 -0.0191607 0)
(0.303967 -0.0185182 0)
(0.304481 -0.0177914 0)
(0.304882 -0.0170041 0)
(0.305167 -0.01618 0)
(0.305337 -0.0153404 0)
(0.305401 -0.0145044 0)
(0.305366 -0.013688 0)
(0.305246 -0.0129049 0)
(0.305043 -0.0121651 0)
(0.304781 -0.011478 0)
(0.304447 -0.0108486 0)
(0.304087 -0.0102837 0)
(0.303651 -0.00978293 0)
(0.303239 -0.00935345 0)
(0.302713 -0.00898854 0)
(0.302308 -0.00870004 0)
(0.301664 -0.00847115 0)
(0.301369 -0.00832588 0)
(0.300493 -0.00822919 0)
(0.304219 -0.020099 0)
(0.30497 -0.0193029 0)
(0.305581 -0.0184135 0)
(0.306044 -0.0174615 0)
(0.306359 -0.0164764 0)
(0.306532 -0.015484 0)
(0.306576 -0.0145068 0)
(0.306499 -0.0135625 0)
(0.306323 -0.0126659 0)
(0.306051 -0.0118272 0)
(0.305711 -0.0110556 0)
(0.305292 -0.010355 0)
(0.304845 -0.00973134 0)
(0.304314 -0.00918285 0)
(0.303816 -0.00871567 0)
(0.303188 -0.0083213 0)
(0.302706 -0.0080111 0)
(0.301946 -0.00776618 0)
(0.301599 -0.00761119 0)
(0.300573 -0.0075083 0)
(0.305301 -0.0212355 0)
(0.306198 -0.0202361 0)
(0.306911 -0.0191356 0)
(0.307433 -0.0179737 0)
(0.30777 -0.0167872 0)
(0.30793 -0.0156074 0)
(0.307934 -0.0144601 0)
(0.307797 -0.0133648 0)
(0.307544 -0.0123368 0)
(0.307182 -0.0113858 0)
(0.306746 -0.0105203 0)
(0.306223 -0.0097424 0)
(0.305675 -0.00905669 0)
(0.305036 -0.00845911 0)
(0.304439 -0.00795429 0)
(0.303699 -0.00753146 0)
(0.303132 -0.00720098 0)
(0.30225 -0.00694173 0)
(0.301846 -0.00677828 0)
(0.300662 -0.00667058 0)
(0.306663 -0.0225988 0)
(0.307722 -0.021331 0)
(0.308541 -0.0199572 0)
(0.309115 -0.0185289 0)
(0.309454 -0.0170924 0)
(0.309579 -0.0156851 0)
(0.309518 -0.014336 0)
(0.309293 -0.0130656 0)
(0.308937 -0.0118887 0)
(0.308461 -0.0108137 0)
(0.307907 -0.00984712 0)
(0.30726 -0.00898862 0)
(0.306592 -0.00824032 0)
(0.305829 -0.00759508 0)
(0.305123 -0.00705545 0)
(0.30426 -0.00660755 0)
(0.303601 -0.00626048 0)
(0.302588 -0.00599013 0)
(0.302124 -0.00582083 0)
(0.300774 -0.00571011 0)
(0.308404 -0.0242174 0)
(0.309643 -0.022596 0)
(0.310565 -0.0208697 0)
(0.311174 -0.0191058 0)
(0.311491 -0.0173619 0)
(0.311548 -0.0156819 0)
(0.311388 -0.0140971 0)
(0.311041 -0.0126274 0)
(0.31055 -0.011286 0)
(0.309929 -0.0100782 0)
(0.309229 -0.00900714 0)
(0.308434 -0.00806843 0)
(0.307627 -0.00726086 0)
(0.306722 -0.00657287 0)
(0.305892 -0.00600465 0)
(0.304892 -0.00553768 0)
(0.304133 -0.00518024 0)
(0.302977 -0.00490327 0)
(0.302448 -0.0047322 0)
(0.300917 -0.00461971 0)
(0.310673 -0.0261262 0)
(0.312109 -0.0240383 0)
(0.313131 -0.0218586 0)
(0.313751 -0.0196748 0)
(0.314009 -0.0175573 0)
(0.313955 -0.0155549 0)
(0.31365 -0.0136988 0)
(0.313134 -0.0120063 0)
(0.312464 -0.0104868 0)
(0.311657 -0.00914073 0)
(0.310773 -0.00796588 0)
(0.309794 -0.00695159 0)
(0.308815 -0.0060922 0)
(0.307737 -0.00536999 0)
(0.306757 -0.00478273 0)
(0.305592 -0.00430493 0)
(0.304712 -0.00394554 0)
(0.303381 -0.0036666 0)
(0.302777 -0.00349903 0)
(0.301023 -0.00338341 0)
(0.313756 -0.0283542 0)
(0.315414 -0.0256487 0)
(0.316522 -0.0228843 0)
(0.317107 -0.020177 0)
(0.31724 -0.0176103 0)
(0.317 -0.015233 0)
(0.316469 -0.0130701 0)
(0.315702 -0.0111326 0)
(0.314768 -0.00942341 0)
(0.313691 -0.00793571 0)
(0.312544 -0.00666041 0)
(0.311302 -0.00557863 0)
(0.310078 -0.00467821 0)
(0.308752 -0.00393366 0)
(0.307557 -0.00333978 0)
(0.306152 -0.00286212 0)
(0.305096 -0.00251127 0)
(0.30351 -0.0022358 0)
(0.302793 -0.00207802 0)
(0.300712 -0.00195506 0)
(0.318237 -0.0309673 0)
(0.320108 -0.0274299 0)
(0.321205 -0.0238935 0)
(0.3216 -0.0205171 0)
(0.321421 -0.0173985 0)
(0.320794 -0.0145789 0)
(0.319832 -0.0120688 0)
(0.318607 -0.00986389 0)
(0.317205 -0.00795288 0)
(0.315656 -0.00631922 0)
(0.314051 -0.00494578 0)
(0.312361 -0.00380483 0)
(0.310717 -0.00287428 0)
(0.308973 -0.00212072 0)
(0.307406 -0.00153287 0)
(0.305605 -0.00106937 0)
(0.304243 -0.000740383 0)
(0.302245 -0.000481689 0)
(0.301327 -0.000343109 0)
(0.298727 -0.000216828 0)
(0.324892 -0.0341955 0)
(0.326655 -0.0294552 0)
(0.327278 -0.0248434 0)
(0.326933 -0.0205675 0)
(0.325867 -0.0167218 0)
(0.324292 -0.013333 0)
(0.32237 -0.0103958 0)
(0.320199 -0.00788752 0)
(0.317878 -0.00576986 0)
(0.315444 -0.00400159 0)
(0.312996 -0.00254609 0)
(0.310512 -0.00136735 0)
(0.308133 -0.000431104 0)
(0.305693 0.000301632 0)
(0.303495 0.000858054 0)
(0.301069 0.00127706 0)
(0.299191 0.0015661 0)
(0.296592 0.0017792 0)
(0.295337 0.00188883 0)
(0.292021 0.00199149 0)
(0.332666 -0.0363609 0)
(0.332927 -0.0299638 0)
(0.331577 -0.0240807 0)
(0.329069 -0.018819 0)
(0.325833 -0.0141938 0)
(0.322175 -0.0102043 0)
(0.318302 -0.00684416 0)
(0.314343 -0.0040761 0)
(0.310413 -0.00184107 0)
(0.306546 -6.5366e-05 0)
(0.302813 0.00133158 0)
(0.299185 0.00241163 0)
(0.295781 0.0032325 0)
(0.292446 0.00383266 0)
(0.28945 0.00426354 0)
(0.286331 0.00454257 0)
(0.283843 0.00472469 0)
(0.280687 0.00480006 0)
(0.279033 0.00484223 0)
(0.275147 0.00481106 0)
(0.330967 -0.0376841 0)
(0.325925 -0.0281263 0)
(0.319619 -0.020215 0)
(0.312814 -0.013764 0)
(0.305907 -0.00848617 0)
(0.299117 -0.00419555 0)
(0.292589 -0.000758661 0)
(0.286431 0.00194172 0)
(0.280721 0.00401696 0)
(0.275477 0.00557166 0)
(0.270708 0.00670973 0)
(0.266341 0.00751081 0)
(0.2624 0.0080525 0)
(0.258743 0.00837256 0)
(0.255515 0.00854325 0)
(0.252375 0.00855454 0)
(0.249823 0.00851952 0)
(0.246907 0.00832617 0)
(0.245238 0.00822923 0)
(0.241862 0.00788652 0)
(0.288737 -0.0279468 0)
(0.273649 -0.0174888 0)
(0.259782 -0.00839915 0)
(0.247944 -0.00144161 0)
(0.238081 0.00363847 0)
(0.229821 0.00722299 0)
(0.222881 0.00968425 0)
(0.217071 0.0113159 0)
(0.212246 0.0123442 0)
(0.208253 0.0129289 0)
(0.204961 0.0131867 0)
(0.202231 0.0132011 0)
(0.199985 0.0130477 0)
(0.198095 0.0127636 0)
(0.196568 0.0124133 0)
(0.195221 0.0119719 0)
(0.194215 0.0115649 0)
(0.193179 0.0109995 0)
(0.192629 0.0106884 0)
(0.191669 0.0099046 0)
(0.129409 0.00555501 0)
(0.123169 0.00862936 0)
(0.119089 0.0115293 0)
(0.11517 0.0128836 0)
(0.113139 0.0138595 0)
(0.112499 0.014418 0)
(0.112799 0.0146857 0)
(0.113727 0.0147357 0)
(0.115083 0.0146175 0)
(0.116723 0.0143634 0)
(0.118542 0.0140033 0)
(0.12046 0.0135642 0)
(0.122434 0.0130746 0)
(0.124414 0.012548 0)
(0.126393 0.0120162 0)
(0.128328 0.0114473 0)
(0.130225 0.0109574 0)
(0.132119 0.0102761 0)
(0.1337 0.0100351 0)
(0.136128 0.00890567 0)
(0.0304557 -0.00751575 0)
(0.0342878 0.000864398 0)
(0.0448775 0.00642567 0)
(0.0479467 0.00868016 0)
(0.0513137 0.0101185 0)
(0.0546965 0.0107758 0)
(0.0584285 0.0110797 0)
(0.0624184 0.0111624 0)
(0.0665792 0.0110973 0)
(0.0708138 0.0109198 0)
(0.0750447 0.0106566 0)
(0.0792115 0.0103297 0)
(0.0832769 0.00996074 0)
(0.0872108 0.00956144 0)
(0.0909979 0.00915653 0)
(0.0946429 0.00872083 0)
(0.0980643 0.00835282 0)
(0.101533 0.0078061 0)
(0.10419 0.00768821 0)
(0.108467 0.00662448 0)
(0.00767605 -0.0179558 0)
(0.00859324 -0.00271164 0)
(0.0187702 0.00416908 0)
(0.0230311 0.00708148 0)
(0.0280177 0.00861603 0)
(0.0327831 0.00919643 0)
(0.0377807 0.00941729 0)
(0.0429154 0.00944129 0)
(0.0481292 0.00935084 0)
(0.0533396 0.00917798 0)
(0.0584796 0.00894267 0)
(0.063496 0.00866028 0)
(0.0683548 0.00834638 0)
(0.0730321 0.00800939 0)
(0.0775093 0.00766912 0)
(0.0818084 0.00730417 0)
(0.0858159 0.00699673 0)
(0.0898872 0.0065395 0)
(0.0929639 0.00644567 0)
(0.097936 0.0055367 0)
(-0.00346443 -0.0172143 0)
(-0.00766174 -0.00431699 0)
(-0.000514147 0.0020018 0)
(0.00375801 0.00525392 0)
(0.00960601 0.00674827 0)
(0.0153208 0.00726608 0)
(0.0212791 0.00742563 0)
(0.0273082 0.0074111 0)
(0.0333528 0.00731189 0)
(0.0393355 0.00715806 0)
(0.0451961 0.00696411 0)
(0.0508872 0.0067394 0)
(0.0563775 0.00649378 0)
(0.061648 0.00623241 0)
(0.066678 0.00596952 0)
(0.0715014 0.00568929 0)
(0.075982 0.00545204 0)
(0.080535 0.00510646 0)
(0.0839595 0.00502737 0)
(0.0894741 0.00434265 0)
(-0.00858954 -0.0129109 0)
(-0.0172329 -0.0043334 0)
(-0.0134096 0.000409954 0)
(-0.00963714 0.00332569 0)
(-0.00348176 0.0045698 0)
(0.00280975 0.0050012 0)
(0.00941817 0.00511316 0)
(0.0160733 0.00508687 0)
(0.0227063 0.00500444 0)
(0.0292371 0.00489153 0)
(0.0356094 0.00475739 0)
(0.04178 0.00460633 0)
(0.0477201 0.00444316 0)
(0.0534141 0.00427042 0)
(0.05884 0.00409684 0)
(0.0640394 0.00391287 0)
(0.0688618 0.00375624 0)
(0.0737593 0.00353386 0)
(0.0774417 0.00347895 0)
(0.0833376 0.00304189 0)
(-0.0104899 -0.00717342 0)
(-0.0217547 -0.0031458 0)
(-0.0203518 -0.000474744 0)
(-0.0171511 0.001461 0)
(-0.0109864 0.00227437 0)
(-0.00442212 0.00255655 0)
(0.00253911 0.00260943 0)
(0.00954864 0.00258002 0)
(0.0165166 0.00252732 0)
(0.0233585 0.00246794 0)
(0.0300199 0.00240471 0)
(0.0364612 0.00233698 0)
(0.0426555 0.00226485 0)
(0.0485895 0.00218862 0)
(0.0542409 0.00211167 0)
(0.059655 0.00203088 0)
(0.0646745 0.00196181 0)
(0.069769 0.00186895 0)
(0.0736038 0.00184623 0)
(0.0797157 0.00167149 0)
(-0.0103441 -0.000950676 0)
(-0.0221162 -0.00130043 0)
(-0.021662 -0.000957499 0)
(-0.0188153 -0.000293526 0)
(-0.0127797 -2.7201e-05 0)
(-0.00619183 4.89895e-05 0)
(0.000843037 2.88823e-05 0)
(0.00793536 -3.24422e-06 0)
(0.0149793 -2.13244e-05 0)
(0.0218874 -2.17043e-05 0)
(0.0286076 -9.32647e-06 0)
(0.0351025 1.01258e-05 0)
(0.0413474 3.22628e-05 0)
(0.0473301 5.53948e-05 0)
(0.0530286 7.77505e-05 0)
(0.0584887 0.000102648 0)
(0.0635525 0.000123846 0)
(0.0686905 0.000162983 0)
(0.0725637 0.000175281 0)
(0.0787238 0.000271662 0)
(-0.0083267 0.00484401 0)
(-0.018547 0.00047041 0)
(-0.0174704 -0.00140029 0)
(-0.0146543 -0.00197536 0)
(-0.00882841 -0.00228035 0)
(-0.00244007 -0.00242933 0)
(0.00439731 -0.00252975 0)
(0.0113001 -0.00256605 0)
(0.0181573 -0.00254892 0)
(0.0248834 -0.00248987 0)
(0.0314283 -0.00240224 0)
(0.0377571 -0.00229668 0)
(0.0438464 -0.00218179 0)
(0.0496841 -0.00206101 0)
(0.0552493 -0.00194105 0)
(0.0605846 -0.0018121 0)
(0.065538 -0.00170211 0)
(0.070564 -0.00153226 0)
(0.0743592 -0.0014869 0)
(0.0803987 -0.00111936 0)
(-0.00374676 0.00924653 0)
(-0.0106536 0.00152139 0)
(-0.00770737 -0.00211681 0)
(-0.00468845 -0.00361627 0)
(0.000815532 -0.00442767 0)
(0.00677273 -0.00478596 0)
(0.0131366 -0.00496578 0)
(0.0195741 -0.00500924 0)
(0.0259802 -0.00496097 0)
(0.0322755 -0.00484759 0)
(0.0384126 -0.00469055 0)
(0.0443577 -0.00450523 0)
(0.0500883 -0.00430411 0)
(0.0555908 -0.00409208 0)
(0.0608458 -0.00388066 0)
(0.065889 -0.00365349 0)
(0.0705808 -0.00346038 0)
(0.0753422 -0.00316473 0)
(0.0789473 -0.00309374 0)
(0.084698 -0.00246168 0)
(0.00522568 0.0105791 0)
(0.00256791 0.00149062 0)
(0.00784616 -0.00324446 0)
(0.0110563 -0.00520393 0)
(0.0160039 -0.00638437 0)
(0.0212599 -0.00691953 0)
(0.026859 -0.00717389 0)
(0.0325501 -0.00723126 0)
(0.0382414 -0.00716207 0)
(0.0438613 -0.00700603 0)
(0.0493646 -0.00679174 0)
(0.0547165 -0.00653878 0)
(0.0598943 -0.00626316 0)
(0.0648808 -0.00597118 0)
(0.0696581 -0.00567888 0)
(0.0742508 -0.00536362 0)
(0.0785392 -0.00509681 0)
(0.0828905 -0.00468476 0)
(0.0862043 -0.00459884 0)
(0.0915003 -0.00371668 0)
(0.0222965 0.00480479 0)
(0.0229257 9.53411e-05 0)
(0.0294515 -0.00467799 0)
(0.0324736 -0.00672336 0)
(0.0364697 -0.00808435 0)
(0.0406924 -0.00875091 0)
(0.045217 -0.00907112 0)
(0.0498777 -0.00915108 0)
(0.0545963 -0.00907543 0)
(0.0593071 -0.00889318 0)