/*--------------------------------*- C++ -*----------------------------------*\
| =========                 |                                                 |
| \\      /  F ield         | OpenFOAM: The Open Source CFD Toolbox           |
|  \\    /   O peration     | Version:  v1806                                 |
|   \\  /    A nd           | Web:      www.OpenFOAM.com                      |
|    \\/     M anipulation  |                                                 |
\*---------------------------------------------------------------------------*/
FoamFile
{
    version     2.0;
    format      ascii;
    class       volScalarField;
    location    "4";
    object      p;
}
// * * * * * * * * * * * * * * * * * * * * * * * * * * * * * * * * * * * * * //

dimensions      [0 2 -2 0 0 0 0];


internalField   nonuniform List<scalar> 
4400
(
-0.473367
1.11128
1.09615
0.944669
0.828355
0.739897
0.681915
0.637837
0.592007
0.543931
0.495091
0.445501
0.395108
0.344109
0.292158
0.239584
0.186499
0.1332
0.079696
0.0262461
3.044
1.52249
1.20433
1.05789
0.956204
0.886562
0.815039
0.743208
0.674434
0.609977
0.54837
0.488834
0.430278
0.372642
0.315204
0.258267
0.201249
0.143602
0.0859988
0.0283325
2.44856
1.9467
1.68901
1.47844
1.28689
1.10409
0.953154
0.839054
0.749467
0.670547
0.597639
0.528869
0.462558
0.398232
0.335795
0.274245
0.212955
0.151939
0.0915149
0.0307954
3.12157
2.15364
1.73715
1.47616
1.29625
1.15728
1.03333
0.919465
0.81693
0.725198
0.641958
0.564574
0.491169
0.421156
0.353147
0.286593
0.22139
0.157638
0.0943554
0.0315297
2.53367
2.14784
1.8529
1.64885
1.47871
1.30467
1.13762
0.993734
0.874958
0.773392
0.682523
0.598482
0.519844
0.444755
0.372193
0.30206
0.233551
0.165746
0.098616
0.0326416
2.66858
2.19371
1.85578
1.61574
1.44158
1.29686
1.16184
1.03634
0.919243
0.812823
0.716645
0.628069
0.545072
0.465897
0.390192
0.316595
0.244584
0.173535
0.103656
0.0345544
2.28654
2.04943
1.83774
1.66199
1.51967
1.37254
1.2228
1.08121
0.955094
0.8443
0.744119
0.651813
0.565203
0.482769
0.403648
0.327049
0.252439
0.179404
0.107353
0.035641
2.28839
2.04038
1.80129
1.61919
1.46967
1.33835
1.21305
1.09264
0.977595
0.868077
0.766246
0.671627
0.582552
0.497772
0.416245
0.337457
0.260407
0.184752
0.11031
0.0364963
2.03848
1.89133
1.74489
1.60746
1.48992
1.36993
1.24309
1.11603
0.99607
0.885805
0.784215
0.68897
0.598493
0.51211
0.42876
0.347689
0.268356
0.190528
0.113728
0.0379772
2.00921
1.86664
1.69943
1.56276
1.4402
1.32888
1.21879
1.10978
1.00244
0.89772
0.797047
0.701122
0.60987
0.521984
0.437123
0.354743
0.274143
0.194809
0.116479
0.0388822
1.83983
1.7416
1.63556
1.52988
1.43406
1.3356
1.22963
1.11882
1.0091
0.904243
0.804446
0.709181
0.617591
0.529311
0.4439
0.36034
0.278353
0.19777
0.118391
0.0392359
1.80745
1.71398
1.5962
1.48857
1.38966
1.29552
1.19997
1.10273
1.00461
0.906617
0.809956
0.716089
0.625079
0.536858
0.450659
0.366194
0.283305
0.201585
0.120466
0.0400354
1.68826
1.61807
1.53922
1.45594
1.37521
1.29196
1.20142
1.10462
1.00553
0.90739
0.812342
0.71976
0.62974
0.541651
0.455372
0.370695
0.287078
0.204253
0.122221
0.0407607
1.66228
1.5952
1.50932
1.42279
1.33968
1.25789
1.17335
1.08574
0.995387
0.90409
0.812585
0.722033
0.632785
0.545018
0.458636
0.373375
0.289179
0.205919
0.123363
0.0410692
1.58018
1.52681
1.46476
1.39573
1.32458
1.25043
1.1703
1.08401
0.994148
0.903526
0.813472
0.724399
0.63603
0.548464
0.461812
0.376213
0.291634
0.20773
0.1243
0.0413729
1.56491
1.51231
1.44364
1.36878
1.29787
1.22503
1.14882
1.06925
0.986445
0.900997
0.814022
0.725944
0.637901
0.550559
0.464126
0.378473
0.293464
0.209075
0.125285
0.0417497
1.50488
1.45878
1.40531
1.34711
1.28726
1.22302
1.15147
1.07294
0.989308
0.902755
0.814639
0.726294
0.638432
0.551276
0.464866
0.379259
0.294317
0.209903
0.125772
0.041889
1.48687
1.4409
1.38729
1.3314
1.27532
1.21322
1.144
1.06799
0.986679
0.901294
0.813916
0.726017
0.638568
0.5518
0.465737
0.380223
0.295161
0.210481
0.126124
0.0419709
1.44862
1.40977
1.36993
1.32678
1.2743
1.21398
1.14508
1.0677
0.984264
0.897862
0.810886
0.72421
0.637918
0.552021
0.466382
0.380939
0.295798
0.211018
0.12654
0.0421711
1.49465
1.45591
1.40214
1.33496
1.26109
1.18708
1.1131
1.03816
0.961677
0.883433
0.803098
0.720812
0.636799
0.55177
0.466366
0.381087
0.29606
0.211269
0.126651
0.042242
3.11828
3.88057
4.467
4.91582
5.24145
5.47841
5.64151
5.74565
5.79939
5.80864
5.77648
5.70216
5.58205
5.41114
5.17687
4.87238
4.47087
3.96169
3.30883
2.50845
4.64446
4.82726
4.9777
5.09114
5.18286
5.25147
5.30087
5.33125
5.34286
5.33541
5.30885
5.26308
5.19811
5.11405
5.01057
4.88775
4.7413
4.57798
4.37093
4.17327
3.68157
3.84699
3.99896
4.13347
4.24668
4.33821
4.40734
4.45422
4.47896
4.4816
4.46213
4.42041
4.35611
4.2688
4.15802
4.0227
3.86368
3.67789
3.47145
3.24113
3.67257
3.74958
3.81705
3.87429
3.92155
3.95865
3.9858
4.00305
4.01051
4.00828
3.99651
3.97535
3.945
3.90568
3.85757
3.80099
3.73568
3.66239
3.58031
3.49149
3.09356
3.15377
3.20942
3.25906
3.3015
3.33598
3.36187
3.37874
3.38629
3.38431
3.37265
3.35127
3.32015
3.27936
3.22906
3.16946
3.10109
3.02427
2.94032
2.84891
2.96435
2.99814
3.02784
3.05322
3.07414
3.09051
3.10228
3.10946
3.11205
3.11009
3.10361
3.09266
3.07727
3.05748
3.03332
3.00481
2.9719
2.93465
2.89288
2.84636
2.58947
2.61494
2.63805
2.65828
2.67524
2.68859
2.69805
2.70343
2.70456
2.70133
2.69367
2.68156
2.66502
2.64412
2.61897
2.58973
2.55668
2.52009
2.48038
2.4377
2.48003
2.4963
2.51048
2.52244
2.53211
2.53943
2.54439
2.54696
2.54715
2.54495
2.54037
2.53339
2.52401
2.51221
2.49797
2.48127
2.46208
2.44037
2.41602
2.38878
2.22291
2.23491
2.24555
2.2546
2.26191
2.26731
2.2707
2.27198
2.27107
2.26793
2.26252
2.25486
2.24495
2.23284
2.2186
2.20234
2.18418
2.1643
2.14292
2.12016
2.14471
2.15343
2.16092
2.16711
2.17196
2.17543
2.17752
2.1782
2.17747
2.17531
2.17173
2.1667
2.16021
2.15226
2.14282
2.13187
2.11942
2.10544
2.08984
2.0724
1.96142
1.96768
1.97308
1.97751
1.98089
1.98315
1.98423
1.9841
1.98272
1.98007
1.97613
1.97093
1.96446
1.95677
1.9479
1.93791
1.92686
1.91486
1.90203
1.8885
1.90863
1.91383
1.91822
1.92176
1.92442
1.92619
1.92704
1.92697
1.92597
1.92403
1.92114
1.91729
1.91248
1.90669
1.89992
1.89217
1.88343
1.87372
1.86297
1.85097
1.77516
1.77879
1.78183
1.78423
1.78592
1.78689
1.7871
1.78653
1.78516
1.78298
1.78
1.77621
1.77164
1.7663
1.76022
1.75343
1.74598
1.73791
1.72932
1.72036
1.74245
1.74586
1.74869
1.75092
1.75251
1.75346
1.75375
1.75338
1.75233
1.75061
1.7482
1.7451
1.74131
1.73682
1.73163
1.72574
1.71915
1.71188
1.70391
1.69502
1.64563
1.64796
1.64984
1.65125
1.65216
1.65256
1.65243
1.65175
1.65052
1.64874
1.64641
1.64353
1.64011
1.63617
1.63173
1.6268
1.62142
1.6156
1.60942
1.60303
1.63074
1.63318
1.63515
1.63665
1.63766
1.63816
1.63816
1.63764
1.6366
1.63504
1.63295
1.63034
1.6272
1.62353
1.61934
1.61464
1.60942
1.60371
1.59758
1.59067
1.56263
1.56426
1.56553
1.5664
1.56687
1.56692
1.56654
1.56573
1.56449
1.5628
1.56068
1.55812
1.55514
1.55175
1.54796
1.54378
1.53924
1.53436
1.5292
1.52387
1.55522
1.55701
1.55841
1.5594
1.55997
1.5601
1.5598
1.55904
1.55782
1.55613
1.55397
1.55133
1.5482
1.54458
1.54046
1.53585
1.53075
1.52519
1.51914
1.5123
1.50424
1.50538
1.50622
1.50676
1.50698
1.50687
1.50643
1.50564
1.50449
1.50299
1.50112
1.49889
1.49629
1.49331
1.48996
1.48621
1.48206
1.47745
1.47239
1.46707
1.54013
1.542
1.54352
1.54469
1.54549
1.54588
1.54587
1.54544
1.5446
1.54334
1.54166
1.53958
1.5371
1.53424
1.53102
1.52746
1.5236
1.51949
1.51522
1.51073
1.69541
1.74905
1.80636
1.86947
1.93867
2.01287
2.08907
2.16197
2.2227
2.25824
2.25532
2.20851
2.12471
2.02543
1.93507
1.86482
1.81302
1.78517
1.86175
2.27318
1.67095
1.70337
1.74169
1.78524
1.83272
1.8819
1.93048
1.97716
2.02306
2.07355
2.13947
2.23559
2.37622
2.56988
2.81672
3.10734
3.42945
3.76979
4.10729
4.40782
2.07533
2.13208
2.18969
2.24629
2.29958
2.34684
2.38593
2.41647
2.44108
2.46656
2.5028
2.55805
2.63471
2.7295
2.83475
2.94679
3.06709
3.2001
3.34873
3.51178
1.9929
2.0394
2.08694
2.13527
2.18436
2.23508
2.28944
2.35053
2.42186
2.50622
2.60409
2.71371
2.83129
2.95136
3.06985
3.18438
3.29375
3.39756
3.49564
3.58754
2.10734
2.14816
2.1873
2.22402
2.2583
2.29081
2.32334
2.35845
2.39834
2.44385
2.49435
2.54844
2.60463
2.66192
2.72004
2.77929
2.84007
2.90251
2.96627
3.03045
2.01995
2.05698
2.09469
2.1335
2.1742
2.21777
2.26511
2.31648
2.37152
2.42896
2.48718
2.5447
2.60044
2.65378
2.70459
2.75303
2.79944
2.844
2.88666
2.92698
2.00299
2.03133
2.05872
2.0853
2.11161
2.13831
2.16595
2.19494
2.22541
2.25706
2.28929
2.32147
2.3532
2.38432
2.41488
2.44503
2.47489
2.50449
2.53371
2.5622
1.92286
1.95077
1.97948
2.00917
2.04006
2.07221
2.10541
2.13921
2.173
2.20618
2.23822
2.26877
2.29765
2.32487
2.3506
2.37506
2.39843
2.42076
2.44195
2.46186
1.86276
1.8828
1.90241
1.92176
1.9411
1.96066
1.98056
2.0008
2.02117
2.04142
2.06125
2.08045
2.0989
2.11659
2.13355
2.14988
2.16566
2.18094
2.19569
2.20975
1.79523
1.81626
1.83766
1.85934
1.88127
1.90331
1.92525
1.94685
1.96783
1.98794
2.00701
2.02494
2.04175
2.05751
2.07232
2.08634
2.09962
2.11218
2.12396
2.13485
1.72717
1.7417
1.75599
1.77014
1.78422
1.79827
1.81227
1.82615
1.83979
1.85305
1.8658
1.87797
1.8895
1.90039
1.91068
1.92042
1.92967
1.93843
1.94669
1.95438
1.67293
1.68902
1.70502
1.7209
1.73663
1.75213
1.76725
1.78186
1.79583
1.80906
1.8215
1.83314
1.84399
1.85412
1.86361
1.87252
1.8809
1.88874
1.89602
1.90267
1.61215
1.62316
1.63397
1.64465
1.65519
1.66558
1.67579
1.68575
1.69538
1.70461
1.71339
1.72166
1.72942
1.73667
1.74344
1.74977
1.75569
1.7612
1.76631
1.77097
1.57153
1.58413
1.59644
1.60852
1.62033
1.63181
1.64288
1.65347
1.66351
1.67297
1.68183
1.69009
1.69778
1.70494
1.71162
1.71785
1.72366
1.72905
1.73401
1.73848
1.52344
1.53222
1.54082
1.54925
1.5575
1.56556
1.57338
1.58095
1.5882
1.5951
1.60162
1.60774
1.61345
1.61876
1.62367
1.62822
1.63241
1.63625
1.63975
1.64288
1.49625
1.50672
1.5168
1.52659
1.53608
1.54524
1.55401
1.56235
1.57023
1.57763
1.58454
1.59097
1.59695
1.60249
1.60765
1.61242
1.61684
1.62089
1.62457
1.62786
1.46197
1.46966
1.47714
1.48439
1.49142
1.49823
1.50479
1.51108
1.51707
1.52274
1.52807
1.53304
1.53765
1.54191
1.54583
1.54943
1.5527
1.55566
1.55831
1.56064
1.44578
1.45459
1.46303
1.47115
1.47897
1.48648
1.49365
1.50044
1.50685
1.51285
1.51846
1.52367
1.52851
1.53299
1.53714
1.54096
1.54447
1.54766
1.55053
1.55305
1.42601
1.4321
1.4381
1.4439
1.44949
1.45486
1.46002
1.46495
1.46962
1.47403
1.47816
1.482
1.48556
1.48882
1.49181
1.49453
1.49698
1.49919
1.50113
1.50282
1.43327
1.44209
1.45053
1.45872
1.4666
1.47413
1.48127
1.48799
1.49427
1.50009
1.50547
1.51041
1.51494
1.5191
1.52294
1.52647
1.52973
1.53274
1.53548
1.53795
2.1897
2.45337
2.62297
2.69118
2.70943
2.6887
2.64637
2.59614
2.54305
2.49155
2.44461
2.40387
2.36995
2.34307
2.32281
2.30835
2.29869
2.2929
2.29099
2.2955
2.48773
2.51247
2.54022
2.53364
2.50738
2.4687
2.42246
2.37348
2.32533
2.28068
2.24132
2.20827
2.18158
2.16084
2.1455
2.13487
2.12807
2.12428
2.12346
2.12807
1.90073
1.96757
2.00681
2.02828
2.03244
2.02251
2.00261
1.97666
1.94817
1.91977
1.89325
1.86964
1.84973
1.83368
1.82136
1.81247
1.80659
1.80332
1.80286
1.80778
1.4547
1.4654
1.46511
1.45609
1.44083
1.42136
1.39999
1.37908
1.36057
1.34571
1.33486
1.32837
1.32585
1.3263
1.3287
1.33221
1.33623
1.34025
1.34439
1.35147
0.700286
0.678315
0.65661
0.634129
0.613108
0.595508
0.582636
0.575472
0.574636
0.580238
0.591789
0.608524
0.628893
0.651059
0.673285
0.694136
0.712474
0.727317
0.738248
0.747225
0.0075764
-0.060843
-0.120239
-0.168986
-0.205411
-0.228422
-0.2376
-0.233194
-0.216066
-0.187782
-0.151326
-0.106699
-0.0569932
-0.00565282
0.04414
0.0896775
0.128658
0.158754
0.178168
0.187376
-0.577255
-0.668356
-0.744464
-0.804498
-0.84684
-0.871184
-0.877641
-0.866682
-0.839502
-0.797949
-0.742185
-0.679049
-0.61135
-0.542714
-0.476757
-0.416723
-0.365649
-0.326769
-0.303648
-0.299316
-0.631362
-0.708667
-0.768704
-0.812335
-0.839921
-0.85248
-0.851013
-0.836425
-0.809631
-0.772164
-0.726209
-0.674608
-0.619741
-0.564406
-0.511513
-0.464057
-0.425108
-0.397586
-0.384068
-0.387918
-0.476925
-0.530899
-0.569531
-0.594255
-0.606174
-0.607096
-0.598501
-0.581683
-0.55789
-0.528347
-0.493811
-0.455744
-0.416224
-0.377339
-0.341235
-0.310169
-0.286427
-0.27187
-0.267857
-0.277615
-0.104223
-0.124601
-0.13403
-0.134852
-0.128188
-0.116353
-0.101297
-0.0845254
-0.0669796
-0.0494432
-0.0331594
-0.0189551
-0.0071302
0.00199044
0.00807892
0.0108864
0.0104407
0.00721731
0.00162242
-0.00781658
0.132656
0.133657
0.143518
0.159743
0.180704
0.203628
0.225939
0.245454
0.260693
0.270907
0.275943
0.276114
0.27208
0.264475
0.254222
0.242528
0.23081
0.220521
0.212477
0.206315
0.339114
0.345453
0.356644
0.371135
0.388137
0.405882
0.422424
0.435904
0.444789
0.448085
0.445481
0.437329
0.424469
0.408253
0.39077
0.374021
0.359824
0.349442
0.34329
0.341413
0.379707
0.380378
0.384255
0.39083
0.399593
0.409662
0.419818
0.4288
0.435458
0.438954
0.438864
0.435227
0.428572
0.420086
0.410382
0.401018
0.393526
0.388373
0.385782
0.386345
0.43472
0.425808
0.416818
0.408203
0.400266
0.39325
0.387094
0.381602
0.376439
0.371259
0.365802
0.360011
0.354054
0.348287
0.343412
0.339921
0.337595
0.336385
0.336304
0.337962
0.449142
0.434784
0.419069
0.40287
0.386475
0.370677
0.356181
0.343654
0.33355
0.32606
0.321111
0.318368
0.317289
0.317254
0.317674
0.317817
0.317504
0.31715
0.316892
0.316814
0.505501
0.485652
0.462743
0.437405
0.41008
0.381708
0.353458
0.326521
0.301908
0.280255
0.261748
0.246174
0.233102
0.22212
0.212993
0.205687
0.200521
0.198143
0.19651
0.196625
0.578512
0.55686
0.532006
0.50375
0.472077
0.43744
0.400923
0.364207
0.329416
0.29879
0.274266
0.257025
0.247187
0.243725
0.244589
0.247246
0.249401
0.249132
0.247044
0.242958
0.706174
0.686059
0.662101
0.632845
0.597198
0.554167
0.503371
0.445208
0.380971
0.312739
0.243059
0.174487
0.109159
0.0486296
-0.00588004
-0.0529648
-0.0907359
-0.117839
-0.135067
-0.137816
0.855807
0.837698
0.817199
0.793083
0.763695
0.727236
0.68216
0.627726
0.564194
0.493109
0.417604
0.342542
0.273998
0.217816
0.177712
0.154226
0.145183
0.146861
0.153141
0.134607
1.05532
1.01849
0.975382
0.925987
0.870023
0.806882
0.734787
0.650652
0.550138
0.428112
0.279659
0.101599
-0.10666
-0.343575
-0.606891
-0.894731
-1.2041
-1.52841
-1.86744
-2.33387
0.0328953
0.0995049
0.166272
0.233188
0.300148
0.367538
0.435042
0.502557
0.570343
0.638956
0.70909
0.780069
0.852107
0.926467
1.00375
1.08424
1.17002
1.26312
1.37617
1.54212
0.0341216
0.103151
0.172227
0.241711
0.311081
0.380828
0.451066
0.521813
0.593357
0.666105
0.740858
0.818304
0.898477
0.98247
1.07249
1.17033
1.27716
1.39265
1.49888
1.5954
0.035537
0.106384
0.177201
0.248319
0.31967
0.391384
0.464112
0.538081
0.61353
0.690593
0.769748
0.852167
0.938559
1.02964
1.1278
1.23641
1.35848
1.50806
1.69066
1.90691
0.036151
0.107861
0.180118
0.252685
0.325967
0.399925
0.474806
0.551166
0.629407
0.709864
0.793165
0.879986
0.971571
1.06923
1.17479
1.29118
1.41916
1.55413
1.69653
1.86383
0.0367064
0.110121
0.184238
0.258765
0.333986
0.41021
0.487347
0.565839
0.646237
0.729125
0.815012
0.904535
0.998783
1.09957
1.20872
1.32872
1.46622
1.62347
1.79646
1.98254
0.0374931
0.112947
0.188627
0.264696
0.341256
0.418681
0.497391
0.577594
0.659738
0.74445
0.832161
0.923797
1.02011
1.12245
1.23305
1.35259
1.47895
1.61108
1.75181
1.91205
0.0380134
0.114398
0.190911
0.2679
0.345588
0.424068
0.5038
0.585174
0.668553
0.754347
0.843071
0.935344
1.03215
1.13442
1.24386
1.36291
1.49281
1.63297
1.7752
1.91641
0.0383846
0.115387
0.1927
0.270576
0.349253
0.428925
0.509645
0.591829
0.675942
0.762221
0.851204
0.94339
1.03962
1.14106
1.24775
1.35936
1.47394
1.59083
1.71193
1.84126
0.0389608
0.117025
0.195494
0.274409
0.353776
0.434122
0.515627
0.598306
0.682536
0.768722
0.857202
0.948447
1.04282
1.14123
1.24457
1.35298
1.46713
1.58328
1.69528
1.80136
0.0393448
0.117899
0.196916
0.2763
0.356129
0.436588
0.518106
0.600885
0.68504
0.770972
0.858915
0.949194
1.04223
1.13764
1.23579
1.33526
1.43464
1.53376
1.63266
1.73353
0.0394659
0.11835
0.197524
0.277024
0.357172
0.437942
0.519459
0.602076
0.685834
0.770886
0.857502
0.945802
1.03621
1.12876
1.22308
1.31965
1.417
1.51209
1.60075
1.68218
0.0395593
0.119094
0.198696
0.278572
0.358886
0.439839
0.521404
0.603573
0.686608
0.77062
0.855756
0.942158
1.02956
1.11835
1.20735
1.29538
1.3814
1.46471
1.54563
1.62522
0.039778
0.119506
0.199373
0.279505
0.359842
0.440521
0.521745
0.60348
0.6858
0.768723
0.852181
0.936363
1.02108
1.10616
1.1919
1.27731
1.3611
1.44036
1.51279
1.57797
0.0399443
0.119546
0.199293
0.279216
0.359447
0.439989
0.520844
0.602169
0.683845
0.765849
0.84806
0.930166
1.01231
1.0938
1.17434
1.25298
1.3285
1.40046
1.46865
1.53342
0.0398814
0.119717
0.199581
0.27955
0.359713
0.440154
0.520759
0.6015
0.682432
0.763438
0.844446
0.92502
1.00482
1.08374
1.16122
1.2373
1.31059
1.37892
1.44087
1.496
0.0398228
0.119744
0.199705
0.279734
0.359745
0.439761
0.519939
0.600156
0.680413
0.760554
0.840453
0.919998
0.998388
1.07508
1.14913
1.21977
1.28683
1.35005
1.40941
1.46383
0.0399492
0.11969
0.199494
0.279302
0.359158
0.438986
0.518755
0.598442
0.677918
0.757167
0.835985
0.914314
0.991931
1.06808
1.14207
1.21273
1.27888
1.33901
1.39201
1.43816
0.0399508
0.119706
0.199454
0.279206
0.358999
0.438766
0.518308
0.59764
0.676614
0.755094
0.832946
0.910008
0.986333
1.06148
1.13433
1.20344
1.26732
1.32486
1.37538
1.41883
0.039864
0.119682
0.199451
0.279219
0.358907
0.438449
0.517814
0.596903
0.675554
0.753545
0.830683
0.906721
0.981464
1.05495
1.12692
1.19631
1.26091
1.3182
1.36696
1.40749
0.0398645
0.119627
0.199381
0.2791
0.358706
0.438142
0.517396
0.596312
0.674715
0.752402
0.829034
0.904095
0.976774
1.04632
1.11248
1.17543
1.23576
1.29398
1.35107
1.40525
0.0727665
0.198615
0.311341
0.413027
0.503683
0.582803
0.647813
0.701754
0.746625
0.787327
0.821779
0.859353
0.882808
0.913343
0.952307
1.00502
1.09242
1.2843
1.60564
0.928722
0.0677722
0.185249
0.290475
0.384488
0.470033
0.546588
0.611156
0.666851
0.712869
0.755357
0.792378
0.833878
0.864759
0.911545
0.955737
1.0166
1.10836
1.24228
1.47419
1.86086
0.0616025
0.171424
0.270092
0.358419
0.437961
0.511635
0.57483
0.63165
0.678736
0.723302
0.76145
0.802261
0.83676
0.887759
0.933146
1.01488
1.13303
1.27297
1.45071
1.65741
0.0549917
0.156896
0.249469
0.334135
0.408805
0.479384
0.540044
0.596213
0.643447
0.688525
0.72626
0.764247
0.800654
0.846641
0.880694
0.940408
1.01493
1.09888
1.21073
1.39315
0.0493148
0.14322
0.229557
0.310771
0.38252
0.449719
0.507499
0.562018
0.608356
0.651962
0.688296
0.721047
0.753747
0.787943
0.816826
0.856132
0.883974
0.893239
0.909991
0.798775
0.0455706
0.132189
0.21253
0.289373
0.358557
0.422211
0.47722
0.529344
0.573649
0.614284
0.649419
0.677692
0.704277
0.719766
0.731194
0.731546
0.70192
0.643467
0.546198
0.236949
0.0432539
0.123473
0.198911
0.270617
0.336266
0.396916
0.44956
0.498798
0.540838
0.577419
0.609496
0.633215
0.653476
0.657618
0.657514
0.629637
0.56317
0.449889
0.257431
-0.241638
0.0407179
0.115448
0.187231
0.253736
0.31536
0.373583
0.424124
0.470456
0.511514
0.545666
0.574989
0.595302
0.608197
0.603358
0.590025
0.543492
0.462345
0.338819
0.119693
-0.354565
0.037537
0.108148
0.17662
0.239096
0.297919
0.353754
0.402889
0.446516
0.486157
0.51862
0.545376
0.564407
0.573916
0.569263
0.551785
0.504414
0.429637
0.319394
0.115112
-0.275623
0.0345076
0.102043
0.166816
0.226903
0.284132
0.337542
0.38689
0.429644
0.467867
0.499642
0.524616
0.542225
0.548189
0.54346
0.521997
0.481463
0.421476
0.333929
0.183193
-0.030582
0.0324026
0.097243
0.158658
0.217185
0.272794
0.323954
0.373431
0.416515
0.454181
0.486327
0.511609
0.530214
0.537694
0.536329
0.517633
0.488107
0.441429
0.368831
0.262305
0.142222
0.0311537
0.0933904
0.152901
0.210388
0.264787
0.314975
0.36359
0.407512
0.446221
0.479053
0.504669
0.52355
0.532926
0.53333
0.519676
0.49849
0.462526
0.409916
0.351635
0.315983
0.0302452
0.0902787
0.148982
0.206191
0.26056
0.31108
0.358466
0.402698
0.443128
0.477608
0.50552
0.527063
0.541115
0.546038
0.540337
0.524614
0.49574
0.453363
0.409286
0.377975
0.0299831
0.0892072
0.147481
0.205063
0.260209
0.312168
0.359871
0.404492
0.445895
0.481988
0.512395
0.535844
0.552929
0.561727
0.563082
0.552986
0.534321
0.5082
0.480184
0.453871
0.0302239
0.0896893
0.147605
0.205084
0.260625
0.314208
0.364185
0.410925
0.454252
0.49392
0.5292
0.557553
0.579724
0.594525
0.602167
0.597961
0.584945
0.563896
0.533045
0.489857
0.0302665
0.0901045
0.148454
0.205711
0.261767
0.316737
0.369462
0.419337
0.465509
0.508643
0.548315
0.582604
0.610917
0.633111
0.648228
0.653721
0.649421
0.637375
0.611219
0.561525
0.0302078
0.0905225
0.150575
0.209292
0.267211
0.324003
0.379452
0.433022
0.483795
0.531498
0.57644
0.618338
0.654939
0.685495
0.708818
0.723864
0.726398
0.716719
0.690517
0.640442
0.0309928
0.0928197
0.154948
0.21614
0.276508
0.335533
0.39342
0.45002
0.504937
0.557388
0.607302
0.655651
0.700891
0.741751
0.777373
0.806964
0.82489
0.826914
0.807376
0.757933
0.0323013
0.09619
0.159816
0.222798
0.285304
0.346969
0.4079
0.468008
0.527425
0.586034
0.642899
0.698516
0.753082
0.805038
0.852979
0.896903
0.934454
0.957643
0.952921
0.902584
0.0327249
0.0978898
0.162674
0.227106
0.291582
0.355959
0.420054
0.483739
0.547309
0.611188
0.67502
0.738217
0.801911
0.866283
0.930411
0.99397
1.05841
1.1211
1.17032
1.14976
0.112727
0.306868
0.484482
0.632227
0.768827
0.877938
0.979914
1.05981
1.12795
1.18335
1.2184
1.2465
1.24665
1.23788
1.19607
1.13636
1.04295
0.970162
0.910439
0.907823
0.112915
0.308365
0.485736
0.633863
0.769272
0.877596
0.978698
1.05564
1.12359
1.1747
1.2084
1.23212
1.22855
1.2153
1.1676
1.10023
0.997814
0.920861
0.859226
0.883408
0.112891
0.308861
0.48569
0.633675
0.767653
0.874885
0.974602
1.0486
1.11583
1.16245
1.19477
1.21352
1.20672
1.18897
1.13483
1.0581
0.947976
0.862505
0.797767
0.824829
0.112606
0.308347
0.48436
0.631579
0.763984
0.869808
0.967663
1.03882
1.10473
1.14686
1.17749
1.19081
1.1813
1.15841
1.09683
1.01127
0.894452
0.794041
0.725357
0.76204
0.112037
0.306942
0.481762
0.62774
0.758348
0.862568
0.958098
1.02669
1.09071
1.12853
1.15729
1.16496
1.15337
1.12373
1.05483
0.962177
0.838162
0.717908
0.644087
0.67748
0.111148
0.3047
0.477907
0.622279
0.75086
0.853334
0.94626
1.01245
1.07419
1.10779
1.1347
1.13672
1.12319
1.08579
1.01166
0.912677
0.780221
0.637136
0.559389
0.587841
0.109976
0.30173
0.472923
0.615394
0.741801
0.84236
0.932622
0.996484
1.05578
1.08536
1.1105
1.10712
1.09144
1.04711
0.970716
0.865085
0.722164
0.553788
0.47484
0.484853
0.108544
0.298075
0.466904
0.607223
0.731347
0.829779
0.917451
0.979053
1.03581
1.06188
1.08496
1.07657
1.05861
1.00911
0.932242
0.8193
0.663592
0.469848
0.391385
0.373511
0.10688
0.293769
0.459911
0.597881
0.719597
0.815742
0.90087
0.960496
1.01464
1.03803
1.05866
1.04577
1.0262
0.972774
0.895263
0.774585
0.607731
0.397333
0.30769
0.255253
0.104976
0.288794
0.451932
0.587423
0.706552
0.800352
0.882943
0.94096
0.992549
1.01411
1.03241
1.01597
0.996235
0.939635
0.859972
0.731786
0.562152
0.355346
0.230212
0.138435
0.102829
0.283164
0.443014
0.575983
0.692385
0.783863
0.863995
0.920642
0.969921
0.990257
1.00674
0.988255
0.969766
0.910909
0.828124
0.694571
0.533191
0.341672
0.160733
0.0432449
0.100465
0.276924
0.433283
0.56375
0.677395
0.766617
0.844523
0.899889
0.947226
0.966915
0.982
0.962977
0.946412
0.886829
0.803385
0.671423
0.524784
0.340115
0.0829268
0.000964405
0.0979196
0.270091
0.422811
0.550781
0.661712
0.748773
0.824741
0.878926
0.924834
0.944669
0.958967
0.940615
0.925882
0.86755
0.790524
0.672818
0.542363
0.333271
-0.0319902
0.0335201
0.0951965
0.262613
0.411506
0.536906
0.645175
0.730179
0.804402
0.85752
0.902611
0.923593
0.938421
0.922128
0.909077
0.853607
0.7893
0.697471
0.596785
0.338368
-0.151755
0.175473
0.0923253
0.254497
0.399296
0.522036
0.627744
0.710834
0.783432
0.835476
0.88018
0.903085
0.919916
0.907574
0.896999
0.845754
0.796594
0.734864
0.676731
0.416883
0.0185774
0.463365
0.0894125
0.245875
0.386285
0.506307
0.609647
0.691108
0.762285
0.813208
0.857712
0.882878
0.902371
0.895654
0.889478
0.845396
0.811098
0.770937
0.746576
0.558021
0.605267
0.839571
0.086552
0.236889
0.372614
0.489824
0.59103
0.671342
0.741375
0.791416
0.835987
0.863697
0.885825
0.885722
0.885338
0.852592
0.834309
0.807235
0.782227
0.632343
1.00923
1.03891
0.0836868
0.227666
0.358381
0.472618
0.5718
0.651561
0.72054
0.770427
0.81536
0.846257
0.871144
0.878901
0.884036
0.865129
0.865281
0.852376
0.80648
0.639293
1.11516
0.965743
0.0805573
0.218481
0.343807
0.454894
0.55184
0.631644
0.699298
0.750042
0.795163
0.829874
0.857866
0.875379
0.885369
0.881293
0.899685
0.904396
0.849612
0.655253
1.12258
0.403076
0.076948
0.209728
0.329426
0.436954
0.531236
0.61122
0.677362
0.72963
0.774432
0.812597
0.843514
0.871355
0.886512
0.897865
0.928971
0.956482
0.935234
0.821923
1.14115
-0.678928
0.000781101
0.00229825
0.00375316
0.00514739
0.00648335
0.00776171
0.00898173
0.0101425
0.011243
0.0122824
0.0132598
0.0141745
0.015026
0.0158137
0.0165375
0.017197
0.0177922
0.0183231
0.0187897
0.0191919
0.00230379
0.00680217
0.0111481
0.0153354
0.0193615
0.0232232
0.0269161
0.0304359
0.0337781
0.0369388
0.0399143
0.0427016
0.0452984
0.0477027
0.0499132
0.051929
0.0537495
0.0553745
0.0568043
0.0580391
0.00379691
0.0112443
0.0184873
0.0255033
0.0322761
0.038791
0.0450346
0.0509948
0.0566612
0.0620245
0.0670772
0.0718128
0.0762263
0.0803138
0.0840725
0.0875004
0.0905964
0.09336
0.0957909
0.0978896
0.00536555
0.0159066
0.0261867
0.0361684
0.0458217
0.0551199
0.0640395
0.07256
0.0806637
0.0883356
0.0955634
0.102337
0.108649
0.114493
0.119866
0.124764
0.129186
0.133132
0.136602
0.139597
0.00706436
0.0209462
0.0344967
0.0476649
0.0604066
0.0726828
0.0844594
0.0957071
0.106401
0.11652
0.126047
0.134969
0.143277
0.150963
0.158023
0.164453
0.170255
0.175427
0.179972
0.183892
0.00895414
0.0265364
0.0436938
0.060362
0.0764819
0.0920021
0.106878
0.12107
0.134548
0.147286
0.159263
0.170463
0.180877
0.190497
0.19932
0.207345
0.214575
0.221013
0.226663
0.231531
0.0111012
0.0328644
0.0540748
0.0746556
0.0945309
0.113636
0.131916
0.149324
0.165822
0.181381
0.195979
0.209601
0.222237
0.233883
0.244541
0.254215
0.262911
0.270639
0.27741
0.283234
0.0135858
0.040153
0.0659898
0.0910085
0.115113
0.138226
0.160282
0.181227
0.20102
0.21963
0.237036
0.253226
0.268197
0.281951
0.294498
0.30585
0.316026
0.325044
0.332924
0.339688
0.0165091
0.0486767
0.0798645
0.109978
0.138896
0.166529
0.192802
0.217659
0.241055
0.262963
0.283367
0.302265
0.319663
0.335577
0.35003
0.363052
0.374675
0.384935
0.393869
0.401513
0.0200011
0.0587805
0.0962278
0.13225
0.16669
0.199454
0.230459
0.259649
0.286984
0.312444
0.336027
0.357745
0.377623
0.395697
0.412014
0.426627
0.439594
0.450978
0.46084
0.469241
0.0242302
0.0708982
0.115737
0.158667
0.19948
0.238093
0.27442
0.30841
0.340037
0.369298
0.396212
0.420814
0.443159
0.463314
0.48136
0.497387
0.511491
0.523772
0.534332
0.54327
0.0294096
0.085563
0.139192
0.190247
0.238438
0.283734
0.326042
0.365339
0.401618
0.434907
0.465256
0.492737
0.517445
0.539493
0.559009
0.576134
0.591022
0.603828
0.61471
0.623828
0.0357936
0.103392
0.167519
0.228149
0.284875
0.337803
0.386817
0.431956
0.473244
0.510755
0.544584
0.574853
0.601711
0.62533
0.645903
0.663643
0.678779
0.691548
0.702188
0.710945
0.0436502
0.125007
0.201668
0.273541
0.34008
0.40169
0.45817
0.509703
0.556341
0.598232
0.635524
0.668404
0.697083
0.721809
0.742858
0.760537
0.775182
0.787145
0.79677
0.804434
0.053192
0.150856
0.242379
0.327253
0.40492
0.476319
0.540993
0.599479
0.651774
0.698181
0.738874
0.774126
0.804206
0.829439
0.850194
0.866893
0.880013
0.89009
0.897625
0.903276
0.0644238
0.180917
0.28969
0.389064
0.47904
0.561229
0.634622
0.700578
0.758732
0.809787
0.853797
0.891195
0.922229
0.947315
0.96688
0.981471
0.991744
0.998544
1.00262
1.00498
0.076951
0.214326
0.342207
0.456793
0.560007
0.653501
0.735724
0.809502
0.873403
0.929187
0.976275
1.01557
1.04701
1.07121
1.08855
1.09977
1.10591
1.10861
1.10917
1.11028
0.0898565
0.248952
0.396168
0.525391
0.642217
0.746199
0.836804
0.918113
0.986908
1.04713
1.09629
1.13658
1.16665
1.18758
1.199
1.20172
1.19692
1.18689
1.17585
1.16824
0.101599
0.280545
0.444396
0.585894
0.714826
0.826298
0.92433
1.01104
1.08299
1.14649
1.19564
1.23577
1.26206
1.27769
1.28039
1.272
1.25398
1.23047
1.20838
1.19501
0.109715
0.301799
0.476515
0.625081
0.760781
0.873908
0.97589
1.06169
1.13249
1.19388
1.23629
1.2706
1.28333
1.28364
1.25934
1.21586
1.14919
1.08136
1.01795
0.992212
0.019428
0.0195528
0.0196676
0.0197723
0.0198669
0.0199515
0.020026
0.0200904
0.0201448
0.0201891
0.0202234
0.0202476
0.0202619
0.020266
0.0202602
0.0202444
0.0202185
0.0201827
0.0201369
0.0200812
0.0587673
0.059152
0.0595055
0.0598278
0.0601191
0.0603792
0.0606084
0.0608064
0.0609735
0.0611096
0.0612147
0.0612889
0.0613321
0.0613444
0.0613258
0.0612762
0.0611956
0.0610841
0.0609417
0.0607681
0.0991262
0.0997797
0.10038
0.100928
0.101423
0.101865
0.102255
0.102591
0.102875
0.103107
0.103286
0.103412
0.103486
0.103507
0.103475
0.103391
0.103255
0.103065
0.102824
0.102529
0.141362
0.142294
0.143151
0.143932
0.144638
0.145269
0.145824
0.146304
0.146709
0.147039
0.147294
0.147474
0.147578
0.147608
0.147563
0.147443
0.147248
0.146978
0.146632
0.146212
0.1862
0.187419
0.18854
0.189561
0.190484
0.191308
0.192034
0.192661
0.19319
0.193621
0.193954
0.194189
0.194326
0.194364
0.194305
0.194148
0.193892
0.193539
0.193088
0.192538
0.234394
0.235907
0.237296
0.238562
0.239706
0.240727
0.241626
0.242403
0.243058
0.243592
0.244004
0.244294
0.244463
0.244511
0.244438
0.244243
0.243926
0.243488
0.242929
0.242247
0.286656
0.288462
0.290121
0.291632
0.292996
0.294214
0.295286
0.296212
0.296993
0.297629
0.29812
0.298467
0.298669
0.298726
0.298639
0.298407
0.29803
0.297508
0.296841
0.296029
0.343653
0.345746
0.347666
0.349415
0.350993
0.352401
0.353641
0.354712
0.355615
0.35635
0.356919
0.35732
0.357555
0.357623
0.357524
0.357258
0.356825
0.356224
0.355455
0.354517
0.405984
0.408341
0.410502
0.412469
0.414244
0.415827
0.41722
0.418424
0.41944
0.420268
0.420909
0.421363
0.421631
0.421712
0.421606
0.421313
0.420832
0.420162
0.419303
0.418254
0.474136
0.476715
0.479077
0.481225
0.483163
0.484891