/*--------------------------------*- C++ -*----------------------------------*\
| =========                 |                                                 |
| \\      /  F ield         | OpenFOAM: The Open Source CFD Toolbox           |
|  \\    /   O peration     | Version:  v1806                                 |
|   \\  /    A nd           | Web:      www.OpenFOAM.com                      |
|    \\/     M anipulation  |                                                 |
\*---------------------------------------------------------------------------*/
FoamFile
{
    version     2.0;
    format      ascii;
    class       volScalarField;
    location    "12";
    object      p;
}
// * * * * * * * * * * * * * * * * * * * * * * * * * * * * * * * * * * * * * //

dimensions      [0 2 -2 0 0 0 0];


internalField   nonuniform List<scalar> 
2400
(
0.000834389
0.00264879
0.0019309
0.0021723
0.00170235
0.00311889
0.00276189
0.00420628
0.00342484
0.00575568
0.00563234
0.00813057
0.00746791
0.0103807
0.0103854
0.0121949
0.011364
0.0101076
0.0070506
0.00220616
0.00290508
0.00771705
0.00519985
0.00645004
0.00540074
0.00930968
0.00783652
0.0123299
0.0112028
0.0177157
0.0162232
0.023594
0.0224661
0.0321799
0.0311962
0.0360189
0.033092
0.031002
0.0252023
0.0111835
0.0051033
0.0124368
0.00870909
0.0106588
0.00901465
0.015136
0.0131822
0.0204453
0.0185249
0.0289439
0.0270406
0.0393626
0.0374247
0.0533135
0.0510832
0.0608879
0.0550948
0.0522635
0.0388235
0.0163127
0.00760158
0.0168281
0.0119121
0.0147104
0.0127569
0.020783
0.0184354
0.0281326
0.0260022
0.0400838
0.0377531
0.0546694
0.05211
0.0746686
0.0708271
0.0864391
0.0764274
0.0755707
0.0575724
0.0253432
0.0103998
0.0207768
0.0150864
0.0186289
0.0165541
0.0261017
0.0237397
0.0355792
0.0334001
0.0506835
0.0483398
0.0698371
0.066748
0.0957496
0.0900531
0.112974
0.0978064
0.101032
0.0714804
0.0318766
0.0135109
0.02428
0.0180736
0.0223657
0.0204624
0.0311612
0.0290167
0.0425815
0.0407454
0.0608841
0.0588851
0.0845089
0.0812033
0.116679
0.109212
0.140387
0.119138
0.129653
0.0895696
0.0444
0.0169498
0.0272439
0.0209084
0.0259066
0.0244723
0.0359145
0.0343059
0.049166
0.0480669
0.0704606
0.0693304
0.0986533
0.0956747
0.137055
0.128474
0.168534
0.141066
0.161782
0.102549
0.0552846
0.0207228
0.029629
0.0235706
0.0292094
0.0285818
0.0403924
0.0396088
0.0552846
0.0553542
0.079401
0.0797278
0.112021
0.110248
0.156803
0.148112
0.197237
0.163795
0.197914
0.121005
0.075345
0.0248305
0.0313826
0.0260637
0.0322688
0.0327556
0.0445797
0.0449219
0.0609493
0.0626135
0.0876894
0.0900125
0.124583
0.1245
0.176037
0.167779
0.226621
0.18693
0.23864
0.131775
0.105161
0.0292489
0.0324968
0.0284711
0.0350312
0.0369944
0.0484089
0.0503004
0.0660906
0.0699635
0.0951999
0.100384
0.136125
0.13951
0.193828
0.188581
0.255353
0.213166
0.281187
0.146876
0.146237
0.0339009
0.0330384
0.0309318
0.0375048
0.0412621
0.0518559
0.0556805
0.0707516
0.0773314
0.102024
0.110708
0.146611
0.154196
0.210307
0.21027
0.283399
0.242718
0.325814
0.167359
0.189099
0.0386466
0.0330738
0.0336324
0.0396981
0.0456376
0.0548121
0.0611656
0.074921
0.084746
0.10808
0.121083
0.155994
0.169033
0.225555
0.232486
0.310759
0.274478
0.373695
0.190106
0.246602
0.0433061
0.0328587
0.0366153
0.0416129
0.0502648
0.0572212
0.0665846
0.0785626
0.0923634
0.113318
0.131638
0.164212
0.184481
0.239131
0.256369
0.336028
0.311081
0.42222
0.220279
0.318052
0.047793
0.0326861
0.0397912
0.0433466
0.0550037
0.0589969
0.0727951
0.0814
0.100502
0.117774
0.142442
0.171365
0.200617
0.25103
0.282593
0.35913
0.353093
0.471407
0.262268
0.405143
0.0519851
0.0327414
0.0429957
0.0450727
0.0595324
0.0605451
0.0787341
0.0837235
0.109048
0.121231
0.154118
0.177175
0.216898
0.26145
0.308145
0.379971
0.397275
0.51796
0.317222
0.510421
0.0557819
0.0330371
0.0462935
0.0467409
0.0639349
0.0619622
0.0845775
0.085809
0.117473
0.123878
0.167178
0.181066
0.238111
0.269345
0.339904
0.398295
0.456611
0.559023
0.396203
0.635702
0.0588861
0.0335661
0.0493431
0.0484501
0.0679813
0.0634952
0.0897818
0.0881323
0.124966
0.12654
0.177459
0.185585
0.256274
0.275881
0.371854
0.413562
0.511258
0.592976
0.487761
0.691937
0.0613231
0.0341137
0.0521033
0.0498211
0.0716791
0.0649507
0.0949115
0.0900697
0.132418
0.128918
0.189331
0.188907
0.276365
0.280415
0.413238
0.420128
0.612305
0.619744
0.712228
0.777353
0.0630603
0.034797
0.0543345
0.0509116
0.0745371
0.0663453
0.0987814
0.0917993
0.138154
0.131577
0.197771
0.192987
0.291523
0.287134
0.44222
0.440246
0.690237
0.680708
0.841275
0.910856
0.0640673
0.035752
0.0560419
0.0517526
0.0766558
0.0675386
0.101867
0.0929197
0.142415
0.133617
0.204619
0.194935
0.30339
0.290383
0.46859
0.44571
0.783516
0.685804
1.34837
-0.634314
0.0379959
0.0296185
0.010731
-0.000224562
-0.00339038
-0.00369567
-0.00382766
-0.00429568
-0.00490301
-0.00546375
-0.0381048
-0.0330337
-0.0166764
-0.00788437
-0.00693897
-0.00929188
-0.0121515
-0.0146436
-0.0168395
-0.0188487
0.0420077
0.0299146
0.00587659
-0.00973386
-0.0166485
-0.0198149
-0.0223762
-0.0252811
-0.0284663
-0.0316639
-0.0368838
-0.0352496
-0.0226198
-0.0174804
-0.020003
-0.0255413
-0.0313414
-0.0365852
-0.0413938
-0.0459078
0.0432647
0.0277942
0.000218881
-0.019178
-0.0300092
-0.0370075
-0.0431623
-0.049355
-0.0555224
-0.0614359
-0.0324544
-0.0351341
-0.0275525
-0.0275522
-0.0351135
-0.0453613
-0.055405
-0.0643948
-0.0724668
-0.0798063
0.0486312
0.0283216
-0.00484149
-0.0303574
-0.0476898
-0.0606273
-0.0717813
-0.0821059
-0.0917769
-0.10076
-0.022008
-0.0318517
-0.0337951
-0.0432172
-0.0585385
-0.0750079
-0.0899481
-0.102766
-0.113888
-0.123879
0.0535713
0.0192103
-0.0303184
-0.0692322
-0.0952017
-0.111744
-0.123633
-0.134161
-0.144828
-0.155931
0.0599579
0.0118769
-0.0537557
-0.104176
-0.135353
-0.152103
-0.162293
-0.17147
-0.181991
-0.194143
0.0540489
-0.00518505
-0.079251
-0.135336
-0.17004
-0.188926
-0.200555
-0.210873
-0.222382
-0.235482
0.0415449
-0.0329683
-0.116441
-0.177949
-0.215605
-0.236511
-0.250067
-0.262341
-0.275736
-0.290503
0.0107413
-0.0829934
-0.175729
-0.240527
-0.277818
-0.297894
-0.311639
-0.325102
-0.340239
-0.356793
-0.0468261
-0.164739
-0.266484
-0.33095
-0.362371
-0.376261
-0.385986
-0.397566
-0.412179
-0.428959
-0.139198
-0.287624
-0.402106
-0.466718
-0.490907
-0.495685
-0.495643
-0.497445
-0.502599
-0.510965
-0.260074
-0.443075
-0.569548
-0.635108
-0.658975
-0.666555
-0.670846
-0.676883
-0.684294
-0.692284
-0.489231
-0.667996
-0.742786
-0.733696
-0.695835
-0.663334
-0.644768
-0.639973
-0.643778
-0.653102
-1.16837
-1.45048
-1.53341
-1.46207
-1.3464
-1.24404
-1.16556
-1.10862
-1.06394
-1.02657
-0.965813
-1.17879
-1.16732
-1.06081
-0.968295
-0.908268
-0.878584
-0.863867
-0.858033
-0.856552
-4.04969
-3.82625
-2.91041
-2.2392
-1.84895
-1.62404
-1.44965
-1.29036
-1.14248
-1.01116
-0.00751116
-0.00976573
-0.011239
-0.0113821
-0.0109437
-0.010721
-0.00891193
-0.00627011
-0.00400785
-0.00112581
0.00420486
0.00993617
0.0156426
0.0194705
0.0234949
0.0237427
0.0242328
0.0208145
0.0208112
0.00981545
-0.023944
-0.0300585
-0.0340944
-0.0345771
-0.0331343
-0.0318369
-0.0268756
-0.0198439
-0.0133282
-0.00442938
0.0102889
0.0259475
0.0405675
0.0517701
0.0602584
0.0604364
0.0583557
0.0513082
0.0437493
0.0181116
-0.0404271
-0.0507574
-0.0574787
-0.0581947
-0.0558096
-0.0535
-0.0455883
-0.0342827
-0.0236897
-0.00924378
0.013786
0.0387838
0.0617102
0.07928
0.0914233
0.0930445
0.0890884
0.0773489
0.0641285
0.0295307
-0.0582325
-0.0728947
-0.0820075
-0.0827396
-0.0795616
-0.0757058
-0.0644952
-0.0499688
-0.0363524
-0.0162092
0.0149746
0.0485386
0.0794875
0.103603
0.118463
0.118906
0.11191
0.0972236
0.074412
0.0282682
-0.0776087
-0.0967277
-0.108103
-0.108432
-0.104482
-0.0991375
-0.0846792
-0.0673598
-0.0512191
-0.0258896
0.0132723
0.0560139
0.0949292
0.123803
0.140443
0.141331
0.132854
0.113255
0.0871341
0.0371226
-0.0995603
-0.123124
-0.136386
-0.13583
-0.130938
-0.123547
-0.105585
-0.086455
-0.0689764
-0.0386587
0.00859808
0.0602664
0.107558
0.142496
0.161136
0.16135
0.150628
0.128748
0.0918372
0.0323307
-0.124456
-0.15249
-0.167062
-0.165187
-0.159104
-0.149032
-0.127831
-0.108089
-0.0899402
-0.0554781
-8.91767e-05
0.0624968
0.119068
0.158365
0.179228
0.18017
0.167172
0.139781
0.102018
0.0400005
-0.152434
-0.185349
-0.200377
-0.196361
-0.189108
-0.175784
-0.150867
-0.132577
-0.115755
-0.0767313
-0.0120814
0.0613868
0.128378
0.174125
0.197086
0.198516
0.184448
0.153453
0.103002
0.0345353
-0.187758
-0.223488
-0.237751
-0.230585
-0.220949
-0.20369
-0.175486
-0.160021
-0.14669
-0.104993
-0.029121
0.0584598
0.135729
0.187687
0.215778
0.218013
0.199565
0.162372
0.112662
0.0411012
-0.228991
-0.266725
-0.278761
-0.26749
-0.254525
-0.231409
-0.199844
-0.190839
-0.183735
-0.140676
-0.0529077
0.0515831
0.142871
0.202062
0.234168
0.238628
0.218601
0.173526
0.110409
0.0366771
-0.275245
-0.314862
-0.323511
-0.306999
-0.289195
-0.258612
-0.223966
-0.225646
-0.230058
-0.186688
-0.0835807
0.0400922
0.146398
0.217108
0.25669
0.259827
0.233551
0.182778
0.119423
0.041605
-0.332985
-0.37149
-0.374115
-0.350165
-0.325124
-0.283481
-0.246364
-0.26546
-0.287361
-0.246956
-0.125103
0.0232247
0.147986
0.232223
0.280641
0.28585
0.253128
0.19082
0.117141
0.0396582
-0.401031
-0.437745
-0.43345
-0.398197
-0.361358
-0.303035
-0.263451
-0.310611
-0.361235
-0.324205
-0.178225
-0.000141946
0.149082
0.25148
0.307067
0.30844
0.267846
0.200545
0.124178
0.0426927
-0.473522
-0.51161
-0.50662
-0.458402
-0.401726
-0.318658
-0.274994
-0.362933
-0.458232
-0.434118
-0.254847
-0.0361245
0.145097
0.270706
0.337283
0.333638
0.282024
0.20503
0.123616
0.0422628
-0.54118
-0.57343
-0.560517
-0.498954
-0.423222
-0.306742
-0.268107
-0.422954
-0.578572
-0.570079
-0.356054
-0.0859699
0.140379
0.294579
0.365159
0.352454
0.29246
0.210623
0.126519
0.0432232
-0.701063
-0.718684
-0.690564
-0.591729
-0.464149
-0.287057
-0.247008
-0.502059
-0.763556
-0.773404
-0.493032
-0.15346
0.126315
0.308048
0.384178
0.361128
0.293274
0.208164
0.124278
0.0422091
-0.68377
-0.767822
-0.754072
-0.642981
-0.500076
-0.223191
-0.176169
-0.565751
-0.965457
-1.02224
-0.68368
-0.248381
0.102651
0.314145
0.392026
0.357684
0.288419
0.201877
0.120397
0.0409706
-0.916562
-0.969601
-0.913848
-0.724263
-0.480671
-0.146974
-0.119258
-0.648955
-1.20322
-1.2835
-0.86702
-0.350983
0.0544126
0.289414
0.371093
0.331563
0.262759
0.186809
0.112468
0.0385588
-0.895559
-1.12834
-1.10135
-0.916372
-0.603088
-0.0145351
0.109161
-0.585258
-1.26764
-1.41086
-0.989513
-0.446396
-0.014414
0.230013
0.31615
0.283569
0.229705
0.167007
0.1022
0.0357881
-0.705581
-1.1287
-1.14856
-0.937268
-0.602746
-0.154557
-0.0647579
-0.616732
-1.19012
-1.29261
-0.96541
-0.489273
-0.0900527
0.139238
0.230143
0.218437
0.186247
0.143326
0.0902983
0.0327785
-1.09291
-1.23662
-1.19869
-1.02317
-0.715589
-0.388552
-0.329842
-0.697252
-1.08308
-1.14898
-0.870213
-0.468788
-0.123524
0.0720694
0.158906
0.166795
0.153791
0.126607
0.0820826
0.0309212
-0.974421
-1.20853
-1.15635
-0.968398
-0.756127
-0.550446
-0.516569
-0.758175
-1.00822
-1.03242
-0.789795
-0.440657
-0.137143
0.0327651
0.115914
0.136222
0.135125
0.117192
0.0775301
0.0298451
-1.04043
-1.22021
-1.12432
-0.904975
-0.787192
-0.733742
-0.731683
-0.829485
-0.925428
-0.894754
-0.683193
-0.395824
-0.146486
-0.00817988
0.0709231
0.105274
0.116761
0.108128
0.0732477
0.0288007
-1.00436
-1.21692
-1.06784
-0.815066
-0.811409
-0.926968
-0.960391
-0.904969
-0.835131
-0.736089
-0.553764
-0.338068
-0.153631
-0.0510183
0.0248676
0.0745945
0.0991634
0.0996037
0.0693149
0.0277959
-1.01986
-1.22826
-1.01431
-0.702639
-0.825395
-1.11719
-1.1856
-0.974718
-0.739814
-0.562506
-0.40714
-0.271913
-0.160496
-0.0953374
-0.0210366
0.0449745
0.0827853
0.0917936
0.0657989
0.0268426
-1.02766
-1.25837
-0.959672
-0.574924
-0.828232
-1.28854
-1.38416
-1.0287
-0.641493
-0.384089
-0.251669
-0.202999
-0.168816
-0.1404
-0.0656067
0.0172356
0.0680885
0.0848659
0.0627536
0.0259442
-1.02576
-1.24608
-0.913074
-0.438081
-0.818951
-1.42815
-1.53641
-1.06138
-0.543668
-0.212224
-0.099268
-0.137364
-0.17994
-0.185067
-0.107549
-0.00781472
0.0554751
0.0789738
0.0602364
0.0251129
-1.07941
-1.37007
-0.874661
-0.302191
-0.799014
-1.5315
-1.63872
-1.07225
-0.451192
-0.0585398
0.0386422
-0.080539
-0.194282
-0.227733
-0.14501
-0.0293817
0.0451725
0.0741699
0.0582739
0.0243765
-1.03722
-1.33952
-0.842328
-0.165012
-0.768357
-1.59719
-1.69349
-1.06233
-0.369751
0.0673785
0.153298
-0.0362395
-0.211199
-0.266493
-0.17637
-0.0467005
0.0372871
0.0703243
0.0567485
0.0237219
-1.16083
-1.50597
-0.832911
-0.0841974
-0.732806
-1.63425
-1.7106
-1.03573
-0.298721
0.162962
0.238479
-0.00624924
-0.229194
-0.299256
-0.200541
-0.0593065
0.0319656
0.0672633
0.0553743
0.0229826
-0.683322
-1.11362
-0.589918
0.166148
-0.640377
-1.62771
-1.66853
-0.956507
-0.171691
0.31838
0.366237
0.0303721
-0.266329
-0.355091
-0.23633
-0.0764038
0.0257101
0.0625064
0.0526183
0.0210365
-0.742352
-1.01918
-0.711168
-0.33785
-0.707305
-1.34973
-1.32457
-0.759877
-0.179564
0.178721
0.213923
-0.0214676
-0.25091
-0.300683
-0.186679
-0.0483492
0.0362419
0.0642299
0.0547025
0.021934
-0.790378
-0.824282
-0.6827
-0.414585
-0.576405
-0.919618
-0.923109
-0.576859
-0.189268
0.0651296
0.113182
-0.0194113
-0.155569
-0.167208
-0.0848633
0.000870027
0.0495146
0.0587273
0.0457596
0.0183918
-0.44138
-0.536463
-0.538754
-0.427938
-0.488515
-0.699622
-0.709802
-0.463532
-0.191881
-0.00615469
0.0417254
-0.0254766
-0.0968344
-0.103956
-0.0450373
0.0182429
0.0554599
0.0634486
0.0517091
0.0219265
-0.531819
-0.557172
-0.554042
-0.467647
-0.456438
-0.549698
-0.546124
-0.386216
-0.198734
-0.0546801
-0.00563134
-0.0255359
-0.0498418
-0.0337782
0.00952471
0.0438724
0.0633712
0.0616605
0.0452979
0.0165531
-0.310568
-0.359368
-0.387757
-0.370169
-0.361289
-0.409211
-0.407301
-0.297344
-0.154568
-0.0561056
-0.0152894
-0.0147067
-0.0184701
-0.00247588
0.0285407
0.0591451
0.0772153
0.0769895
0.0612288
0.0225943
-0.303235
-0.349642
-0.37789
-0.369238
-0.346152
-0.355012
-0.345346
-0.266972
-0.158475
-0.0745583
-0.0320954
-0.0166154
-0.00274636
0.0212952
0.05093
0.0752744
0.0854976
0.0772798
0.050666
0.0181486
-0.222842
-0.260715
-0.283593
-0.287639
-0.27418
-0.269495
-0.257396
-0.201745
-0.120741
-0.055424
-0.0180092
0.00312253
0.0215974
0.0427585
0.0677352
0.0898038
0.10159
0.0943918
0.0696882
0.0262901
-0.174491
-0.214761
-0.240872
-0.253201
-0.244944
-0.232456
-0.216987
-0.175825
-0.112267
-0.0562558
-0.0200695
0.00401188
0.0285593
0.0537505
0.0786875
0.0973608
0.101386
0.0871957
0.0564103
0.018567
-0.141089
-0.176372
-0.199073
-0.210284
-0.204239
-0.189197
-0.170754
-0.137254
-0.0869311
-0.0394887
-0.00416207
0.0224166
0.0456355
0.066598
0.0861817
0.101234
0.108266
0.0994396
0.0750982
0.0293749
-0.110549
-0.141671
-0.161307
-0.171577
-0.168094
-0.154245
-0.136216
-0.108606
-0.0681209
-0.0289379
0.00141904
0.0266091
0.0523818
0.0765235
0.0963758
0.106956
0.104688
0.087127
0.0548542
0.0174311
-0.0856941
-0.11275
-0.129636
-0.138527
-0.137097
-0.125312
-0.107848
-0.0843271
-0.0518102
-0.0180313
0.0119898
0.0381953
0.062964
0.0817346
0.095566
0.103137
0.1042
0.0954198
0.0753206
0.0313481
-0.0684435
-0.0904653
-0.104562
-0.112161
-0.11128
-0.101249
-0.0856496
-0.065276
-0.0369893
-0.0072542
0.0194878
0.0432574
0.0674133
0.0889987
0.103234
0.107869
0.102437
0.0846366
0.0534893
0.0169726
-0.0515982
-0.0703709
-0.0822672
-0.0883676
-0.0878714
-0.0799657
-0.0660203
-0.0474667
-0.0231786
0.00212049
0.0258592
0.0483292
0.0706028
0.088418
0.10021
0.103272
0.102274
0.093183
0.0756288
0.033169
-0.042153
-0.0558199
-0.0646852
-0.0693041
-0.0687219
-0.0619014
-0.0495608
-0.0338024
-0.0133229
0.00876146
0.0304426
0.0507232
0.0713273
0.0891185
0.101119
0.105083
0.0996926
0.0832342
0.0541283
0.0174926
-0.0319434
-0.042401
-0.0493397
-0.0529543
-0.0521762
-0.0467145
-0.0366627
-0.02341
-0.00570693
0.0131923
0.0318001
0.0498866
0.0685221
0.0845183
0.0950585
0.0981242
0.0975971
0.0886565
0.073094
0.0331356
-0.0211646
-0.0301035
-0.0355815
-0.0381916
-0.0374774
-0.0331258
-0.02477
-0.0140803
-4.05537e-05
0.0152618
0.0310721
0.0461358
0.0619013
0.0763976
0.0877285
0.092656
0.0895298
0.0765291
0.0523129
0.0180267
-0.0149826
-0.0207513
-0.0243749
-0.0261811
-0.0253421
-0.0220538
-0.0159507
-0.00816864
0.00259325
0.0141163
0.0264128
0.0386472
0.05196
0.0637981
0.0730237
0.0787653
0.0808527
0.0749543
0.0623399
0.0282701
-0.00863629
-0.0121805
-0.0141292
-0.0149323
-0.014186
-0.0121388
-0.00815777
-0.00337774
0.00326848
0.0104404
0.0190668
0.0273135
0.0362072
0.0439064
0.0516805
0.0562598
0.0573519
0.0513088
0.0377783
0.0144659
-0.00235468
-0.00376715
-0.00445396
-0.00472556
-0.00447449
-0.00392094
-0.00243228
-0.000607977
0.00204565
0.00453195
0.00794126
0.0110356
0.0151139
0.0181096
0.0221932
0.0250754
0.0282324
0.0266702
0.0235491
0.0105932
-3.49671
-3.45816
-2.78181
-2.20155
-1.81798
-1.58678
-1.42341
-1.27431
-1.1322
-0.997417
-0.348024
-0.563188
-0.638943
-0.626163
-0.599452
-0.585888
-0.588989
-0.604425
-0.626601
-0.652564
-0.806279
-1.04276
-1.15512
-1.15275
-1.09521
-1.03241
-0.978959
-0.937897
-0.904659
-0.876986
-0.0316095
-0.163598
-0.256544
-0.303099
-0.317249
-0.320863
-0.326207
-0.337659
-0.354852
-0.376579
-0.0578171
-0.194508
-0.314858
-0.395063
-0.437961
-0.458902
-0.471208
-0.48218
-0.493695
-0.505718
0.0405336
-0.0425411
-0.125383
-0.182011
-0.212337
-0.225954
-0.233571
-0.241553
-0.252245
-0.265869
0.0876385
0.0238288
-0.0552509
-0.117288
-0.15865
-0.184343
-0.202625
-0.219187
-0.236464
-0.254653
0.0906695
0.0428025
-0.0252626
-0.0804577
-0.117441
-0.139292
-0.152654
-0.163184
-0.173932
-0.185794
0.0876725
0.0510355
-0.00740845
-0.0552068
-0.0864408
-0.103667
-0.113309
-0.120933
-0.129564
-0.140118
0.086479
0.0556328
0.0025597
-0.0405864
-0.0679255
-0.0820944
-0.0895117
-0.0955432
-0.102911
-0.11224
0.0815607
0.0572891
0.0140615
-0.0202814
-0.0421122
-0.0545901
-0.0625541
-0.0694461
-0.076881
-0.0852268
-0.0251898
-0.0257033
-0.0123231
-0.00792588
-0.0136984
-0.0247275
-0.0366339
-0.0473302
-0.0563986
-0.0641442
0.0813722
0.0650991
0.0306262
0.00363933
-0.0132423
-0.0235926
-0.0310927
-0.0377984
-0.0444284
-0.051038
-0.031951
-0.028867
-0.0112317
-0.00232182
-0.00332554
-0.00999058
-0.0181529
-0.0256422
-0.0318593
-0.0369885
0.0680633
0.0485949
0.0119409
-0.0138932
-0.0263844
-0.0295186
-0.0289108
-0.0283644
-0.0294134
-0.0322537
0.066007
0.0480053
0.0122713
-0.0127391
-0.0242621
-0.0262389
-0.0243927
-0.0226464
-0.0226059
-0.0244715
-0.0418489
-0.0356258
-0.0141816
-0.00130825
0.00167414
-0.00103789
-0.00538169
-0.0092886
-0.0122431
-0.0144323
0.0675347
0.056387
0.0275612
0.00709599
-0.00266379
-0.00592959
-0.00686357
-0.00763591
-0.00888544
-0.0105397
-0.0493147
-0.0416102
-0.0177486
-0.002256
0.0028323
0.00192442
-0.000793769
-0.00324522
-0.00495784
-0.00606963
0.0565201
0.0472333
0.0220037
0.00521414
-0.00121848
-0.00198638
-0.00122925
-0.000737959
-0.000734152
-0.00101702
0.0668056
0.0399732
0.0590761
0.0562204
0.0799896
0.0727953
0.105843
0.0994263
0.146991
0.142454
0.210115
0.205489
0.308479
0.302559
0.471206
0.459202
0.774276
0.696913
1.19492
-0.522229
0.0663195
0.0406681
0.0583222
0.0568299
0.0788806
0.0735179
0.103999
0.100217
0.143967
0.142694
0.204489
0.205508
0.296753
0.302046
0.438591
0.454532
0.646907
0.721137
0.817489
1.1695
0.064443
0.0421128
0.0567895
0.0572675
0.0765148
0.0740837
0.100629
0.100531
0.138435
0.142311
0.195652
0.203386
0.281029
0.294214
0.407187
0.428257
0.573235
0.617346
0.608949
0.592636
0.0614094
0.0438675
0.0546046
0.0575823
0.0729905
0.0748048
0.0956273
0.101295
0.130364
0.143331
0.181771
0.205565
0.254325
0.296669
0.353618
0.419721
0.463792
0.579151
0.414888
0.607079
0.05793
0.0452957
0.0526246
0.0569393
0.0694223
0.0744081
0.0910443
0.100258
0.12347
0.141118
0.171858
0.20039
0.239694
0.284021
0.33079
0.393536
0.418011
0.51217
0.346141
0.453488
0.053145
0.0473003
0.0501135
0.0564774
0.0645561
0.0742599
0.0854548
0.0993914
0.115825
0.138674
0.160298
0.194443
0.21994
0.271351
0.295144
0.366216
0.354674
0.447953
0.278229
0.317257
0.0484706
0.0481292
0.0485906
0.0550874
0.0612126
0.0724574
0.0813403
0.0966915
0.109505
0.13432
0.151787
0.186227
0.206709
0.255913
0.271352
0.335323
0.312089
0.386459
0.232981
0.239935
0.0436122
0.048103
0.0470179
0.0536028
0.057577
0.0698933
0.0764735
0.0931086
0.102765
0.12871
0.140675
0.176458
0.189116
0.23839
0.244744
0.302208
0.273419
0.326407
0.202285
0.176806
0.0393798
0.0471409
0.0453321
0.0514199
0.0538268
0.0665613
0.0717699
0.0885423
0.0963559
0.121692
0.131718
0.164725
0.174936
0.218407
0.221832
0.268566
0.241503
0.272533
0.17756
0.132834
0.0355534
0.0452396
0.0430918
0.0486204
0.0500262
0.0625795
0.0669648
0.0831569
0.0896219
0.113553
0.121713
0.151824
0.159242
0.198112
0.199593
0.236033
0.211791
0.226588
0.152175
0.107965
0.0319332
0.0425249
0.0404104
0.0454198
0.0461052
0.0580962
0.0617964
0.0769735
0.0822969
0.104439
0.111345
0.13786
0.144894
0.177286
0.178809
0.20452
0.186626
0.187001
0.131745
0.0829041
0.0284881
0.039093
0.0374356
0.0417859
0.0421709
0.0528469
0.0565441
0.0697884
0.0753012
0.0940352
0.101445
0.123051
0.131288
0.155262
0.159824
0.174274
0.164388
0.154208
0.122701
0.0622147
0.0251525
0.0352047
0.0340824
0.0377882
0.0379393
0.0473091
0.0507461
0.062259
0.0673709
0.0838938
0.0904307
0.108407
0.115744
0.135461
0.13944
0.1484
0.140223
0.127672
0.0924014
0.0525594
0.0219047
0.0309698
0.0303408
0.033391
0.0335398
0.0413281
0.0448662
0.0542798
0.0596328
0.0726042
0.0796907
0.0929667
0.101766
0.114684
0.120939
0.123371
0.118519
0.105958
0.0884675
0.0429652
0.0186921
0.0264071
0.0263039
0.0286405
0.0289714
0.0350957
0.038661
0.045991
0.0516702
0.0614117
0.0683059
0.0780976
0.0864048
0.0960962
0.101364
0.102095
0.096796
0.0855889
0.0635706
0.0465047
0.0154237
0.021723
0.0219372
0.0237351
0.0240304
0.0288442
0.0320457
0.0376602
0.0423884
0.050607
0.056351
0.0638404
0.0703084
0.0786456
0.0817565
0.0825923
0.0770032
0.0682491
0.0486268
0.039982
0.0120711
0.0169471
0.0173837
0.0185869
0.0190279
0.0223938
0.0251838
0.0292222
0.0339879
0.0393919
0.0444156
0.049278
0.0551142
0.0604239
0.0635866
0.0627339
0.0593854
0.0526496
0.0474524
0.0222178
0.00867722
0.0120896
0.0126094
0.0133691
0.0136953
0.0160161
0.0182303
0.0208562
0.0241336
0.0282501
0.0320133
0.0351991
0.0390961
0.0430044
0.0450938
0.0448854
0.0419045
0.0363495
0.0241906
0.0161783
0.00519386
0.00729784
0.00763466
0.00800917
0.00837891
0.00957994
0.0109456
0.0124823
0.0149784
0.0171958
0.0192997
0.0208288
0.0234637
0.0260444
0.027187
0.0266195
0.0247509
0.0227378
0.0209365
0.0102824
0.00172649
0.00235723
0.00264301
0.00269621
0.00264768
0.00341153
0.00381392
0.00418126
0.00460875
0.00553402
0.00662703
0.00719916
0.00760747
0.00834093
0.00903898
0.00925346
0.00854675
0.00663281
0.00264336
0.00318457
0.0645368
0.0364797
0.0572604
0.0521621
0.0779925
0.0681215
0.103713
0.0933866
0.144907
0.134494
0.208585
0.195219
0.310082
0.29092
0.484266
0.446102
0.843773
0.719089
1.90845
0.632088
0.0647764
0.0369277
0.0577954
0.0524596
0.0786334
0.0684886
0.104571
0.0938123
0.146116
0.135107
0.210335
0.195839
0.313078
0.291899
0.489904
0.448694
0.860566
0.7512
2.03347
1.24737
0.0650203
0.0373585
0.0582523
0.0527986
0.0791793
0.0688705
0.10531
0.0943163
0.147159
0.135725
0.211906
0.196565
0.315664
0.292795
0.495814
0.451051
0.887208
0.774471
2.17569
1.69729
0.0652679
0.0377509
0.0586485
0.0531416
0.0796494
0.0692464
0.105932
0.0948377
0.148036
0.136331
0.213184
0.197339
0.317658
0.293668
0.499648
0.453272
0.896539
0.796483
2.23913
1.98327
0.0655065
0.038107
0.0589771
0.0534829
0.0800333
0.0696138
0.106425
0.0953566
0.148722
0.136917
0.21414
0.198113
0.319061
0.294403
0.502195
0.454722
0.906197
0.808555
2.27733
2.14045
0.0657313
0.0384282
0.0592314
0.0538194
0.0803247
0.0699761
0.106782
0.0958597
0.149198
0.137487
0.214751
0.198863
0.319789
0.295061
0.503048
0.45564
0.906737
0.81112
2.28182
2.16908
0.0659431
0.0387139
0.0594118
0.0541504
0.0805243
0.0703387
0.107002
0.09634
0.149459
0.138043
0.215003
0.199554
0.319836
0.295668
0.502253
0.455953
0.900655
0.805313
2.24167
2.06221
0.0661434
0.0389655
0.0595223
0.0544774
0.0806352
0.0707046
0.107093
0.0967986
0.149515
0.138568
0.214924
0.20013
0.31926
0.295834
0.499938
0.454728
0.890101
0.788045
2.19586
1.84385
0.0663325
0.0391874
0.0595754
0.0548018
0.0806685
0.0710723
0.107067
0.0972554
0.149359
0.139304
0.214516
0.200987
0.317935
0.296736
0.495631
0.454694
0.868856
0.76864
2.04227
1.45619
0.0665137
0.0393251
0.0595552
0.0551238
0.0806229
0.0714431
0.106919
0.0976285
0.14908
0.139602
0.21396
0.200933
0.316768
0.296153
0.491989
0.451202
0.851762
0.736968
1.9641
0.91821
)
;

boundaryField
{
    inlet
    {
        type            zeroGradient;
    }
    outlet
    {
        type            fixedValue;
        value           uniform 0;
    }
    upAndBottom
    {
        type            empty;
    }
    obstacle
    {
        type            zeroGradient;
    }
}


// ************************************************************************* //
