x,y,z,p
0,0,0,0.000253533
0,0.1,0,0.000631216
0,0.2,0,0.0010089
0,0.3,0,0.00151365
0,0.4,0,0.0020184
0,0.5,0,0.00252369
0,0.6,0,0.00302897
0,0.7,0,0.00353492
0,0.8,0,0.00404086
0,0.9,0,0.00454741
0,1,0,0.00505396
0,1.1,0,0.00556086
0,1.2,0,0.00606777
0,1.3,0,0.00657451
0,1.4,0,0.00708126
0,1.5,0,0.00758705
0,1.6,0,0.00809285
0,1.7,0,0.00859655
0,1.8,0,0.00910025
0,1.9,0,0.00960037
0,2,0,0.0101005
0,2.1,0,0.0105951
0,2.2,0,0.0110898
0,2.3,0,0.0115767
0,2.4,0,0.0120636
0,2.5,0,0.0125401
0,2.6,0,0.0130166
0,2.7,0,0.0134795
0,2.8,0,0.0139425
0,2.9,0,0.0143885
0,3,0,0.0148345
0,3.1,0,0.0152598
0,3.2,0,0.0156852
0,3.3,0,0.016086
0,3.4,0,0.0164868
0,3.5,0,0.016859
0,3.6,0,0.0172312
0,3.7,0,0.0175708
0,3.8,0,0.0179104
0,3.9,0,0.0182135
0,4,0,0.0185165
0,4.1,0,0.0187795
0,4.2,0,0.0190425
0,4.3,0,0.0192623
0,4.4,0,0.0194821
0,4.5,0,0.0196561
0,4.6,0,0.0198301
0,4.7,0,0.0199564
0,4.8,0,0.0200827
0,4.9,0,0.0201602
0,5,0,0.0202377
0,5.1,0,0.0202661
0,5.2,0,0.0202944
0,5.3,0,0.0202743
0,5.4,0,0.0202541
0,5.5,0,0.0201869
0,5.6,0,0.0201196
0,5.7,0,0.0200074
0,5.8,0,0.0198951
0,5.9,0,0.019713
0,6,0,0.0195309
0,6.1,0,0.0193427
0,6.2,0,0.0191544
0,6.3,0,0.0189662
0,6.4,0,0.0187325
0,6.5,0,0.0184743
0,6.6,0,0.0182161
0,6.7,0,0.0179455
0,6.8,0,0.0176459
0,6.9,0,0.0173463
0,7,0,0.0170467
0,7.1,0,0.0167193
0,7.2,0,0.0163903
0,7.3,0,0.0160614
0,7.4,0,0.0157215
0,7.5,0,0.0153743
0,7.6,0,0.0150271
0,7.7,0,0.0146777
0,7.8,0,0.0143217
0,7.9,0,0.0139657
0,8,0,0.0136097
0,8.1,0,0.0132528
0,8.2,0,0.0128958
0,8.3,0,0.0125388
0,8.4,0,0.0121844
0,8.5,0,0.0118323
0,8.6,0,0.0114802
0,8.7,0,0.0111299
0,8.8,0,0.0107869
0,8.9,0,0.010444
0,9,0,0.010101
0,9.1,0,0.00976812
0,9.2,0,0.00943704
0,9.3,0,0.00910597
0,9.4,0,0.00878159
0,9.5,0,0.0084639
0,9.6,0,0.00814622
0,9.7,0,0.00783063
0,9.8,0,0.00752686
0,9.9,0,0.0072231
0,10,0,0.00691934
0,10.1,0,0.00662652
0,10.2,0,0.00633645
0,10.3,0,0.00604637
0,10.4,0,0.00576208
0,10.5,0,0.00548487
0,10.6,0,0.00520767
0,10.7,0,0.00493162
0,10.8,0,0.00466603
0,10.9,0,0.00440045
0,11,0,0.00413486
0,11.1,0,0.00387681
0,11.2,0,0.00362128
0,11.3,0,0.00336575
0,11.4,0,0.00311354
0,11.5,0,0.00286629
0,11.6,0,0.00261905
0,11.7,0,0.00237212
0,11.8,0,0.00213125
0,11.9,0,0.00189037
0,12,0,0.00164949
0,12.1,0,0.00141166
0,12.2,0,0.00117513
0,12.3,0,0.000938598
0,12.4,0,0.000723068
0,12.5,0,0.000546539
0,12.6,0,0.000370009
0,12.7,0,0.00019348
0.1,0,0,0.00015212
0.1,0.1,0,0.000529737
0.1,0.2,0,0.00100873
0.1,0.3,0,0.00151347
0.1,0.4,0,0.0020181
0.1,0.5,0,0.00252343
0.1,0.6,0,0.00302861
0.1,0.7,0,0.00353465
0.1,0.8,0,0.00404051
0.1,0.9,0,0.00454719
0.1,1,0,0.00505374
0.1,1.1,0,0.0055608
0.1,1.2,0,0.0060678
0.1,1.3,0,0.0065747
0.1,1.4,0,0.00708171
0.1,1.5,0,0.00758763
0.1,1.6,0,0.00809389
0.1,1.7,0,0.00859765
0.1,1.8,0,0.00910208
0.1,1.9,0,0.00960215
0.1,2,0,0.0101033
0.1,2.1,0,0.0105977
0.1,2.2,0,0.0110938
0.1,2.3,0,0.0115803
0.1,2.4,0,0.012069
0.1,2.5,0,0.0125448
0.1,2.6,0,0.0130236
0.1,2.7,0,0.0134856
0.1,2.8,0,0.0139513
0.1,2.9,0,0.0143959
0.1,3,0,0.0148453
0.1,3.1,0,0.0152688
0.1,3.2,0,0.0156981
0.1,3.3,0,0.0160966
0.1,3.4,0,0.0165019
0.1,3.5,0,0.0168712
0.1,3.6,0,0.0172484
0.1,3.7,0,0.0175846
0.1,3.8,0,0.0179296
0.1,3.9,0,0.0182289
0.1,4,0,0.0185377
0.1,4.1,0,0.0187962
0.1,4.2,0,0.0190654
0.1,4.3,0,0.0192802
0.1,4.4,0,0.0195064
0.1,4.5,0,0.0196749
0.1,4.6,0,0.0198553
0.1,4.7,0,0.0199758
0.1,4.8,0,0.0201085
0.1,4.9,0,0.0201799
0.1,5,0,0.0202637
0.1,5.1,0,0.0202858
0.1,5.2,0,0.0203201
0.1,5.3,0,0.0202934
0.1,5.4,0,0.020279
0.1,5.5,0,0.0202054
0.1,5.6,0,0.0201435
0.1,5.7,0,0.0200249
0.1,5.8,0,0.0199174
0.1,5.9,0,0.0197513
0.1,6,0,0.0195511
0.1,6.1,0,0.019394
0.1,6.2,0,0.0192164
0.1,6.3,0,0.018995
0.1,6.4,0,0.0187568
0.1,6.5,0,0.0185062
0.1,6.6,0,0.018239
0.1,6.7,0,0.017961
0.1,6.8,0,0.0176691
0.1,6.9,0,0.0173668
0.1,7,0,0.0170566
0.1,7.1,0,0.0167332
0.1,7.2,0,0.0164061
0.1,7.3,0,0.0160702
0.1,7.4,0,0.0157286
0.1,7.5,0,0.0153831
0.1,7.6,0,0.0150332
0.1,7.7,0,0.0146804
0.1,7.8,0,0.0143246
0.1,7.9,0,0.0139682
0.1,8,0,0.0136101
0.1,8.1,0,0.0132518
0.1,8.2,0,0.0128942
0.1,8.3,0,0.0125371
0.1,8.4,0,0.0121814
0.1,8.5,0,0.0118274
0.1,8.6,0,0.011476
0.1,8.7,0,0.0111262
0.1,8.8,0,0.0107801
0.1,8.9,0,0.0104371
0.1,9,0,0.0100967
0.1,9.1,0,0.00976121
0.1,9.2,0,0.00942839
0.1,9.3,0,0.0091
0.1,9.4,0,0.00877538
0.1,9.5,0,0.00845461
0.1,9.6,0,0.00813867
0.1,9.7,0,0.00782556
0.1,9.8,0,0.00751819
0.1,9.9,0,0.00721426
0.1,10,0,0.00691417
0.1,10.1,0,0.00661938
0.1,10.2,0,0.00632747
0.1,10.3,0,0.00604024
0.1,10.4,0,0.00575655
0.1,10.5,0,0.00547661
0.1,10.6,0,0.00520089
0.1,10.7,0,0.00492762
0.1,10.8,0,0.00465937
0.1,10.9,0,0.00439341
0.1,11,0,0.00413087
0.1,11.1,0,0.00387194
0.1,11.2,0,0.00361511
0.1,11.3,0,0.00336152
0.1,11.4,0,0.0031102
0.1,11.5,0,0.00286136
0.1,11.6,0,0.00261496
0.1,11.7,0,0.00237002
0.1,11.8,0,0.00212798
0.1,11.9,0,0.00188683
0.1,12,0,0.00164761
0.1,12.1,0,0.00140984
0.1,12.2,0,0.00117291
0.1,12.3,0,0.000937152
0.1,12.4,0,0.000702115
0.1,12.5,0,0.000468354
0.1,12.6,0,0.000292026
0.1,12.7,0,0.000116088
0.2,0,0,5.07066e-05
0.2,0.1,0,0.000504289
0.2,0.2,0,0.00100856
0.2,0.3,0,0.00151321
0.2,0.4,0,0.0020178
0.2,0.5,0,0.00252306
0.2,0.6,0,0.00302824
0.2,0.7,0,0.00353424
0.2,0.8,0,0.00404016
0.2,0.9,0,0.00454687
0.2,1,0,0.00505351
0.2,1.1,0,0.00556069
0.2,1.2,0,0.00606784
0.2,1.3,0,0.00657497
0.2,1.4,0,0.00708216
0.2,1.5,0,0.00758846
0.2,1.6,0,0.00809493
0.2,1.7,0,0.00859925
0.2,1.8,0,0.0091039
0.2,1.9,0,0.00960474
0.2,2,0,0.0101061
0.2,2.1,0,0.0106016
0.2,2.2,0,0.0110978
0.2,2.3,0,0.0115856
0.2,2.4,0,0.0120745
0.2,2.5,0,0.0125518
0.2,2.6,0,0.0130306
0.2,2.7,0,0.0134945
0.2,2.8,0,0.0139602
0.2,2.9,0,0.014407
0.2,3,0,0.0148561
0.2,3.1,0,0.0152822
0.2,3.2,0,0.015711
0.2,3.3,0,0.0161123
0.2,3.4,0,0.0165169
0.2,3.5,0,0.0168893
0.2,3.6,0,0.0172656
0.2,3.7,0,0.0176051
0.2,3.8,0,0.0179489
0.2,3.9,0,0.0182515
0.2,4,0,0.0185589
0.2,4.1,0,0.0188209
0.2,4.2,0,0.0190883
0.2,4.3,0,0.0193066
0.2,4.4,0,0.0195306
0.2,4.5,0,0.0197026
0.2,4.6,0,0.0198806
0.2,4.7,0,0.0200044
0.2,4.8,0,0.0201344
0.2,4.9,0,0.0202089
0.2,5,0,0.0202897
0.2,5.1,0,0.0203147
0.2,5.2,0,0.0203458
0.2,5.3,0,0.0203218
0.2,5.4,0,0.020304
0.2,5.5,0,0.0202327
0.2,5.6,0,0.0201672
0.2,5.7,0,0.0200507
0.2,5.8,0,0.0199398
0.2,5.9,0,0.0197641
0.2,6,0,0.0195713
0.2,6.1,0,0.0194032
0.2,6.2,0,0.0192126
0.2,6.3,0,0.0190121
0.2,6.4,0,0.0187739
0.2,6.5,0,0.018513
0.2,6.6,0,0.0182519
0.2,6.7,0,0.0179742
0.2,6.8,0,0.0176756
0.2,6.9,0,0.0173732
0.2,7,0,0.0170659
0.2,7.1,0,0.0167404
0.2,7.2,0,0.0164088
0.2,7.3,0,0.0160759
0.2,7.4,0,0.0157344
0.2,7.5,0,0.0153852
0.2,7.6,0,0.0150357
0.2,7.7,0,0.0146831
0.2,7.8,0,0.0143261
0.2,7.9,0,0.0139683
0.2,8,0,0.0136103
0.2,8.1,0,0.013252
0.2,8.2,0,0.0128935
0.2,8.3,0,0.0125354
0.2,8.4,0,0.0121797
0.2,8.5,0,0.0118264
0.2,8.6,0,0.0114733
0.2,8.7,0,0.0111232
0.2,8.8,0,0.0107784
0.2,8.9,0,0.0104348
0.2,9,0,0.0100928
0.2,9.1,0,0.00975788
0.2,9.2,0,0.00942645
0.2,9.3,0,0.00909563
0.2,9.4,0,0.00877101
0.2,9.5,0,0.0084526
0.2,9.6,0,0.00813481
0.2,9.7,0,0.00782104
0.2,9.8,0,0.00751543
0.2,9.9,0,0.00721174
0.2,10,0,0.00690974
0.2,10.1,0,0.00661542
0.2,10.2,0,0.00632555
0.2,10.3,0,0.00603609
0.2,10.4,0,0.0057524
0.2,10.5,0,0.00547476
0.2,10.6,0,0.00519786
0.2,10.7,0,0.00492388
0.2,10.8,0,0.00465694
0.2,10.9,0,0.00439173
0.2,11,0,0.00412764
0.2,11.1,0,0.00386892
0.2,11.2,0,0.00361381
0.2,11.3,0,0.00335887
0.2,11.4,0,0.00310755
0.2,11.5,0,0.00286018
0.2,11.6,0,0.0026134
0.2,11.7,0,0.00236799
0.2,11.8,0,0.00212657
0.2,11.9,0,0.00188618
0.2,12,0,0.00164622
0.2,12.1,0,0.00140848
0.2,12.2,0,0.00117245
0.2,12.3,0,0.000936433
0.2,12.4,0,0.000701396
0.2,12.5,0,0.000467459
0.2,12.6,0,0.000233711
0.2,12.7,0,3.8696e-05
0.3,0,0,0
0.3,0.1,0,0.000504104
0.3,0.2,0,0.00100819
0.3,0.3,0,0.00151271
0.3,0.4,0,0.00201715
0.3,0.5,0,0.00252236
0.3,0.6,0,0.00302743
0.3,0.7,0,0.00353348
0.3,0.8,0,0.00403937
0.3,0.9,0,0.00454623
0.3,1,0,0.00505297
0.3,1.1,0,0.00556043
0.3,1.2,0,0.00606782
0.3,1.3,0,0.00657538
0.3,1.4,0,0.007083
0.3,1.5,0,0.00758986
0.3,1.6,0,0.00809698
0.3,1.7,0,0.00860201
0.3,1.8,0,0.00910758
0.3,1.9,0,0.00960927
0.3,2,0,0.0101119
0.3,2.1,0,0.0106083
0.3,2.2,0,0.0111061
0.3,2.3,0,0.011595
0.3,2.4,0,0.0120857
0.3,2.5,0,0.0125642
0.3,2.6,0,0.0130452
0.3,2.7,0,0.0135103
0.3,2.8,0,0.0139785
0.3,2.9,0,0.0144266
0.3,3,0,0.0148786
0.3,3.1,0,0.0153059
0.3,3.2,0,0.0157379
0.3,3.3,0,0.0161403
0.3,3.4,0,0.0165483
0.3,3.5,0,0.0169216
0.3,3.6,0,0.0173014
0.3,3.7,0,0.0176416
0.3,3.8,0,0.0179891
0.3,3.9,0,0.018292
0.3,4,0,0.018603
0.3,4.1,0,0.0188651
0.3,4.2,0,0.019136
0.3,4.3,0,0.0193538
0.3,4.4,0,0.0195812
0.3,4.5,0,0.0197522
0.3,4.6,0,0.0199333
0.3,4.7,0,0.0200557
0.3,4.8,0,0.0201884
0.3,4.9,0,0.020261
0.3,5,0,0.020344
0.3,5.1,0,0.0203666
0.3,5.2,0,0.0203995
0.3,5.3,0,0.0203726
0.3,5.4,0,0.0203561
0.3,5.5,0,0.0202816
0.3,5.6,0,0.020217
0.3,5.7,0,0.020097
0.3,5.8,0,0.0199864
0.3,5.9,0,0.0198071
0.3,6,0,0.0196134
0.3,6.1,0,0.0194412
0.3,6.2,0,0.0192507
0.3,6.3,0,0.0190489
0.3,6.4,0,0.0188044
0.3,6.5,0,0.0185434
0.3,6.6,0,0.0182823
0.3,6.7,0,0.0179992
0.3,6.8,0,0.017698
0.3,6.9,0,0.0173956
0.3,7,0,0.0170853
0.3,7.1,0,0.0167552
0.3,7.2,0,0.0164236
0.3,7.3,0,0.0160895
0.3,7.4,0,0.0157429
0.3,7.5,0,0.0153933
0.3,7.6,0,0.0150438
0.3,7.7,0,0.0146875
0.3,7.8,0,0.0143287
0.3,7.9,0,0.0139709
0.3,8,0,0.013611
0.3,8.1,0,0.0132502
0.3,8.2,0,0.0128918
0.3,8.3,0,0.012533
0.3,8.4,0,0.012175
0.3,8.5,0,0.0118214
0.3,8.6,0,0.0114683
0.3,8.7,0,0.0111166
0.3,8.8,0,0.0107712
0.3,8.9,0,0.0104276
0.3,9,0,0.0100849
0.3,9.1,0,0.00974942
0.3,9.2,0,0.00941799
0.3,9.3,0,0.00908701
0.3,9.4,0,0.00876195
0.3,9.5,0,0.00844357
0.3,9.6,0,0.00812577
0.3,9.7,0,0.00781171
0.3,9.8,0,0.00750637
0.3,9.9,0,0.00720268
0.3,10,0,0.00690059
0.3,10.1,0,0.00660676
0.3,10.2,0,0.00631689
0.3,10.3,0,0.00602744
0.3,10.4,0,0.00574425
0.3,10.5,0,0.00546682
0.3,10.6,0,0.00518992
0.3,10.7,0,0.00491625
0.3,10.8,0,0.00464994
0.3,10.9,0,0.00438473
0.3,11,0,0.00412083
0.3,11.1,0,0.003863
0.3,11.2,0,0.0036079
0.3,11.3,0,0.003353
0.3,11.4,0,0.00310252
0.3,11.5,0,0.00285547
0.3,11.6,0,0.00260869
0.3,11.7,0,0.00236382
0.3,11.8,0,0.00212313
0.3,11.9,0,0.00188274
0.3,12,0,0.00164309
0.3,12.1,0,0.00140636
0.3,12.2,0,0.00117033
0.3,12.3,0,0.000934332
0.3,12.4,0,0.000700292
0.3,12.5,0,0.000466704
0.3,12.6,0,0.000232956
0.3,12.7,0,0
0.4,0,0,0
0.4,0.1,0,0.00050383
0.4,0.2,0,0.00100762
0.4,0.3,0,0.00151197
0.4,0.4,0,0.00201614
0.4,0.5,0,0.00252129
0.4,0.6,0,0.00302618
0.4,0.7,0,0.00353231
0.4,0.8,0,0.00403814
0.4,0.9,0,0.00454526
0.4,1,0,0.00505212
0.4,1.1,0,0.00556
0.4,1.2,0,0.00606776
0.4,1.3,0,0.00657592
0.4,1.4,0,0.00708423
0.4,1.5,0,0.00759187
0.4,1.6,0,0.00810006
0.4,1.7,0,0.00860604
0.4,1.8,0,0.00911312
0.4,1.9,0,0.00961592
0.4,2,0,0.0101205
0.4,2.1,0,0.0106182
0.4,2.2,0,0.0111186
0.4,2.3,0,0.0116087
0.4,2.4,0,0.0121026
0.4,2.5,0,0.0125825
0.4,2.6,0,0.0130673
0.4,2.7,0,0.0135337
0.4,2.8,0,0.0140064
0.4,2.9,0,0.0144556
0.4,3,0,0.0149128
0.4,3.1,0,0.015341
0.4,3.2,0,0.0157787
0.4,3.3,0,0.0161817
0.4,3.4,0,0.0165959
0.4,3.5,0,0.0169694
0.4,3.6,0,0.0173559
0.4,3.7,0,0.0176957
0.4,3.8,0,0.0180501
0.4,3.9,0,0.018352
0.4,4,0,0.0186702
0.4,4.1,0,0.0189305
0.4,4.2,0,0.0192085
0.4,4.3,0,0.0194239
0.4,4.4,0,0.0196582
0.4,4.5,0,0.0198258
0.4,4.6,0,0.0200135
0.4,4.7,0,0.0201317
0.4,4.8,0,0.0202705
0.4,4.9,0,0.0203381
0.4,5,0,0.0204267
0.4,5.1,0,0.0204435
0.4,5.2,0,0.0204812
0.4,5.3,0,0.020448
0.4,5.4,0,0.0204354
0.4,5.5,0,0.0203541
0.4,5.6,0,0.0202925
0.4,5.7,0,0.0201656
0.4,5.8,0,0.0200571
0.4,5.9,0,0.0198818
0.4,6,0,0.0196775
0.4,6.1,0,0.0195143
0.4,6.2,0,0.0193279
0.4,6.3,0,0.0191026
0.4,6.4,0,0.0188581
0.4,6.5,0,0.0185985
0.4,6.6,0,0.018324
0.4,6.7,0,0.0180405
0.4,6.8,0,0.0177415
0.4,6.9,0,0.0174294
0.4,7,0,0.0171144
0.4,7.1,0,0.0167845
0.4,7.2,0,0.0164482
0.4,7.3,0,0.0161074
0.4,7.4,0,0.0157608
0.4,7.5,0,0.0154087
0.4,7.6,0,0.0150525
0.4,7.7,0,0.0146957
0.4,7.8,0,0.0143357
0.4,7.9,0,0.0139729
0.4,8,0,0.0136114
0.4,8.1,0,0.0132499
0.4,8.2,0,0.0128877
0.4,8.3,0,0.0125275
0.4,8.4,0,0.0121695
0.4,8.5,0,0.0118129
0.4,8.6,0,0.0114585
0.4,8.7,0,0.0111069
0.4,8.8,0,0.0107596
0.4,8.9,0,0.0104144
0.4,9,0,0.0100725
0.4,9.1,0,0.00973638
0.4,9.2,0,0.00940261
0.4,9.3,0,0.00907317
0.4,9.4,0,0.00874811
0.4,9.5,0,0.00842736
0.4,9.6,0,0.00811092
0.4,9.7,0,0.00779742
0.4,9.8,0,0.00749057
0.4,9.9,0,0.00718691
0.4,10,0,0.00688663
0.4,10.1,0,0.00659243
0.4,10.2,0,0.00630136
0.4,10.3,0,0.00601438
0.4,10.4,0,0.00573118
0.4,10.5,0,0.00545227
0.4,10.6,0,0.0051774
0.4,10.7,0,0.0049045
0.4,10.8,0,0.00463735
0.4,10.9,0,0.00437276
0.4,11,0,0.00411068
0.4,11.1,0,0.00385274
0.4,11.2,0,0.00359732
0.4,11.3,0,0.00334465
0.4,11.4,0,0.00309417
0.4,11.5,0,0.00284655
0.4,11.6,0,0.0026016
0.4,11.7,0,0.00235742
0.4,11.8,0,0.00211654
0.4,11.9,0,0.0018771
0.4,12,0,0.00163872
0.4,12.1,0,0.00140199
0.4,12.2,0,0.00116654
0.4,12.3,0,0.000932079
0.4,12.4,0,0.000698039
0.4,12.5,0,0.000464802
0.4,12.6,0,0.000232565
0.4,12.7,0,0
0.5,0,0,0
0.5,0.1,0,0.000503525
0.5,0.2,0,0.00100705
0.5,0.3,0,0.00151109
0.5,0.4,0,0.00201513
0.5,0.5,0,0.00252002
0.5,0.6,0,0.00302492
0.5,0.7,0,0.00353092
0.5,0.8,0,0.00403691
0.5,0.9,0,0.00454409
0.5,1,0,0.00505126
0.5,1.1,0,0.00555948
0.5,1.2,0,0.0060677
0.5,1.3,0,0.00657658
0.5,1.4,0,0.00708545
0.5,1.5,0,0.00759429
0.5,1.6,0,0.00810313
0.5,1.7,0,0.0086109
0.5,1.8,0,0.00911866
0.5,1.9,0,0.00962392
0.5,2,0,0.0101292
0.5,2.1,0,0.0106301
0.5,2.2,0,0.011131
0.5,2.3,0,0.0116253
0.5,2.4,0,0.0121196
0.5,2.5,0,0.0126045
0.5,2.6,0,0.0130894
0.5,2.7,0,0.0135619
0.5,2.8,0,0.0140343
0.5,2.9,0,0.0144906
0.5,3,0,0.0149469
0.5,3.1,0,0.0153832
0.5,3.2,0,0.0158195
0.5,3.3,0,0.0162315
0.5,3.4,0,0.0166435
0.5,3.5,0,0.0170269
0.5,3.6,0,0.0174104
0.5,3.7,0,0.0177608
0.5,3.8,0,0.0181112
0.5,3.9,0,0.0184243
0.5,4,0,0.0187374
0.5,4.1,0,0.0190092
0.5,4.2,0,0.0192811
0.5,4.3,0,0.0195081
0.5,4.4,0,0.0197351
0.5,4.5,0,0.0199145
0.5,4.6,0,0.0200938
0.5,4.7,0,0.0202232
0.5,4.8,0,0.0203526
0.5,4.9,0,0.020431
0.5,5,0,0.0205093
0.5,5.1,0,0.0205361
0.5,5.2,0,0.0205628
0.5,5.3,0,0.0205387
0.5,5.4,0,0.0205146
0.5,5.5,0,0.0204414
0.5,5.6,0,0.0203682
0.5,5.7,0,0.0202481
0.5,5.8,0,0.020128
0.5,5.9,0,0.0199348
0.5,6,0,0.0197416
0.5,6.1,0,0.0195433
0.5,6.2,0,0.0193451
0.5,6.3,0,0.0191468
0.5,6.4,0,0.0189016
0.5,6.5,0,0.0186312
0.5,6.6,0,0.0183608
0.5,6.7,0,0.0180781
0.5,6.8,0,0.0177665
0.5,6.9,0,0.0174548
0.5,7,0,0.0171432
0.5,7.1,0,0.0168047
0.5,7.2,0,0.0164648
0.5,7.3,0,0.0161248
0.5,7.4,0,0.0157748
0.5,7.5,0,0.0154181
0.5,7.6,0,0.0150614
0.5,7.7,0,0.014703
0.5,7.8,0,0.0143394
0.5,7.9,0,0.0139757
0.5,8,0,0.013612
0.5,8.1,0,0.0132491
0.5,8.2,0,0.0128863
0.5,8.3,0,0.0125234
0.5,8.4,0,0.0121642
0.5,8.5,0,0.0118079
0.5,8.6,0,0.0114517
0.5,8.7,0,0.0110975
0.5,8.8,0,0.0107519
0.5,8.9,0,0.0104063
0.5,9,0,0.0100607
0.5,9.1,0,0.00972618
0.5,9.2,0,0.00939367
0.5,9.3,0,0.00906116
0.5,9.4,0,0.00873584
0.5,9.5,0,0.00841771
0.5,9.6,0,0.00809958
0.5,9.7,0,0.00778365
0.5,9.8,0,0.0074802
0.5,9.9,0,0.00717675
0.5,10,0,0.0068733
0.5,10.1,0,0.00658125
0.5,10.2,0,0.00629205
0.5,10.3,0,0.00600285
0.5,10.4,0,0.00571963
0.5,10.5,0,0.00544371
0.5,10.6,0,0.00516779
0.5,10.7,0,0.00489306
0.5,10.8,0,0.00462904
0.5,10.9,0,0.00436503
0.5,11,0,0.00410101
0.5,11.1,0,0.00384469
0.5,11.2,0,0.00359093
0.5,11.3,0,0.00333718
0.5,11.4,0,0.00308679
0.5,11.5,0,0.00284146
0.5,11.6,0,0.00259613
0.5,11.7,0,0.00235112
0.5,11.8,0,0.00211224
0.5,11.9,0,0.00187337
0.5,12,0,0.0016345
0.5,12.1,0,0.00139872
0.5,12.2,0,0.00116427
0.5,12.3,0,0.000929818
0.5,12.4,0,0.0006962
0.5,12.5,0,0.000464133
0.5,12.6,0,0.000232067
0.5,12.7,0,0
0.6,0,0,0
0.6,0.1,0,0.000502965
0.6,0.2,0,0.00100594
0.6,0.3,0,0.00150964
0.6,0.4,0,0.00201314
0.6,0.5,0,0.00251795
0.6,0.6,0,0.0030224
0.6,0.7,0,0.00352858
0.6,0.8,0,0.00403432
0.6,0.9,0,0.00454198
0.6,1,0,0.00504921
0.6,1.1,0,0.00555822
0.6,1.2,0,0.00606693
0.6,1.3,0,0.00657692
0.6,1.4,0,0.00708683
0.6,1.5,0,0.00759708
0.6,1.6,0,0.00810765
0.6,1.7,0,0.0086171
0.6,1.8,0,0.00912741
0.6,1.9,0,0.00963457
0.6,2,0,0.0101433
0.6,2.1,0,0.0106463
0.6,2.2,0,0.0111518
0.6,2.3,0,0.0116482
0.6,2.4,0,0.0121482
0.6,2.5,0,0.0126352
0.6,2.6,0,0.0131271
0.6,2.7,0,0.0136014
0.6,2.8,0,0.0140821
0.6,2.9,0,0.01454
0.6,3,0,0.0150059
0.6,3.1,0,0.0154431
0.6,3.2,0,0.0158902
0.6,3.3,0,0.0163025
0.6,3.4,0,0.0167265
0.6,3.5,0,0.0171092
0.6,3.6,0,0.0175056
0.6,3.7,0,0.0178541
0.6,3.8,0,0.0182182
0.6,3.9,0,0.0185281
0.6,4,0,0.0188554
0.6,4.1,0,0.0191226
0.6,4.2,0,0.0194089
0.6,4.3,0,0.0196295
0.6,4.4,0,0.0198709
0.6,4.5,0,0.0200423
0.6,4.6,0,0.0202353
0.6,4.7,0,0.0203553
0.6,4.8,0,0.0204977
0.6,4.9,0,0.0205651
0.6,5,0,0.0206553
0.6,5.1,0,0.0206699
0.6,5.2,0,0.0207071
0.6,5.3,0,0.0206696
0.6,5.4,0,0.0206546
0.6,5.5,0,0.0205672
0.6,5.6,0,0.0205014
0.6,5.7,0,0.0203669
0.6,5.8,0,0.0202524
0.6,5.9,0,0.0200682
0.6,6,0,0.0198537
0.6,6.1,0,0.0196809
0.6,6.2,0,0.0194913
0.6,6.3,0,0.019254
0.6,6.4,0,0.0189968
0.6,6.5,0,0.0187281
0.6,6.6,0,0.0184456
0.6,6.7,0,0.0181493
0.6,6.8,0,0.0178372
0.6,6.9,0,0.017521
0.6,7,0,0.0171938
0.6,7.1,0,0.016852
0.6,7.2,0,0.016511
0.6,7.3,0,0.0161598
0.6,7.4,0,0.0158025
0.6,7.5,0,0.0154428
0.6,7.6,0,0.0150811
0.6,7.7,0,0.0147152
0.6,7.8,0,0.0143466
0.6,7.9,0,0.0139813
0.6,8,0,0.0136124
0.6,8.1,0,0.0132443
0.6,8.2,0,0.0128792
0.6,8.3,0,0.0125142
0.6,8.4,0,0.0121511
0.6,8.5,0,0.0117909
0.6,8.6,0,0.0114344
0.6,8.7,0,0.0110791
0.6,8.8,0,0.0107288
0.6,8.9,0,0.0103827
0.6,9,0,0.0100384
0.6,9.1,0,0.00970052
0.6,9.2,0,0.00936594
0.6,9.3,0,0.00903547
0.6,9.4,0,0.00870953
0.6,9.5,0,0.00838831
0.6,9.6,0,0.00807174
0.6,9.7,0,0.00775804
0.6,9.8,0,0.00745147
0.6,9.9,0,0.00714793
0.6,10,0,0.00684808
0.6,10.1,0,0.00655471
0.6,10.2,0,0.00626414
0.6,10.3,0,0.00597791
0.6,10.4,0,0.00569586
0.6,10.5,0,0.00541817
0.6,10.6,0,0.00514389
0.6,10.7,0,0.00487236
0.6,10.8,0,0.00460691
0.6,10.9,0,0.00434286
0.6,11,0,0.00408239
0.6,11.1,0,0.00382627
0.6,11.2,0,0.00357198
0.6,11.3,0,0.00332065
0.6,11.4,0,0.00307207
0.6,11.5,0,0.00282636
0.6,11.6,0,0.00258217
0.6,11.7,0,0.00233996
0.6,11.8,0,0.00210119
0.6,11.9,0,0.00186245
0.6,12,0,0.00162614
0.6,12.1,0,0.00139154
0.6,12.2,0,0.00115747
0.6,12.3,0,0.000924506
0.6,12.4,0,0.000692651
0.6,12.5,0,0.000461602
0.6,12.6,0,0.000230177
0.6,12.7,0,0
0.7,0,0,0
0.7,0.1,0,0.000502414
0.7,0.2,0,0.00100483
0.7,0.3,0,0.00150804
0.7,0.4,0,0.00201115
0.7,0.5,0,0.0025156
0.7,0.6,0,0.00301987
0.7,0.7,0,0.00352591
0.7,0.8,0,0.00403173
0.7,0.9,0,0.00453955
0.7,1,0,0.00504715
0.7,1.1,0,0.00555673
0.7,1.2,0,0.00606616
0.7,1.3,0,0.0065772
0.7,1.4,0,0.00708821
0.7,1.5,0,0.00760011
0.7,1.6,0,0.00811217
0.7,1.7,0,0.00862395
0.7,1.8,0,0.00913616
0.7,1.9,0,0.00964642
0.7,2,0,0.0101575
0.7,2.1,0,0.0106644
0.7,2.2,0,0.0111726
0.7,2.3,0,0.0116738
0.7,2.4,0,0.0121768
0.7,2.5,0,0.0126696
0.7,2.6,0,0.0131648
0.7,2.7,0,0.0136458
0.7,2.8,0,0.01413
0.7,2.9,0,0.0145954
0.7,3,0,0.0150648
0.7,3.1,0,0.0155104
0.7,3.2,0,0.015961
0.7,3.3,0,0.0163823
0.7,3.4,0,0.0168094
0.7,3.5,0,0.0172017
0.7,3.6,0,0.0176008
0.7,3.7,0,0.0179591
0.7,3.8,0,0.0183253
0.7,3.9,0,0.018645
0.7,4,0,0.0189735
0.7,4.1,0,0.0192503
0.7,4.2,0,0.0195366
0.7,4.3,0,0.0197664
0.7,4.4,0,0.0200066
0.7,4.5,0,0.0201863
0.7,4.6,0,0.0203769
0.7,4.7,0,0.0205042
0.7,4.8,0,0.0206428
0.7,4.9,0,0.0207163
0.7,5,0,0.0208013
0.7,5.1,0,0.0208206
0.7,5.2,0,0.0208513
0.7,5.3,0,0.0208173
0.7,5.4,0,0.0207945
0.7,5.5,0,0.0207092
0.7,5.6,0,0.0206346
0.7,5.7,0,0.0205007
0.7,5.8,0,0.0203769
0.7,5.9,0,0.0201789
0.7,6,0,0.0199658
0.7,6.1,0,0.01978
0.7,6.2,0,0.0195678
0.7,6.3,0,0.0193475
0.7,6.4,0,0.0190902
0.7,6.5,0,0.0188038
0.7,6.6,0,0.0185169
0.7,6.7,0,0.0182208
0.7,6.8,0,0.0178988
0.7,6.9,0,0.0175711
0.7,7,0,0.0172437
0.7,7.1,0,0.0168984
0.7,7.2,0,0.0165438
0.7,7.3,0,0.01619
0.7,7.4,0,0.0158327
0.7,7.5,0,0.0154641
0.7,7.6,0,0.0150949
0.7,7.7,0,0.0147286
0.7,7.8,0,0.014357
0.7,7.9,0,0.0139832
0.7,8,0,0.0136123
0.7,8.1,0,0.0132436
0.7,8.2,0,0.0128732
0.7,8.3,0,0.0125038
0.7,8.4,0,0.0121408
0.7,8.5,0,0.0117792
0.7,8.6,0,0.0114176
0.7,8.7,0,0.0110616
0.7,8.8,0,0.010712
0.7,8.9,0,0.0103629
0.7,9,0,0.0100163
0.7,9.1,0,0.00967889
0.7,9.2,0,0.00934459
0.7,9.3,0,0.009011
0.7,9.4,0,0.00868506
0.7,9.5,0,0.00836589
0.7,9.6,0,0.00804725
0.7,9.7,0,0.00773289
0.7,9.8,0,0.00742805
0.7,9.9,0,0.00712508
0.7,10,0,0.00682358
0.7,10.1,0,0.0065307
0.7,10.2,0,0.00624272
0.7,10.3,0,0.00595503
0.7,10.4,0,0.00567298
0.7,10.5,0,0.00539798
0.7,10.6,0,0.00512379
0.7,10.7,0,0.00485181
0.7,10.8,0,0.00458788
0.7,10.9,0,0.00432597
0.7,11,0,0.00406466
0.7,11.1,0,0.00380881
0.7,11.2,0,0.00355741
0.7,11.3,0,0.00330608
0.7,11.4,0,0.0030575
0.7,11.5,0,0.00281392
0.7,11.6,0,0.00257112
0.7,11.7,0,0.0023288
0.7,11.8,0,0.002091
0.7,11.9,0,0.00185479
0.7,12,0,0.00161854
0.7,12.1,0,0.00138401
0.7,12.2,0,0.00115231
0.7,12.3,0,0.000920597
0.7,12.4,0,0.000688742
0.7,12.5,0,0.000458988
0.7,12.6,0,0.000229838
0.7,12.7,0,0
0.8,0,0,0
0.8,0.1,0,0.00050165
0.8,0.2,0,0.00100334
0.8,0.3,0,0.00150597
0.8,0.4,0,0.00200845
0.8,0.5,0,0.00251256
0.8,0.6,0,0.00301638
0.8,0.7,0,0.00352239
0.8,0.8,0,0.00402801
0.8,0.9,0,0.0045362
0.8,1,0,0.00504395
0.8,1.1,0,0.00555439
0.8,1.2,0,0.00606438
0.8,1.3,0,0.00657685
0.8,1.4,0,0.00708892
0.8,1.5,0,0.00760289
0.8,1.6,0,0.00811658
0.8,1.7,0,0.00863113
0.8,1.8,0,0.0091456
0.8,1.9,0,0.0096594
0.8,2,0,0.0101734
0.8,2.1,0,0.0106847
0.8,2.2,0,0.0111965
0.8,2.3,0,0.0117028
0.8,2.4,0,0.0122103
0.8,2.5,0,0.012709
0.8,2.6,0,0.0132094
0.8,2.7,0,0.013697
0.8,2.8,0,0.014187
0.8,2.9,0,0.0146596
0.8,3,0,0.0151355
0.8,3.1,0,0.0155887
0.8,3.2,0,0.0160463
0.8,3.3,0,0.0164755
0.8,3.4,0,0.0169099
0.8,3.5,0,0.01731
0.8,3.6,0,0.0177165
0.8,3.7,0,0.0180825
0.8,3.8,0,0.0184558
0.8,3.9,0,0.0187826
0.8,4,0,0.0191177
0.8,4.1,0,0.0194008
0.8,4.2,0,0.019693
0.8,4.3,0,0.019928
0.8,4.4,0,0.020173
0.8,4.5,0,0.0203566
0.8,4.6,0,0.0205507
0.8,4.7,0,0.0206804
0.8,4.8,0,0.020821
0.8,4.9,0,0.0208952
0.8,5,0,0.0209806
0.8,5.1,0,0.020999
0.8,5.2,0,0.0210285
0.8,5.3,0,0.0209918
0.8,5.4,0,0.0209662
0.8,5.5,0,0.0208769
0.8,5.6,0,0.020798
0.8,5.7,0,0.0206588
0.8,5.8,0,0.0205292
0.8,5.9,0,0.0203248
0.8,6,0,0.0201027
0.8,6.1,0,0.0199071
0.8,6.2,0,0.0196949
0.8,6.3,0,0.0194682
0.8,6.4,0,0.019191
0.8,6.5,0,0.0189041
0.8,6.6,0,0.0186172
0.8,6.7,0,0.0183012
0.8,6.8,0,0.0179718
0.8,6.9,0,0.0176441
0.8,7,0,0.0173044
0.8,7.1,0,0.0169458
0.8,7.2,0,0.0165912
0.8,7.3,0,0.0162326
0.8,7.4,0,0.0158588
0.8,7.5,0,0.015489
0.8,7.6,0,0.0151198
0.8,7.7,0,0.0147405
0.8,7.8,0,0.0143635
0.8,7.9,0,0.0139897
0.8,8,0,0.0136122
0.8,8.1,0,0.0132358
0.8,8.2,0,0.0128653
0.8,8.3,0,0.0124941
0.8,8.4,0,0.0121233
0.8,8.5,0,0.0117609
0.8,8.6,0,0.0113993
0.8,8.7,0,0.0110385
0.8,8.8,0,0.0106868
0.8,8.9,0,0.0103378
0.8,9,0,0.00998933
0.8,9.1,0,0.00964971
0.8,9.2,0,0.00931541
0.8,9.3,0,0.00898155
0.8,9.4,0,0.00865435
0.8,9.5,0,0.00833504
0.8,9.6,0,0.0080164
0.8,9.7,0,0.00770198
0.8,9.8,0,0.00739736
0.8,9.9,0,0.00709439
0.8,10,0,0.00679331
0.8,10.1,0,0.00650153
0.8,10.2,0,0.00621354
0.8,10.3,0,0.00592607
0.8,10.4,0,0.00564587
0.8,10.5,0,0.00537131
0.8,10.6,0,0.00509712
0.8,10.7,0,0.00482692
0.8,10.8,0,0.00456442
0.8,10.9,0,0.00430251
0.8,11,0,0.00404233
0.8,11.1,0,0.00378904
0.8,11.2,0,0.00353765
0.8,11.3,0,0.00328653
0.8,11.4,0,0.00304095
0.8,11.5,0,0.00279819
0.8,11.6,0,0.0025554
0.8,11.7,0,0.00231535
0.8,11.8,0,0.00207954
0.8,11.9,0,0.00184333
0.8,12,0,0.0016083
0.8,12.1,0,0.00137697
0.8,12.2,0,0.00114527
0.8,12.3,0,0.000913629
0.8,12.4,0,0.000685186
0.8,12.5,0,0.000456524
0.8,12.6,0,0.000227375
0.8,12.7,0,0
0.9,0,0,0
0.9,0.1,0,0.00050069
0.9,0.2,0,0.00100147
0.9,0.3,0,0.0015034
0.9,0.4,0,0.00200504
0.9,0.5,0,0.00250877
0.9,0.6,0,0.00301191
0.9,0.7,0,0.00351793
0.9,0.8,0,0.00402316
0.9,0.9,0,0.00453183
0.9,1,0,0.0050396
0.9,1.1,0,0.00555105
0.9,1.2,0,0.00606159
0.9,1.3,0,0.00657567
0.9,1.4,0,0.00708895
0.9,1.5,0,0.00760519
0.9,1.6,0,0.00812087
0.9,1.7,0,0.00863838
0.9,1.8,0,0.00915574
0.9,1.9,0,0.0096732
0.9,2,0,0.0101912
0.9,2.1,0,0.0107068
0.9,2.2,0,0.0112236
0.9,2.3,0,0.011735
0.9,2.4,0,0.0122487
0.9,2.5,0,0.012753
0.9,2.6,0,0.0132609
0.9,2.7,0,0.0137545
0.9,2.8,0,0.0142533
0.9,2.9,0,0.0147322
0.9,3,0,0.015218
0.9,3.1,0,0.0156778
0.9,3.2,0,0.0161462
0.9,3.3,0,0.0165818
0.9,3.4,0,0.0170279
0.9,3.5,0,0.017434
0.9,3.6,0,0.0178527
0.9,3.7,0,0.0182239
0.9,3.8,0,0.0186097
0.9,3.9,0,0.0189406
0.9,4,0,0.0192882
0.9,4.1,0,0.0195739
0.9,4.2,0,0.019878
0.9,4.3,0,0.0201141
0.9,4.4,0,0.0203701
0.9,4.5,0,0.0205528
0.9,4.6,0,0.0207567
0.9,4.7,0,0.0208835
0.9,4.8,0,0.0210323
0.9,4.9,0,0.0211016
0.9,5,0,0.0211933
0.9,5.1,0,0.0212049
0.9,5.2,0,0.0212386
0.9,5.3,0,0.0211932
0.9,5.4,0,0.0211699
0.9,5.5,0,0.0210703
0.9,5.6,0,0.0209916
0.9,5.7,0,0.0208409
0.9,5.8,0,0.0207095
0.9,5.9,0,0.0205047
0.9,6,0,0.0202644
0.9,6.1,0,0.020077
0.9,6.2,0,0.0198595
0.9,6.3,0,0.0196022
0.9,6.4,0,0.0193249
0.9,6.5,0,0.0190299
0.9,6.6,0,0.0187193
0.9,6.7,0,0.0184026
0.9,6.8,0,0.0180704
0.9,6.9,0,0.017721
0.9,7,0,0.0173741
0.9,7.1,0,0.0170136
0.9,7.2,0,0.0166435
0.9,7.3,0,0.0162736
0.9,7.4,0,0.0158998
0.9,7.5,0,0.0155204
0.9,7.6,0,0.0151375
0.9,7.7,0,0.0147573
0.9,7.8,0,0.0143758
0.9,7.9,0,0.0139902
0.9,8,0,0.0136098
0.9,8.1,0,0.0132317
0.9,8.2,0,0.012852
0.9,8.3,0,0.0124773
0.9,8.4,0,0.0121065
0.9,8.5,0,0.0117381
0.9,8.6,0,0.0113726
0.9,8.7,0,0.0110118
0.9,8.8,0,0.0106569
0.9,8.9,0,0.0103042
0.9,9,0,0.00995634
0.9,9.1,0,0.00961585
0.9,9.2,0,0.00927796
0.9,9.3,0,0.00894543
0.9,9.4,0,0.00861824
0.9,9.5,0,0.00829616
0.9,9.6,0,0.00797897
0.9,9.7,0,0.00766517
0.9,9.8,0,0.00735903
0.9,9.9,0,0.00705659
0.9,10,0,0.00675764
0.9,10.1,0,0.00646555
0.9,10.2,0,0.00617712
0.9,10.3,0,0.00589289
0.9,10.4,0,0.00561269
0.9,10.5,0,0.00533728
0.9,10.6,0,0.00506641
0.9,10.7,0,0.0047972
0.9,10.8,0,0.00453424
0.9,10.9,0,0.00427452
0.9,11,0,0.00401674
0.9,11.1,0,0.00376341
0.9,11.2,0,0.00351317
0.9,11.3,0,0.00326554
0.9,11.4,0,0.00301996
0.9,11.5,0,0.0027775
0.9,11.6,0,0.00253834
0.9,11.7,0,0.00229929
0.9,11.8,0,0.00206374
0.9,11.9,0,0.00183042
0.9,12,0,0.00159739
0.9,12.1,0,0.0013661
0.9,12.2,0,0.00113656
0.9,12.3,0,0.000908036
0.9,12.4,0,0.000679592
0.9,12.5,0,0.000451994
0.9,12.6,0,0.0002265
0.9,12.7,0,0
1,0,0,0
1,0.1,0,0.000499794
1,0.2,0,0.000999589
1,0.3,0,0.0015006
1,0.4,0,0.00200162
1,0.5,0,0.00250453
1,0.6,0,0.00300744
1,0.7,0,0.00351288
1,0.8,0,0.00401831
1,0.9,0,0.00452678
1,1,0,0.00503524
1,1.1,0,0.00554702
1,1.2,0,0.0060588
1,1.3,0,0.00657389
1,1.4,0,0.00708898
1,1.5,0,0.00760707
1,1.6,0,0.00812515
1,1.7,0,0.00864552
1,1.8,0,0.00916589
1,1.9,0,0.00968738
1,2,0,0.0102089
1,2.1,0,0.0107298
1,2.2,0,0.0112508
1,2.3,0,0.0117689
1,2.4,0,0.0122871
1,2.5,0,0.0127997
1,2.6,0,0.0133123
1,2.7,0,0.0138159
1,2.8,0,0.0143195
1,2.9,0,0.01481
1,3,0,0.0153005
1,3.1,0,0.0157733
1,3.2,0,0.0162461
1,3.3,0,0.016696
1,3.4,0,0.0171459
1,3.5,0,0.0175674
1,3.6,0,0.0179889
1,3.7,0,0.0183762
1,3.8,0,0.0187636
1,3.9,0,0.0191111
1,4,0,0.0194586
1,4.1,0,0.0197608
1,4.2,0,0.020063
1,4.3,0,0.0203151
1,4.4,0,0.0205672
1,4.5,0,0.0207649
1,4.6,0,0.0209627
1,4.7,0,0.0211032
1,4.8,0,0.0212436
1,4.9,0,0.0213248
1,5,0,0.0214061
1,5.1,0,0.0214274
1,5.2,0,0.0214487
1,5.3,0,0.0214111
1,5.4,0,0.0213735
1,5.5,0,0.0212793
1,5.6,0,0.0211851
1,5.7,0,0.0210375
1,5.8,0,0.0208899
1,5.9,0,0.020658
1,6,0,0.0204261
1,6.1,0,0.0201933
1,6.2,0,0.0199604
1,6.3,0,0.0197275
1,6.4,0,0.0194437
1,6.5,0,0.0191326
1,6.6,0,0.0188214
1,6.7,0,0.0184982
1,6.8,0,0.0181468
1,6.9,0,0.0177953
1,7,0,0.0174439
1,7.1,0,0.0170692
1,7.2,0,0.0166932
1,7.3,0,0.0163173
1,7.4,0,0.0159345
1,7.5,0,0.0155472
1,7.6,0,0.01516
1,7.7,0,0.0147725
1,7.8,0,0.0143844
1,7.9,0,0.0139962
1,8,0,0.0136081
1,8.1,0,0.0132262
1,8.2,0,0.012845
1,8.3,0,0.0124638
1,8.4,0,0.0120893
1,8.5,0,0.0117202
1,8.6,0,0.0113512
1,8.7,0,0.0109852
1,8.8,0,0.0106315
1,8.9,0,0.0102779
1,9,0,0.00992422
1,9.1,0,0.00958503
1,9.2,0,0.0092484
1,9.3,0,0.00891177
1,9.4,0,0.00858387
1,9.5,0,0.00826472
1,9.6,0,0.00794556
1,9.7,0,0.00762896
1,9.8,0,0.00732684
1,9.9,0,0.00702473
1,10,0,0.00672261
1,10.1,0,0.00643328
1,10.2,0,0.00614715
1,10.3,0,0.00586102
1,10.4,0,0.00558143
1,10.5,0,0.00530982
1,10.6,0,0.00503821
1,10.7,0,0.00476788
1,10.8,0,0.00450906
1,10.9,0,0.00425023
1,11,0,0.00399141
1,11.1,0,0.00374074
1,11.2,0,0.00349278
1,11.3,0,0.00324482
1,11.4,0,0.0030004
1,11.5,0,0.00276129
1,11.6,0,0.00252218
1,11.7,0,0.0022834
1,11.8,0,0.00205103
1,11.9,0,0.00181866
1,12,0,0.00158628
1,12.1,0,0.00135716
1,12.2,0,0.00112943
1,12.3,0,0.000901694
1,12.4,0,0.000674926
1,12.5,0,0.000449951
1,12.6,0,0.000224975
1,12.7,0,0
1.1,0,0,0
1.1,0.1,0,0.000498192
1.1,0.2,0,0.000996594
1.1,0.3,0,0.00149656
1.1,0.4,0,0.00199609
1.1,0.5,0,0.00249851
1.1,0.6,0,0.00300001
1.1,0.7,0,0.00350557
1.1,0.8,0,0.00400985
1.1,0.9,0,0.00451914
1.1,1,0,0.00502688
1.1,1.1,0,0.00554028
1.1,1.2,0,0.00605194
1.1,1.3,0,0.00656951
1.1,1.4,0,0.00708527
1.1,1.5,0,0.00760675
1.1,1.6,0,0.0081265
1.1,1.7,0,0.00865121
1.1,1.8,0,0.00917441
1.1,1.9,0,0.0097012
1.1,2,0,0.0102269
1.1,2.1,0,0.0107541
1.1,2.2,0,0.0112808
1.1,2.3,0,0.0118061
1.1,2.4,0,0.0123318
1.1,2.5,0,0.0128522
1.1,2.6,0,0.0133741
1.1,2.7,0,0.0138861
1.1,2.8,0,0.0144009
1.1,2.9,0,0.0149
1.1,3,0,0.0154036
1.1,3.1,0,0.015885
1.1,3.2,0,0.0163726
1.1,3.3,0,0.0168307
1.1,3.4,0,0.017297
1.1,3.5,0,0.0177257
1.1,3.6,0,0.018165
1.1,3.7,0,0.0185582
1.1,3.8,0,0.0189642
1.1,3.9,0,0.0193157
1.1,4,0,0.0196821
1.1,4.1,0,0.019986
1.1,4.2,0,0.020307
1.1,4.3,0,0.0205581
1.1,4.4,0,0.0208281
1.1,4.5,0,0.021022
1.1,4.6,0,0.0212362
1.1,4.7,0,0.0213697
1.1,4.8,0,0.0215246
1.1,4.9,0,0.0215959
1.1,5,0,0.0216892
1.1,5.1,0,0.0216979
1.1,5.2,0,0.0217283
1.1,5.3,0,0.0216753
1.1,5.4,0,0.021644
1.1,5.5,0,0.0215326
1.1,5.6,0,0.0214416
1.1,5.7,0,0.0212754
1.1,5.8,0,0.0211279
1.1,5.9,0,0.0209047
1.1,6,0,0.0206385
1.1,6.1,0,0.0204304
1.1,6.2,0,0.0202059
1.1,6.3,0,0.0199203
1.1,6.4,0,0.0196149
1.1,6.5,0,0.0193004
1.1,6.6,0,0.018971
1.1,6.7,0,0.0186253
1.1,6.8,0,0.0182654
1.1,6.9,0,0.0179068
1.1,7,0,0.0175321
1.1,7.1,0,0.0171462
1.1,7.2,0,0.0167662
1.1,7.3,0,0.0163734
1.1,7.4,0,0.0159768
1.1,7.5,0,0.0155813
1.1,7.6,0,0.0151866
1.1,7.7,0,0.014787
1.1,7.8,0,0.0143883
1.1,7.9,0,0.0139973
1.1,8,0,0.0136012
1.1,8.1,0,0.0132099
1.1,8.2,0,0.0128245
1.1,8.3,0,0.0124397
1.1,8.4,0,0.0120588
1.1,8.5,0,0.0116833
1.1,8.6,0,0.0113137
1.1,8.7,0,0.0109456
1.1,8.8,0,0.0105851
1.1,8.9,0,0.0102307
1.1,9,0,0.00987839
1.1,9.1,0,0.00953471
1.1,9.2,0,0.00919538
1.1,9.3,0,0.00886122
1.1,9.4,0,0.00853266
1.1,9.5,0,0.00820991
1.1,9.6,0,0.00789271