/*--------------------------------*- C++ -*----------------------------------*\
| =========                 |                                                 |
| \\      /  F ield         | OpenFOAM: The Open Source CFD Toolbox           |
|  \\    /   O peration     | Version:  v1806                                 |
|   \\  /    A nd           | Web:      www.OpenFOAM.com                      |
|    \\/     M anipulation  |                                                 |
\*---------------------------------------------------------------------------*/
FoamFile
{
    version     2.0;
    format      ascii;
    class       volScalarField;
    location    "9";
    object      p;
}
// * * * * * * * * * * * * * * * * * * * * * * * * * * * * * * * * * * * * * //

dimensions      [0 2 -2 0 0 0 0];


internalField   nonuniform List<scalar> 
2400
(
0.0375575
0.0374772
0.0370348
0.0364651
0.0357438
0.0352593
0.0336938
0.0322716
0.0298091
0.0273777
0.0242552
0.0209473
0.0166227
0.0120565
0.00653823
0.000562564
-0.00513288
-0.0114335
-0.0181057
-0.0248861
0.113095
0.112404
0.111259
0.109835
0.107563
0.105871
0.101415
0.0970834
0.0900061
0.0826989
0.073513
0.0634616
0.0507139
0.0367839
0.0202245
0.00242867
-0.0152751
-0.0339429
-0.0521199
-0.0711662
0.188909
0.187195
0.186036
0.183954
0.180352
0.17694
0.169785
0.162536
0.151459
0.139424
0.12426
0.107385
0.0862093
0.0628219
0.0351341
0.00539458
-0.0252103
-0.0572895
-0.090234
-0.120925
0.264799
0.26223
0.261781
0.259235
0.254403
0.248752
0.23906
0.229299
0.214563
0.198411
0.177106
0.153611
0.123709
0.0909389
0.0518099
0.00971705
-0.0346477
-0.0805111
-0.125458
-0.171363
0.340484
0.337882
0.338955
0.33565
0.32986
0.321426
0.30983
0.297905
0.280065
0.26037
0.232741
0.203013
0.164111
0.121995
0.071091
0.0160571
-0.0429422
-0.10481
-0.167216
-0.228005
0.415489
0.414786
0.417884
0.413209
0.406558
0.395147
0.382728
0.368922
0.348662
0.325887
0.291984
0.256666
0.208401
0.157049
0.0940038
0.0249147
-0.0497784
-0.129014
-0.207447
-0.28703
0.48972
0.493649
0.49832
0.491753
0.484115
0.470407
0.458286
0.442846
0.420978
0.395338
0.355946
0.315581
0.257898
0.197487
0.121552
0.0374148
-0.0544508
-0.153778
-0.255478
-0.354897
0.563707
0.574821
0.579073
0.571177
0.562136
0.548126
0.53678
0.52029
0.497532
0.469207
0.425774
0.380639
0.314225
0.244894
0.154892
0.0550098
-0.0567522
-0.178159
-0.302485
-0.427755
0.638303
0.657435
0.659127
0.651294
0.640203
0.629053
0.61783
0.601787
0.578415
0.548158
0.502455
0.452803
0.378959
0.301018
0.195577
0.0800841
-0.0554898
-0.203056
-0.358457
-0.513359
0.714223
0.739724
0.738033
0.731801
0.718619
0.713228
0.70042
0.688105
0.662722
0.633357
0.586056
0.533532
0.453234
0.367935
0.245791
0.115658
-0.049408
-0.225758
-0.416139
-0.610342
0.791892
0.820213
0.81588
0.811879
0.79819
0.798853
0.784629
0.778254
0.74996
0.726218
0.675447
0.624676
0.537028
0.448553
0.307321
0.166408
-0.0360573
-0.242084
-0.480847
-0.727383
0.871803
0.897994
0.892772
0.890788
0.879505
0.884474
0.871359
0.870023
0.841629
0.825018
0.771017
0.727182
0.629876
0.545079
0.380889
0.239036
-0.0143948
-0.241653
-0.551978
-0.86587
0.954737
0.972464
0.968608
0.968278
0.962864
0.969547
0.961335
0.962385
0.939082
0.927311
0.875753
0.838412
0.733835
0.65785
0.465926
0.336434
0.0127387
-0.206641
-0.635226
-1.02045
1.0414
1.04343
1.0434
1.04502
1.04901
1.05471
1.05552
1.05568
1.04359
1.03227
0.992777
0.956815
0.855727
0.783325
0.567181
0.454568
0.0410755
-0.128153
-0.758757
-1.17301
1.13046
1.11215
1.11814
1.123
1.13831
1.14204
1.15453
1.15298
1.15735
1.14355
1.12533
1.08444
1.00444
0.921742
0.702806
0.58581
0.0768443
-0.0216786
-0.942601
-1.27721
1.21443
1.18059
1.19782
1.20229
1.23317
1.2304
1.2622
1.25336
1.28415
1.26247
1.27714
1.22762
1.1872
1.08363
0.898875
0.734531
0.167313
0.0849051
-1.16843
-1.29157
1.28813
1.25202
1.27513
1.28161
1.32213
1.32028
1.3687
1.359
1.41886
1.39059
1.45167
1.38294
1.40871
1.27341
1.16809
0.928169
0.392247
0.183926
-1.37384
-1.15705
1.35303
1.32552
1.34621
1.35982
1.40187
1.41172
1.46507
1.47008
1.54261
1.52986
1.61923
1.55839
1.6517
1.48566
1.51254
1.17482
0.817626
0.294218
-1.54261
-0.977004
1.41592
1.39584
1.4144
1.43485
1.47711
1.50113
1.5553
1.5822
1.65755
1.67729
1.77741
1.75494
1.88961
1.73724
1.91519
1.42769
1.51932
0.381889
-1.02837
-2.40208
1.48078
1.46127
1.4824
1.50604
1.55365
1.58639
1.64876
1.69162
1.77755
1.82619
1.93967
1.96808
2.12324
2.04886
2.29903
1.86135
2.38928
0.574334
1.06386
-6.68731
-0.0260166
-0.0287132
-0.0312286
-0.0327976
-0.0336265
-0.0347917
-0.035625
-0.0367213
-0.0374662
-0.0386766
-0.088094
-0.0936536
-0.0957844
-0.0988399
-0.10198
-0.105484
-0.108134
-0.110736
-0.112263
-0.113799
-0.134236
-0.145552
-0.15805
-0.167886
-0.174609
-0.180025
-0.184004
-0.18736
-0.189299
-0.190435
-0.204939
-0.21957
-0.230545
-0.241414
-0.250907
-0.258726
-0.264358
-0.268396
-0.270551
-0.271104
-0.259856
-0.281095
-0.303328
-0.321504
-0.335365
-0.345612
-0.35294
-0.357594
-0.359791
-0.359194
-0.343553
-0.369905
-0.391718
-0.41174
-0.429477
-0.443312
-0.453347
-0.459185
-0.46149
-0.459756
-0.414343
-0.450299
-0.486133
-0.51553
-0.539264
-0.557254
-0.570416
-0.578045
-0.580859
-0.578358
-0.518363
-0.563609
-0.602618
-0.637214
-0.667411
-0.691435
-0.709238
-0.719725
-0.723693
-0.72095
-0.612247
-0.671586
-0.730891
-0.781459
-0.822511
-0.853888
-0.876666
-0.890335
-0.895934
-0.893511
-0.741378
-0.814276
-0.888358
-0.954624
-1.00898
-1.04997
-1.07889
-1.09616
-1.10358
-1.10151
-0.881193
-0.976336
-1.0766
-1.16584
-1.23779
-1.29065
-1.32665
-1.34774
-1.35695
-1.35487
-1.05976
-1.17945
-1.30886
-1.42697
-1.52236
-1.59129
-1.63641
-1.66222
-1.67294
-1.66972
-1.27863
-1.4343
-1.60438
-1.76106
-1.88634
-1.97504
-2.032
-2.06412
-2.0766
-2.06929
-1.52395
-1.75542
-2.00125
-2.21371
-2.37391
-2.48405
-2.55473
-2.59568
-2.60896
-2.59059
-1.82941
-2.20749
-2.56084
-2.83667
-3.03448
-3.17264
-3.26421
-3.31809
-3.33084
-3.30046
-2.40645
-2.98045
-3.39935
-3.68808
-3.90916
-4.0976
-4.25687
-4.35843
-4.34998
-4.22502
-3.45517
-4.35735
-4.76807
-4.94209
-5.08589
-5.29533
-5.58735
-5.86469
-5.98611
-5.90096
-4.85327
-6.28151
-6.78605
-7.01467
-7.17795
-7.42928
-7.54266
-7.41433
-7.11786
-6.79841
-5.86759
-6.40817
-6.6137
-7.17478
-8.48768
-10.8823
-12.2256
-12.0943
-11.2701
-10.337
-15.9667
-12.6691
-9.8554
-8.9795
-9.56444
-10.4424
-11.1456
-11.3079
-11.0769
-10.744
-0.0353267
0.0241253
0.0320415
-0.00178803
-0.128138
-0.104912
-0.058083
0.050708
0.154758
0.15795
0.103273
0.0583573
0.0334157
0.0223586
0.017877
0.0159072
0.0146997
0.0130353
0.0113739
0.00545294
-0.10455
-0.0853428
0.0813314
-0.0595395
-0.460758
-0.443593
-0.183914
0.138201
0.402549
0.414821
0.274746
0.158133
0.0924989
0.0625084
0.0500209
0.0443855
0.0406584
0.0355167
0.0300314
0.0138993
-0.178128
-0.0924052
0.157775
-0.186222
-0.888371
-0.832662
-0.336101
0.199065
0.607493
0.63263
0.427631
0.2492
0.146958
0.0999793
0.0803282
0.0713525
0.0651549
0.0564419
0.0464461
0.0209124
-0.253897
-0.0593551
0.254803
-0.376982
-1.39947
-1.27505
-0.512956
0.246879
0.771793
0.797411
0.543699
0.323259
0.193701
0.133153
0.107594
0.0957388
0.0872276
0.0751793
0.060596
0.0268863
-0.336726
-0.0477681
0.372731
-0.617644
-1.97099
-1.78049
-0.709832
0.269426
0.896267
0.931868
0.646057
0.388232
0.234706
0.162899
0.132608
0.118393
0.107675
0.0922069
0.0728099
0.0318638
-0.433906
-0.0617822
0.497396
-0.885963
-2.52938
-2.30678
-0.925273
0.273278
0.99436
1.02714
0.714994
0.436531
0.267885
0.188355
0.154784
0.138836
0.126246
0.107629
0.0834869
0.036074
-0.551271
-0.111107
0.625963
-1.17039
-3.054
-2.85135
-1.15171
0.254905
1.04499
1.09688
0.774948
0.477341
0.295506
0.210351
0.174777
0.157656
0.143294
0.121581
0.0927955
0.0396257
-0.693295
-0.173703
0.773525
-1.44157
-3.52717
-3.36647
-1.38311
0.214615
1.08233
1.13713
0.805888
0.501874
0.315363
0.228226
0.192193
0.174646
0.158902
0.134307
0.101005
0.0426416
-0.863203
-0.2266
0.959716
-1.66293
-3.95312
-3.84791
-1.61036
0.153882
1.08008
1.154
0.82673
0.519515
0.33018
0.242938
0.207644
0.19017
0.173218
0.145898
0.108272
0.0452122
-1.06293
-0.248125
1.20662
-1.77931
-4.3143
-4.26076
-1.82695
0.0722384
1.05991
1.15152
0.827181
0.523541
0.337885
0.253869
0.220874
0.204248
0.186432
0.156551
0.114771
0.047419
-1.29932
-0.233916
1.50195
-1.7671
-4.58466
-4.59557
-2.02351
-0.0207123
1.013
1.11771
0.812008
0.519318
0.340825
0.262035
0.232407
0.217098
0.198647
0.166371
0.120634
0.0493288
-1.57799
-0.211607
1.79652
-1.65887
-4.72741
-4.82857
-2.1856
-0.125513
0.943023
1.07178
0.782522
0.504871
0.337817
0.266989
0.242158
0.228859
0.210049
0.175508
0.125984
0.0509988
-1.92407
-0.232379
2.04031
-1.52509
-4.73368
-4.94752
-2.31093
-0.237632
0.853624
1.00526
0.738479
0.481891
0.330397
0.269605
0.250533
0.239695
0.220747
0.18407
0.130926
0.0524773
-2.30117
-0.328434
2.2141
-1.40897
-4.62396
-4.95323
-2.39577
-0.348812
0.748211
0.922906
0.682162
0.450735
0.318208
0.269689
0.257594
0.249778
0.230901
0.192176
0.135555
0.0538056
-2.88344
-0.572744
2.3087
-1.32006
-4.41812
-4.85188
-2.43316
-0.453791
0.630341
0.825057
0.613625
0.412413
0.302346
0.267909
0.26365
0.259264
0.240627
0.199926
0.139951
0.0550193
-3.37558
-0.930203
2.35801
-1.24982
-4.13402
-4.65219
-2.42205
-0.5497
0.502064
0.71379
0.535055
0.367982
0.282929
0.264292
0.268849
0.268331
0.250058
0.207419
0.144187
0.056149
-4.29489
-1.48204
2.31299
-1.20566
-3.79203
-4.36656
-2.36451
-0.634194
0.365477
0.590825
0.448314
0.31889
0.260854
0.259334
0.273447
0.277137
0.259308
0.214745
0.148328
0.0572213
-5.10816
-2.23643
2.16123
-1.20115
-3.41358
-4.01069
-2.26362
-0.706128
0.222282
0.457476
0.355708
0.266018
0.236366
0.2532
0.277646
0.28585
0.268491
0.221988
0.152427
0.0582596
-5.87945
-3.17957
2.07282
-1.27176
-3.01331
-3.60201
-2.12333
-0.766285
0.0732383
0.313496
0.258565
0.209722
0.209978
0.246286
0.281702
0.29462
0.277714
0.229225
0.156535
0.0592842
-6.74011
-4.17018
1.72583
-1.4357
-2.60232
-3.16053
-1.94744
-0.817475
-0.0822877
0.157045
0.155294
0.148978
0.181683
0.238848
0.285868
0.303602
0.287086
0.236533
0.16069
0.0603131
-6.31424
-4.91707
1.26635
-1.65562
-2.1923
-2.67793
-1.74033
-0.861912
-0.246155
-0.014026
0.042026
0.0822241
0.151613
0.231281
0.290414
0.31295
0.296705
0.243979
0.164928
0.0613622
-6.80564
-5.61874
0.713667
-1.89559
-1.79267
-2.1796
-1.51124
-0.898988
-0.422875
-0.200942
-0.0879454
0.00792217
0.119765
0.223958
0.295607
0.322822
0.306668
0.251627
0.169281
0.0624452
-6.58657
-5.95085
0.0945929
-2.10399
-1.41063
-1.65685
-1.26809
-0.92912
-0.621553
-0.405883
-0.237226
-0.07403
0.0864704
0.21734
0.301699
0.33337
0.317066
0.25953
0.173777
0.0635738
-6.36757
-5.866
-0.581312
-2.22889
-1.04576
-1.14375
-1.0189
-0.959242
-0.849699
-0.632932
-0.403797
-0.16198
0.0523417
0.211827
0.308936
0.34474
0.327979
0.267736
0.178442
0.064758
-5.64185
-5.53687
-1.32659
-2.24171
-0.707114
-0.600916
-0.761554
-1.00022
-1.10729
-0.881665
-0.578695
-0.252296
0.0185116
0.207758
0.31754
0.357063
0.339481
0.276286
0.183294
0.0660064
-4.9249
-5.1767
-2.12882
-2.16168
-0.38928
-0.139086
-0.511701
-1.06127
-1.38085
-1.14793
-0.75046
-0.340996
-0.0139047
0.205433
0.327691
0.370448
0.351631
0.285211
0.188352
0.0673262
-3.90023
-4.84671
-2.96401
-2.04834
-0.0875132
0.388521
-0.273863
-1.14618
-1.66055
-1.44159
-0.916617
-0.426015
-0.0440148
0.205097
0.339526
0.38498
0.364474
0.294536
0.193626
0.068723
-3.27373
-4.51728
-3.67649
-1.91769
0.194526
0.674686
-0.0585768
-1.25089
-1.94426
-1.72828
-1.08281
-0.507408
-0.0710195
0.206991
0.353154
0.400724
0.378046
0.304274
0.199123
0.070201
-2.49648
-4.06779
-4.05542
-1.72792
0.429046
1.21443
0.148943
-1.36622
-2.24641
-2.02885
-1.25868
-0.586793
-0.0939893
0.211523
0.368686
0.417739
0.392372
0.314435
0.204846
0.071763
-2.37951
-3.57267
-4.28818
-1.49693
0.639017
1.08108
0.332151
-1.49274
-2.57647
-2.35565
-1.45236
-0.667588
-0.112811
0.219103
0.386218
0.43605
0.407462
0.325022
0.210796
0.0734118
-1.2885
-2.75094
-4.3915
-1.21676
1.15203
1.96031
0.567724
-1.67502
-3.05102
-2.8254
-1.72948
-0.778438
-0.132791
0.233523
0.412359
0.462225
0.428628
0.339723
0.219041
0.0757338
-1.27837
-2.09949
-3.97308
-0.835696
1.14061
2.05252
0.750797
-1.95272
-3.65952
-3.43267
-2.07351
-0.906384
-0.14157
0.262219
0.450867
0.49838
0.457081
0.359194
0.229929
0.0788837
-1.43479
-1.89019
-2.96138
-0.361459
1.46742
2.17553
0.767451
-2.28824
-4.2157
-3.87595
-2.3092
-0.982859
-0.124629
0.305846
0.495864
0.537638
0.487187
0.379523
0.241276
0.0822533
-0.627787
-1.37663
-1.98728
-0.143194
1.49401
2.34117
0.792214
-2.57471
-4.66104
-4.17456
-2.45406
-1.00627
-0.0864837
0.365124
0.547853
0.579542
0.51858
0.400473
0.252955
0.0858094
-0.692822
-1.15537
-1.31747
0.167021
1.37369
1.83467
0.641396
-2.82541
-5.01169
-4.47921
-2.55407
-0.994981
-0.0396163
0.432843
0.606851
0.623414
0.550392
0.421464
0.264692
0.0894768
-0.311947
-0.738449
-0.863071
0.274224
1.31403
1.92249
0.558207
-3.02521
-5.20936
-4.60564
-2.56541
-0.951861
0.0128591
0.497986
0.66966
0.66915
0.582584
0.442394
0.276359
0.0932377
-0.208057
-0.755262
-0.659976
0.272293
0.975562
1.45957
0.367377
-3.11992
-5.12497
-4.41645
-2.44716
-0.879815
0.0709598
0.552448
0.728172
0.714667
0.613368
0.462005
0.287526
0.0969611
-0.0965114
-0.482776
-0.530802
0.207752
0.813433
1.27614
0.152223
-3.00579
-4.83508
-4.11587
-2.24048
-0.75573
0.131935
0.584113
0.778475
0.763413
0.644758
0.481746
0.298297
0.100671
-0.0173294
-0.481558
-0.488642
0.126337
0.499062
0.890678
-0.0994046
-2.7763
-4.4497
-3.76671
-1.99611
-0.579005
0.233091
0.614843
0.772986
0.774847
0.664484
0.497007
0.30774
0.104195
0.0171666
-0.362242
-0.443373
0.0587064
0.307608
0.51472
-0.31199
-2.48931
-3.92272
-3.27576
-1.68674
-0.412162
0.336008
0.712728
0.844536
0.805468
0.680466
0.507919
0.315075
0.10732
0.0427515
-0.345238
-0.402874
0.012923
0.0837313
0.0914173
-0.521592
-2.11744
-3.22524
-2.68496
-1.33999
-0.243605
0.412225
0.727674
0.824909
0.814736
0.692046
0.51653
0.320968
0.110136
0.0524943
-0.254776
-0.344089
-0.00490357
0.0128945
-0.234117
-0.686741
-1.64577
-2.53281
-2.12482
-1.0165
-0.0929301
0.482481
0.777342
0.872074
0.819217
0.690937
0.516158
0.322978
0.112079
0.0599897
-0.198387
-0.274374
0.00871686
-0.0308173
-0.409169
-0.691132
-1.16094
-1.89452
-1.60777
-0.732146
0.037415
0.540175
0.771989
0.840297
0.804958
0.68365
0.512865
0.322734
0.113371
0.0619903
-0.126756
-0.206682
0.0272604
0.0316689
-0.287699
-0.449162
-0.716902
-1.33061
-1.12623
-0.484532
0.126833
0.561972
0.804182
0.861527
0.792691
0.663367
0.49636
0.315978
0.112884
0.0605999
-0.0862739
-0.148233
0.0422808
0.0723402
-0.144309
-0.160295
-0.367477
-0.873582
-0.762792
-0.299905
0.193421
0.572122
0.759146
0.791975
0.738691
0.626616
0.474221
0.305702
0.111086
0.0550596
-0.0487594
-0.101735
0.043908
0.112025
-0.0192239
0.0502644
-0.144757
-0.534651
-0.483346
-0.166928
0.209653
0.539806
0.727001
0.765156
0.697941
0.577824
0.434833
0.284288
0.105594
0.0469482
-0.0268666
-0.0676923
0.0393245
0.104075
0.0345372
0.135039
-0.0252175
-0.301136
-0.290641
-0.0807073
0.222777
0.489825
0.636939
0.648918
0.591238
0.498126
0.380873
0.256252
0.0977189
0.0355022
-0.014108
-0.0426427
0.0289997
0.0857642
0.0505181
0.137052
0.0203548
-0.158179
-0.160292
-0.0330694
0.172452
0.393906
0.527446
0.545541
0.491737
0.407814
0.307965
0.210655
0.08192
0.022506
-0.00627001
-0.023524
0.0178618
0.0554696
0.0402776
0.0989372
0.0309951
-0.0690425
-0.0757452
-0.00474589
0.127306
0.271351
0.355765
0.360995
0.322073
0.267507
0.205433
0.147491
0.0611914
0.0077004
-0.00133211
-0.00762003
0.00534206
0.0196659
0.0160919
0.0354364
0.0115856
-0.0154361
-0.0158621
0.00130726
0.0499489
0.112167
0.14499
0.14295
0.126558
0.107632
0.0858631
0.0648997
0.028488
-8.9544
-7.62353
-5.26448
-3.84375
-3.22532
-2.77703
-2.38961
-2.06485
-1.82759
-1.67549
0.550839
0.256522
0.226963
0.226727
0.161089
0.0366923
-0.117936
-0.267843
-0.405246
-0.531083
-0.502416
-0.972272
-1.26537
-1.38241
-1.40508
-1.39449
-1.38653
-1.38446
-1.38897
-1.39455
0.408809
0.311005
0.213264
0.133376
0.0697134
0.0182735
-0.0325355
-0.0849702
-0.143455
-0.205819
0.382557
0.266957
0.153909
0.0440488
-0.0614085
-0.157059
-0.243265
-0.317568
-0.382632
-0.436153
0.431016
0.350253
0.264374
0.187537
0.122112
0.0694044
0.0250936
-0.0121336
-0.0474729
-0.0806715
0.457395
0.399916
0.334253
0.271729
0.215387
0.165896
0.120956
0.0796193
0.039515
0.000971113
0.450224
0.404162
0.349837
0.297472
0.249734
0.2074
0.168862
0.133692
0.100427
0.0697221
0.398862
0.361274
0.329463
0.297518
0.2648
0.23216
0.201148
0.171969
0.145053
0.119816
0.392218
0.363296
0.328531
0.295433
0.265765
0.238628
0.213278
0.188803
0.165185
0.141672
0.338829
0.314399
0.295654
0.275918
0.254749
0.232437
0.210674
0.189006
0.168336
0.147524
0.32913
0.30926
0.282582
0.256188
0.233151
0.212679
0.194573
0.176883
0.159757
0.141755
0.292115
0.275587
0.252638
0.229637
0.209832
0.192461
0.17743
0.162633
0.148358
0.133036
0.23168
0.217093
0.20802
0.19798
0.186478
0.17356
0.160858
0.147878
0.135479
0.122528
0.213909
0.204136
0.188992
0.174161
0.161707
0.150469
0.140238
0.12973
0.119491
0.108635
0.15511
0.147116
0.144691
0.14149
0.136189
0.12861
0.120137
0.111009
0.102286
0.0935165
0.117173
0.111348
0.111373
0.110694
0.107723
0.102386
0.0959758
0.0889473
0.0822632
0.0756695
0.101565
0.0983296
0.0901026
0.0822753
0.0763806
0.0716357
0.0675016
0.0632485
0.059034
0.0545734
0.0459377
0.0430247
0.0449602
0.0461313
0.0454923
0.0434426
0.0409473
0.0382909
0.0358141
0.0333323
0.0256094
0.0248146
0.0203345
0.0167267
0.0148598
0.0139532
0.0133725
0.0126991
0.0119691
0.0111094
1.714
1.67488
1.71308
1.74101
1.80825
1.83952
1.93179
1.97507
2.10694
2.15808
2.33999
2.38075
2.62892
2.60795
2.93751
2.70812
3.03882
2.09802
1.36556
-3.02244
1.66939
1.63601
1.66126
1.68798
1.73863
1.77048
1.83247
1.87804
1.9595
2.01768
2.11157
2.17239
2.25665
2.29749
2.31251
2.26752
2.09971
1.92653
1.24501
1.53702
1.60652
1.59081
1.60062
1.6227
1.65278
1.68736
1.72424
1.76877
1.8126
1.86346
1.90577
1.95413
1.96369
1.99795
1.90733
1.91636
1.62927
1.58023
0.863979
0.445126
1.51689
1.53229
1.535
1.55012
1.56228
1.59435
1.6111
1.65308
1.66438
1.71446
1.70864
1.76072
1.71223
1.7522
1.62222
1.62908
1.37823
1.27705
0.852969
0.575496
1.42543
1.459
1.45751
1.46773
1.46733
1.49468
1.4998
1.53374
1.5313
1.56672
1.5482
1.57636
1.52647
1.52848
1.42936
1.37658
1.21036
1.06266
0.840376
0.589134
1.3342
1.36868
1.36865
1.3733
1.36906
1.38502
1.38731
1.40556
1.4017
1.41349
1.39748
1.39414
1.35659
1.32307
1.25111
1.16778
1.0499
0.911005
0.746041
0.560373
1.24251
1.26611
1.27078
1.27087
1.26713
1.27016
1.27165
1.27585
1.27212
1.26739
1.25175
1.23113
1.19711
1.15115
1.08938
1.01062
0.914502
0.800968
0.676415
0.545543
1.14912
1.16051
1.16659
1.1656
1.16226
1.15799
1.15537
1.1522
1.14509
1.13348
1.11468
1.08875
1.05457
1.00971
0.954361
0.886822
0.807611
0.716719
0.61817
0.516722
1.05389
1.05682
1.06055
1.0596
1.05611
1.04941
1.0427
1.0353
1.02502
1.01061
0.989922
0.963462
0.930141
0.889369
0.840346
0.783008
0.717932
0.645185
0.566025
0.474185
0.956526
0.955543
0.956208
0.95486
0.95104
0.943866
0.934948
0.924938
0.912668
0.897194
0.876506
0.851147
0.819693
0.783052
0.739833
0.690175
0.633975
0.569804
0.500562
0.431416
0.858531
0.856145
0.854797
0.852623
0.848496
0.841409
0.83175
0.820562
0.807321
0.791873
0.771969
0.748416
0.719258
0.686232
0.64794
0.605094
0.558334
0.507303
0.453675
0.391186
0.761153
0.758553
0.756211
0.753359
0.749006
0.742242
0.732684
0.721363
0.708016
0.693152
0.674581
0.653107
0.626864
0.597428
0.563948
0.52675
0.486091
0.441231
0.395262
0.351933
0.665335
0.662907
0.660271
0.657113
0.652668
0.646321
0.637291
0.626572
0.613821
0.59997
0.583063
0.563889
0.540811
0.515102
0.486286
0.4546
0.420316
0.382978
0.34526
0.31053
0.571528
0.56933
0.566756
0.563609
0.559281
0.553429
0.545229
0.535513
0.523946
0.511399
0.496465
0.479699
0.45994
0.437943
0.413726
0.387559
0.360438
0.331955
0.302622
0.266004
0.479628
0.47779
0.475463
0.472555
0.468543
0.463329
0.456135
0.447672
0.437615
0.42667
0.413868
0.399687
0.383278
0.365149
0.34528
0.323402
0.299539
0.272928
0.245191
0.221312
0.389624
0.388107
0.386131
0.383599
0.380116
0.375663
0.369615
0.362545
0.354201
0.345057
0.334491
0.322876
0.309583
0.294966
0.279108
0.261974
0.244058
0.224816
0.204064
0.177898
0.301279
0.300059
0.298478
0.296413
0.293599
0.290021
0.285223
0.279642
0.27311
0.265891
0.257625
0.248561
0.238274
0.227011
0.214858
0.20174
0.188183
0.173719
0.157946
0.136808
0.214186
0.213339
0.212197
0.210678
0.2086
0.205983
0.202496
0.198477
0.193776
0.18858
0.182645
0.176163
0.168835
0.16086
0.152167
0.14246
0.131596
0.119242
0.106568
0.0985864
0.128104
0.127591
0.126911
0.125981
0.124716
0.123102
0.120985
0.118556
0.115715
0.112582
0.10901
0.105097
0.100664
0.0958426
0.0905797
0.0849517
0.079522
0.0744381
0.0692948
0.0595855
0.0426382
0.0424645
0.0422348
0.0419172
0.0414881
0.0409531
0.0402366
0.0394172
0.0384679
0.0374184
0.0362132
0.0348956
0.0334282
0.0318348
0.0301288
0.0282135
0.025923
0.0228109
0.0194995
0.0196275
1.53883
1.52266
1.54547
1.57267
1.62436
1.6663
1.73764
1.79561
1.89588
1.97028
2.10554
2.18528
2.36432
2.41677
2.65857
2.55886
2.96008
2.20116
3.74525
-1.86285
1.58683
1.58034
1.60158
1.63333
1.68497
1.73855
1.81391
1.88965
1.99769
2.1002
2.25238
2.38078
2.59388
2.73505
3.03479
3.14419
3.54999
3.45494
3.69443
2.9565
1.62523
1.6299
1.6502
1.68609
1.73649
1.80082
1.87813
1.97186
2.08264
2.21588
2.37222
2.55687
2.77422
3.02222
3.32157
3.62892
4.05442
4.3229
5.00183
4.47561
1.66589
1.66919
1.69079
1.728
1.78204
1.8501
1.93449
2.03483
2.15746
2.30231
2.47842
2.68491
2.93403
3.22452
3.56953
3.96897
4.40829
4.87973
5.25087
5.61956
1.6923
1.69979
1.72271
1.76142
1.81745
1.88833
1.97716
2.08197
2.21234
2.36474
2.55433
2.7734
3.04588
3.35772
3.74529
4.16952
4.68509
5.1728
5.69567
5.94983
1.71777
1.72139
1.74487
1.7844
1.84249
1.91484
2.00547
2.11297
2.24531
2.40301
2.59475
2.8232
3.0978
3.42613
3.81758
4.27938
4.8063
5.38597
5.84693
6.07646
1.73154
1.73493
1.75731
1.798
1.85603
1.92974
2.01901
2.1275
2.25734
2.41547
2.60288
2.83069
3.09648
3.42095
3.78664
4.22746
4.67841
5.18339
5.59965
5.97155
1.74142
1.73631
1.76029
1.80058
1.86138
1.93024
2.01973
2.12071
2.25141
2.39743
2.58489
2.78869
3.05406
3.33218
3.70387
4.06116
4.59382
4.96806
5.65911
5.42794
1.74709
1.72462
1.75635
1.79349
1.86069
1.91593
2.01069
2.09444
2.23054
2.35245
2.54017
2.71083
2.96243
3.19179
3.51399
3.79507
4.13598
4.38034
4.5287
4.49238
1.7351
1.70925
1.7412
1.77805
1.84062
1.89225
1.97777
2.05773
2.18086
2.2912
2.45959
2.60247
2.82852
2.9893
3.29265
3.40336
3.84908
3.59279
4.62947
1.19263
)
;

boundaryField
{
    inlet
    {
        type            zeroGradient;
    }
    outlet
    {
        type            fixedValue;
        value           uniform 0;
    }
    upAndBottom
    {
        type            empty;
    }
    obstacle
    {
        type            zeroGradient;
    }
}


// ************************************************************************* //
