/*--------------------------------*- C++ -*----------------------------------*\
| =========                 |                                                 |
| \\      /  F ield         | OpenFOAM: The Open Source CFD Toolbox           |
|  \\    /   O peration     | Version:  v1806                                 |
|   \\  /    A nd           | Web:      www.OpenFOAM.com                      |
|    \\/     M anipulation  |                                                 |
\*---------------------------------------------------------------------------*/
FoamFile
{
    version     2.0;
    format      ascii;
    class       volVectorField;
    location    "3";
    object      U;
}
// * * * * * * * * * * * * * * * * * * * * * * * * * * * * * * * * * * * * * //

dimensions      [0 1 -1 0 0 0 0];


internalField   nonuniform List<vector> 
4400
(
(2.65734 3.13137 0)
(2.75843 1.89252 0)
(3.04823 1.43793 0)
(3.16676 1.14727 0)
(3.20164 0.952287 0)
(3.20903 0.856727 0)
(3.20182 0.792754 0)
(3.18422 0.732542 0)
(3.16463 0.70813 0)
(3.13742 0.659866 0)
(3.11389 0.668619 0)
(3.09664 0.634723 0)
(3.07244 0.647426 0)
(3.05364 0.624428 0)
(3.03797 0.638516 0)
(3.02693 0.628521 0)
(3.01685 0.636968 0)
(3.00458 0.626302 0)
(2.99562 0.633456 0)
(2.99255 0.63008 0)
(3.578 0.876502 0)
(3.1545 0.946457 0)
(3.08415 0.936674 0)
(3.11273 0.950684 0)
(3.12148 0.910015 0)
(3.14341 0.854365 0)
(3.1502 0.786013 0)
(3.154 0.75591 0)
(3.13726 0.713251 0)
(3.1204 0.695355 0)
(3.10385 0.687052 0)
(3.08494 0.672199 0)
(3.06592 0.671453 0)
(3.04643 0.670405 0)
(3.03761 0.674218 0)
(3.02333 0.680013 0)
(3.01141 0.677327 0)
(3.00216 0.682046 0)
(2.99587 0.688865 0)
(2.99226 0.699635 0)
(1.94396 1.69141 0)
(2.41817 1.47805 0)
(2.72292 1.2849 0)
(2.89872 1.09882 0)
(3.02129 0.930215 0)
(3.08853 0.836481 0)
(3.11821 0.771064 0)
(3.12878 0.750604 0)
(3.11889 0.693171 0)
(3.11361 0.703901 0)
(3.09955 0.661138 0)
(3.08225 0.674652 0)
(3.06927 0.652296 0)
(3.05469 0.675511 0)
(3.04672 0.66457 0)
(3.02745 0.683479 0)
(3.01754 0.678073 0)
(3.01321 0.703944 0)
(3.00909 0.706237 0)
(3.00123 0.727705 0)
(3.1833 0.565851 0)
(3.17556 0.631362 0)
(3.01584 0.621241 0)
(3.00513 0.686549 0)
(3.03257 0.733702 0)
(3.05917 0.726379 0)
(3.08743 0.707827 0)
(3.09436 0.666778 0)
(3.10139 0.633021 0)
(3.09911 0.617372 0)
(3.0876 0.576907 0)
(3.0795 0.581814 0)
(3.07217 0.558382 0)
(3.06292 0.566839 0)
(3.05028 0.549552 0)
(3.03893 0.558332 0)
(3.03385 0.562358 0)
(3.02931 0.575052 0)
(3.0197 0.570049 0)
(3.01138 0.579389 0)
(2.1448 1.0269 0)
(2.31616 1.02068 0)
(2.59926 1.01366 0)
(2.79037 0.924821 0)
(2.91562 0.801501 0)
(3.00037 0.699843 0)
(3.0455 0.644724 0)
(3.06411 0.588856 0)
(3.07827 0.576692 0)
(3.07094 0.528315 0)
(3.07142 0.520547 0)
(3.06625 0.497561 0)
(3.05833 0.488325 0)
(3.04877 0.466307 0)
(3.04054 0.461319 0)
(3.04032 0.452379 0)
(3.03312 0.454008 0)
(3.02244 0.435941 0)
(3.01609 0.433497 0)
(3.01193 0.425878 0)
(3.07546 0.381409 0)
(3.18117 0.428017 0)
(3.04399 0.404986 0)
(2.98385 0.465362 0)
(2.985 0.523571 0)
(3.00493 0.561449 0)
(3.02255 0.560237 0)
(3.04288 0.552363 0)
(3.04912 0.531624 0)
(3.05104 0.501636 0)
(3.0568 0.502794 0)
(3.04909 0.469451 0)
(3.04228 0.46905 0)
(3.03624 0.44655 0)
(3.03317 0.454785 0)
(3.02733 0.432319 0)
(3.01512 0.425121 0)
(3.01068 0.409908 0)
(3.01032 0.414685 0)
(3.00523 0.398546 0)
(2.37136 0.676786 0)
(2.37454 0.711423 0)
(2.57786 0.762744 0)
(2.75018 0.741541 0)
(2.87144 0.673948 0)
(2.94881 0.605499 0)
(2.99716 0.560245 0)
(3.02559 0.538141 0)
(3.03362 0.512515 0)
(3.04653 0.509115 0)
(3.04251 0.493208 0)
(3.03921 0.475661 0)
(3.03874 0.477329 0)
(3.03583 0.464641 0)
(3.02747 0.465912 0)
(3.0146 0.44926 0)
(3.01249 0.452578 0)
(3.0121 0.452656 0)
(3.00333 0.448602 0)
(2.99594 0.438073 0)
(3.04231 0.267502 0)
(3.18055 0.309426 0)
(3.08748 0.296633 0)
(3.00786 0.344673 0)
(2.98727 0.409175 0)
(2.99338 0.460857 0)
(3.00774 0.492979 0)
(3.01896 0.501417 0)
(3.03145 0.497233 0)
(3.03817 0.498181 0)
(3.03383 0.474742 0)
(3.03917 0.487205 0)
(3.03638 0.471138 0)
(3.03049 0.474426 0)
(3.0233 0.461301 0)
(3.02061 0.472962 0)
(3.02108 0.475698 0)
(3.01004 0.479054 0)
(3.00014 0.472618 0)
(2.99603 0.484092 0)
(2.55085 0.483347 0)
(2.48528 0.525288 0)
(2.61681 0.588634 0)
(2.7619 0.602051 0)
(2.87077 0.566202 0)
(2.94087 0.518937 0)
(2.98381 0.477743 0)
(3.00768 0.452212 0)
(3.02347 0.439894 0)
(3.02654 0.426308 0)
(3.03355 0.41782 0)
(3.03583 0.420424 0)
(3.02855 0.400577 0)
(3.02744 0.409468 0)
(3.02734 0.398187 0)
(3.02715 0.409688 0)
(3.01805 0.397293 0)
(3.01086 0.4027 0)
(3.01114 0.406348 0)
(3.00709 0.420935 0)
(3.04881 0.185713 0)
(3.18436 0.216631 0)
(3.12228 0.203843 0)
(3.041 0.229758 0)
(3.00277 0.278583 0)
(2.99403 0.321294 0)
(2.99734 0.352844 0)
(3.00607 0.363102 0)
(3.01327 0.366353 0)
(3.01865 0.351854 0)
(3.02617 0.354421 0)
(3.02161 0.329898 0)
(3.02458 0.330172 0)
(3.02453 0.320007 0)
(3.02187 0.315848 0)
(3.01693 0.304205 0)
(3.01243 0.296811 0)
(3.01609 0.296383 0)
(3.01411 0.296017 0)
(3.00814 0.290614 0)
(2.67879 0.34344 0)
(2.5881 0.37736 0)
(2.66954 0.433393 0)
(2.7843 0.453944 0)
(2.87575 0.434345 0)
(2.93686 0.402271 0)
(2.97346 0.368838 0)
(2.99485 0.349037 0)
(3.00593 0.331568 0)
(3.01461 0.325488 0)
(3.01574 0.316126 0)
(3.01712 0.302522 0)
(3.02166 0.306271 0)
(3.01699 0.285692 0)
(3.01501 0.287957 0)
(3.01155 0.271203 0)
(3.01223 0.275552 0)
(3.01074 0.262983 0)
(3.00506 0.256106 0)
(3.00201 0.243758 0)
(3.06081 0.127602 0)
(3.18185 0.151737 0)
(3.14077 0.143507 0)
(3.0671 0.16265 0)
(3.02119 0.20377 0)
(3.00144 0.244443 0)
(2.99692 0.27726 0)
(2.99853 0.296579 0)
(3.00314 0.302918 0)
(3.00858 0.30757 0)
(3.00894 0.297432 0)
(3.01493 0.303982 0)
(3.01166 0.293499 0)
(3.01112 0.289203 0)
(3.01194 0.289685 0)
(3.00919 0.284118 0)
(3.0073 0.286382 0)
(3.00157 0.278175 0)
(2.99953 0.277392 0)
(2.99852 0.273303 0)
(2.77252 0.257419 0)
(2.67915 0.287722 0)
(2.72956 0.336869 0)
(2.81886 0.360455 0)
(2.89379 0.353087 0)
(2.94389 0.330826 0)
(2.97359 0.308865 0)
(2.99048 0.290941 0)
(3.00135 0.285367 0)
(3.00435 0.278797 0)
(3.00961 0.27842 0)
(3.01052 0.280667 0)
(3.00682 0.269499 0)
(3.01056 0.281483 0)
(3.00775 0.270524 0)
(3.00667 0.276258 0)
(3.00475 0.271266 0)
(3.00158 0.277644 0)
(3.0005 0.278789 0)
(2.99827 0.284491 0)
(3.07766 0.0839218 0)
(3.18072 0.100378 0)
(3.15133 0.0946033 0)
(3.08477 0.107073 0)
(3.03659 0.136842 0)
(3.01243 0.171151 0)
(3.00311 0.198058 0)
(3.00228 0.216955 0)
(3.00313 0.223858 0)
(3.0063 0.223408 0)
(3.0102 0.22553 0)
(3.00794 0.214843 0)
(3.01261 0.217941 0)
(3.01206 0.215944 0)
(3.00761 0.208003 0)
(3.00921 0.212815 0)
(3.00817 0.206828 0)
(3.00772 0.211473 0)
(3.00476 0.209015 0)
(3.00224 0.214265 0)
(2.83991 0.178527 0)
(2.75428 0.198502 0)
(2.78617 0.23385 0)
(2.85644 0.251803 0)
(2.91647 0.246669 0)
(2.95506 0.227951 0)
(2.97784 0.207807 0)
(2.99043 0.191189 0)
(2.99763 0.180412 0)
(3.00328 0.176397 0)
(3.0031 0.170899 0)
(3.00586 0.166425 0)
(3.00913 0.169334 0)
(3.00366 0.153358 0)
(3.00706 0.159259 0)
(3.00782 0.15301 0)
(3.00523 0.150231 0)
(3.00433 0.142759 0)
(3.00424 0.141657 0)
(3.00352 0.139159 0)
(3.08346 0.0449167 0)
(3.16822 0.0530374 0)
(3.14774 0.0456945 0)
(3.09092 0.0495355 0)
(3.04396 0.0683092 0)
(3.01723 0.0941829 0)
(3.00455 0.117641 0)
(2.9998 0.134929 0)
(2.99967 0.144678 0)
(2.99939 0.148514 0)
(3.00056 0.146164 0)
(3.004 0.149849 0)
(2.99965 0.140988 0)
(3.00172 0.139991 0)
(3.00582 0.143531 0)
(3.00041 0.132534 0)
(2.99858 0.133422 0)
(3.00028 0.1299 0)
(3.0016 0.131047 0)
(3.00078 0.124808 0)
(2.88753 0.123976 0)
(2.81293 0.139157 0)
(2.83339 0.165441 0)
(2.88786 0.181308 0)
(2.93455 0.180239 0)
(2.96438 0.167833 0)
(2.98142 0.15289 0)
(2.99107 0.140032 0)
(2.99611 0.132118 0)
(2.99885 0.126885 0)
(3.00174 0.126774 0)
(3.00052 0.124732 0)
(3.00019 0.121116 0)
(3.00501 0.129093 0)
(3.00003 0.119983 0)
(2.99819 0.120196 0)
(3.00163 0.122531 0)
(3.00159 0.125057 0)
(2.99872 0.12261 0)
(2.99762 0.121801 0)
(3.08821 0.0121616 0)
(3.15699 0.0130621 0)
(3.14273 0.0046224 0)
(3.09371 0.00421549 0)
(3.04868 0.0163982 0)
(3.02013 0.0356492 0)
(3.00537 0.0543021 0)
(2.99932 0.0691484 0)
(2.99781 0.0782238 0)
(2.99879 0.0827929 0)
(2.99986 0.0847579 0)
(2.99987 0.0822641 0)
(3.00379 0.0861224 0)
(3.00156 0.0833409 0)
(2.99912 0.0792387 0)
(3.00374 0.0857593 0)
(3.00405 0.0836169 0)
(3.00076 0.0828701 0)
(2.99948 0.0812614 0)
(2.99987 0.0854487 0)
(2.91969 0.0688752 0)
(2.85584 0.0794162 0)
(2.86809 0.0956148 0)
(2.90898 0.104534 0)
(2.94506 0.0999228 0)
(2.9691 0.0858229 0)
(2.98343 0.0708465 0)
(2.99175 0.0586875 0)
(2.99657 0.0505391 0)
(2.99927 0.0467791 0)
(2.99968 0.0440278 0)
(3.00121 0.044052 0)
(3.00086 0.043771 0)
(2.99875 0.0391321 0)
(3.00173 0.0431614 0)
(3.00169 0.0411282 0)
(2.99912 0.0382054 0)
(2.99949 0.0367977 0)
(3.00114 0.0382124 0)
(3.00131 0.0381004 0)
(3.07407 -0.0223272 0)
(3.12629 -0.024629 0)
(3.11515 -0.0299369 0)
(3.0775 -0.0316467 0)
(3.04428 -0.0265119 0)
(3.02285 -0.0157323 0)
(3.01107 -0.00428368 0)
(3.00501 0.00510023 0)
(3.00206 0.0115635 0)
(3.00051 0.0147169 0)
(3.00025 0.0162535 0)
(3.00002 0.0168728 0)
(2.99926 0.0154987 0)
(3.00056 0.0169165 0)
(3.00039 0.0162285 0)
(2.99906 0.0143025 0)
(2.99965 0.0151799 0)
(3.00043 0.0154426 0)
(3.00014 0.0150912 0)
(2.9998 0.0138169 0)
(0.739494 -0.879911 0)
(0.767864 -0.691323 0)
(0.670692 -0.478032 0)
(0.630058 -0.287563 0)
(0.59343 -0.105071 0)
(0.566379 0.0678931 0)
(0.54749 0.234895 0)
(0.536154 0.399775 0)
(0.532267 0.563564 0)
(0.533906 0.730066 0)
(0.547822 0.894771 0)
(0.556043 1.07679 0)
(0.601635 1.24271 0)
(0.602308 1.46468 0)
(0.707191 1.62401 0)
(0.676229 1.91837 0)
(0.879925 2.05813 0)
(0.791069 2.45655 0)
(1.13502 2.5648 0)
(0.974053 3.05828 0)
(1.53323 -0.201217 0)
(1.40613 -0.124392 0)
(1.31656 -0.0475333 0)
(1.2473 0.0433063 0)
(1.19784 0.139118 0)
(1.16444 0.239628 0)
(1.14426 0.343382 0)
(1.13575 0.449429 0)
(1.13793 0.557308 0)
(1.15068 0.665914 0)
(1.17279 0.77585 0)
(1.2078 0.883603 0)
(1.25065 0.991711 0)
(1.31379 1.09504 0)
(1.38202 1.19271 0)
(1.47926 1.29783 0)
(1.59154 1.36143 0)
(1.72002 1.49488 0)
(1.93329 1.46238 0)
(2.05031 1.69018 0)
(1.56963 -0.169983 0)
(1.58096 -0.103718 0)
(1.58518 -0.0296765 0)
(1.58749 0.0479048 0)
(1.58956 0.129118 0)
(1.59316 0.212096 0)
(1.59958 0.29647 0)
(1.60963 0.381983 0)
(1.62392 0.468337 0)
(1.64277 0.555462 0)
(1.66676 0.642995 0)
(1.69533 0.730962 0)
(1.72972 0.81965 0)
(1.76813 0.906245 0)
(1.81086 0.998214 0)
(1.86137 1.07664 0)
(1.90396 1.17722 0)
(1.97578 1.23442 0)
(1.99646 1.34692 0)
(2.10901 1.36816 0)
(2.05676 0.0331814 0)
(2.02073 0.0766496 0)
(1.98951 0.120501 0)
(1.96466 0.16591 0)
(1.94668 0.212677 0)
(1.93525 0.260658 0)
(1.92996 0.309419 0)
(1.93046 0.35846 0)
(1.93652 0.407235 0)
(1.94802 0.455103 0)
(1.96483 0.501443 0)
(1.98724 0.545634 0)
(2.0151 0.586588 0)
(2.04908 0.624912 0)
(2.08987 0.65671 0)
(2.13617 0.688034 0)
(2.19462 0.70584 0)
(2.25236 0.731044 0)
(2.34193 0.726257 0)
(2.38429 0.761887 0)
(2.06167 -0.0173926 0)
(2.07517 0.0227228 0)
(2.0886 0.0648894 0)
(2.10114 0.108246 0)
(2.11294 0.15266 0)
(2.12452 0.197897 0)
(2.13639 0.243764 0)
(2.14895 0.290116 0)
(2.16251 0.336845 0)
(2.17723 0.38388 0)
(2.19321 0.431163 0)
(2.21038 0.478594 0)
(2.22872 0.526314 0)
(2.24798 0.573672 0)
(2.26761 0.621907 0)
(2.2885 0.668051 0)
(2.30626 0.717316 0)
(2.33121 0.759131 0)
(2.33328 0.811882 0)
(2.38769 0.840585 0)
(2.40015 0.0716225 0)
(2.38396 0.0989109 0)
(2.36932 0.125923 0)
(2.35748 0.152805 0)
(2.34892 0.179536 0)
(2.3437 0.206051 0)
(2.34171 0.232221 0)
(2.34282 0.257864 0)
(2.34689 0.282766 0)
(2.35385 0.306683 0)
(2.36367 0.329356 0)
(2.37641 0.350544 0)
(2.39213 0.369914 0)
(2.41102 0.387421 0)
(2.43342 0.4024 0)
(2.45922 0.415568 0)
(2.49013 0.425076 0)
(2.52309 0.433872 0)
(2.56814 0.436672 0)
(2.60321 0.447114 0)
(2.3723 0.0234178 0)
(2.38448 0.049074 0)
(2.39703 0.0754458 0)
(2.40916 0.102418 0)
(2.42064 0.129889 0)
(2.43153 0.15777 0)
(2.44197 0.185992 0)
(2.45214 0.214506 0)
(2.46217 0.24328 0)
(2.47214 0.272291 0)
(2.4821 0.301525 0)
(2.49201 0.330956 0)
(2.50184 0.360585 0)
(2.51144 0.390301 0)
(2.52064 0.4202 0)
(2.52939 0.449867 0)
(2.53691 0.479819 0)
(2.54462 0.508569 0)
(2.54672 0.539127 0)
(2.56603 0.562366 0)
(2.62101 0.0703039 0)
(2.61121 0.0879088 0)
(2.60209 0.105139 0)
(2.59442 0.121987 0)
(2.58861 0.138439 0)
(2.58479 0.154465 0)
(2.58295 0.170012 0)
(2.58302 0.18501 0)
(2.58493 0.199376 0)
(2.58865 0.213017 0)
(2.59414 0.225837 0)
(2.60143 0.237745 0)
(2.61058 0.248646 0)
(2.62169 0.258488 0)
(2.63491 0.267163 0)
(2.6504 0.274732 0)
(2.66857 0.280981 0)
(2.68939 0.286353 0)
(2.71546 0.290318 0)
(2.74512 0.295699 0)
(2.57789 0.0217573 0)
(2.58798 0.0398563 0)
(2.59831 0.0583549 0)
(2.60835 0.0772213 0)
(2.61782 0.0964143 0)
(2.62665 0.115895 0)
(2.63488 0.135632 0)
(2.64258 0.1556 0)
(2.64983 0.175781 0)
(2.65666 0.196162 0)
(2.66312 0.216728 0)
(2.66918 0.237461 0)
(2.67482 0.258338 0)
(2.67997 0.279319 0)
(2.68454 0.300369 0)
(2.68843 0.321388 0)
(2.69146 0.342357 0)
(2.69369 0.36304 0)
(2.69452 0.383764 0)
(2.69709 0.401834 0)
(2.77486 0.0574741 0)
(2.76773 0.069289 0)
(2.76096 0.080762 0)
(2.75508 0.0918743 0)
(2.75038 0.102612 0)
(2.74699 0.112959 0)
(2.74494 0.122893 0)
(2.74421 0.132383 0)
(2.74476 0.141395 0)
(2.74656 0.149892 0)
(2.74959 0.157839 0)
(2.75387 0.165201 0)
(2.75942 0.17195 0)
(2.76632 0.178068 0)
(2.77465 0.183542 0)
(2.78454 0.188384 0)
(2.79621 0.192589 0)
(2.81001 0.196273 0)
(2.8272 0.199606 0)
(2.8516 0.202991 0)
(2.72134 0.0236405 0)
(2.72957 0.0360475 0)
(2.7379 0.0487311 0)
(2.74593 0.0616805 0)
(2.75345 0.0748754 0)
(2.76036 0.0882931 0)
(2.76665 0.101912 0)
(2.77235 0.115714 0)
(2.7775 0.129681 0)
(2.78213 0.143798 0)
(2.78626 0.158047 0)
(2.78989 0.172406 0)
(2.793 0.186852 0)
(2.79556 0.201352 0)
(2.79751 0.215864 0)
(2.79877 0.230336 0)
(2.79927 0.244715 0)
(2.79894 0.258929 0)
(2.79739 0.272852 0)
(2.79189 0.285705 0)
(2.87565 0.0462073 0)
(2.86998 0.0540465 0)
(2.86454 0.0615929 0)
(2.85968 0.0688336 0)
(2.85563 0.0757617 0)
(2.85249 0.0823719 0)
(2.8503 0.0886578 0)
(2.84907 0.0946108 0)
(2.84878 0.100221 0)
(2.84939 0.105479 0)
(2.85092 0.110375 0)
(2.85336 0.114904 0)
(2.85673 0.119064 0)
(2.86109 0.122859 0)
(2.86648 0.126298 0)
(2.87303 0.1294 0)
(2.88091 0.132184 0)
(2.89054 0.134728 0)
(2.90321 0.137253 0)
(2.92338 0.139477 0)
(2.82184 0.0146767 0)
(2.82848 0.0240173 0)
(2.83512 0.0335706 0)
(2.84147 0.0433324 0)
(2.84737 0.0532906 0)
(2.85272 0.06343 0)
(2.8575 0.0737343 0)
(2.86172 0.0841874 0)
(2.8654 0.0947735 0)
(2.86857 0.105476 0)
(2.87123 0.116278 0)
(2.8734 0.127159 0)
(2.87506 0.138094 0)
(2.87618 0.149057 0)
(2.87673 0.160012 0)
(2.87666 0.170921 0)
(2.87587 0.181746 0)
(2.87415 0.192426 0)
(2.87062 0.202774 0)
(2.86168 0.21271 0)
(2.94869 0.0341879 0)
(2.94402 0.0394613 0)
(2.93951 0.0444917 0)
(2.93541 0.049271 0)
(2.93188 0.0537964 0)
(2.92903 0.0580675 0)
(2.92688 0.062085 0)
(2.92544 0.0658489 0)
(2.9247 0.0693595 0)
(2.92466 0.0726175 0)
(2.9253 0.0756248 0)
(2.92664 0.0783853 0)
(2.92868 0.0809058 0)
(2.93148 0.0831973 0)
(2.93507 0.0852745 0)
(2.93955 0.0871538 0)
(2.94511 0.0888513 0)
(2.95224 0.0904298 0)
(2.96229 0.092086 0)
(2.97881 0.0934019 0)
(2.89415 0.0130042 0)
(2.89945 0.0192457 0)
(2.90469 0.0256548 0)
(2.90965 0.0322289 0)
(2.9142 0.0389594 0)
(2.91827 0.0458345 0)
(2.92183 0.0528406 0)
(2.92487 0.0599634 0)
(2.92742 0.0671881 0)
(2.92948 0.0744989 0)
(2.93107 0.0818785 0)
(2.93218 0.0893081 0)
(2.93281 0.0967659 0)
(2.93295 0.104227 0)
(2.93255 0.111664 0)
(2.93157 0.119046 0)
(2.92987 0.126345 0)
(2.92707 0.133502 0)
(2.92203 0.140359 0)
(2.91179 0.147129 0)
(2.99293 0.0257533 0)
(2.98901 0.0287434 0)
(2.98521 0.0315395 0)
(2.98171 0.0341386 0)
(2.97864 0.036542 0)
(2.97607 0.0387534 0)
(2.97404 0.0407778 0)
(2.97254 0.0426205 0)
(2.97159 0.0442872 0)
(2.97116 0.0457843 0)
(2.97126 0.0471189 0)
(2.9719 0.0482999 0)
(2.97308 0.0493379 0)
(2.97484 0.0502462 0)
(2.97722 0.0510397 0)
(2.98033 0.0517307 0)
(2.98437 0.0523296 0)
(2.98989 0.0528965 0)
(2.99812 0.0536055 0)
(3.0115 0.0540193 0)
(2.94103 0.00604067 0)
(2.94525 0.0103052 0)
(2.94939 0.0147129 0)
(2.95327 0.0192618 0)
(2.9568 0.0239454 0)
(2.95991 0.0287546 0)
(2.96258 0.0336782 0)
(2.96481 0.0387044 0)
(2.9666 0.0438206 0)
(2.96796 0.0490132 0)
(2.9689 0.0542679 0)
(2.96941 0.0595688 0)
(2.96949 0.0648984 0)
(2.96913 0.0702369 0)
(2.96828 0.0755626 0)
(2.96688 0.0808564 0)
(2.96473 0.0861009 0)
(2.96133 0.0912412 0)
(2.95559 0.0961436 0)
(2.94546 0.101093 0)
(3.02081 0.0157779 0)
(3.01757 0.0170967 0)
(3.01444 0.0182632 0)
(3.01154 0.0192774 0)
(3.00898 0.0201425 0)
(3.0068 0.0208639 0)
(3.00503 0.0214482 0)
(3.00368 0.0219027 0)
(3.00275 0.0222355 0)
(3.00224 0.0224549 0)
(3.00215 0.0225705 0)
(3.00248 0.0225929 0)
(3.00325 0.0225339 0)
(3.00448 0.022407 0)
(3.00624 0.0222262 0)
(3.00863 0.0220024 0)
(3.01189 0.0217446 0)
(3.01656 0.0215001 0)
(3.02363 0.0213976 0)
(3.03458 0.0210675 0)
(2.97014 0.00139191 0)
(2.97358 0.0035005 0)
(2.97693 0.00573323 0)
(2.98006 0.00808756 0)
(2.98289 0.0105575 0)
(2.98535 0.0131344 0)
(2.98744 0.0158084 0)
(2.98914 0.0185681 0)
(2.99046 0.0214022 0)
(2.99139 0.0242976 0)
(2.99194 0.0272412 0)
(2.99211 0.030219 0)
(2.9919 0.0332159 0)
(2.99128 0.0362158 0)
(2.99021 0.0392039 0)
(2.98859 0.0421713 0)
(2.98617 0.0451095 0)
(2.98246 0.0479537 0)
(2.97652 0.0505589 0)
(2.96706 0.0532996 0)
(3.02624 0.00596607 0)
(3.02358 0.00561345 0)
(3.02101 0.00515433 0)
(3.01863 0.00459029 0)
(3.01652 0.0039253 0)
(3.0147 0.00316493 0)
(3.0132 0.00231557 0)
(3.01203 0.00138418 0)
(3.01118 0.000378213 0)
(3.01066 -0.000696591 0)
(3.01045 -0.00183333 0)
(3.01058 -0.00302396 0)
(3.01104 -0.00426227 0)
(3.01187 -0.00554209 0)
(3.01313 -0.00685822 0)
(3.01495 -0.00821109 0)
(3.01757 -0.00961159 0)
(3.02148 -0.0110466 0)
(3.02735 -0.0124036 0)
(3.03588 -0.0137949 0)
(2.08777 -1.07716 0)
(2.04375 -1.06218 0)
(1.99614 -1.04766 0)
(1.94572 -1.03174 0)
(1.89283 -1.01595 0)
(1.83927 -1.00132 0)
(1.78711 -0.989485 0)
(1.73913 -0.98233 0)
(1.69816 -0.981811 0)
(1.66663 -0.989685 0)
(1.64569 -1.00708 0)
(1.6345 -1.03404 0)
(1.6297 -1.06922 0)
(1.62535 -1.10994 0)
(1.61346 -1.15259 0)
(1.58443 -1.1932 0)
(1.5274 -1.22675 0)
(1.43023 -1.24462 0)
(1.2788 -1.22332 0)
(1.05502 -1.1077 0)
(2.19888 -0.857958 0)
(2.17937 -0.841727 0)
(2.15833 -0.821871 0)
(2.13572 -0.799642 0)
(2.10971 -0.773713 0)
(2.07896 -0.743897 0)
(2.04229 -0.709825 0)
(1.99904 -0.671617 0)
(1.94932 -0.62979 0)
(1.89431 -0.585349 0)
(1.83643 -0.539754 0)
(1.77944 -0.494796 0)
(1.72828 -0.452426 0)
(1.68843 -0.414549 0)
(1.66453 -0.382712 0)
(1.65832 -0.35729 0)
(1.66565 -0.336663 0)
(1.67455 -0.317088 0)
(1.66541 -0.292716 0)
(1.61836 -0.257055 0)
(2.19618 -0.75458 0)
(2.16498 -0.741335 0)
(2.13651 -0.729299 0)
(2.11095 -0.717654 0)
(2.08914 -0.706841 0)
(2.07099 -0.696449 0)
(2.05591 -0.686099 0)
(2.04262 -0.675042 0)
(2.02921 -0.662331 0)
(2.0133 -0.646851 0)
(1.9923 -0.627462 0)
(1.96378 -0.603151 0)
(1.92589 -0.573149 0)
(1.87789 -0.536985 0)
(1.82063 -0.494648 0)
(1.7571 -0.447177 0)
(1.69257 -0.396201 0)
(1.63467 -0.343029 0)
(1.59197 -0.288065 0)
(1.57062 -0.230659 0)
(2.37561 -0.570306 0)
(2.35556 -0.547693 0)
(2.33273 -0.523243 0)
(2.30679 -0.496924 0)
(2.27788 -0.468945 0)
(2.24674 -0.439765 0)
(2.21452 -0.409845 0)
(2.18281 -0.379723 0)
(2.15353 -0.349902 0)
(2.12869 -0.320796 0)
(2.11012 -0.292642 0)
(2.09906 -0.265397 0)
(2.09582 -0.238709 0)
(2.09949 -0.212005 0)
(2.10784 -0.184546 0)
(2.11749 -0.155412 0)
(2.12421 -0.123622 0)
(2.12365 -0.0885436 0)
(2.11237 -0.050233 0)
(2.08926 -0.00940209 0)
(2.37377 -0.549097 0)
(2.36102 -0.535962 0)
(2.3497 -0.522513 0)
(2.34029 -0.508603 0)
(2.332 -0.493876 0)
(2.32389 -0.477904 0)
(2.31483 -0.460262 0)
(2.30363 -0.440529 0)
(2.28922 -0.418351 0)
(2.27078 -0.393488 0)
(2.2479 -0.365884 0)
(2.22073 -0.335742 0)
(2.19005 -0.303483 0)
(2.15736 -0.269643 0)
(2.12483 -0.234783 0)
(2.0951 -0.199413 0)
(2.07102 -0.163888 0)
(2.05509 -0.128282 0)
(2.04873 -0.0923214 0)
(2.05167 -0.0554957 0)
(2.53218 -0.369007 0)
(2.51502 -0.35011 0)
(2.49665 -0.330511 0)
(2.47735 -0.310253 0)
(2.458 -0.289597 0)
(2.43957 -0.268799 0)
(2.42316 -0.24807 0)
(2.40981 -0.227565 0)
(2.4004 -0.207351 0)
(2.3955 -0.187401 0)
(2.39526 -0.167587 0)
(2.39926 -0.147669 0)
(2.40657 -0.127329 0)
(2.41572 -0.106233 0)
(2.42492 -0.0840879 0)
(2.43221 -0.0606847 0)
(2.4358 -0.0359612 0)
(2.43436 -0.0100571 0)
(2.42738 0.0167866 0)
(2.41542 0.0441525 0)
(2.53915 -0.378209 0)
(2.53479 -0.36624 0)
(2.53094 -0.353677 0)
(2.52723 -0.340379 0)
(2.52295 -0.326112 0)
(2.5174 -0.31068 0)
(2.50996 -0.293937 0)
(2.50011 -0.275804 0)
(2.48759 -0.256297 0)
(2.4724 -0.235525 0)
(2.45485 -0.213673 0)
(2.43562 -0.190985 0)
(2.41572 -0.16773 0)
(2.39644 -0.144161 0)
(2.37922 -0.120485 0)
(2.36552 -0.0968308 0)
(2.35655 -0.0732253 0)
(2.35305 -0.0495815 0)
(2.35508 -0.0257373 0)
(2.36195 -0.00148135 0)
(2.66051 -0.250126 0)
(2.64834 -0.234908 0)
(2.636 -0.219495 0)
(2.62421 -0.203992 0)
(2.61366 -0.188538 0)
(2.605 -0.173231 0)
(2.59884 -0.158126 0)
(2.59561 -0.143226 0)
(2.59551 -0.128481 0)
(2.59846 -0.113791 0)
(2.6041 -0.0990258 0)
(2.61172 -0.0840348 0)
(2.62041 -0.0686698 0)
(2.62907 -0.0528076 0)
(2.63653 -0.036372 0)
(2.64174 -0.0193518 0)
(2.6439 -0.00180982 0)
(2.64258 0.0161201 0)
(2.63785 0.0342495 0)
(2.63031 0.0523742 0)
(2.68236 -0.290578 0)
(2.68089 -0.279504 0)
(2.67925 -0.267902 0)
(2.67692 -0.255675 0)
(2.67345 -0.242711 0)
(2.66844 -0.228966 0)
(2.66161 -0.214441 0)
(2.65284 -0.19918 0)
(2.64219 -0.183268 0)
(2.62994 -0.166824 0)
(2.61657 -0.149988 0)
(2.60277 -0.132907 0)
(2.58936 -0.115717 0)
(2.57727 -0.0985287 0)
(2.56743 -0.0814107 0)
(2.56061 -0.0643829 0)
(2.55737 -0.0474126 0)
(2.55787 -0.0304227 0)
(2.56191 -0.0133058 0)
(2.56888 0.0040547 0)
(2.77169 -0.169688 0)
(2.76381 -0.158641 0)
(2.75649 -0.147569 0)
(2.75026 -0.136556 0)
(2.74556 -0.125664 0)
(2.74276 -0.114907 0)
(2.74211 -0.104273 0)
(2.7437 -0.0937244 0)
(2.74745 -0.0832005 0)
(2.75306 -0.0726255 0)
(2.76005 -0.0619163 0)
(2.76781 -0.050993 0)
(2.77558 -0.0397903 0)
(2.78261 -0.0282685 0)
(2.78816 -0.0164223 0)
(2.79164 -0.00428708 0)
(2.79268 0.00806916 0)
(2.79117 0.0205439 0)
(2.78732 0.0330128 0)
(2.78165 0.0453574 0)
(2.79142 -0.197046 0)
(2.79123 -0.188654 0)
(2.79032 -0.179817 0)
(2.78842 -0.170532 0)
(2.78525 -0.160752 0)
(2.78064 -0.150488 0)
(2.7745 -0.139778 0)
(2.7669 -0.128682 0)
(2.75804 -0.117277 0)
(2.74827 -0.105649 0)
(2.73806 -0.0938883 0)
(2.728 -0.082077 0)
(2.71872 -0.0702822 0)
(2.71089 -0.058548 0)
(2.70508 -0.0468909 0)
(2.70172 -0.0352971 0)
(2.70105 -0.0237263 0)
(2.70305 -0.0121173 0)
(2.70744 -0.000398108 0)
(2.71375 0.0115024 0)
(2.85363 -0.114092 0)
(2.84874 -0.106015 0)
(2.84485 -0.097996 0)
(2.84218 -0.0900833 0)
(2.84095 -0.0823053 0)
(2.84134 -0.0746483 0)
(2.84341 -0.0670812 0)
(2.8471 -0.0595619 0)
(2.85218 -0.0520403 0)
(2.85835 -0.0444625 0)
(2.86515 -0.0367768 0)
(2.87207 -0.0289406 0)
(2.87855 -0.0209261 0)
(2.88404 -0.0127256 0)
(2.88809 -0.00435494 0)
(2.89035 0.00414672 0)
(2.89065 0.0127193 0)
(2.88901 0.0212886 0)
(2.88568 0.0297747 0)
(2.88106 0.0381019 0)
(2.87339 -0.15566 0)
(2.87358 -0.148654 0)
(2.87272 -0.141329 0)
(2.87079 -0.133693 0)
(2.86766 -0.125734 0)
(2.86329 -0.117477 0)
(2.85773 -0.108969 0)
(2.8511 -0.100263 0)
(2.84365 -0.0914189 0)
(2.83574 -0.0824974 0)
(2.82778 -0.0735548 0)
(2.82023 -0.0646377 0)
(2.8136 -0.0557786 0)
(2.80832 -0.0469921 0)
(2.80477 -0.0382734 0)
(2.80318 -0.0295995 0)
(2.80365 -0.0209312 0)
(2.80607 -0.0122194 0)
(2.81017 -0.00341161 0)
(2.81558 0.00554117 0)
(2.92026 -0.07795 0)
(2.9175 -0.0723244 0)
(2.91588 -0.0667475 0)
(2.91542 -0.061259 0)
(2.9162 -0.0558663 0)
(2.91825 -0.0505473 0)
(2.92153 -0.0452702 0)
(2.92591 -0.0399992 0)
(2.93117 -0.0346967 0)
(2.93698 -0.0293267 0)
(2.94297 -0.0238586 0)
(2.94873 -0.0182717 0)
(2.95385 -0.0125579 0)
(2.95797 -0.00672447 0)
(2.96077 -0.000794439 0)
(2.96207 0.00519439 0)
(2.96182 0.0111928 0)
(2.96009 0.0171449 0)
(2.9571 0.0229942 0)
(2.95317 0.0286891 0)
(2.93282 -0.100184 0)
(2.93313 -0.0954479 0)
(2.93229 -0.0904933 0)
(2.93038 -0.0853218 0)
(2.92742 -0.0799296 0)
(2.92345 -0.0743453 0)
(2.91855 -0.0686099 0)
(2.91291 -0.0627673 0)
(2.90676 -0.0568623 0)
(2.90042 -0.0509371 0)
(2.89423 -0.045028 0)
(2.88858 -0.039162 0)
(2.88381 -0.0333543 0)
(2.88024 -0.0276067 0)
(2.8781 -0.0219078 0)
(2.87752 -0.0162338 0)
(2.8785 -0.0105516 0)
(2.88092 -0.00482286 0)
(2.88455 0.000991096 0)
(2.88907 0.0069247 0)
(2.96347 -0.043492 0)
(2.96223 -0.0399283 0)
(2.96209 -0.0363846 0)
(2.96299 -0.0329266 0)
(2.9649 -0.0295516 0)
(2.96779 -0.0262329 0)
(2.97154 -0.0229428 0)
(2.97601 -0.0196544 0)
(2.98096 -0.0163416 0)
(2.98612 -0.0129812 0)
(2.99119 -0.00955581 0)
(2.99585 -0.00605618 0)
(2.9998 -0.00248301 0)
(3.00279 0.00115216 0)
(3.00464 0.00482719 0)
(3.00524 0.00851123 0)
(3.00461 0.0121673 0)
(3.00284 0.0157556 0)
(3.00013 0.0192373 0)
(2.99673 0.0225787 0)
(2.97193 -0.0696809 0)
(2.9722 -0.0664493 0)
(2.97135 -0.063065 0)
(2.96951 -0.0595259 0)
(2.96674 -0.0558459 0)
(2.96313 -0.0520524 0)
(2.95882 -0.0481762 0)
(2.95398 -0.0442496 0)
(2.94884 -0.0403038 0)
(2.94367 -0.0363668 0)
(2.93875 -0.0324604 0)
(2.93438 -0.0285983 0)
(2.93082 -0.024785 0)
(2.9283 -0.0210154 0)
(2.92695 -0.0172747 0)
(2.92685 -0.0135401 0)
(2.92795 -0.00978369 0)
(2.93014 -0.00597486 0)
(2.93322 -0.00208387 0)
(2.93694 0.00191488 0)
(2.99281 -0.0200434 0)
(2.99256 -0.0181763 0)
(2.99328 -0.016308 0)
(2.9949 -0.0144956 0)
(2.99734 -0.0127412 0)
(3.00051 -0.0110243 0)
(3.00427 -0.00932267 0)
(3.00847 -0.00761579 0)
(3.01291 -0.00588585 0)
(3.01734 -0.00411872 0)
(3.02153 -0.00230554 0)
(3.02524 -0.000443925 0)
(3.02825 0.00146095 0)
(3.03039 0.0033961 0)
(3.03157 0.00534214 0)
(3.03173 0.00727455 0)
(3.03091 0.00916526 0)
(3.02923 0.0109855 0)
(3.02685 0.0127084 0)
(3.02397 0.0143115 0)
(2.99403 -0.032573 0)
(2.9943 -0.0311071 0)
(2.99357 -0.0296155 0)
(2.99195 -0.028012 0)
(2.98953 -0.0263147 0)
(2.98642 -0.0245589 0)
(2.98276 -0.0227714 0)
(2.97871 -0.0209745 0)
(2.97448 -0.0191883 0)
(2.97029 -0.0174293 0)
(2.96639 -0.0157084 0)
(2.96301 -0.0140299 0)
(2.96035 -0.0123907 0)
(2.95856 -0.0107807 0)
(2.95774 -0.00918357 0)
(2.95792 -0.00757817 0)
(2.95905 -0.00594039 0)
(2.96102 -0.00424552 0)
(2.96365 -0.00247047 0)
(2.96676 -0.000595734 0)
(3.00311 0.00636328 0)
(3.00344 0.00643686 0)
(3.00453 0.00646156 0)
(3.00632 0.00641127 0)
(3.00875 0.00631895 0)
(3.0117 0.0062085 0)
(3.01504 0.00609639 0)
(3.01863 0.00599789 0)
(3.0223 0.00592652 0)
(3.02585 0.00589206 0)
(3.0291 0.00589934 0)
(3.03188 0.00594764 0)
(3.03403 0.00603058 0)
(3.03545 0.00613637 0)
(3.03607 0.00624876 0)
(3.03589 0.00634828 0)
(3.03496 0.006414 0)
(3.03339 0.00642531 0)
(3.0313 0.00636373 0)
(3.02886 0.00621415 0)
(0.096211 -1.63388 0)
(0.290205 -1.275 0)
(0.0966449 -0.916091 0)
(0.125554 -0.673141 0)
(0.0789532 -0.445866 0)
(0.0672343 -0.276372 0)
(0.0474153 -0.133949 0)
(0.0318403 -0.0289796 0)
(0.0185164 0.0442246 0)
(0.00680333 0.087565 0)
(-0.00148784 0.107481 0)
(-0.00631794 0.109164 0)
(-0.00844158 0.0988009 0)
(-0.00860601 0.0819115 0)
(-0.00762404 0.062748 0)
(-0.0062264 0.0441309 0)
(-0.00482131 0.0275569 0)
(-0.00339688 0.0137531 0)
(-0.00155695 0.00340139 0)
(0.000639736 -0.000401829 0)
(0.607323 -2.29133 0)
(0.662869 -1.74227 0)
(0.39532 -1.48011 0)
(0.422663 -1.09582 0)
(0.297377 -0.826212 0)
(0.26808 -0.563662 0)
(0.203123 -0.345829 0)
(0.152517 -0.166318 0)
(0.104035 -0.0259408 0)
(0.0599017 0.074053 0)
(0.0233996 0.137003 0)
(-0.00341836 0.167892 0)
(-0.0207008 0.172917 0)
(-0.0297807 0.158905 0)
(-0.0325287 0.133027 0)
(-0.0311895 0.101618 0)
(-0.0275135 0.0694056 0)
(-0.0221014 0.0396564 0)
(-0.0142826 0.0151599 0)
(-0.00371845 0.00229861 0)
(1.05015 -2.31031 0)
(1.00244 -1.87786 0)
(0.772188 -1.66167 0)
(0.733004 -1.31167 0)
(0.591877 -1.05786 0)
(0.526801 -0.787666 0)
(0.424547 -0.556788 0)
(0.337384 -0.351253 0)
(0.248171 -0.179567 0)
(0.164601 -0.0438968 0)
(0.0904688 0.0548469 0)
(0.0297682 0.11827 0)
(-0.0152791 0.150658 0)
(-0.0445532 0.157067 0)
(-0.0603264 0.143703 0)
(-0.06553 0.117613 0)
(-0.0630048 0.0851043 0)
(-0.0542577 0.051412 0)
(-0.0387923 0.02135 0)
(-0.0151572 0.00392602 0)
(1.32339 -2.27225 0)
(1.25281 -1.95546 0)
(1.07024 -1.76567 0)
(0.992765 -1.48423 0)
(0.863212 -1.24721 0)
(0.768375 -0.997686 0)
(0.649205 -0.767907 0)
(0.533906 -0.554077 0)
(0.412803 -0.365269 0)
(0.294977 -0.205927 0)
(0.186177 -0.0796021 0)
(0.0920327 0.0126545 0)
(0.0168867 0.0721514 0)
(-0.0373807 0.102854 0)
(-0.0721234 0.109879 0)
(-0.0898928 0.0988954 0)
(-0.0937041 0.0762531 0)
(-0.0853368 0.0480693 0)
(-0.0641966 0.0204936 0)
(-0.0276003 0.00382946 0)
(1.52906 -2.19321 0)
(1.44126 -1.97631 0)
(1.30419 -1.82235 0)
(1.21647 -1.6051 0)
(1.10185 -1.39928 0)
(0.996345 -1.17853 0)
(0.870833 -0.961289 0)
(0.737365 -0.749274 0)
(0.593087 -0.551655 0)
(0.446524 -0.375518 0)
(0.305813 -0.227415 0)
(0.179539 -0.111111 0)
(0.0740953 -0.0273835 0)
(-0.00747306 0.0262959 0)
(-0.0645627 0.0540525 0)
(-0.0989514 0.0607299 0)
(-0.113251 0.0522496 0)
(-0.108877 0.0347651 0)
(-0.0848874 0.014923 0)
(-0.0378512 0.00264294 0)
(1.65273 -2.0907 0)
(1.58351 -1.94942 0)
(1.47444 -1.83351 0)
(1.39855 -1.67332 0)
(1.30141 -1.50676 0)
(1.20169 -1.32128 0)
(1.08047 -1.12671 0)
(0.941536 -0.925907 0)
(0.784158 -0.727293 0)
(0.6159 -0.539721 0)
(0.447043 -0.372897 0)
(0.289409 -0.234375 0)
(0.152813 -0.127922 0)
(0.0428326 -0.0530173 0)
(-0.0384466 -0.00624688 0)
(-0.0919746 0.0173796 0)
(-0.119506 0.0235222 0)
(-0.121908 0.0181653 0)
(-0.0979248 0.00792016 0)
(-0.0441985 0.00122054 0)
(1.73667 -1.98239 0)
(1.67781 -1.8921 0)
(1.59718 -1.80957 0)
(1.53522 -1.69612 0)
(1.45959 -1.56977 0)
(1.37499 -1.42261 0)
(1.26814 -1.25855 0)
(1.1366 -1.07852 0)
(0.978563 -0.888472 0)
(0.799071 -0.696782 0)
(0.608721 -0.51495 0)
(0.422041 -0.354617 0)
(0.253407 -0.22441 0)
(0.112916 -0.127437 0)
(0.00507586 -0.0616649 0)
(-0.0698098 -0.0220427 0)
(-0.11274 -0.00244212 0)
(-0.124255 0.00347569 0)
(-0.103047 0.00209852 0)