/*--------------------------------*- C++ -*----------------------------------*\
| =========                 |                                                 |
| \\      /  F ield         | OpenFOAM: The Open Source CFD Toolbox           |
|  \\    /   O peration     | Version:  v1806                                 |
|   \\  /    A nd           | Web:      www.OpenFOAM.com                      |
|    \\/     M anipulation  |                                                 |
\*---------------------------------------------------------------------------*/
FoamFile
{
    version     2.0;
    format      ascii;
    class       volVectorField;
    location    "440";
    object      U;
}
// * * * * * * * * * * * * * * * * * * * * * * * * * * * * * * * * * * * * * //

dimensions      [0 1 -1 0 0 0 0];


internalField   nonuniform List<vector> 
5208
(
(0.172292 0.064193 -0.00146023)
(0.172307 0.0642118 1.06771e-07)
(0.172307 0.0642118 -1.06767e-07)
(0.172292 0.064193 0.00146023)
(0.183829 0.0660023 -0.00137231)
(0.183853 0.0660127 1.67976e-07)
(0.183853 0.0660127 -1.67971e-07)
(0.183829 0.0660023 0.00137231)
(-0.0278445 -0.00754072 -5.45968e-05)
(-0.0278429 -0.00753078 -4.27248e-08)
(-0.0278429 -0.00753078 4.27745e-08)
(-0.0278445 -0.00754072 5.45967e-05)
(-0.0289033 -0.00361731 -4.79867e-05)
(-0.0288979 -0.00361222 2.91192e-08)
(-0.0288979 -0.00361222 -2.89984e-08)
(-0.0289033 -0.00361731 4.79866e-05)
(-0.0360227 -0.00401997 -4.32411e-05)
(-0.0360266 -0.00401593 -2.37274e-08)
(-0.0360266 -0.00401593 2.37772e-08)
(-0.0360227 -0.00401997 4.3241e-05)
(-0.035742 -0.00942825 -4.42624e-05)
(-0.0357362 -0.00942984 -3.24663e-08)
(-0.0357362 -0.00942984 3.24586e-08)
(-0.035742 -0.00942825 4.42624e-05)
(0.211649 0.0638928 -0.00115347)
(0.211654 0.063897 5.96573e-08)
(0.211654 0.063897 -5.96537e-08)
(0.211649 0.0638928 0.00115347)
(0.204509 0.0608065 -0.00122748)
(0.204532 0.0608239 -2.60294e-08)
(0.204532 0.0608239 2.60344e-08)
(0.204509 0.0608065 0.00122748)
(0.19834 0.0682299 -0.00127698)
(0.19839 0.0682248 1.58003e-07)
(0.19839 0.0682248 -1.58004e-07)
(0.19834 0.0682299 0.00127698)
(-0.0105933 0.011951 -1.84954e-05)
(-0.0105934 0.0119264 1.16642e-07)
(-0.0105934 0.0119264 -1.16475e-07)
(-0.0105933 0.011951 1.84952e-05)
(-0.0153841 0.0194388 -5.72568e-05)
(-0.0153888 0.0194495 -1.05182e-07)
(-0.0153888 0.0194495 1.04907e-07)
(-0.0153841 0.0194388 5.7257e-05)
(-0.0121691 -0.0220995 -4.50707e-05)
(-0.0121592 -0.0220941 4.03296e-09)
(-0.0121592 -0.0220941 -4.03771e-09)
(-0.0121691 -0.0220995 4.50707e-05)
(-0.0103516 -0.015227 -4.73243e-05)
(-0.0103365 -0.0152203 -6.95169e-08)
(-0.0103365 -0.0152203 6.95144e-08)
(-0.0103516 -0.015227 4.73243e-05)
(-0.0111569 -0.01805 -4.6954e-05)
(-0.0111591 -0.0180441 -2.32926e-08)
(-0.0111591 -0.0180441 2.33282e-08)
(-0.0111569 -0.01805 4.6954e-05)
(0.263578 -0.167455 -0.000110617)
(0.263613 -0.167508 3.90297e-07)
(0.263613 -0.167508 -3.90308e-07)
(0.263578 -0.167455 0.000110617)
(0.233194 -0.160626 -9.839e-05)
(0.233263 -0.160629 1.3e-07)
(0.233263 -0.160629 -1.29987e-07)
(0.233194 -0.160626 9.839e-05)
(0.249681 -0.150865 7.09694e-05)
(0.249668 -0.150906 5.82317e-09)
(0.249668 -0.150906 -5.82581e-09)
(0.249681 -0.150865 -7.09694e-05)
(0.23376 0.0359249 -0.0010134)
(0.233727 0.035908 -3.06413e-07)
(0.233727 0.035908 3.06416e-07)
(0.23376 0.0359249 0.0010134)
(0.233802 0.0470069 -0.000986379)
(0.233784 0.0470284 -1.80447e-07)
(0.233784 0.0470284 1.80449e-07)
(0.233802 0.0470069 0.000986379)
(0.133753 -0.194246 -0.000937516)
(0.133849 -0.19426 2.9336e-07)
(0.133849 -0.19426 -2.93349e-07)
(0.133753 -0.194246 0.000937516)
(0.187279 -0.106649 -0.0013158)
(0.187248 -0.106658 -6.37516e-08)
(0.187248 -0.106658 6.37295e-08)
(0.187279 -0.106649 0.0013158)
(0.132646 0.119593 -0.000257945)
(0.132598 0.119605 -5.20135e-07)
(0.132598 0.119605 5.20127e-07)
(0.132646 0.119593 0.000257945)
(0.198433 0.177038 -0.00026648)
(0.198374 0.177085 -1.67101e-08)
(0.198374 0.177085 1.67397e-08)
(0.198433 0.177038 0.00026648)
(-0.0415808 -0.00368767 -3.47723e-05)
(-0.0415762 -0.00368766 -5.49508e-09)
(-0.0415762 -0.00368766 5.48641e-09)
(-0.0415808 -0.00368767 3.47723e-05)
(-0.0421483 -0.00905841 -3.40663e-05)
(-0.0421416 -0.00905862 -1.65919e-08)
(-0.0421416 -0.00905862 1.65591e-08)
(-0.0421483 -0.00905841 3.40663e-05)
(-0.0396168 0.00134148 -3.47319e-05)
(-0.0396129 0.00134181 -1.35001e-08)
(-0.0396129 0.00134181 1.34859e-08)
(-0.0396168 0.00134148 3.47319e-05)
(-0.036939 0.00598313 -3.27827e-05)
(-0.0369409 0.00598431 -3.46237e-09)
(-0.0369409 0.00598431 3.42293e-09)
(-0.036939 0.00598313 3.27827e-05)
(-0.0413192 0.00594426 -2.49797e-05)
(-0.0413182 0.00594364 -1.34786e-08)
(-0.0413182 0.00594364 1.34686e-08)
(-0.0413192 0.00594426 2.49797e-05)
(-0.0445773 0.00175694 -2.6268e-05)
(-0.0445746 0.00175614 -1.4113e-08)
(-0.0445746 0.00175614 1.41133e-08)
(-0.0445773 0.00175694 2.6268e-05)
(-0.0469979 -0.00290638 -2.60258e-05)
(-0.0469966 -0.00290726 -1.08111e-08)
(-0.0469966 -0.00290726 1.08233e-08)
(-0.0469979 -0.00290638 2.60257e-05)
(-0.048056 -0.00793802 -2.42682e-05)
(-0.0480534 -0.00793862 -1.08329e-08)
(-0.0480534 -0.00793862 1.08249e-08)
(-0.048056 -0.00793802 2.42682e-05)
(-0.0343349 0.00131745 -4.26984e-05)
(-0.0343379 0.0013235 -2.61645e-08)
(-0.0343379 0.0013235 2.61584e-08)
(-0.0343349 0.00131745 4.26984e-05)
(-0.0323489 0.00632587 -3.99282e-05)
(-0.0323541 0.00633032 -2.70704e-10)
(-0.0323541 0.00633032 2.20854e-10)
(-0.0323489 0.00632587 3.99282e-05)
(0.241135 0.0388322 -0.000930509)
(0.241071 0.0388463 -3.6481e-07)
(0.241071 0.0388463 3.6481e-07)
(0.241135 0.0388322 0.000930509)
(0.245792 0.0324682 -0.000897847)
(0.245749 0.0324748 -2.50205e-07)
(0.245749 0.0324748 2.50205e-07)
(0.245792 0.0324682 0.000897847)
(0.248131 0.0390673 -0.000860792)
(0.248081 0.0390914 -1.56705e-07)
(0.248081 0.0390914 1.56705e-07)
(0.248131 0.0390673 0.000860792)
(0.2521 0.0289066 -0.000845419)
(0.252067 0.028921 -1.51384e-07)
(0.252067 0.028921 1.51383e-07)
(0.2521 0.0289066 0.000845419)
(0.238498 0.0299219 -0.000980032)
(0.238452 0.0299247 -2.34178e-07)
(0.238452 0.0299247 2.3418e-07)
(0.238498 0.0299219 0.000980032)
(0.247934 0.0218961 -0.000896431)
(0.2479 0.021902 -1.80331e-07)
(0.2479 0.021902 1.8033e-07)
(0.247934 0.0218961 0.000896431)
(0.255942 0.0202026 -0.000820432)
(0.25591 0.0201962 -1.20306e-07)
(0.25591 0.0201962 1.20305e-07)
(0.255942 0.0202026 0.000820432)
(0.258418 0.026929 -0.000781901)
(0.258396 0.0269289 -8.98418e-08)
(0.258396 0.0269289 8.98408e-08)
(0.258418 0.026929 0.000781901)
(0.254363 0.0354418 -0.000804158)
(0.254335 0.0354373 -8.25753e-08)
(0.254335 0.0354373 8.2577e-08)
(0.254363 0.0354418 0.000804158)
(0.263267 0.0164018 -0.000747077)
(0.263251 0.0164018 -3.0901e-09)
(0.263251 0.0164018 3.08821e-09)
(0.263267 0.0164018 0.000747077)
(0.265193 0.0231114 -0.000713822)
(0.26518 0.0231006 -2.01219e-08)
(0.26518 0.0231006 2.01189e-08)
(0.265193 0.0231114 0.000713822)
(0.224976 0.0412841 -0.0010938)
(0.225001 0.0412579 -8.75212e-09)
(0.225001 0.0412579 8.75345e-09)
(0.224976 0.0412841 0.0010938)
(0.215532 0.0495973 -0.00115256)
(0.215559 0.0495944 1.14699e-07)
(0.215559 0.0495944 -1.14695e-07)
(0.215532 0.0495973 0.00115256)
(0.208362 0.0456733 -0.00122969)
(0.208367 0.0456923 -3.14741e-08)
(0.208367 0.0456923 3.1483e-08)
(0.208362 0.0456733 0.00122969)
(0.221213 0.0304232 -0.00114222)
(0.221211 0.0304428 -1.00505e-07)
(0.221211 0.0304428 1.00508e-07)
(0.221213 0.0304232 0.00114222)
(0.232242 0.0257585 -0.00105107)
(0.232211 0.0257272 -2.65712e-07)
(0.232211 0.0257272 2.65711e-07)
(0.232242 0.0257585 0.00105107)
(0.243205 0.0158298 -0.000954247)
(0.24316 0.015829 -2.40024e-07)
(0.24316 0.015829 2.40023e-07)
(0.243205 0.0158298 0.000954247)
(0.252678 0.0137078 -0.000861258)
(0.252649 0.0136923 -1.12851e-07)
(0.252649 0.0136923 1.1285e-07)
(0.252678 0.0137078 0.000861258)
(0.261169 0.0101215 -0.000777809)
(0.261158 0.0101356 7.39912e-10)
(0.261158 0.0101356 -7.40655e-10)
(0.261169 0.0101215 0.000777809)
(0.226497 0.0521304 -0.00105156)
(0.226518 0.0521225 -1.26632e-08)
(0.226518 0.0521225 1.26613e-08)
(0.226497 0.0521304 0.00105156)
(0.219101 0.060717 -0.00110722)
(0.219136 0.0606856 1.01937e-07)
(0.219136 0.0606856 -1.01941e-07)
(0.219101 0.060717 0.00110722)
(0.199058 0.0389334 -0.00132734)
(0.199094 0.0389184 8.83515e-08)
(0.199094 0.0389184 -8.83509e-08)
(0.199058 0.0389334 0.00132734)
(0.191344 0.0519183 -0.00136293)
(0.191372 0.0519404 1.04787e-07)
(0.191372 0.0519404 -1.04792e-07)
(0.191344 0.0519183 0.00136293)
(-0.0472678 -0.0134797 -2.06129e-05)
(-0.0472671 -0.0134795 -6.84523e-09)
(-0.0472671 -0.0134795 6.86293e-09)
(-0.0472678 -0.0134797 2.06129e-05)
(-0.0414976 -0.0147469 -3.12222e-05)
(-0.0414936 -0.0147479 -9.02169e-09)
(-0.0414936 -0.0147479 9.00967e-09)
(-0.0414976 -0.0147469 3.12222e-05)
(-0.0352085 -0.0155241 -4.16093e-05)
(-0.035209 -0.0155282 -1.61099e-08)
(-0.035209 -0.0155282 1.60971e-08)
(-0.0352085 -0.0155241 4.16093e-05)
(-0.0283317 -0.0163894 -4.90407e-05)
(-0.0283327 -0.0163919 3.02043e-09)
(-0.0283327 -0.0163919 -3.02211e-09)
(-0.0283317 -0.0163894 4.90407e-05)
(-0.0452323 0.00606928 -1.65251e-05)
(-0.0452285 0.00606896 -8.22887e-09)
(-0.0452285 0.00606896 8.24374e-09)
(-0.0452323 0.00606928 1.65251e-05)
(-0.0489474 0.00234466 -1.76267e-05)
(-0.0489435 0.0023447 -9.59266e-09)
(-0.0489435 0.0023447 9.62203e-09)
(-0.0489474 0.00234466 1.76267e-05)
(-0.0518386 -0.00182091 -1.70524e-05)
(-0.0518355 -0.00182055 -8.58235e-09)
(-0.0518355 -0.00182055 8.60244e-09)
(-0.0518386 -0.00182091 1.70523e-05)
(-0.053236 -0.00641024 -1.47337e-05)
(-0.0532334 -0.00640909 -9.61859e-09)
(-0.0532334 -0.00640909 9.63708e-09)
(-0.053236 -0.00641024 1.47337e-05)
(-0.0525696 -0.0113186 -1.02969e-05)
(-0.0525678 -0.0113177 -1.14104e-08)
(-0.0525678 -0.0113177 1.1438e-08)
(-0.0525696 -0.0113186 1.02968e-05)
(-0.029607 0.0105216 -3.7036e-05)
(-0.0296093 0.0105218 -8.99489e-09)
(-0.0296093 0.0105218 9.01447e-09)
(-0.029607 0.0105216 3.7036e-05)
(-0.033578 0.0100846 -3.01224e-05)
(-0.0335798 0.0100839 -6.79265e-09)
(-0.0335798 0.0100839 6.82747e-09)
(-0.033578 0.0100846 3.01224e-05)
(-0.0375038 0.00974496 -2.26037e-05)
(-0.0375029 0.00974428 -1.52018e-08)
(-0.0375029 0.00974428 1.52019e-08)
(-0.0375038 0.00974496 2.26037e-05)
(-0.0409932 0.00947425 -1.42683e-05)
(-0.0409897 0.00947309 -8.63046e-09)
(-0.0409897 0.00947309 8.65846e-09)
(-0.0409932 0.00947425 1.42683e-05)
(-0.0286661 0.00152484 -4.8969e-05)
(-0.0286645 0.00152671 7.73529e-10)
(-0.0286645 0.00152671 -7.8284e-10)
(-0.0286661 0.00152484 4.8969e-05)
(-0.027521 0.00662593 -4.58947e-05)
(-0.0275277 0.00662641 1.52334e-08)
(-0.0275277 0.00662641 -1.52656e-08)
(-0.027521 0.00662593 4.58947e-05)
(0.241348 0.0433672 -0.000921702)
(0.241293 0.0434063 -3.10424e-07)
(0.241293 0.0434063 3.10426e-07)
(0.241348 0.0433672 0.000921702)
(0.248215 0.0467433 -0.000841194)
(0.248159 0.0467527 -1.80958e-07)
(0.248159 0.0467527 1.80956e-07)
(0.248215 0.0467433 0.000841194)
(-0.0255198 0.0111657 -4.27897e-05)
(-0.0255195 0.0111643 -6.04486e-09)
(-0.0255195 0.0111643 6.00169e-09)
(-0.0255198 0.0111657 4.27897e-05)
(0.260548 0.0329356 -0.000739278)
(0.260533 0.0329155 -3.17581e-09)
(0.260533 0.0329155 3.17502e-09)
(0.260548 0.0329356 0.000739278)
(0.267129 0.028762 -0.000676774)
(0.267118 0.0287377 -2.10774e-08)
(0.267118 0.0287377 2.10775e-08)
(0.267129 0.028762 0.000676774)
(0.255316 0.0440085 -0.000771371)
(0.255296 0.0439653 -1.17702e-07)
(0.255296 0.0439653 1.17701e-07)
(0.255316 0.0440085 0.000771371)
(0.268133 0.00870975 -0.000703439)
(0.268145 0.00871709 1.4456e-07)
(0.268145 0.00871709 -1.44562e-07)
(0.268133 0.00870975 0.000703439)
(0.269631 0.0149593 -0.000680252)
(0.269643 0.0149545 1.50229e-07)
(0.269643 0.0149545 -1.50231e-07)
(0.269631 0.0149593 0.000680252)
(0.271164 0.0211512 -0.000649744)
(0.271168 0.0211412 8.26674e-08)
(0.271168 0.0211412 -8.26688e-08)
(0.271164 0.0211512 0.000649744)
(0.27336 0.0251558 -0.000609233)
(0.273365 0.0251258 1.15779e-07)
(0.273365 0.0251258 -1.1578e-07)
(0.27336 0.0251558 0.000609233)
(0.238931 0.0540127 -0.000916002)
(0.238898 0.0540184 -1.65148e-07)
(0.238898 0.0540184 1.65152e-07)
(0.238931 0.0540127 0.000916002)
(0.212646 0.0226814 -0.00122585)
(0.21262 0.0226909 -2.50969e-07)
(0.21262 0.0226909 2.5097e-07)
(0.212646 0.0226814 0.00122585)
(0.226419 0.0150929 -0.00111278)
(0.226388 0.0150323 -1.51031e-07)
(0.226388 0.0150323 1.51029e-07)
(0.226419 0.0150929 0.00111278)
(0.238829 0.00844552 -0.00100281)
(0.2388 0.00844096 -1.69809e-07)
(0.2388 0.00844096 1.69807e-07)
(0.238829 0.00844552 0.00100281)
(0.249815 0.00572937 -0.0008945)
(0.249796 0.00571234 -1.85971e-08)
(0.249796 0.00571234 1.85968e-08)
(0.249815 0.00572937 0.0008945)
(0.25933 0.00349635 -0.000800659)
(0.259331 0.0035149 3.81875e-08)
(0.259331 0.0035149 -3.81873e-08)
(0.25933 0.00349635 0.000800659)
(0.232304 0.0582542 -0.000966153)
(0.232284 0.0582488 -1.67106e-07)
(0.232284 0.0582488 1.67105e-07)
(0.232304 0.0582542 0.000966153)
(0.223774 0.0676995 -0.00103524)
(0.223803 0.0676613 -1.25769e-08)
(0.223803 0.0676613 1.25787e-08)
(0.223774 0.0676995 0.00103524)
(0.217176 0.075358 -0.00107237)
(0.217207 0.075324 1.20165e-07)
(0.217207 0.075324 -1.20161e-07)
(0.217176 0.075358 0.00107237)
(0.210961 0.0783616 -0.00111382)
(0.210982 0.0783536 1.09594e-07)
(0.210982 0.0783536 -1.09594e-07)
(0.210961 0.0783616 0.00111382)
(0.204523 0.0857214 -0.00115931)
(0.204533 0.0857096 6.02051e-08)
(0.204533 0.0857096 -6.02064e-08)
(0.204523 0.0857214 0.00115931)
(0.190065 0.0799283 -0.00128925)
(0.190095 0.0799192 1.31119e-07)
(0.190095 0.0799192 -1.31111e-07)
(0.190065 0.0799283 0.00128925)
(0.176973 0.0426007 -0.00148272)
(0.17697 0.042639 -8.96509e-09)
(0.17697 0.042639 8.96482e-09)
(0.176973 0.0426007 0.00148272)
(0.183863 0.0799256 -0.0013307)
(0.183862 0.0799647 8.32066e-08)
(0.183862 0.0799647 -8.32003e-08)
(0.183863 0.0799256 0.0013307)
(0.196941 0.0945538 -0.00118756)
(0.196965 0.0945147 4.90341e-08)
(0.196965 0.0945147 -4.90342e-08)
(0.196941 0.0945538 0.00118756)
(0.189637 0.0971283 -0.00122044)
(0.189631 0.0971362 1.53698e-07)
(0.189631 0.0971362 -1.53699e-07)
(0.189637 0.0971283 0.00122044)
(0.267158 0.00253773 -0.000716963)
(0.267168 0.00254836 1.15891e-07)
(0.267168 0.00254836 -1.15891e-07)
(0.267158 0.00253773 0.000716963)
(0.17443 0.0813261 -0.00139705)
(0.174402 0.0813667 -5.91186e-08)
(0.174402 0.0813667 5.91206e-08)
(0.17443 0.0813261 0.00139705)
(0.159144 0.0630361 -0.00155716)
(0.159178 0.0630436 1.39772e-07)
(0.159178 0.0630436 -1.39771e-07)
(0.159144 0.0630361 0.00155716)
(0.161129 0.0845036 -0.0014767)
(0.16111 0.0844991 -1.68349e-07)
(0.16111 0.0844991 1.68346e-07)
(0.161129 0.0845036 0.0014767)
(-0.0217435 -0.0176754 -5.58362e-05)
(-0.0217414 -0.0176698 -1.36059e-08)
(-0.0217414 -0.0176698 1.35624e-08)
(-0.0217435 -0.0176754 5.58362e-05)
(-0.021634 -0.00922725 -5.97423e-05)
(-0.0216393 -0.00922077 8.03593e-10)
(-0.0216393 -0.00922077 -8.21166e-10)
(-0.021634 -0.00922725 5.97423e-05)
(0.234813 0.0681939 -0.000917296)
(0.234811 0.0681346 -1.98799e-07)
(0.234811 0.0681346 1.98797e-07)
(0.234813 0.0681939 0.000917296)
(0.228133 0.0753879 -0.000965101)
(0.228159 0.0753273 -4.2932e-08)
(0.228159 0.0753273 4.29332e-08)
(0.228133 0.0753879 0.000965101)
(0.222365 0.083367 -0.000995557)
(0.222384 0.0833049 -3.87105e-08)
(0.222384 0.0833049 3.87153e-08)
(0.222365 0.083367 0.000995557)
(0.216259 0.0892973 -0.00102666)
(0.216266 0.0892462 -8.30346e-08)
(0.216266 0.0892462 8.30377e-08)
(0.216259 0.0892973 0.00102666)
(0.209192 0.0979843 -0.00106497)
(0.209195 0.0979344 -8.04054e-08)
(0.209195 0.0979344 8.04077e-08)
(0.209192 0.0979843 0.00106497)
(0.203566 0.104743 -0.00109188)
(0.203569 0.104701 -6.66654e-08)
(0.203569 0.104701 6.6668e-08)
(0.203566 0.104743 0.00109188)
(0.194594 0.111068 -0.00112614)
(0.194587 0.111037 -6.9131e-08)
(0.194587 0.111037 6.9132e-08)
(0.194594 0.111068 0.00112614)
(0.245338 0.0564058 -0.000835396)
(0.245277 0.0563488 -3.13736e-07)
(0.245277 0.0563488 3.13739e-07)
(0.245338 0.0564058 0.000835396)
(0.243271 0.0621842 -0.000848248)
(0.243223 0.062151 -4.41656e-07)
(0.243223 0.062151 4.4166e-07)
(0.243271 0.0621842 0.000848248)
(0.188511 0.0237219 -0.00141988)
(0.18855 0.0237007 8.97621e-08)
(0.18855 0.0237007 -8.97662e-08)
(0.188511 0.0237219 0.00141988)
(0.203477 0.0100008 -0.00131458)
(0.203456 0.00994549 -3.10215e-07)
(0.203456 0.00994549 3.10214e-07)
(0.203477 0.0100008 0.00131458)
(0.219986 0.00257066 -0.00117038)
(0.219948 0.00253194 -9.77608e-08)
(0.219948 0.00253194 9.77607e-08)
(0.219986 0.00257066 0.00117038)
(0.235137 -0.00114571 -0.00103728)
(0.235121 -0.00116184 -1.28125e-07)
(0.235121 -0.00116184 1.28126e-07)
(0.235137 -0.00114571 0.00103728)
(0.247649 -0.00266684 -0.000914057)
(0.247637 -0.00267209 3.72589e-08)
(0.247637 -0.00267209 -3.72579e-08)
(0.247649 -0.00266684 0.000914057)
(0.258318 -0.0036079 -0.000807728)
(0.258328 -0.00359712 4.5523e-08)
(0.258328 -0.00359712 -4.55223e-08)
(0.258318 -0.0036079 0.000807728)
(-0.0494144 -0.016172 -3.96117e-06)
(-0.0494122 -0.0161733 -1.29628e-08)
(-0.0494122 -0.0161733 1.2991e-08)
(-0.0494144 -0.016172 3.96115e-06)
(-0.0443919 -0.0188572 -1.51939e-05)
(-0.0443906 -0.0188573 -1.01325e-08)
(-0.0443906 -0.0188573 1.01533e-08)
(-0.0443919 -0.0188572 1.51939e-05)
(-0.039045 -0.0205932 -2.65617e-05)
(-0.0390412 -0.0205929 -1.4116e-08)
(-0.0390412 -0.0205929 1.40875e-08)
(-0.039045 -0.0205932 2.65618e-05)
(-0.033336 -0.0219668 -3.66034e-05)
(-0.0333325 -0.021967 -1.94737e-08)
(-0.0333325 -0.021967 1.9426e-08)
(-0.033336 -0.0219668 3.66035e-05)
(-0.0272982 -0.0230859 -4.47027e-05)
(-0.0272954 -0.0230819 -2.32535e-08)
(-0.0272954 -0.0230819 2.31967e-08)
(-0.0272982 -0.0230859 4.47028e-05)
(-0.0215236 -0.0242927 -5.0927e-05)
(-0.021523 -0.0242881 -2.64408e-08)
(-0.021523 -0.0242881 2.6381e-08)
(-0.0215236 -0.0242927 5.09271e-05)
(-0.0441847 0.00895632 -6.00598e-06)
(-0.0441818 0.00895447 -9.22295e-09)
(-0.0441818 0.00895447 9.25305e-09)
(-0.0441847 0.00895632 6.00595e-06)
(-0.0486472 0.00607201 -8.30558e-06)
(-0.0486438 0.00607093 -7.16814e-09)
(-0.0486438 0.00607093 7.19958e-09)
(-0.0486472 0.00607201 8.30555e-06)
(-0.0527845 0.00290675 -9.30643e-06)
(-0.0527806 0.00290655 -7.8121e-09)
(-0.0527806 0.00290655 7.84432e-09)
(-0.0527845 0.00290675 9.3064e-06)
(-0.0560882 -0.000561871 -8.44194e-06)
(-0.0560844 -0.000561485 -7.50575e-09)
(-0.0560844 -0.000561485 7.54128e-09)
(-0.0560882 -0.000561871 8.4419e-06)
(-0.0578029 -0.00447646 -5.59878e-06)
(-0.057799 -0.0044757 -8.96084e-09)
(-0.057799 -0.0044757 8.99623e-09)
(-0.0578029 -0.00447646 5.59874e-06)
(-0.057167 -0.00868387 -5.00111e-07)
(-0.0571625 -0.00868391 -1.08138e-08)
(-0.0571625 -0.00868391 1.08465e-08)
(-0.057167 -0.00868387 5.00079e-07)
(-0.0537566 -0.0128408 6.68126e-06)
(-0.0537513 -0.0128432 -1.18275e-08)
(-0.0537513 -0.0128432 1.18504e-08)
(-0.0537566 -0.0128408 -6.68128e-06)
(-0.0232253 0.0147118 -3.83336e-05)
(-0.0232317 0.0147105 6.58956e-09)
(-0.0232317 0.0147105 -6.53605e-09)
(-0.0232253 0.0147118 3.83336e-05)
(-0.0263833 0.014038 -3.32614e-05)
(-0.0263882 0.0140368 -1.7908e-09)
(-0.0263882 0.0140368 1.84254e-09)
(-0.0263833 0.014038 3.32614e-05)
(-0.0297249 0.0135516 -2.69225e-05)
(-0.0297283 0.0135499 -5.14179e-09)
(-0.0297283 0.0135499 5.15862e-09)
(-0.0297249 0.0135516 2.69225e-05)
(-0.0331283 0.0131291 -1.96175e-05)
(-0.0331285 0.0131281 -1.32371e-08)
(-0.0331285 0.0131281 1.3257e-08)
(-0.0331283 0.0131291 1.96174e-05)
(-0.0363419 0.0126273 -1.11848e-05)
(-0.0363395 0.0126253 -9.31695e-09)
(-0.0363395 0.0126253 9.35467e-09)
(-0.0363419 0.0126273 1.11848e-05)
(-0.0394095 0.0117226 -2.71705e-06)
(-0.0394068 0.0117208 -1.08395e-08)
(-0.0394068 0.0117208 1.0869e-08)
(-0.0394095 0.0117226 2.71702e-06)
(-0.0241794 0.000401674 -5.84687e-05)
(-0.0241775 0.000405203 -5.28312e-08)
(-0.0241775 0.000405203 5.27633e-08)
(-0.0241794 0.000401674 5.84688e-05)
(-0.0228457 0.00704505 -5.12735e-05)
(-0.0228495 0.00705133 2.44671e-08)
(-0.0228495 0.00705133 -2.45534e-08)
(-0.0228457 0.00704505 5.12736e-05)
(-0.0215336 0.0120898 -4.78561e-05)
(-0.0215308 0.0120906 -2.17877e-08)
(-0.0215308 0.0120906 2.17247e-08)
(-0.0215336 0.0120898 4.78561e-05)
(-0.0205272 0.0156803 -4.21181e-05)
(-0.0205357 0.0156795 1.81052e-08)
(-0.0205357 0.0156795 -1.81222e-08)
(-0.0205272 0.0156803 4.21182e-05)
(0.161302 0.0367513 -0.00160725)
(0.1613 0.0367958 -1.50745e-07)
(0.1613 0.0367958 1.50743e-07)
(0.161302 0.0367513 0.00160725)
(0.261012 0.044455 -0.00070833)
(0.260997 0.0444036 -1.2574e-07)
(0.260997 0.0444036 1.25737e-07)
(0.261012 0.044455 0.00070833)
(0.254143 0.0523343 -0.000763491)
(0.254113 0.0522706 -2.27643e-07)
(0.254113 0.0522706 2.27644e-07)
(0.254143 0.0523343 0.000763491)
(0.267821 0.035708 -0.000646009)
(0.267812 0.0356817 -6.8279e-08)
(0.267812 0.0356817 6.82804e-08)
(0.267821 0.035708 0.000646009)
(0.274406 0.00676902 -0.000637319)
(0.274428 0.00677794 1.50042e-07)
(0.274428 0.00677794 -1.50044e-07)
(0.274406 0.00676902 0.000637319)
(0.275306 0.0120421 -0.000620065)
(0.27533 0.0120469 1.73925e-07)
(0.27533 0.0120469 -1.73925e-07)
(0.275306 0.0120421 0.000620065)
(0.273117 0.0336107 -0.000585039)
(0.273122 0.0335646 -2.82929e-08)
(0.273122 0.0335646 2.82931e-08)
(0.273117 0.0336107 0.000585039)
(0.276594 0.0175089 -0.000591361)
(0.276617 0.0174965 1.82754e-07)
(0.276617 0.0174965 -1.82755e-07)
(0.276594 0.0175089 0.000591361)
(0.278023 0.0237875 -0.00055542)
(0.278042 0.0237613 9.37829e-08)
(0.278042 0.0237613 -9.37829e-08)
(0.278023 0.0237875 0.00055542)
(0.273827 0.00128367 -0.00064636)
(0.273845 0.00129097 1.0948e-07)
(0.273845 0.00129097 -1.0948e-07)
(0.273827 0.00128367 0.00064636)
(0.174727 0.0082783 -0.00154537)
(0.174746 0.00823712 -8.57051e-08)
(0.174746 0.00823712 8.57001e-08)
(0.174727 0.0082783 0.00154537)
(0.137878 0.064005 -0.00165434)
(0.13791 0.0640133 2.38532e-07)
(0.13791 0.0640133 -2.38535e-07)
(0.137878 0.064005 0.00165434)
(0.142929 0.0880336 -0.00155578)
(0.142895 0.0879944 -1.41628e-07)
(0.142895 0.0879944 1.41626e-07)
(0.142929 0.0880336 0.00155578)
(0.115934 0.0711308 -0.00173553)
(0.115974 0.0711821 2.81103e-07)
(0.115974 0.0711821 -2.81105e-07)
(0.115934 0.0711308 0.00173553)
(0.120344 0.0924343 -0.00161962)
(0.120289 0.092412 -2.07196e-07)
(0.120289 0.092412 2.07195e-07)
(0.120344 0.0924343 0.00161962)
(-0.0176459 0.0177786 -3.96027e-05)
(-0.0176438 0.0177756 -1.43149e-08)
(-0.0176438 0.0177756 1.43419e-08)
(-0.0176459 0.0177786 3.96027e-05)
(-0.0195798 0.017146 -3.54347e-05)
(-0.0195817 0.0171455 -6.39494e-09)
(-0.0195817 0.0171455 6.44015e-09)
(-0.0195798 0.017146 3.54347e-05)
(-0.0220882 0.0167379 -3.0321e-05)
(-0.0220918 0.0167357 -9.90357e-09)
(-0.0220918 0.0167357 9.93037e-09)
(-0.0220882 0.0167379 3.0321e-05)
(-0.0248812 0.0164987 -2.39196e-05)
(-0.0248837 0.0164974 -1.14246e-08)
(-0.0248837 0.0164974 1.14497e-08)
(-0.0248812 0.0164987 2.39196e-05)
(-0.0279171 0.0161963 -1.62652e-05)
(-0.0279173 0.0161965 -1.55311e-08)
(-0.0279173 0.0161965 1.55546e-08)
(-0.0279171 0.0161963 1.62652e-05)
(-0.0309753 0.0156102 -7.65855e-06)
(-0.0309733 0.0156105 -1.41472e-08)
(-0.0309733 0.0156105 1.41708e-08)
(-0.0309753 0.0156102 7.65853e-06)
(-0.0339455 0.0145238 1.32981e-06)
(-0.0339425 0.0145256 -1.44722e-08)
(-0.0339425 0.0145256 1.44869e-08)
(-0.0339455 0.0145238 -1.32982e-06)
(-0.0366516 0.0127038 9.90999e-06)
(-0.0366466 0.0127063 -1.29733e-08)
(-0.0366466 0.0127063 1.29893e-08)
(-0.0366516 0.0127038 -9.91001e-06)
(-0.0420335 0.0103251 5.29609e-06)
(-0.0420289 0.0103235 -9.01381e-09)
(-0.0420289 0.0103235 9.02882e-09)
(-0.0420335 0.0103251 -5.2961e-06)
(-0.0468194 0.00808374 1.63815e-06)
(-0.0468151 0.00808198 -7.21277e-09)
(-0.0468151 0.00808198 7.2276e-09)
(-0.0468194 0.00808374 -1.63816e-06)
(-0.0514377 0.00584711 -8.33175e-07)
(-0.0514338 0.00584572 -4.61058e-09)
(-0.0514338 0.00584572 4.6388e-09)
(-0.0514377 0.00584711 8.33147e-07)
(-0.0558486 0.00342694 -1.83638e-06)
(-0.0558444 0.00342647 -3.86011e-09)
(-0.0558444 0.00342647 3.89781e-09)
(-0.0558486 0.00342694 1.83634e-06)
(-0.0595468 0.000687649 -8.58548e-07)
(-0.0595422 0.000687863 -5.01592e-09)
(-0.0595422 0.000687863 5.05812e-09)
(-0.0595468 0.000687649 8.58506e-07)
(-0.0615631 -0.00240554 2.45928e-06)
(-0.0615579 -0.00240533 -6.86978e-09)
(-0.0615579 -0.00240533 6.90757e-09)
(-0.0615631 -0.00240554 -2.45932e-06)
(-0.0609676 -0.00572594 8.16878e-06)
(-0.0609616 -0.00572693 -8.63017e-09)
(-0.0609616 -0.00572693 8.65971e-09)
(-0.0609676 -0.00572594 -8.16881e-06)
(-0.057215 -0.00903393 1.5927e-05)
(-0.0572088 -0.00903696 -6.61156e-09)
(-0.0572088 -0.00903696 6.62792e-09)
(-0.057215 -0.00903393 -1.5927e-05)
(-0.0501955 -0.0120132 2.49485e-05)
(-0.05019 -0.0120171 -8.24474e-10)
(-0.05019 -0.0120171 8.23005e-10)
(-0.0501955 -0.0120132 -2.49485e-05)
(-0.0474231 -0.0166284 1.50706e-05)
(-0.0474176 -0.0166331 -7.74101e-09)
(-0.0474176 -0.0166331 7.72178e-09)
(-0.0474231 -0.0166284 -1.50706e-05)
(-0.0437499 -0.0206176 3.63417e-06)
(-0.0437471 -0.0206217 -1.00307e-08)
(-0.0437471 -0.0206217 1.0027e-08)
(-0.0437499 -0.0206176 -3.63417e-06)
(-0.039337 -0.0238291 -8.48801e-06)
(-0.0393348 -0.0238316 -9.1379e-09)
(-0.0393348 -0.0238316 9.1225e-09)
(-0.039337 -0.0238291 8.48803e-06)
(-0.0345814 -0.0261382 -2.03663e-05)
(-0.0345769 -0.0261416 -1.39416e-08)
(-0.0345769 -0.0261416 1.39112e-08)
(-0.0345814 -0.0261382 2.03663e-05)
(-0.0295963 -0.0278111 -3.08509e-05)
(-0.0295923 -0.0278155 -2.10202e-08)
(-0.0295923 -0.0278155 2.09847e-08)
(-0.0295963 -0.0278111 3.08509e-05)
(-0.0245796 -0.0289459 -3.93931e-05)
(-0.0245766 -0.0289505 -2.05236e-08)
(-0.0245766 -0.0289505 2.04862e-08)
(-0.0245796 -0.0289459 3.93931e-05)
(-0.0200543 -0.0295519 -4.58214e-05)
(-0.0200525 -0.0295561 -2.40668e-08)
(-0.0200525 -0.0295561 2.4028e-08)
(-0.0200543 -0.0295519 4.58214e-05)
(-0.0160078 -0.0290986 -4.98493e-05)
(-0.0160009 -0.0291 -2.00065e-08)
(-0.0160009 -0.0291 1.99887e-08)
(-0.0160078 -0.0290986 4.98493e-05)
(-0.0127976 -0.0256428 -5.14754e-05)
(-0.0127954 -0.0256351 -5.72655e-08)
(-0.0127954 -0.0256351 5.73174e-08)
(-0.0127976 -0.0256428 5.14753e-05)
(0.266691 -0.00379892 -0.000719096)
(0.266697 -0.00379513 7.26025e-08)
(0.266697 -0.00379513 -7.26028e-08)
(0.266691 -0.00379892 0.000719096)
(0.131085 0.0326064 -0.00174564)
(0.131043 0.0326125 -1.89767e-07)
(0.131043 0.0326125 1.89764e-07)
(0.131085 0.0326064 0.00174564)
(0.191365 -0.00120258 -0.00138094)
(0.191332 -0.00115974 -2.16506e-08)
(0.191332 -0.00115974 2.16473e-08)
(0.191365 -0.00120258 0.00138094)
(0.21695 -0.0110585 -0.00120192)
(0.216948 -0.0110843 2.22193e-08)
(0.216948 -0.0110843 -2.22195e-08)
(0.21695 -0.0110585 0.00120192)
(0.232525 -0.0117367 -0.00104729)
(0.232514 -0.0117285 -4.6913e-09)
(0.232514 -0.0117285 4.69282e-09)
(0.232525 -0.0117367 0.00104729)
(0.247037 -0.0122235 -0.000915003)
(0.247041 -0.0122309 7.81312e-08)
(0.247041 -0.0122309 -7.81287e-08)
(0.247037 -0.0122235 0.000915003)
(0.251185 0.0588117 -0.000776256)
(0.251153 0.0587915 -2.80036e-07)
(0.251153 0.0587915 2.80038e-07)
(0.251185 0.0588117 0.000776256)
(0.247523 0.0642431 -0.000798792)
(0.247485 0.0642735 -2.16139e-07)
(0.247485 0.0642735 2.16141e-07)
(0.247523 0.0642431 0.000798792)
(0.240366 0.0720266 -0.000851634)
(0.240338 0.0720329 -3.24047e-07)
(0.240338 0.0720329 3.24045e-07)
(0.240366 0.0720266 0.000851634)
(0.233171 0.0809398 -0.000899761)
(0.233193 0.080897 -1.12922e-07)
(0.233193 0.080897 1.12923e-07)
(0.233171 0.0809398 0.000899761)
(0.227902 0.0895294 -0.00092629)
(0.227928 0.0894779 -4.64528e-08)
(0.227928 0.0894779 4.64553e-08)
(0.227902 0.0895294 0.00092629)
(0.22192 0.0976437 -0.000946519)
(0.221929 0.0976031 -8.04115e-08)
(0.221929 0.0976031 8.04135e-08)
(0.22192 0.0976437 0.000946519)
(0.216061 0.105919 -0.00097386)
(0.216068 0.105884 -9.22025e-08)
(0.216068 0.105884 9.22051e-08)
(0.216061 0.105919 0.00097386)
(0.208949 0.117888 -0.000985011)
(0.208978 0.11783 -2.32545e-08)
(0.208978 0.11783 2.32523e-08)
(0.208949 0.117888 0.000985011)
(0.204597 0.119195 -0.00101592)
(0.20461 0.119175 6.02393e-08)
(0.20461 0.119175 -6.02429e-08)
(0.204597 0.119195 0.00101592)
(0.257859 -0.0111226 -0.000803643)
(0.257867 -0.0111212 3.99574e-08)
(0.257867 -0.0111212 -3.99563e-08)
(0.257859 -0.0111226 0.000803643)
(-0.0160453 -0.0244642 -5.48637e-05)
(-0.016049 -0.0244601 -2.19653e-08)
(-0.016049 -0.0244601 2.19246e-08)
(-0.0160453 -0.0244642 5.48637e-05)
(-0.0150727 -0.0181827 -6.03761e-05)
(-0.0150718 -0.0181822 -1.2208e-08)
(-0.0150718 -0.0181822 1.2165e-08)
(-0.0150727 -0.0181827 6.03761e-05)
(-0.0141293 -0.010093 -6.48966e-05)
(-0.0141295 -0.0100945 -2.60804e-08)
(-0.0141295 -0.0100945 2.60242e-08)
(-0.0141293 -0.010093 6.48967e-05)
(0.206271 0.133218 -0.000923318)
(0.206261 0.133174 -6.1735e-08)
(0.206261 0.133174 6.17322e-08)
(0.206271 0.133218 0.000923318)
(0.179837 0.0989108 -0.0012911)
(0.179796 0.0989782 -2.64499e-08)
(0.179796 0.0989782 2.64476e-08)
(0.179837 0.0989108 0.0012911)
(0.167484 0.103095 -0.00136638)
(0.167469 0.103147 -1.85572e-08)
(0.167469 0.103147 1.85559e-08)
(0.167484 0.103095 0.00136638)
(-0.0198492 -0.000831699 -5.97207e-05)
(-0.0198543 -0.000828692 6.03567e-09)
(-0.0198543 -0.000828692 -5.99984e-09)
(-0.0198492 -0.000831699 5.97206e-05)
(-0.0180178 0.00686885 -5.62282e-05)
(-0.0180171 0.00686711 1.73871e-08)
(-0.0180171 0.00686711 -1.74324e-08)
(-0.0180178 0.00686885 5.62282e-05)
(-0.0174567 0.0133584 -5.19016e-05)
(-0.0174554 0.0133645 -2.3001e-08)
(-0.0174554 0.0133645 2.29896e-08)
(-0.0174567 0.0133584 5.19016e-05)
(-0.0181969 0.0168806 -4.34339e-05)
(-0.0182064 0.0168772 3.82328e-08)
(-0.0182064 0.0168772 -3.8247e-08)
(-0.0181969 0.0168806 4.3434e-05)
(-0.0162398 0.0192786 -4.21611e-05)
(-0.0162513 0.0192854 -4.26885e-08)
(-0.0162513 0.0192854 4.26848e-08)
(-0.0162398 0.0192786 4.21611e-05)
(0.185072 0.114769 -0.0011794)
(0.185062 0.114777 -3.05638e-09)
(0.185062 0.114777 3.05363e-09)
(0.185072 0.114769 0.0011794)
(-0.0135285 0.0184272 -4.00866e-05)
(-0.0135239 0.0184217 3.48724e-08)
(-0.0135239 0.0184217 -3.46542e-08)
(-0.0135285 0.0184272 4.00864e-05)
(-0.0160415 0.0172616 -4.32334e-05)