/*--------------------------------*- C++ -*----------------------------------*\
| =========                 |                                                 |
| \\      /  F ield         | OpenFOAM: The Open Source CFD Toolbox           |
|  \\    /   O peration     | Version:  v1806                                 |
|   \\  /    A nd           | Web:      www.OpenFOAM.com                      |
|    \\/     M anipulation  |                                                 |
\*---------------------------------------------------------------------------*/
FoamFile
{
    version     2.0;
    format      ascii;
    class       volScalarField;
    location    "6";
    object      p;
}
// * * * * * * * * * * * * * * * * * * * * * * * * * * * * * * * * * * * * * //

dimensions      [0 2 -2 0 0 0 0];


internalField   nonuniform List<scalar> 
2400
(
0.0336828
0.0335505
0.0336208
0.0337316
0.0337578
0.0338487
0.0337141
0.0337723
0.0334634
0.0334644
0.0328854
0.0323146
0.0318515
0.0304751
0.0296338
0.0282909
0.0264223
0.0246108
0.0224749
0.0203664
0.10092
0.100733
0.100887
0.101162
0.101251
0.101571
0.101182
0.101413
0.10078
0.100176
0.0990679
0.0972037
0.0955845
0.0921358
0.0889667
0.0850856
0.0797626
0.0743362
0.0679024
0.0610765
0.168054
0.167821
0.16807
0.16861
0.168833
0.169352
0.168985
0.169213
0.168411
0.167397
0.165728
0.162828
0.159927
0.154664
0.149175
0.142718
0.13389
0.124671
0.114205
0.10254
0.23494
0.234787
0.23519
0.236006
0.236491
0.237353
0.237107
0.237427
0.236603
0.235312
0.233273
0.229486
0.225399
0.218472
0.210701
0.201554
0.189363
0.176154
0.161436
0.144817
0.30151
0.30148
0.302121
0.303379
0.304285
0.305582
0.305644
0.306155
0.305512
0.304286
0.301988
0.297581
0.292459
0.284022
0.274116
0.262146
0.246537
0.229261
0.210031
0.188138
0.367555
0.367739
0.368854
0.370722
0.372175
0.374044
0.374532
0.375519
0.375353
0.374543
0.372262
0.367533
0.361658
0.351828
0.339952
0.325041
0.306005
0.284463
0.26032
0.232776
0.432723
0.433426
0.435361
0.438005
0.44018
0.442588
0.443749
0.445582
0.446328
0.446394
0.444474
0.439871
0.433434
0.422539
0.408786
0.390895
0.368389
0.342322
0.312812
0.278886
0.496432
0.498453
0.501743
0.505233
0.508067
0.510955
0.513199
0.516389
0.518687
0.520091
0.519112
0.515033
0.508406
0.4968
0.481337
0.460538
0.434522
0.403532
0.367905
0.326829
0.55777
0.562965
0.568105
0.572192
0.575374
0.578742
0.582834
0.587954
0.592666
0.595828
0.59657
0.593601
0.587239
0.575604
0.558478
0.535058
0.505403
0.468797
0.426374
0.376893
0.616088
0.627309
0.633925
0.638247
0.641096
0.645841
0.652513
0.660423
0.668354
0.673671
0.67723
0.675979
0.671084
0.659977
0.641582
0.615916
0.582062
0.539381
0.488899
0.429623
0.671346
0.691413
0.697633
0.702435
0.704097
0.712592
0.721598
0.734005
0.744912
0.753856
0.761068
0.76282
0.760708
0.751171
0.732573
0.704991
0.666203
0.616989
0.556405
0.485477
0.724066
0.753638
0.757358
0.763818
0.763854
0.779098
0.788845
0.808732
0.820329
0.837005
0.846284
0.855586
0.856008
0.85117
0.832952
0.804616
0.760595
0.703872
0.629979
0.545122
0.774367
0.811213
0.81195
0.821036
0.820023
0.843486
0.852878
0.882873
0.893057
0.922931
0.930606
0.95559
0.953902
0.963582
0.941615
0.920564
0.867195
0.802967
0.711399
0.60883
0.822291
0.861738
0.860385
0.872369
0.872122
0.902563
0.912652
0.952244
0.962315
1.00709
1.01327
1.05993
1.05287
1.0897
1.05535
1.06127
0.983178
0.930376
0.801575
0.677794
0.869185
0.903889
0.902597
0.916516
0.920033
0.954286
0.967659
1.01317
1.02729
1.08346
1.09354
1.15967
1.15263
1.22062
1.1742
1.22677
1.1085
1.10229
0.894222
0.776922
0.917166
0.937972
0.9388
0.953545
0.96456
0.99827
1.01859
1.06417
1.08794
1.14868
1.17145
1.24689
1.25266
1.33987
1.29928
1.39076
1.24918
1.31054
0.992386
0.928427
0.966221
0.965857
0.970716
0.987224
1.0089
1.03931
1.07119
1.11184
1.15249
1.20722
1.25304
1.32269
1.35834
1.44306
1.43584
1.53389
1.41155
1.50786
1.11204
1.12605
1.01141
0.986852
1.00125
1.02014
1.05547
1.08123
1.1254
1.16269
1.22214
1.27478
1.34682
1.4141
1.48962
1.56318
1.62315
1.68468
1.62137
1.68645
1.24787
1.37475
1.04344
1.00374
1.02948
1.0484
1.09641
1.11538
1.17644
1.20677
1.29426
1.337
1.45469
1.50615
1.65479
1.70614
1.86694
1.89771
1.96531
1.8557
1.53235
1.24465
1.06515
1.01788
1.0517
1.06948
1.12485
1.13977
1.21296
1.23964
1.34725
1.38546
1.54059
1.5881
1.82055
1.85988
2.22422
2.17378
2.74762
2.28792
2.85061
0.085
0.0178088
0.0145413
0.0119986
0.00914358
0.00597288
0.00323915
0.00136226
-0.000804797
-0.00306986
-0.00478615
0.0538156
0.0442052
0.035494
0.0274225
0.0186996
0.00978595
0.00349219
-0.00229433
-0.00858338
-0.0138861
0.0898788
0.074045
0.0593689
0.0450478
0.0306291
0.0163185
0.00497581
-0.0054086
-0.014979
-0.023614
0.126476
0.104094
0.0829906
0.062229
0.0418424
0.0217822
0.00548212
-0.00945151
-0.0225425
-0.0348376
0.163711
0.134256
0.106353
0.078403
0.0520048
0.0261058
0.00452778
-0.0154019
-0.0317638
-0.0477478
0.201706
0.164391
0.129085
0.0934512
0.060464
0.0283491
0.00179483
-0.023403
-0.0431303
-0.0632483
0.240563
0.194263
0.150949
0.106528
0.0667388
0.0281166
-0.00361754
-0.0341228
-0.0570832
-0.0816234
0.280231
0.223431
0.171409
0.11716
0.0699001
0.0245216
-0.0119237
-0.0480453
-0.074354
-0.103781
0.32061
0.251554
0.18948
0.124013
0.0691589
0.01686
-0.0238778
-0.06554
-0.0952426
-0.130186
0.36152
0.278029
0.204075
0.125736
0.0633399
0.00394096
-0.0403103
-0.0873131
-0.119718
-0.161422
0.402572
0.302285
0.213545
0.12124
0.0512069
-0.0150937
-0.062633
-0.11423
-0.148315
-0.197751
0.442423
0.323141
0.214835
0.110098
0.0323009
-0.0411878
-0.0918044
-0.145883
-0.18099
-0.240513
0.478827
0.336457
0.202677
0.0915761
0.00456275
-0.0740648
-0.127879
-0.18013
-0.217403
-0.288233
0.507439
0.332732
0.1704
0.0630794
-0.0411916
-0.115135
-0.1678
-0.210797
-0.256446
-0.336731
0.51989
0.306149
0.120765
0.0112114
-0.140643
-0.173056
-0.206793
-0.2305
-0.294663
-0.38218
0.485468
0.275888
0.0926119
-0.0694027
-0.308229
-0.255176
-0.243994
-0.228983
-0.329464
-0.414636
0.270291
0.293815
0.125166
-0.173207
-0.473342
-0.311563
-0.282177
-0.207736
-0.328801
-0.362078
-0.393442
0.0320238
-0.141936
-0.634965
-0.687648
-0.229519
-0.298797
-0.380328
-0.479606
-0.307068
-0.126214
0.754941
0.039429
-1.33477
-1.47436
-0.31079
0.0637234
-0.0851318
-0.511751
-0.610877
-4.19474
0.476505
-0.0893375
-0.824384
-1.1654
-0.61281
-0.399459
-0.275633
-0.457773
-0.533942
-0.0063903
-0.00900581
0.00145775
0.0319117
0.0680054
0.0966761
0.112845
0.116653
0.109216
0.095357
0.0800448
0.0657918
0.0534929
0.0431573
0.0344473
0.0270151
0.020581
0.0148247
0.00953157
0.00348792
-0.0193799
-0.0276595
0.00436736
0.0930285
0.189254
0.263436
0.307128
0.319104
0.299939
0.262524
0.221314
0.183127
0.149972
0.121815
0.0978512
0.0771686
0.0590032
0.0425192
0.0271559
0.00982884
-0.0340924
-0.0496827
0.00444082
0.147862
0.298191
0.413543
0.481119
0.498764
0.469614
0.413102
0.350363
0.291782
0.240307
0.195893
0.157642
0.124412
0.0950921
0.0683639
0.0432968
0.0154935
-0.0504806
-0.0786292
-0.0013246
0.199359
0.399652
0.547408
0.630768
0.650206
0.611862
0.540767
0.461962
0.387802
0.32186
0.26404
0.213397
0.168773
0.129004
0.0925206
0.0581245
0.0205891
-0.0698572
-0.116347
-0.0134512
0.245237
0.489985
0.665541
0.762988
0.785307
0.739701
0.655787
0.563049
0.475334
0.396472
0.326699
0.264996
0.210062
0.16064
0.114988
0.0717282
0.0251833
-0.0922027
-0.167515
-0.0362252
0.285647
0.575123
0.774147
0.878807
0.897091
0.843236
0.750862
0.649672
0.552899
0.464347
0.384566
0.312981
0.248568
0.190136
0.135853
0.0842115
0.0293344
-0.118773
-0.235356
-0.0704735
0.319993
0.652114
0.870674
0.981588
0.999688
0.93881
0.837045
0.727261
0.622087
0.525397
0.437308
0.357202
0.284281
0.217539
0.155185
0.0956623
0.0330912
-0.150065
-0.324878
-0.121033
0.345335
0.72397
0.961778
1.07322
1.0803
1.01203
0.907091
0.794004
0.684074
0.581091
0.485789
0.398044
0.317369
0.242942
0.173059
0.10616
0.0364952
-0.187124
-0.442769
-0.189718
0.363635
0.788959
1.0416
1.15429
1.15828
1.08131
0.969828
0.852204
0.73848
0.630961
0.52992
0.435589
0.347932
0.266433
0.189551
0.115778
0.0395824
-0.230805
-0.59607
-0.286009
0.369937
0.85158
1.12009
1.22476
1.21384
1.13229
1.0208
0.903044
0.787465
0.67629
0.570268
0.470091
0.376111
0.288107
0.204738
0.12458
0.0423845
-0.283858
-0.793288
-0.410829
0.364639
0.905244
1.18806
1.2909
1.27066
1.1794
1.06469
0.946459
0.830382
0.716958
0.60698
0.501716
0.402032
0.308057
0.218693
0.132625
0.0449298
-0.349374
-1.04962
-0.581775
0.345508
0.956421
1.25332
1.34099
1.30749
1.21403
1.10108
0.984896
0.869039
0.753818
0.640441
0.530673
0.425826
0.326379
0.231487
0.139969
0.047243
-0.434608
-1.38152
-0.80809
0.312088
1.00043
1.31274
1.39158
1.34357
1.24404
1.1314
1.01777
0.9032
0.787027
0.670876
0.557138
0.447619
0.343161
0.243188
0.146659
0.0493449
-0.534917
-1.80253
-1.11016
0.264486
1.04139
1.36355
1.42584
1.36736
1.26653
1.15735
1.04722
0.934066
0.81715
0.698581
0.581289
0.467532
0.358491
0.253859
0.15274
0.051252
-0.624033
-2.29458
-1.48924
0.196551
1.06862
1.41098
1.45516
1.38615
1.28407
1.17893
1.07297
0.961738
0.844435
0.723775
0.603286
0.485676
0.37245
0.263558
0.158251
0.0529763
-0.641504
-2.77899
-1.89799
0.118416
1.08811
1.44362
1.47349
1.39819
1.29768
1.19813
1.09646
0.986972
0.869272
0.746689
0.623279
0.502156
0.385111
0.272339
0.163226
0.0545271
-0.497849
-3.10974
-2.28786
0.0325673
1.09602
1.47534
1.49229
1.40518
1.3077
1.21485
1.11775
1.00999
0.891891
0.767504
0.6414
0.517064
0.396543
0.28025
0.167697
0.0559138
-0.168918
-3.22558
-2.49207
-0.039343
1.08559
1.48395
1.48593
1.40149
1.31455
1.23035
1.13768
1.03123
0.912548
0.786384
0.657761
0.530481
0.406805
0.287333
0.17169
0.057146
-0.379691
-3.203
-2.48541
-0.087549
1.06536
1.4755
1.46576
1.39373
1.32082
1.24522
1.15643
1.05086
0.931398
0.803455
0.672459
0.542475
0.415948
0.293625
0.17523
0.0582323
-0.600793
-3.05227
-2.24637
-0.110377
1.03394
1.43243
1.42742
1.38347
1.32721
1.25988
1.17425
1.06908
0.948573
0.818816
0.685568
0.553103
0.424015
0.299157
0.178337
0.05918
-0.676974
-2.85955
-1.92412
-0.0880384
1.01665
1.3884
1.40071
1.37684
1.33237
1.27015
1.18613
1.08088
0.959474
0.828417
0.693669
0.559615
0.428931
0.302512
0.180218
0.0597495
-0.72206
-2.73734
-1.72677
-0.0604947
1.00923
1.36024
1.38499
1.3731
1.33549
1.27606
1.19282
1.08742
0.965453
0.833647
0.698059
0.563131
0.431577
0.304315
0.181227
0.0600546
-0.775918
-2.60254
-1.51098
-0.0143935
1.00268
1.32964
1.36894
1.36951
1.33882
1.28202
1.19938
1.09375
0.971185
0.838621
0.702213
0.566444
0.434062
0.306005
0.182171
0.0603401
-0.842272
-2.46082
-1.27932
0.0501759
0.993438
1.29835
1.35272
1.36617
1.3424
1.28803
1.20584
1.09988
0.976669
0.843343
0.70613
0.569555
0.436387
0.307582
0.183051
0.0606063
-0.922572
-2.31777
-1.0411
0.128133
0.979129
1.26726
1.33669
1.36324
1.34627
1.29411
1.2122
1.1058
0.981908
0.847811
0.709814
0.572465
0.438553
0.309048
0.183866
0.0608533
-1.01271
-2.18177
-0.813959
0.210796
0.959499
1.2361
1.32137
1.3609
1.35045
1.30026
1.21845
1.11152
0.986901
0.852028
0.713263
0.575174
0.440561
0.310403
0.184618
0.0610814
-1.10682
-2.06194
-0.61007
0.287336
0.936011
1.20565
1.30733
1.35934
1.35497
1.30647
1.22459
1.11703
0.991645
0.855991
0.716478
0.577684
0.44241
0.311647
0.185308
0.0612908
-1.21283
-1.96133
-0.437384
0.349607
0.910047
1.1767
1.29498
1.35865
1.35984
1.31275
1.2306
1.12233
0.996137
0.859701
0.71946
0.579994
0.444103
0.312781
0.185934
0.0614816
-1.28678
-1.87846
-0.296605
0.395221
0.882682
1.14996
1.28455
1.35877
1.365
1.31905
1.2365
1.12741
1.00038
0.863155
0.722206
0.582105
0.445638
0.313805
0.186498
0.0616542
-1.36963
-1.80715
-0.185015
0.425138
0.854916
1.12622
1.27638
1.35964
1.37028
1.32531
1.24224
1.13227
1.00436
0.866356
0.724721
0.584017
0.447016
0.31472
0.187
0.0618089
-1.37624
-1.65092
0.00296788
0.458093
0.79996
1.08224
1.26369
1.36345
1.38204
1.33868
1.2543
1.1423
1.01246
0.872752
0.729677
0.587741
0.449672
0.316471
0.187956
0.0621064
-1.36487
-1.40927
0.0186699
0.437938
0.736194
1.04589
1.2622
1.37863
1.40355
1.35926
1.27102
1.15493
1.02181
0.879557
0.734559
0.591152
0.451961
0.317913
0.188731
0.0623489
-1.04625
-0.996215
-0.000106858
0.43662
0.761283
1.05698
1.27136
1.38994
1.41782
1.37406
1.28326
1.16373
1.02766
0.883208
0.736618
0.59219
0.452411
0.318077
0.188793
0.0623751
-0.786308
-0.721305
0.0301555
0.44727
0.759367
1.05634
1.2838
1.41036
1.43748
1.38902
1.29246
1.16891
1.0298
0.883351
0.735638
0.590722
0.45094
0.316915
0.188114
0.062178
-0.68754
-0.551213
0.0156638
0.438566
0.774495
1.06071
1.2716
1.39668
1.43048
1.38714
1.29252
1.16811
1.02735
0.879677
0.731429
0.586619
0.447457
0.314367
0.186662
0.0617463
-0.444798
-0.316131
0.107993
0.477626
0.791881
1.07715
1.29696
1.41413
1.43718
1.38689
1.28904
1.16247
1.02031
0.87193
0.723763
0.579713
0.441843
0.310355
0.184392
0.0610647
-0.405054
-0.26294
0.0950696
0.454491
0.770467
1.03654
1.23516
1.3773
1.42347
1.38122
1.28113
1.15176
1.00833
0.859796
0.712386
0.569813
0.433961
0.304785
0.181248
0.0601137
-0.250501
-0.110805
0.174397
0.488673
0.790046
1.06445
1.26573
1.36408
1.39609
1.35196
1.258
1.13229
0.99012
0.842717
0.69697
0.556694
0.42365
0.297547
0.177166
0.0588691
-0.198806
-0.0703391
0.177929
0.472372
0.757607
1.00665
1.19402
1.32367
1.36758
1.33116
1.23578
1.10838
0.966464
0.820554
0.677239
0.540117
0.410729
0.288515
0.172068
0.0573029
-0.130698
-0.00176249
0.213109
0.473041
0.741115
0.995492
1.19837
1.30876
1.33534
1.29149
1.19843
1.07468
0.935521
0.792572
0.652789
0.519805
0.394998
0.277549
0.165869
0.055383
-0.0788533
0.0358824
0.226093
0.465608
0.712106
0.934783
1.11104
1.23475
1.28396
1.25148
1.16012
1.03568
0.898153
0.758601
0.62329
0.495474
0.376242
0.264494
0.15847
0.0530741
-0.0421628
0.064224
0.233275
0.443471
0.670717
0.890721
1.08196
1.2018
1.23131
1.19235
1.102
0.983429
0.85157
0.717599
0.588236
0.466799
0.354225
0.24918
0.149761
0.0503407
-0.0140179
0.0810324
0.227274
0.420556
0.638048
0.839953
0.998509
1.10386
1.14555
1.11865
1.03854
0.924858
0.797597
0.669639
0.54731
0.43347
0.328704
0.231426
0.139618
0.0471473
0.00420181
0.089231
0.218778
0.388532
0.58388
0.775068
0.937433
1.04283
1.07253
1.03738
0.957711
0.850343
0.732009
0.613109
0.499835
0.395111
0.299419
0.211041
0.127901
0.0434408
0.0159807
0.0903122
0.201039
0.347988
0.526352
0.706127
0.849887
0.933703
0.958364
0.932082
0.863844
0.767608
0.658311
0.548805
0.445698
0.35145
0.266127
0.187825
0.114454
0.0391492
0.0215808
0.0844767
0.177064
0.301584
0.456275
0.615205
0.747526
0.831111
0.854737
0.825149
0.757646
0.668339
0.57027
0.473841
0.383755
0.301991
0.228542
0.161568
0.0990998
0.0341851
0.021981
0.0719294
0.14645
0.248635
0.37682
0.511972
0.625984
0.694513
0.710354
0.683891
0.627466
0.553347
0.471474
0.390177
0.314561
0.246727
0.18651
0.132085
0.0816422
0.0284464
0.0184637
0.055481
0.110358
0.18629
0.284236
0.39188
0.484565
0.5407
0.55359
0.53173
0.485184
0.423912
0.357949
0.294136
0.236079
0.184736
0.139608
0.099124
0.0618397
0.0218077
0.0122892
0.0346093
0.0686595
0.118698
0.182447
0.249899
0.310508
0.349996
0.359091
0.342923
0.310426
0.269519
0.226882
0.18622
0.149317
0.116672
0.0881022
0.0626845
0.0395103
0.0141381
0.00426053
0.0118906
0.023354
0.041527
0.0662926
0.091981
0.114399
0.129089
0.132485
0.126551
0.114699
0.0996442
0.0836101
0.0680571
0.0539677
0.0417529
0.0313307
0.0222557
0.0141449
0.00513279
-7.48786
-2.20066
-1.89247
-1.56978
-1.24983
-1.09193
-1.03829
-1.04197
-1.07292
-1.1302
-0.671013
-0.407467
-0.512989
-0.735387
-0.831986
-0.843978
-0.85834
-0.893849
-0.982589
-1.07185
-1.3258
-1.29094
-1.14459
-1.09341
-1.06838
-1.04064
-1.00931
-0.990157
-0.993561
-1.01353
-0.0645097
-0.250998
-0.312621
-0.379848
-0.458577
-0.530007
-0.590392
-0.63681
-0.679328
-0.71896
-0.0586478
-0.339807
-0.514221
-0.59809
-0.645419
-0.676878
-0.698776
-0.713168
-0.717308
-0.716508
0.036555
-0.117064
-0.224053
-0.288463
-0.333484
-0.369973
-0.401104
-0.427439
-0.444569
-0.453506
0.0819146
-0.0447013
-0.156725
-0.24944
-0.321995
-0.373702
-0.408019
-0.430563
-0.43954
-0.437109
0.0968489
-0.0049532
-0.0962688
-0.169262
-0.22402
-0.26065
-0.280722
-0.291042
-0.291878
-0.284265
0.103715
0.0240733
-0.0474097
-0.107013
-0.15456
-0.190033
-0.214198
-0.228565
-0.233132
-0.228967
0.106307
0.0432768
-0.014122
-0.0641185
-0.105105
-0.137585
-0.159486
-0.171201
-0.173445
-0.165286
0.104506
0.0542532
0.00742542
-0.0338503
-0.0681892
-0.0952485
-0.113674
-0.12247
-0.122636
-0.113804
0.0997708
0.0589226
0.0211558
-0.0124623
-0.0401508
-0.0620928
-0.0771879
-0.0835098
-0.08283
-0.0740536
0.0922348
0.0597577
0.0294194
0.00218649
-0.0201162
-0.0375036
-0.0491509
-0.0541586
-0.0524648
-0.044297
0.0830901
0.0569669
0.0332824
0.0113364
-0.00644274
-0.0198352
-0.0291551
-0.0325598
-0.030288
-0.0226659
0.0724412
0.0517382
0.0334195
0.0161696
0.0020318
-0.00808123
-0.015142
-0.0173675
-0.0150288
-0.00808502
0.0606388
0.0446988
0.0305274
0.0173546
0.00691333
-0.000988119
-0.00625324
-0.00738056
-0.00511699
0.00093714
0.0479842
0.0362965
0.025663
0.0159314
0.00829076
0.00269183
-0.00113802
-0.00172256
0.000314921
0.00539246
0.0346741
0.0265511
0.0194498
0.0125837
0.00736706
0.00372405
0.00100987
0.000650548
0.00228355
0.00609471
0.0208134
0.0161324
0.0122906
0.0078665
0.00469562
0.0028778
0.00130715
0.000889228
0.00180641
0.00436041
0.00692288
0.00529206
0.00420217
0.00268684
0.00149277
0.000929607
0.000551604
0.000289139
0.00057935
0.00148576
1.05666
1.00545
1.03936
1.05066
1.10358
1.1069
1.1781
1.18586
1.29163
1.29776
1.45209
1.44363
1.67499
1.61908
1.98502
1.76772
2.30339
1.52131
1.70391
-1.85329
1.01678
0.997135
1.00832
1.02354
1.05197
1.07297
1.10901
1.13891
1.18731
1.22729
1.28486
1.33016
1.38417
1.41562
1.42872
1.41508
1.30284
1.18611
0.659174
0.602725
0.96697
0.971816
0.977298
0.987834
1.00164
1.02257
1.04477
1.07443
1.10121
1.13817
1.16233
1.2043
1.20704
1.25069
1.19698
1.23312
1.02664
1.04331
0.449664
0.338113
0.911121
0.937926
0.938323
0.947243
0.947993
0.970919
0.978745
1.01115
1.01582
1.05506
1.04859
1.09334
1.05949
1.10399
1.01331
1.04186
0.835756
0.807486
0.433624
0.287444
0.858229
0.891905
0.890722
0.897486
0.891883
0.911634
0.912356
0.939324
0.934679
0.964325
0.947707
0.976865
0.936261
0.953997
0.869159
0.853384
0.702405
0.619295
0.400644
0.217917
0.806009
0.833442
0.834398
0.838069
0.832291
0.843073
0.842727
0.857196
0.852715
0.864194
0.849967
0.852929
0.821376
0.804585
0.74376
0.690846
0.591744
0.486911
0.351008
0.202211
0.751845
0.768464
0.771389
0.77297
0.768876
0.771397
0.770022
0.773697
0.769413
0.767548
0.754535
0.741632
0.714047
0.681979
0.633417
0.574089
0.499262
0.41082
0.310832
0.202039
0.695271
0.702883
0.705245
0.705588
0.702716
0.70079
0.697565
0.694431
0.688103
0.679422
0.664857
0.64594
0.618962
0.585013
0.541397
0.488942
0.427316
0.356028
0.277551
0.192776
0.636242
0.6387
0.639226
0.638582
0.63561
0.632041
0.626832
0.620303
0.611586
0.599691
0.583907
0.563321
0.537537
0.505222
0.466818
0.421456
0.369584
0.311299
0.247543
0.180073
0.575477
0.575795
0.575086
0.573291
0.569949
0.565241
0.559023
0.550795
0.540603
0.527706
0.511267
0.491366
0.467088
0.437891
0.403814
0.364922
0.321113
0.272675
0.220961
0.166723
0.514876
0.51421
0.512737
0.510276
0.506348
0.501191
0.494348
0.485663
0.474914
0.462055
0.446032
0.427175
0.405265
0.378855
0.349375
0.315939
0.279185
0.238989
0.19662
0.153236
0.455121
0.454034
0.452241
0.44948
0.445235
0.439922
0.432926
0.424423
0.413855
0.401668
0.386604
0.369329
0.349759
0.326558
0.301026
0.272732
0.242045
0.208597
0.174175
0.138971
0.39668
0.395571
0.39363
0.390821
0.386526
0.381382
0.374622
0.366571
0.356794
0.345503
0.331977
0.31639
0.299395
0.279205
0.257434
0.233794
0.208241
0.18064
0.152519
0.124229
0.339769
0.338737
0.336908
0.334136
0.330122
0.325294
0.319155
0.31173
0.303006
0.292933
0.281056
0.267511
0.252833
0.235871
0.217303
0.19794
0.1769
0.154187
0.131537
0.108823
0.284457
0.28349
0.281888
0.279322
0.27577
0.271438
0.266022
0.259501
0.251904
0.243289
0.233078
0.221772
0.2094
0.195372
0.180055
0.164331
0.147357
0.128859
0.110909
0.092871
0.230603
0.229716
0.228329
0.226179
0.22318
0.219513
0.214926
0.209451
0.203038
0.195991
0.187525
0.178326
0.168413
0.157037
0.144849
0.132471
0.118999
0.104391
0.0905316
0.0765512
0.177973
0.177213
0.176106
0.174459
0.171986
0.16915
0.165435
0.161156
0.156061
0.150589
0.143924
0.136794
0.129253
0.120303
0.11115
0.101783
0.0916118
0.0805205
0.0702651
0.0597878
0.126307
0.125853
0.125022
0.123826
0.12195
0.119931
0.117246
0.114102
0.110553
0.10652
0.101872
0.0966643
0.0913985
0.0849848
0.0784981
0.0721139
0.0647629
0.0571658
0.0500151
0.0427794
0.0754281
0.0752467
0.0747514
0.0739357
0.0728329
0.0716089
0.0699375
0.068037
0.0659553
0.0634197
0.0607669
0.0575806
0.0544512
0.0506074
0.0466784
0.0430114
0.0386179
0.0341296
0.0297582
0.0256806
0.0251025
0.0250088
0.0248635
0.0246034
0.0242274
0.0237929
0.0232786
0.022567
0.0218806
0.021114
0.0201426
0.0191039
0.0180889
0.0167304
0.0155286
0.0143648
0.0126984
0.0113051
0.00990088
0.00855596
1.07594
1.02619
1.0633
1.07994
1.13851
1.15287
1.23007
1.25885
1.37077
1.41676
1.57679
1.64566
1.88034
1.98059
2.35027
2.46273
3.07429
3.08224
4.20522
2.85489
1.08151
1.0302
1.06888
1.08474
1.1451
1.15885
1.23847
1.2675
1.38262
1.43087
1.59535
1.67191
1.916
2.03579
2.41282
2.598
3.20472
3.43923
4.29596
4.08874
1.08589
1.03315
1.07286
1.08833
1.14969
1.16324
1.24402
1.27377
1.38999
1.44108
1.60649
1.69112
1.93496
2.07657
2.45689
2.69536
3.31132
3.68252
4.64964
4.81073
1.08887
1.03471
1.07534
1.09036
1.15247
1.16547
1.24716
1.27686
1.39396
1.4463
1.6123
1.70175
1.94502
2.10215
2.47531
2.76075
3.35307
3.85528
4.69364
5.15632
1.0902
1.03484
1.07635
1.09073
1.1534
1.16541
1.24788
1.27658
1.39453
1.44607
1.61305
1.7025
1.94715
2.10735
2.48227
2.77887
3.37739
3.90739
4.77151
5.29434
1.08979
1.03355
1.07586
1.08937
1.15245
1.16295
1.24619
1.27272
1.39178
1.44
1.60893
1.69329
1.9398
2.09348
2.46924
2.75749
3.35256
3.87352
4.72584
5.26109
1.08763
1.03091
1.07384
1.08628
1.14955
1.15813
1.24193
1.26532
1.38528
1.42817
1.59745
1.67428
1.92195
2.06071
2.43578
2.69737
3.28157
3.75276
4.55377
4.95854
1.08381
1.02699
1.07026
1.08153
1.14472
1.15098
1.23516
1.25438
1.37545
1.41061
1.58322
1.64413
1.89929
2.00538
2.39289
2.58437
3.19378
3.50479
4.4235
4.48279
1.07852
1.02198
1.06502
1.07531
1.1378
1.1419
1.22551
1.2405
1.36137
1.38833
1.5615
1.60579
1.86034
1.93434
2.32285
2.44108
3.04002
3.17895
3.93864
3.57076
1.07229
1.01626
1.05803
1.06774
1.12863
1.13103
1.2128
1.22374
1.34286
1.36114
1.53306
1.55877
1.81866
1.84348
2.24357
2.25036
2.8864
2.73596
3.77746
2.09603
)
;

boundaryField
{
    inlet
    {
        type            zeroGradient;
    }
    outlet
    {
        type            fixedValue;
        value           uniform 0;
    }
    upAndBottom
    {
        type            empty;
    }
    obstacle
    {
        type            zeroGradient;
    }
}


// ************************************************************************* //
