x,y,z,p
0,0,0,0.00012251
0,0.1,0,0.000269654
0,0.2,0,0.000416797
0,0.3,0,0.000588692
0,0.4,0,0.000785338
0,0.5,0,0.000981984
0,0.6,0,0.00117957
0,0.7,0,0.00137716
0,0.8,0,0.00157539
0,0.9,0,0.00177428
0,1,0,0.00197316
0,1.1,0,0.00217358
0,1.2,0,0.00237399
0,1.3,0,0.00257521
0,1.4,0,0.00277723
0,1.5,0,0.00297926
0,1.6,0,0.00318276
0,1.7,0,0.00338626
0,1.8,0,0.00359032
0,1.9,0,0.00379494
0,2,0,0.00399957
0,2.1,0,0.00420466
0,2.2,0,0.00440975
0,2.3,0,0.0046146
0,2.4,0,0.00481919
0,2.5,0,0.00502379
0,2.6,0,0.00522657
0,2.7,0,0.00542934
0,2.8,0,0.00563036
0,2.9,0,0.00582961
0,3,0,0.00602887
0,3.1,0,0.00622253
0,3.2,0,0.00641619
0,3.3,0,0.00660582
0,3.4,0,0.00679144
0,3.5,0,0.00697706
0,3.6,0,0.00715189
0,3.7,0,0.00732671
0,3.8,0,0.00749465
0,3.9,0,0.00765571
0,4,0,0.00781677
0,4.1,0,0.00796098
0,4.2,0,0.00810518
0,4.3,0,0.00823944
0,4.4,0,0.00836375
0,4.5,0,0.00848806
0,4.6,0,0.00858969
0,4.7,0,0.00869131
0,4.8,0,0.00877586
0,4.9,0,0.00884334
0,5,0,0.00891081
0,5.1,0,0.00899246
0,5.2,0,0.00903964
0,5.3,0,0.00907554
0,5.4,0,0.00910017
0,5.5,0,0.00911347
0,5.6,0,0.00911545
0,5.7,0,0.00910617
0,5.8,0,0.00908572
0,5.9,0,0.00905415
0,6,0,0.00898457
0,6.1,0,0.00892811
0,6.2,0,0.00887165
0,6.3,0,0.00881518
0,6.4,0,0.00873349
0,6.5,0,0.00863822
0,6.6,0,0.00854294
0,6.7,0,0.00843995
0,6.8,0,0.00831894
0,6.9,0,0.00819793
0,7,0,0.00807692
0,7.1,0,0.00793705
0,7.2,0,0.00779618
0,7.3,0,0.00765531
0,7.4,0,0.00750605
0,7.5,0,0.00735118
0,7.6,0,0.00719631
0,7.7,0,0.0070393
0,7.8,0,0.00687584
0,7.9,0,0.00671238
0,8,0,0.00654893
0,8.1,0,0.00638193
0,8.2,0,0.00621453
0,8.3,0,0.00604714
0,8.4,0,0.00587966
0,8.5,0,0.00571209
0,8.6,0,0.00554453
0,8.7,0,0.0053775
0,8.8,0,0.00521262
0,8.9,0,0.00504774
0,9,0,0.00488286
0,9.1,0,0.00472196
0,9.2,0,0.00456176
0,9.3,0,0.00440155
0,9.4,0,0.00424432
0,9.5,0,0.00409005
0,9.6,0,0.00393579
0,9.7,0,0.0037825
0,9.8,0,0.0036348
0,9.9,0,0.0034871
0,10,0,0.00333939
0,10.1,0,0.00319705
0,10.2,0,0.00305605
0,10.3,0,0.00291505
0,10.4,0,0.00277697
0,10.5,0,0.00264244
0,10.6,0,0.00250791
0,10.7,0,0.00237398
0,10.8,0,0.00224539
0,10.9,0,0.00211681
0,11,0,0.00198823
0,11.1,0,0.00186355
0,11.2,0,0.00174018
0,11.3,0,0.0016168
0,11.4,0,0.00149515
0,11.5,0,0.00137609
0,11.6,0,0.00125703
0,11.7,0,0.00113814
0,11.8,0,0.0010224
0,11.9,0,0.000906674
0,12,0,0.000790943
0,12.1,0,0.000676804
0,12.2,0,0.000563347
0,12.3,0,0.00044989
0,12.4,0,0.000346529
0,12.5,0,0.000261921
0,12.6,0,0.000177312
0,12.7,0,9.27033e-05
0.1,0,0,7.35063e-05
0.1,0.1,0,0.000220519
0.1,0.2,0,0.00039212
0.1,0.3,0,0.000588399
0.1,0.4,0,0.00078497
0.1,0.5,0,0.000981572
0.1,0.6,0,0.001179
0.1,0.7,0,0.00137659
0.1,0.8,0,0.00157475
0.1,0.9,0,0.00177355
0.1,1,0,0.00197249
0.1,1.1,0,0.00217277
0.1,1.2,0,0.00237323
0.1,1.3,0,0.00257446
0.1,1.4,0,0.00277643
0.1,1.5,0,0.00297859
0.1,1.6,0,0.00318208
0.1,1.7,0,0.00338566
0.1,1.8,0,0.00358985
0.1,1.9,0,0.0037945
0.1,2,0,0.00399932
0.1,2.1,0,0.00420463
0.1,2.2,0,0.00440982
0.1,2.3,0,0.00461495
0.1,2.4,0,0.00481973
0.1,2.5,0,0.00502452
0.1,2.6,0,0.00522785
0.1,2.7,0,0.00543071
0.1,2.8,0,0.0056322
0.1,2.9,0,0.00583185
0.1,3,0,0.00603121
0.1,3.1,0,0.00622589
0.1,3.2,0,0.00641956
0.1,3.3,0,0.00660985
0.1,3.4,0,0.00679612
0.1,3.5,0,0.00698162
0.1,3.6,0,0.007158
0.1,3.7,0,0.00733269
0.1,3.8,0,0.0075014
0.1,3.9,0,0.00766336
0.1,4,0,0.00782393
0.1,4.1,0,0.00797018
0.1,4.2,0,0.00811401
0.1,4.3,0,0.00824902
0.1,4.4,0,0.00837445
0.1,4.5,0,0.00849773
0.1,4.6,0,0.00860168
0.1,4.7,0,0.00870263
0.1,4.8,0,0.00879226
0.1,4.9,0,0.00886548
0.1,5,0,0.00892199
0.1,5.1,0,0.00900383
0.1,5.2,0,0.0090511
0.1,5.3,0,0.00908709
0.1,5.4,0,0.00911176
0.1,5.5,0,0.00912505
0.1,5.6,0,0.00912698
0.1,5.7,0,0.00911761
0.1,5.8,0,0.00909703
0.1,5.9,0,0.00906531
0.1,6,0,0.00899542
0.1,6.1,0,0.00895537
0.1,6.2,0,0.00890448
0.1,6.3,0,0.00883108
0.1,6.4,0,0.00874789
0.1,6.5,0,0.00865739
0.1,6.6,0,0.00855689
0.1,6.7,0,0.00844977
0.1,6.8,0,0.00833404
0.1,6.9,0,0.0082113
0.1,7,0,0.0080836
0.1,7.1,0,0.0079469
0.1,7.2,0,0.00780748
0.1,7.3,0,0.00766181
0.1,7.4,0,0.00751185
0.1,7.5,0,0.00735864
0.1,7.6,0,0.00720168
0.1,7.7,0,0.00704226
0.1,7.8,0,0.00687981
0.1,7.9,0,0.00671593
0.1,8,0,0.00655035
0.1,8.1,0,0.00638314
0.1,8.2,0,0.00621575
0.1,8.3,0,0.00604755
0.1,8.4,0,0.00587925
0.1,8.5,0,0.0057111
0.1,8.6,0,0.00554357
0.1,8.7,0,0.00537634
0.1,8.8,0,0.0052102
0.1,8.9,0,0.00504529
0.1,9,0,0.00488119
0.1,9.1,0,0.00471906
0.1,9.2,0,0.00455808
0.1,9.3,0,0.00439897
0.1,9.4,0,0.00424151
0.1,9.5,0,0.00408578
0.1,9.6,0,0.00393229
0.1,9.7,0,0.0037801
0.1,9.8,0,0.00363062
0.1,9.9,0,0.00348282
0.1,10,0,0.00333686
0.1,10.1,0,0.0031935
0.1,10.2,0,0.00305158
0.1,10.3,0,0.00291198
0.1,10.4,0,0.00277417
0.1,10.5,0,0.00263824
0.1,10.6,0,0.00250446
0.1,10.7,0,0.00237192
0.1,10.8,0,0.00224196
0.1,10.9,0,0.00211319
0.1,11,0,0.00198617
0.1,11.1,0,0.00186102
0.1,11.2,0,0.00173697
0.1,11.3,0,0.0016146
0.1,11.4,0,0.00149341
0.1,11.5,0,0.00137352
0.1,11.6,0,0.00125489
0.1,11.7,0,0.00113704
0.1,11.8,0,0.0010207
0.1,11.9,0,0.000904821
0.1,12,0,0.000789955
0.1,12.1,0,0.00067585
0.1,12.2,0,0.000562187
0.1,12.3,0,0.000449133
0.1,12.4,0,0.000336457
0.1,12.5,0,0.000224423
0.1,12.6,0,0.00013992
0.1,12.7,0,5.5622e-05
0.2,0,0,2.45021e-05
0.2,0.1,0,0.000195973
0.2,0.2,0,0.000391901
0.2,0.3,0,0.00058818
0.2,0.4,0,0.000784633
0.2,0.5,0,0.000981161
0.2,0.6,0,0.00117859
0.2,0.7,0,0.00137602
0.2,0.8,0,0.00157418
0.2,0.9,0,0.00177296
0.2,1,0,0.00197182
0.2,1.1,0,0.00217215
0.2,1.2,0,0.00237252
0.2,1.3,0,0.00257375
0.2,1.4,0,0.00277582
0.2,1.5,0,0.00297793
0.2,1.6,0,0.0031815
0.2,1.7,0,0.00338515
0.2,1.8,0,0.00358933
0.2,1.9,0,0.00379423
0.2,2,0,0.00399908
0.2,2.1,0,0.00420448
0.2,2.2,0,0.00440999
0.2,2.3,0,0.00461512
0.2,2.4,0,0.00482027
0.2,2.5,0,0.00502525
0.2,2.6,0,0.00522867
0.2,2.7,0,0.00543217
0.2,2.8,0,0.00563366
0.2,2.9,0,0.0058338
0.2,3,0,0.00603356
0.2,3.1,0,0.00622825
0.2,3.2,0,0.00642295
0.2,3.3,0,0.00661324
0.2,3.4,0,0.00680003
0.2,3.5,0,0.00698619
0.2,3.6,0,0.00716243
0.2,3.7,0,0.00733853
0.2,3.8,0,0.00750724
0.2,3.9,0,0.00766962
0.2,4,0,0.0078311
0.2,4.1,0,0.00797697
0.2,4.2,0,0.00812248
0.2,4.3,0,0.00825748
0.2,4.4,0,0.008383
0.2,4.5,0,0.00850739
0.2,4.6,0,0.00861068
0.2,4.7,0,0.00871329
0.2,4.8,0,0.00880291
0.2,4.9,0,0.00887092
0.2,5,0,0.00893317
0.2,5.1,0,0.0090152
0.2,5.2,0,0.00906257
0.2,5.3,0,0.00909863
0.2,5.4,0,0.00912334
0.2,5.5,0,0.00913663
0.2,5.6,0,0.00913851
0.2,5.7,0,0.00912904
0.2,5.8,0,0.00910833
0.2,5.9,0,0.00907646
0.2,6,0,0.00900626
0.2,6.1,0,0.00896056
0.2,6.2,0,0.0089034
0.2,6.3,0,0.00884099
0.2,6.4,0,0.0087578
0.2,6.5,0,0.00866144
0.2,6.6,0,0.00856492
0.2,6.7,0,0.008458
0.2,6.8,0,0.00833806
0.2,6.9,0,0.00821564
0.2,7,0,0.00808995
0.2,7.1,0,0.00795182
0.2,7.2,0,0.00780954
0.2,7.3,0,0.00766627
0.2,7.4,0,0.0075163
0.2,7.5,0,0.00736038
0.2,7.6,0,0.00720422
0.2,7.7,0,0.00704498
0.2,7.8,0,0.00688129
0.2,7.9,0,0.00671671
0.2,8,0,0.00655157
0.2,8.1,0,0.00638415
0.2,8.2,0,0.00621585
0.2,8.3,0,0.00604756
0.2,8.4,0,0.00587926
0.2,8.5,0,0.005711
0.2,8.6,0,0.00554276
0.2,8.7,0,0.00537543
0.2,8.8,0,0.0052097
0.2,8.9,0,0.00504435
0.2,9,0,0.00487965
0.2,9.1,0,0.00471775
0.2,9.2,0,0.00455725
0.2,9.3,0,0.00439702
0.2,9.4,0,0.00423956
0.2,9.5,0,0.00408488
0.2,9.6,0,0.00393046
0.2,9.7,0,0.00377795
0.2,9.8,0,0.00362932
0.2,9.9,0,0.00348158
0.2,10,0,0.00333468
0.2,10.1,0,0.00319155
0.2,10.2,0,0.00305062
0.2,10.3,0,0.00290989
0.2,10.4,0,0.00277207
0.2,10.5,0,0.0026373
0.2,10.6,0,0.00250291
0.2,10.7,0,0.00237001
0.2,10.8,0,0.00224071
0.2,10.9,0,0.00211231
0.2,11,0,0.00198449
0.2,11.1,0,0.00185946
0.2,11.2,0,0.00173629
0.2,11.3,0,0.00161321
0.2,11.4,0,0.00149202
0.2,11.5,0,0.0013729
0.2,11.6,0,0.00125408
0.2,11.7,0,0.00113597
0.2,11.8,0,0.00101996
0.2,11.9,0,0.000904478
0.2,12,0,0.000789226
0.2,12.1,0,0.000675139
0.2,12.2,0,0.000561944
0.2,12.3,0,0.000448756
0.2,12.4,0,0.00033608
0.2,12.5,0,0.00022398
0.2,12.6,0,0.00011198
0.2,12.7,0,1.85407e-05
0.3,0,0,0
0.3,0.1,0,0.000195741
0.3,0.2,0,0.00039167
0.3,0.3,0,0.000587535
0.3,0.4,0,0.000783988
0.3,0.5,0,0.000980299
0.3,0.6,0,0.00117759
0.3,0.7,0,0.00137502
0.3,0.8,0,0.00157291
0.3,0.9,0,0.00177169
0.3,1,0,0.0019704
0.3,1.1,0,0.00217073
0.3,1.2,0,0.00237111
0.3,1.3,0,0.00257233
0.3,1.4,0,0.0027744
0.3,1.5,0,0.00297652
0.3,1.6,0,0.00318027
0.3,1.7,0,0.00338392
0.3,1.8,0,0.00358852
0.3,1.9,0,0.00379341
0.3,2,0,0.00399854
0.3,2.1,0,0.00420434
0.3,2.2,0,0.00440984
0.3,2.3,0,0.00461594
0.3,2.4,0,0.00482109
0.3,2.5,0,0.00502671
0.3,2.6,0,0.00523077
0.3,2.7,0,0.00543427
0.3,2.8,0,0.00563737
0.3,2.9,0,0.00583752
0.3,3,0,0.00603836
0.3,3.1,0,0.0062339
0.3,3.2,0,0.0064286
0.3,3.3,0,0.00662113
0.3,3.4,0,0.00680792
0.3,3.5,0,0.00699562
0.3,3.6,0,0.00717279
0.3,3.7,0,0.0073489
0.3,3.8,0,0.00752024
0.3,3.9,0,0.00768262
0.3,4,0,0.00784597
0.3,4.1,0,0.00799263
0.3,4.2,0,0.00813813
0.3,4.3,0,0.00827568
0.3,4.4,0,0.0084012
0.3,4.5,0,0.00852754
0.3,4.6,0,0.00863113
0.3,4.7,0,0.00873374
0.3,4.8,0,0.00882507
0.3,4.9,0,0.00889307
0.3,5,0,0.00895677
0.3,5.1,0,0.00903934
0.3,5.2,0,0.00908701
0.3,5.3,0,0.00912329
0.3,5.4,0,0.0091481
0.3,5.5,0,0.00916138
0.3,5.6,0,0.00916314
0.3,5.7,0,0.00915344
0.3,5.8,0,0.0091324
0.3,5.9,0,0.00910011
0.3,6,0,0.00902909
0.3,6.1,0,0.00898188
0.3,6.2,0,0.00892472
0.3,6.3,0,0.00886197
0.3,6.4,0,0.00877618
0.3,6.5,0,0.00867975
0.3,6.6,0,0.00858323
0.3,6.7,0,0.00847398
0.3,6.8,0,0.00835268
0.3,6.9,0,0.00823026
0.3,7,0,0.00810319
0.3,7.1,0,0.00796258
0.3,7.2,0,0.0078203
0.3,7.3,0,0.00767639
0.3,7.4,0,0.00752359
0.3,7.5,0,0.00736745
0.3,7.6,0,0.00721128
0.3,7.7,0,0.00704988
0.3,7.8,0,0.00688508
0.3,7.9,0,0.0067205
0.3,8,0,0.00655422
0.3,8.1,0,0.00638522
0.3,8.2,0,0.00621692
0.3,8.3,0,0.00604826
0.3,8.4,0,0.00587838
0.3,8.5,0,0.00570995
0.3,8.6,0,0.00554171
0.3,8.7,0,0.0053733
0.3,8.8,0,0.00520712
0.3,8.9,0,0.00504176
0.3,9,0,0.00487655
0.3,9.1,0,0.00471415
0.3,9.2,0,0.00455365
0.3,9.3,0,0.00439331
0.3,9.4,0,0.00423542
0.3,9.5,0,0.0040807
0.3,9.6,0,0.00392629
0.3,9.7,0,0.00377351
0.3,9.8,0,0.00362492
0.3,9.9,0,0.00347719
0.3,10,0,0.00333019
0.3,10.1,0,0.00318723
0.3,10.2,0,0.00304629
0.3,10.3,0,0.00290556
0.3,10.4,0,0.00276793
0.3,10.5,0,0.00263325
0.3,10.6,0,0.00249886
0.3,10.7,0,0.00236609
0.3,10.8,0,0.0022371
0.3,10.9,0,0.0021087
0.3,11,0,0.00198097
0.3,11.1,0,0.00185638
0.3,11.2,0,0.00173321
0.3,11.3,0,0.00161015
0.3,11.4,0,0.0014894
0.3,11.5,0,0.00137043
0.3,11.6,0,0.00125161
0.3,11.7,0,0.00113379
0.3,11.8,0,0.00101815
0.3,11.9,0,0.000902674
0.3,12,0,0.000787585
0.3,12.1,0,0.000674027
0.3,12.2,0,0.000560832
0.3,12.3,0,0.000447654
0.3,12.4,0,0.000335501
0.3,12.5,0,0.000223584
0.3,12.6,0,0.000111584
0.3,12.7,0,0
0.4,0,0,0
0.4,0.1,0,0.000195554
0.4,0.2,0,0.000390969
0.4,0.3,0,0.000586834
0.4,0.4,0,0.000782819
0.4,0.5,0,0.000978986
0.4,0.6,0,0.00117613
0.4,0.7,0,0.00137321
0.4,0.8,0,0.0015711
0.4,0.9,0,0.0017696
0.4,1,0,0.00196825
0.4,1.1,0,0.00216852
0.4,1.2,0,0.00236882
0.4,1.3,0,0.00257004
0.4,1.4,0,0.00277219
0.4,1.5,0,0.00297437
0.4,1.6,0,0.0031782
0.4,1.7,0,0.00338223
0.4,1.8,0,0.00358683
0.4,1.9,0,0.00379233
0.4,2,0,0.00399769
0.4,2.1,0,0.00420378
0.4,2.2,0,0.00441027
0.4,2.3,0,0.00461637
0.4,2.4,0,0.00482283
0.4,2.5,0,0.00502891
0.4,2.6,0,0.00523352
0.4,2.7,0,0.00543874
0.4,2.8,0,0.00564184
0.4,2.9,0,0.00584408
0.4,3,0,0.00604563
0.4,3.1,0,0.00624201
0.4,3.2,0,0.00643917
0.4,3.3,0,0.0066317
0.4,3.4,0,0.00682133
0.4,3.5,0,0.00700993
0.4,3.6,0,0.00718817
0.4,3.7,0,0.00736727
0.4,3.8,0,0.00753861
0.4,3.9,0,0.00770423
0.4,4,0,0.00786857
0.4,4.1,0,0.00801637
0.4,4.2,0,0.0081649
0.4,4.3,0,0.00830245
0.4,4.4,0,0.00843099
0.4,4.5,0,0.00855817
0.4,4.6,0,0.00866274
0.4,4.7,0,0.00876765
0.4,4.8,0,0.00885898
0.4,4.9,0,0.00893339
0.4,5,0,0.00899277
0.4,5.1,0,0.00907625
0.4,5.2,0,0.00912443
0.4,5.3,0,0.00916105
0.4,5.4,0,0.00918603
0.4,5.5,0,0.0091993
0.4,5.6,0,0.00920087
0.4,5.7,0,0.0091908
0.4,5.8,0,0.00916923
0.4,5.9,0,0.00913626
0.4,6,0,0.00906389
0.4,6.1,0,0.00902159
0.4,6.2,0,0.00896777
0.4,6.3,0,0.0088933
0.4,6.4,0,0.00880751
0.4,6.5,0,0.00871299
0.4,6.6,0,0.00860942
0.4,6.7,0,0.0084999
0.4,6.8,0,0.00838051
0.4,6.9,0,0.00825303
0.4,7,0,0.0081231
0.4,7.1,0,0.00798293
0.4,7.2,0,0.00783854
0.4,7.3,0,0.00769032
0.4,7.4,0,0.00753751
0.4,7.5,0,0.00738055
0.4,7.6,0,0.00722006
0.4,7.7,0,0.0070583
0.4,7.8,0,0.00689319
0.4,7.9,0,0.00672548
0.4,8,0,0.00655792
0.4,8.1,0,0.00638865
0.4,8.2,0,0.00621825
0.4,8.3,0,0.00604816
0.4,8.4,0,0.00587829
0.4,8.5,0,0.00570836
0.4,8.6,0,0.00553883
0.4,8.7,0,0.00537035
0.4,8.8,0,0.00520323
0.4,8.9,0,0.00503668
0.4,9,0,0.00487161
0.4,9.1,0,0.00470888
0.4,9.2,0,0.00454702
0.4,9.3,0,0.00438714
0.4,9.4,0,0.00422925
0.4,9.5,0,0.00407327
0.4,9.6,0,0.00391927
0.4,9.7,0,0.00376673
0.4,9.8,0,0.00361736
0.4,9.9,0,0.00346948
0.4,10,0,0.00332331
0.4,10.1,0,0.00318016
0.4,10.2,0,0.00303852
0.4,10.3,0,0.00289896
0.4,10.4,0,0.00276133
0.4,10.5,0,0.00262586
0.4,10.6,0,0.00249244
0.4,10.7,0,0.00236005
0.4,10.8,0,0.00223062
0.4,10.9,0,0.0021025
0.4,11,0,0.0019757
0.4,11.1,0,0.00185105
0.4,11.2,0,0.0017277
0.4,11.3,0,0.0016058
0.4,11.4,0,0.00148504
0.4,11.5,0,0.00136577
0.4,11.6,0,0.0012479
0.4,11.7,0,0.00113043
0.4,11.8,0,0.0010147
0.4,11.9,0,0.000899721
0.4,12,0,0.000785294
0.4,12.1,0,0.000671737
0.4,12.2,0,0.000558846
0.4,12.3,0,0.000446472
0.4,12.4,0,0.000334319
0.4,12.5,0,0.000222587
0.4,12.6,0,0.00011138
0.4,12.7,0,0
0.5,0,0,0
0.5,0.1,0,0.000195228
0.5,0.2,0,0.000390456
0.5,0.3,0,0.000585991
0.5,0.4,0,0.000781832
0.5,0.5,0,0.000977672
0.5,0.6,0,0.0011746
0.5,0.7,0,0.00137153
0.5,0.8,0,0.00156922
0.5,0.9,0,0.00176766
0.5,1,0,0.00196609
0.5,1.1,0,0.00216634
0.5,1.2,0,0.00236659
0.5,1.3,0,0.00256781
0.5,1.4,0,0.00277001
0.5,1.5,0,0.00297221
0.5,1.6,0,0.00317633
0.5,1.7,0,0.00338044
0.5,1.8,0,0.00358537
0.5,1.9,0,0.0037911
0.5,2,0,0.00399684
0.5,2.1,0,0.00420362
0.5,2.2,0,0.0044104
0.5,2.3,0,0.00461726
0.5,2.4,0,0.00482418
0.5,2.5,0,0.0050311
0.5,2.6,0,0.00523688
0.5,2.7,0,0.00544265
0.5,2.8,0,0.00564701
0.5,2.9,0,0.00584996
0.5,3,0,0.0060529
0.5,3.1,0,0.0062509
0.5,3.2,0,0.0064489
0.5,3.3,0,0.00664317
0.5,3.4,0,0.0068337
0.5,3.5,0,0.00702424
0.5,3.6,0,0.0072044
0.5,3.7,0,0.00738457
0.5,3.8,0,0.00755795
0.5,3.9,0,0.00772456
0.5,4,0,0.00789116
0.5,4.1,0,0.00804084
0.5,4.2,0,0.00819052
0.5,4.3,0,0.00833005
0.5,4.4,0,0.00845943
0.5,4.5,0,0.0085888
0.5,4.6,0,0.00869469
0.5,4.7,0,0.00880058
0.5,4.8,0,0.00888857
0.5,4.9,0,0.00895867
0.5,5,0,0.00902877
0.5,5.1,0,0.00911317
0.5,5.2,0,0.00916185
0.5,5.3,0,0.00919881
0.5,5.4,0,0.00922395
0.5,5.5,0,0.00923722
0.5,5.6,0,0.00923859
0.5,5.7,0,0.00922816
0.5,5.8,0,0.00920607
0.5,5.9,0,0.00917241
0.5,6,0,0.0090987
0.5,6.1,0,0.00903894
0.5,6.2,0,0.00897919
0.5,6.3,0,0.00891943
0.5,6.4,0,0.00883315
0.5,6.5,0,0.0087326
0.5,6.6,0,0.00863204
0.5,6.7,0,0.00852357
0.5,6.8,0,0.00839667
0.5,6.9,0,0.00826977
0.5,7,0,0.00814286
0.5,7.1,0,0.00799711
0.5,7.2,0,0.00785036
0.5,7.3,0,0.00770361
0.5,7.4,0,0.00754875
0.5,7.5,0,0.00738847
0.5,7.6,0,0.0072282
0.5,7.7,0,0.00706597
0.5,7.8,0,0.00689787
0.5,7.9,0,0.00672977
0.5,8,0,0.00656167
0.5,8.1,0,0.00639085
0.5,8.2,0,0.00621972
0.5,8.3,0,0.00604859
0.5,8.4,0,0.00587788
0.5,8.5,0,0.0057075
0.5,8.6,0,0.00553712
0.5,8.7,0,0.00536745
0.5,8.8,0,0.00520061
0.5,8.9,0,0.00503377
0.5,9,0,0.00486693
0.5,9.1,0,0.0047047
0.5,9.2,0,0.00454329
0.5,9.3,0,0.00438187
0.5,9.4,0,0.00422373
0.5,9.5,0,0.00406887
0.5,9.6,0,0.003914
0.5,9.7,0,0.00376019
0.5,9.8,0,0.00361238
0.5,9.9,0,0.00346457
0.5,10,0,0.00331676
0.5,10.1,0,0.00317462
0.5,10.2,0,0.0030339
0.5,10.3,0,0.00289317
0.5,10.4,0,0.00275548
0.5,10.5,0,0.00262151
0.5,10.6,0,0.00248754
0.5,10.7,0,0.00235418
0.5,10.8,0,0.00222635
0.5,10.9,0,0.00209852
0.5,11,0,0.00197069
0.5,11.1,0,0.00184687
0.5,11.2,0,0.00172439
0.5,11.3,0,0.0016019
0.5,11.4,0,0.00148118
0.5,11.5,0,0.00136311
0.5,11.6,0,0.00124504
0.5,11.7,0,0.00112713
0.5,11.8,0,0.00101245
0.5,11.9,0,0.000897765
0.5,12,0,0.000783081
0.5,12.1,0,0.000670019
0.5,12.2,0,0.000557652
0.5,12.3,0,0.000445284
0.5,12.4,0,0.000333354
0.5,12.5,0,0.000222236
0.5,12.6,0,0.000111118
0.5,12.7,0,0
0.6,0,0,0
0.6,0.1,0,0.000194535
0.6,0.2,0,0.000389482
0.6,0.3,0,0.00058444
0.6,0.4,0,0.000779987
0.6,0.5,0,0.000975311
0.6,0.6,0,0.00117175
0.6,0.7,0,0.00136847
0.6,0.8,0,0.00156576
0.6,0.9,0,0.00176402
0.6,1,0,0.00196218
0.6,1.1,0,0.00216224
0.6,1.2,0,0.00236244
0.6,1.3,0,0.00256363
0.6,1.4,0,0.00276585
0.6,1.5,0,0.00296821
0.6,1.6,0,0.00317262
0.6,1.7,0,0.00337696
0.6,1.8,0,0.00358243
0.6,1.9,0,0.00378847
0.6,2,0,0.00399501
0.6,2.1,0,0.00420278
0.6,2.2,0,0.00441016
0.6,2.3,0,0.00461831
0.6,2.4,0,0.00482593
0.6,2.5,0,0.0050345
0.6,2.6,0,0.00524212
0.6,2.7,0,0.00544895
0.6,2.8,0,0.00565552
0.6,2.9,0,0.00585961
0.6,3,0,0.00606515
0.6,3.1,0,0.0062659
0.6,3.2,0,0.00646543
0.6,3.3,0,0.0066628
0.6,3.4,0,0.00685491
0.6,3.5,0,0.00704888
0.6,3.6,0,0.00723254
0.6,3.7,0,0.00741456
0.6,3.8,0,0.00759165
0.6,3.9,0,0.0077601
0.6,4,0,0.00793055
0.6,4.1,0,0.00808394
0.6,4.2,0,0.0082355
0.6,4.3,0,0.00837868
0.6,4.4,0,0.00850983
0.6,4.5,0,0.00864265
0.6,4.6,0,0.00875166
0.6,4.7,0,0.00885898
0.6,4.8,0,0.00895442
0.6,4.9,0,0.00903052
0.6,5,0,0.00909266
0.6,5.1,0,0.00917898
0.6,5.2,0,0.00922868
0.6,5.3,0,0.00926632
0.6,5.4,0,0.00929181
0.6,5.5,0,0.00930506
0.6,5.6,0,0.00930608
0.6,5.7,0,0.00929495
0.6,5.8,0,0.00927181
0.6,5.9,0,0.00923677
0.6,6,0,0.00916028
0.6,6.1,0,0.00911511
0.6,6.2,0,0.00906032
0.6,6.3,0,0.00898127
0.6,6.4,0,0.00889022
0.6,6.5,0,0.00879183
0.6,6.6,0,0.0086846
0.6,6.7,0,0.00856919
0.6,6.8,0,0.00844345
0.6,6.9,0,0.00831393
0.6,7,0,0.00817787
0.6,7.1,0,0.00803129
0.6,7.2,0,0.00788439
0.6,7.3,0,0.00773057
0.6,7.4,0,0.0075718
0.6,7.5,0,0.00741042
0.6,7.6,0,0.00724676
0.6,7.7,0,0.00707969
0.6,7.8,0,0.00690942
0.6,7.9,0,0.00674017
0.6,8,0,0.00656808
0.6,8.1,0,0.0063946
0.6,8.2,0,0.00622236
0.6,8.3,0,0.00604909
0.6,8.4,0,0.00587587
0.6,8.5,0,0.00570344
0.6,8.6,0,0.00553248
0.6,8.7,0,0.00536144
0.6,8.8,0,0.0051921
0.6,8.9,0,0.00502491
0.6,9,0,0.00485803
0.6,9.1,0,0.00469385
0.6,9.2,0,0.00453131
0.6,9.3,0,0.00437052
0.6,9.4,0,0.00421173
0.6,9.5,0,0.00405517
0.6,9.6,0,0.00390093
0.6,9.7,0,0.00374795
0.6,9.8,0,0.00359842
0.6,9.9,0,0.00345051
0.6,10,0,0.00330433
0.6,10.1,0,0.00316138
0.6,10.2,0,0.00301989
0.6,10.3,0,0.0028806
0.6,10.4,0,0.00274341
0.6,10.5,0,0.00260845
0.6,10.6,0,0.00247529
0.6,10.7,0,0.00234353
0.6,10.8,0,0.0022149
0.6,10.9,0,0.00208705
0.6,11,0,0.00196103
0.6,11.1,0,0.00183728
0.6,11.2,0,0.0017145
0.6,11.3,0,0.00159327
0.6,11.4,0,0.00147348
0.6,11.5,0,0.0013552
0.6,11.6,0,0.00123772
0.6,11.7,0,0.00112128
0.6,11.8,0,0.00100665
0.6,11.9,0,0.000892034
0.6,12,0,0.000778688
0.6,12.1,0,0.00066625
0.6,12.2,0,0.000554087
0.6,12.3,0,0.000442498
0.6,12.4,0,0.000331491
0.6,12.5,0,0.000220908
0.6,12.6,0,0.000110127
0.6,12.7,0,0
0.7,0,0,0
0.7,0.1,0,0.000194254
0.7,0.2,0,0.000388225
0.7,0.3,0,0.000583184
0.7,0.4,0,0.000777919
0.7,0.5,0,0.000972949
0.7,0.6,0,0.00116918
0.7,0.7,0,0.0013652
0.7,0.8,0,0.00156249
0.7,0.9,0,0.00176029
0.7,1,0,0.00195827
0.7,1.1,0,0.00215828
0.7,1.2,0,0.00235825
0.7,1.3,0,0.00255944
0.7,1.4,0,0.00276183
0.7,1.5,0,0.00296421
0.7,1.6,0,0.00316885
0.7,1.7,0,0.00337371
0.7,1.8,0,0.00357918
0.7,1.9,0,0.00378634
0.7,2,0,0.00399319
0.7,2.1,0,0.00420155
0.7,2.2,0,0.00441053
0.7,2.3,0,0.00461868
0.7,2.4,0,0.00482864
0.7,2.5,0,0.00503791
0.7,2.6,0,0.00524658
0.7,2.7,0,0.00545631
0.7,2.8,0,0.00566288
0.7,2.9,0,0.00587071
0.7,3,0,0.0060774
0.7,3.1,0,0.00627967
0.7,3.2,0,0.00648347
0.7,3.3,0,0.00668084
0.7,3.4,0,0.00687798
0.7,3.5,0,0.00707353
0.7,3.6,0,0.00725904
0.7,3.7,0,0.00744642
0.7,3.8,0,0.00762351
0.7,3.9,0,0.00779764
0.7,4,0,0.00796993
0.7,4.1,0,0.00812521
0.7,4.2,0,0.00828237
0.7,4.3,0,0.00842554
0.7,4.4,0,0.0085619
0.7,4.5,0,0.00869649
0.7,4.6,0,0.00880694
0.7,4.7,0,0.00891883
0.7,4.8,0,0.00901427
0.7,4.9,0,0.00908841
0.7,5,0,0.00915655
0.7,5.1,0,0.00924478
0.7,5.2,0,0.00929552
0.7,5.3,0,0.00933384
0.7,5.4,0,0.00935966
0.7,5.5,0,0.00937291
0.7,5.6,0,0.00937357
0.7,5.7,0,0.00936173
0.7,5.8,0,0.00933754
0.7,5.9,0,0.00930112
0.7,6,0,0.00922186
0.7,6.1,0,0.00917027
0.7,6.2,0,0.00910561
0.7,6.3,0,0.00903629
0.7,6.4,0,0.00894524
0.7,6.5,0,0.00883761
0.7,6.6,0,0.00872978
0.7,6.7,0,0.00861447
0.7,6.8,0,0.00848295
0.7,6.9,0,0.00834805
0.7,7,0,0.00821243
0.7,7.1,0,0.00806374
0.7,7.2,0,0.00790907
0.7,7.3,0,0.00775451
0.7,7.4,0,0.00759574
0.7,7.5,0,0.00742864
0.7,7.6,0,0.00726114
0.7,7.7,0,0.00709395
0.7,7.8,0,0.00692137
0.7,7.9,0,0.00674711
0.7,8,0,0.00657409
0.7,8.1,0,0.00640005
0.7,8.2,0,0.00622401
0.7,8.3,0,0.00604851
0.7,8.4,0,0.00587528
0.7,8.5,0,0.00570136
0.7,8.6,0,0.00552731
0.7,8.7,0,0.00535593
0.7,8.8,0,0.00518657
0.7,8.9,0,0.0050172
0.7,9,0,0.00484912
0.7,9.1,0,0.00468507
0.7,9.2,0,0.0045221
0.7,9.3,0,0.00435953
0.7,9.4,0,0.00420075
0.7,9.5,0,0.00404492
0.7,9.6,0,0.00388931
0.7,9.7,0,0.00373597
0.7,9.8,0,0.00358722
0.7,9.9,0,0.00343931
0.7,10,0,0.00329222
0.7,10.1,0,0.0031495
0.7,10.2,0,0.00300917
0.7,10.3,0,0.00286901
0.7,10.4,0,0.00273183
0.7,10.5,0,0.0025982
0.7,10.6,0,0.00246498
0.7,10.7,0,0.00233296
0.7,10.8,0,0.00220511
0.7,10.9,0,0.0020783
0.7,11,0,0.00195181
0.7,11.1,0,0.0018282
0.7,11.2,0,0.00170691
0.7,11.3,0,0.00158565
0.7,11.4,0,0.00146586
0.7,11.5,0,0.00134869
0.7,11.6,0,0.00123193
0.7,11.7,0,0.00111542
0.7,11.8,0,0.0010013
0.7,11.9,0,0.000888008
0.7,12,0,0.000774696
0.7,12.1,0,0.000662292
0.7,12.2,0,0.000551372
0.7,12.3,0,0.000440445
0.7,12.4,0,0.000329438
0.7,12.5,0,0.000219535
0.7,12.6,0,0.000109949
0.7,12.7,0,0
0.8,0,0,0
0.8,0.1,0,0.000193437
0.8,0.2,0,0.000387409
0.8,0.3,0,0.000580901
0.8,0.4,0,0.000775636
0.8,0.5,0,0.000969981
0.8,0.6,0,0.00116562
0.8,0.7,0,0.00136164
0.8,0.8,0,0.00155794
0.8,0.9,0,0.00175574
0.8,1,0,0.0019533
0.8,1.1,0,0.00215311
0.8,1.2,0,0.00235308
0.8,1.3,0,0.00255416
0.8,1.4,0,0.00275655
0.8,1.5,0,0.00295902
0.8,1.6,0,0.00316408
0.8,1.7,0,0.00336895
0.8,1.8,0,0.00357567
0.8,1.9,0,0.00378283
0.8,2,0,0.00399052
0.8,2.1,0,0.00420019
0.8,2.2,0,0.00440916
0.8,2.3,0,0.00462045
0.8,2.4,0,0.00483041
0.8,2.5,0,0.0050415
0.8,2.6,0,0.00525257
0.8,2.7,0,0.00546231
0.8,2.8,0,0.00567425
0.8,2.9,0,0.00588209
0.8,3,0,0.00609174
0.8,3.1,0,0.00629759
0.8,3.2,0,0.00650138
0.8,3.3,0,0.00670638
0.8,3.4,0,0.00690351
0.8,3.5,0,0.0071031
0.8,3.6,0,0.00729311
0.8,3.7,0,0.00748049
0.8,3.8,0,0.00766673
0.8,3.9,0,0.00784087
0.8,4,0,0.0080178
0.8,4.1,0,0.0081778
0.8,4.2,0,0.00833496
0.8,4.3,0,0.0084872
0.8,4.4,0,0.00862356
0.8,4.5,0,0.00876246
0.8,4.6,0,0.00887677
0.8,4.7,0,0.00898867
0.8,4.8,0,0.00909078
0.8,4.9,0,0.00916493
0.8,5,0,0.00923515
0.8,5.1,0,0.00932578
0.8,5.2,0,0.0093778
0.8,5.3,0,0.00941699
0.8,5.4,0,0.00944323
0.8,5.5,0,0.00945647
0.8,5.6,0,0.00945667
0.8,5.7,0,0.00944395
0.8,5.8,0,0.00941845
0.8,5.9,0,0.00938029
0.8,6,0,0.00929758
0.8,6.1,0,0.00924299
0.8,6.2,0,0.00917834
0.8,6.3,0,0.00910651
0.8,6.4,0,0.00900706
0.8,6.5,0,0.00889927
0.8,6.6,0,0.00879143
0.8,6.7,0,0.00866679
0.8,6.8,0,0.00853163
0.8,6.9,0,0.00839672
0.8,7,0,0.00825485
0.8,7.1,0,0.00809901
0.8,7.2,0,0.00794434
0.8,7.3,0,0.00778716
0.8,7.4,0,0.00761902
0.8,7.5,0,0.00745128
0.8,7.6,0,0.00728378
0.8,7.7,0,0.00710883
0.8,7.8,0,0.00693295
0.8,7.9,0,0.00675869
0.8,8,0,0.00658157
0.8,8.1,0,0.00640257
0.8,8.2,0,0.00622653
0.8,8.3,0,0.00604979
0.8,8.4,0,0.00587141
0.8,8.5,0,0.00569692
0.8,8.6,0,0.00552286
0.8,8.7,0,0.00534808
0.8,8.8,0,0.00517715
0.8,8.9,0,0.00500778
0.8,9,0,0.00483828
0.8,9.1,0,0.00467243
0.8,9.2,0,0.00450946
0.8,9.3,0,0.00434662
0.8,9.4,0,0.00418652
0.8,9.5,0,0.00403052
0.8,9.6,0,0.00387491
0.8,9.7,0,0.00372111
0.8,9.8,0,0.00357224
0.8,9.9,0,0.00342433
0.8,10,0,0.00327728
0.8,10.1,0,0.00313485
0.8,10.2,0,0.00299452
0.8,10.3,0,0.00285444
0.8,10.4,0,0.00271799
0.8,10.5,0,0.00258455
0.8,10.6,0,0.00245133
0.8,10.7,0,0.00232012
0.8,10.8,0,0.00219295
0.8,10.9,0,0.00206614
0.8,11,0,0.00194021
0.8,11.1,0,0.00181788
0.8,11.2,0,0.00169658
0.8,11.3,0,0.00157543
0.8,11.4,0,0.00145718
0.8,11.5,0,0.00134043
0.8,11.6,0,0.00122367
0.8,11.7,0,0.00110835
0.8,11.8,0,0.000995275
0.8,11.9,0,0.000881983
0.8,12,0,0.000769309
0.8,12.1,0,0.000658593
0.8,12.2,0,0.000547672
0.8,12.3,0,0.000436782
0.8,12.4,0,0.000327568
0.8,12.5,0,0.00021824
0.8,12.6,0,0.000108654
0.8,12.7,0,0
0.9,0,0,0
0.9,0.1,0,0.000192902
0.9,0.2,0,0.000385518
0.9,0.3,0,0.000579009
0.9,0.4,0,0.000772453
0.9,0.5,0,0.000966408
0.9,0.6,0,0.00116167
0.9,0.7,0,0.00135666
0.9,0.8,0,0.00155296
0.9,0.9,0,0.00174995
0.9,1,0,0.00194729
0.9,1.1,0,0.00214694
0.9,1.2,0,0.00234655
0.9,1.3,0,0.00254763
0.9,1.4,0,0.00275009
0.9,1.5,0,0.00295264
0.9,1.6,0,0.00315789
0.9,1.7,0,0.00336352
0.9,1.8,0,0.00357025
0.9,1.9,0,0.00377879
0.9,2,0,0.00398701
0.9,2.1,0,0.00419738
0.9,2.2,0,0.00440868
0.9,2.3,0,0.00461996
0.9,2.4,0,0.00483306
0.9,2.5,0,0.00504529
0.9,2.6,0,0.0052577
0.9,2.7,0,0.00547171
0.9,2.8,0,0.00568366
0.9,2.9,0,0.0058967
0.9,3,0,0.00610817
0.9,3.1,0,0.00631606
0.9,3.2,0,0.00652622
0.9,3.3,0,0.00673122
0.9,3.4,0,0.00693555
0.9,3.5,0,0.00713759
0.9,3.6,0,0.00733025
0.9,3.7,0,0.00752562
0.9,3.8,0,0.00771186
0.9,3.9,0,0.00789442
0.9,4,0,0.00807414
0.9,4.1,0,0.00823699
0.9,4.2,0,0.00840252
0.9,4.3,0,0.00855477
0.9,4.4,0,0.00869912
0.9,4.5,0,0.00884056
0.9,4.6,0,0.0089573
0.9,4.7,0,0.00907587
0.9,4.8,0,0.00917798
0.9,4.9,0,0.00926216
0.9,5,0,0.00932847
0.9,5.1,0,0.00942197
0.9,5.2,0,0.00947554
0.9,5.3,0,0.00951575
0.9,5.4,0,0.00954252
0.9,5.5,0,0.00955574
0.9,5.6,0,0.0095554
0.9,5.7,0,0.00954161
0.9,5.8,0,0.00951454
0.9,5.9,0,0.0094743
0.9,6,0,0.00938743
0.9,6.1,0,0.0093378
0.9,6.2,0,0.00927338
0.9,6.3,0,0.00918647
0.9,6.4,0,0.00908702
0.9,6.5,0,0.00897698
0.9,6.6,0,0.0088571
0.9,6.7,0,0.00873208
0.9,6.8,0,0.00859647
0.9,6.9,0,0.00845028
0.9,7,0,0.00830414
0.9,7.1,0,0.00814763
0.9,7.2,0,0.00798489
0.9,7.3,0,0.00782076
0.9,7.4,0,0.00765262
0.9,7.5,0,0.00747985
0.9,7.6,0,0.00730379
0.9,7.7,0,0.00712827
0.9,7.8,0,0.00695014
0.9,7.9,0,0.00676836
0.9,8,0,0.00658908
0.9,8.1,0,0.00640918
0.9,8.2,0,0.00622747
0.9,8.3,0,0.00604788
0.9,8.4,0,0.0058695
0.9,8.5,0,0.00569145
0.9,8.6,0,0.00551419
0.9,8.7,0,0.00533921
0.9,8.8,0,0.00516654
0.9,8.9,0,0.0049943
0.9,9,0,0.0048247
0.9,9.1,0,0.00465833
0.9,9.2,0,0.00449291
0.9,9.3,0,0.00433021
0.9,9.4,0,0.00417012
0.9,9.5,0,0.0040124
0.9,9.6,0,0.00385699
0.9,9.7,0,0.00370344
0.9,9.8,0,0.00355367
0.9,9.9,0,0.00340564
0.9,10,0,0.00325955
0.9,10.1,0,0.00311694
0.9,10.2,0,0.00297614
0.9,10.3,0,0.00283757
0.9,10.4,0,0.00270112
0.9,10.5,0,0.00256714
0.9,10.6,0,0.0024355
0.9,10.7,0,0.00230478
0.9,10.8,0,0.00217734
0.9,10.9,0,0.00205157
0.9,11,0,0.00192686
0.9,11.1,0,0.00180451
0.9,11.2,0,0.00168377
0.9,11.3,0,0.00156442
0.9,11.4,0,0.00144617
0.9,11.5,0,0.00132957
0.9,11.6,0,0.0012147
0.9,11.7,0,0.0010999
0.9,11.8,0,0.000986958
0.9,11.9,0,0.000875185
0.9,12,0,0.000763563
0.9,12.1,0,0.000652865
0.9,12.2,0,0.000543093
0.9,12.3,0,0.000433836
0.9,12.4,0,0.000324622
0.9,12.5,0,0.000215857
0.9,12.6,0,0.000108195
0.9,12.7,0,0
1,0,0,0
1,0.1,0,0.000192081
1,0.2,0,0.000384161
1,0.3,0,0.000576728
1,0.4,0,0.000769782
1,0.5,0,0.000962835
1,0.6,0,0.00115745
1,0.7,0,0.00135206
1,0.8,0,0.00154774
1,0.9,0,0.00174451
1,1,0,0.00194128
1,1.1,0,0.00214073
1,1.2,0,0.00234019
1,1.3,0,0.00254119
1,1.4,0,0.00274372
1,1.5,0,0.00294626
1,1.6,0,0.00315208
1,1.7,0,0.0033579
1,1.8,0,0.00356535
1,1.9,0,0.00377442
1,2,0,0.0039835
1,2.1,0,0.00419549
1,2.2,0,0.00440749
1,2.3,0,0.0046206
1,2.4,0,0.00483484
1,2.5,0,0.00504907
1,2.6,0,0.00526442
1,2.7,0,0.00547978
1,2.8,0,0.00569489
1,2.9,0,0.00590975
1,3,0,0.0061246
1,3.1,0,0.00633681
1,3.2,0,0.00654901
1,3.3,0,0.00675851
1,3.4,0,0.00696529
1,3.5,0,0.00717208
1,3.6,0,0.00737009
1,3.7,0,0.00756811
1,3.8,0,0.00775979
1,3.9,0,0.00794513
1,4,0,0.00813048
1,4.1,0,0.00829886
1,4.2,0,0.00846724
1,4.3,0,0.00862487
1,4.4,0,0.00877177
1,4.5,0,0.00891867
1,4.6,0,0.00903966
1,4.7,0,0.00916064
1,4.8,0,0.00926127
1,4.9,0,0.00934152
1,5,0,0.00942178
1,5.1,0,0.00951816
1,5.2,0,0.00957327
1,5.3,0,0.00961452
1,5.4,0,0.0096418
1,5.5,0,0.00965501
1,5.6,0,0.00965413
1,5.7,0,0.00963928
1,5.8,0,0.00961062
1,5.9,0,0.0095683
1,6,0,0.00947728
1,6.1,0,0.00940524
1,6.2,0,0.0093332
1,6.3,0,0.00926116
1,6.4,0,0.00915874
1,6.5,0,0.00903997
1,6.6,0,0.00892119
1,6.7,0,0.008794
1,6.8,0,0.00864715
1,6.9,0,0.0085003
1,7,0,0.00835346
1,7.1,0,0.00818806
1,7.2,0,0.00802169
1,7.3,0,0.00785532
1,7.4,0,0.00768193
1,7.5,0,0.00750386
1,7.6,0,0.00732579
1,7.7,0,0.00714645
1,7.8,0,0.0069633
1,7.9,0,0.00678014
1,8,0,0.00659698
1,8.1,0,0.0064139
1,8.2,0,0.00623082
1,8.3,0,0.00604774
1,8.4,0,0.00586677
1,8.5,0,0.00568752
1,8.6,0,0.00550828
1,8.7,0,0.00533031
1,8.8,0,0.00515741
1,8.9,0,0.00498451
1,9,0,0.00481161
1,9.1,0,0.00464536
1,9.2,0,0.00448029
1,9.3,0,0.00431522
1,9.4,0,0.00415441
1,9.5,0,0.00399786
1,9.6,0,0.00384131
1,9.7,0,0.00368604
1,9.8,0,0.00353809
1,9.9,0,0.00339014
1,10,0,0.00324219
1,10.1,0,0.00310085
1,10.2,0,0.00296116
1,10.3,0,0.00282147
1,10.4,0,0.00268521
1,10.5,0,0.00255313
1,10.6,0,0.00242105
1,10.7,0,0.00228965
1,10.8,0,0.00216432
1,10.9,0,0.002039
1,11,0,0.00191368
1,11.1,0,0.00179268
1,11.2,0,0.00167313
1,11.3,0,0.00155358
1,11.4,0,0.00143591
1,11.5,0,0.00132106
1,11.6,0,0.00120621
1,11.7,0,0.00109154
1,11.8,0,0.000980261
1,11.9,0,0.000868986
1,12,0,0.000757712
1,12.1,0,0.000648148
1,12.2,0,0.000539318
1,12.3,0,0.000430488
1,12.4,0,0.000322163
1,12.5,0,0.000214775
1,12.6,0,0.000107388
1,12.7,0,0
1.1,0,0,0
1.1,0.1,0,0.000190558
1.1,0.2,0,0.000382079
1.1,0.3,0,0.00057345
1.1,0.4,0,0.000765866
1.1,0.5,0,0.000957818
1.1,0.6,0,0.00115135
1.1,0.7,0,0.00134548
1.1,0.8,0,0.00154027
1.1,0.9,0,0.00173662
1.1,1,0,0.00193268
1.1,1.1,0,0.00213161
1.1,1.2,0,0.00233088
1.1,1.3,0,0.00253163
1.1,1.4,0,0.00273412
1.1,1.5,0,0.00293671
1.1,1.6,0,0.00314294
1.1,1.7,0,0.00334905
1.1,1.8,0,0.0035573
1.1,1.9,0,0.00376689
1.1,2,0,0.00397718
1.1,2.1,0,0.00419093
1.1,2.2,0,0.0044039
1.1,2.3,0,0.00461929
1.1,2.4,0,0.00483481
1.1,2.5,0,0.00505183
1.1,2.6,0,0.0052707
1.1,2.7,0,0.0054879
1.1,2.8,0,0.0057071
1.1,2.9,0,0.00592422
1.1,3,0,0.00614371
1.1,3.1,0,0.00636143
1.1,3.2,0,0.00657642
1.1,3.3,0,0.00679195
1.1,3.4,0,0.00700198
1.1,3.5,0,0.00721519
1.1,3.6,0,0.00742054
1.1,3.7,0,0.00762209
1.1,3.8,0,0.00782127
1.1,3.9,0,0.00801058
1.1,4,0,0.00820336
1.1,4.1,0,0.00837993
1.1,4.2,0,0.00855199
1.1,4.3,0,0.0087173
1.1,4.4,0,0.00886818
1.1,4.5,0,0.00902185
1.1,4.6,0,0.00915007
1.1,4.7,0,0.00927386
1.1,4.8,0,0.00938566
1.1,4.9,0,0.00947429
1.1,5,0,0.00954642
1.1,5.1,0,0.00964686