/*--------------------------------*- C++ -*----------------------------------*\
| =========                 |                                                 |
| \\      /  F ield         | OpenFOAM: The Open Source CFD Toolbox           |
|  \\    /   O peration     | Version:  v1806                                 |
|   \\  /    A nd           | Web:      www.OpenFOAM.com                      |
|    \\/     M anipulation  |                                                 |
\*---------------------------------------------------------------------------*/
FoamFile
{
    version     2.0;
    format      ascii;
    class       volScalarField;
    location    "500";
    object      p;
}
// * * * * * * * * * * * * * * * * * * * * * * * * * * * * * * * * * * * * * //

dimensions      [0 2 -2 0 0 0 0];


internalField   nonuniform List<scalar> 
2400
(
0.000290359
0.000289791
0.000288538
0.000286525
0.000283619
0.000279631
0.000274326
0.000267437
0.000258681
0.000247771
0.000234432
0.000218425
0.000199566
0.000177754
0.000152997
0.000125426
9.5314e-05
6.30706e-05
2.92406e-05
-5.4473e-06
0.000871721
0.000870141
0.000866664
0.000861039
0.000852875
0.000841619
0.000826583
0.000806989
0.000781997
0.000750753
0.000712431
0.000666301
0.000611794
0.000548574
0.000476615
0.000396261
0.000308271
0.000213854
0.000114644
1.26771e-05
0.00145488
0.00145245
0.00144709
0.00143837
0.00142563
0.00140793
0.00138412
0.00135286
0.00131274
0.00126226
0.00119998
0.0011246
0.00103506
0.000930681
0.000811304
0.000677398
0.000530152
0.000371535
0.000204255
3.16859e-05
0.00204082
0.00203777
0.00203102
0.00201995
0.00200362
0.00198068
0.00194946
0.00190804
0.00185434
0.00178614
0.00170128
0.00159774
0.00147382
0.00132837
0.00116094
0.000972009
0.000763133
0.000537035
0.000297593
4.97909e-05
0.00263024
0.00262688
0.00261941
0.00260704
0.00258849
0.002562
0.00252533
0.00247591
0.00241088
0.00232722
0.00222185
0.00209186
0.00193472
0.00174857
0.00153246
0.00128671
0.00101311
0.000715146
0.000397988
6.84821e-05
0.00322345
0.0032202
0.00321288
0.00320055
0.00318161
0.00315379
0.00311426
0.00305972
0.00298642
0.00289037
0.0027674
0.00261346
0.00242488
0.00219878
0.00193341
0.00162865
0.00128634
0.00091068
0.000508283
8.81968e-05
0.00382031
0.00381766
0.00381159
0.00380098
0.00378389
0.00375755
0.00371845
0.00366247
0.0035849
0.00348056
0.00334394
0.00316956
0.00295221
0.00268756
0.00237259
0.00200633
0.00159038
0.00112951
0.000631966
0.000109442
0.00442006
0.00441862
0.00441508
0.00440822
0.0043957
0.00437424
0.00433962
0.00428686
0.00421009
0.00410282
0.00395786
0.00376794
0.00352575
0.00322501
0.00286067
0.00243039
0.0019349
0.00137936
0.000773767
0.000133067
0.00502124
0.00502172
0.00502222
0.00502143
0.00501669
0.00500417
0.00497894
0.0049351
0.00486551
0.00476219
0.00461589
0.0044172
0.00415591
0.0038232
0.0034108
0.00291431
0.00233249
0.00167052
0.000940152
0.00016029
0.00562161
0.00562477
0.00563099
0.00563894
0.00564563
0.00564676
0.00563669
0.00560864
0.00555409
0.00546345
0.00532499
0.00512677
0.00485466
0.00449661
0.00403929
0.00347553
0.00279977
0.00201715
0.00114014
0.000192849
0.00621798
0.00622468
0.00623846
0.00625805
0.00628022
0.0063003
0.00631205
0.00630788
0.00627788
0.0062108
0.00609201
0.00590673
0.00563556
0.00526261
0.00476643
0.00413677
0.00335898
0.00243914
0.00138655
0.000233516
0.0068062
0.00681731
0.00684057
0.00687487
0.00691687
0.00696169
0.00700266
0.00703164
0.00703743
0.00700724
0.00692319
0.00676743
0.0065137
0.00614181
0.00561758
0.00492801
0.00404001
0.00296506
0.00169745
0.000287409
0.0073811
0.00739748
0.00743213
0.00748422
0.00755049
0.00762608
0.00770427
0.00777663
0.00783115
0.00785367
0.0078232
0.00771855
0.00750521
0.00715802
0.00662429
0.00588898
0.00488401
0.00363691
0.00209725
0.000363942
0.0079365
0.00795895
0.00800676
0.00807952
0.00817433
0.00828664
0.00841018
0.00853673
0.00865423
0.0087476
0.00879363
0.00876744
0.00862607
0.00833733
0.0078253
0.00707164
0.00594994
0.00451917
0.00262009
0.000479104
0.00846529
0.00849446
0.00855689
0.00865277
0.00877984
0.00893423
0.00911083
0.0093022
0.00949756
0.0096815
0.00983082
0.00991633
0.00988957
0.00970573
0.00926659
0.00854018
0.00732416
0.00571301
0.00332681
0.000667485
0.00895963
0.00899594
0.00907398
0.00919465
0.0093567
0.00955734
0.00979341
0.010059
0.0103464
0.0106407
0.0109227
0.0111583
0.0113011
0.0112847
0.0110001
0.0103682
0.00912794
0.00736206
0.00435544
0.00104033
0.0094112
0.00945475
0.00954868
0.00969478
0.00989304
0.0101422
0.0104418
0.0107883
0.0111791
0.0116016
0.0120448
0.0124718
0.0128493
0.0130817
0.0130769
0.0126416
0.0115255
0.00962459
0.00598701
0.00187109
0.00981155
0.00986206
0.00997135
0.0101421
0.0103759
0.0106731
0.0110367
0.0114667
0.0119668
0.0125295
0.0131564
0.0138134
0.0144924
0.0150736
0.0155173
0.0154599
0.0147605
0.0126859
0.00862516
0.0031836
0.0101525
0.0102093
0.0103324
0.0105257
0.0107918
0.0111335
0.0115571
0.0120668
0.0126737
0.0133783
0.0141975
0.0151104
0.0161417
0.017179
0.0182561
0.0188859
0.0191386
0.0170586
0.0128546
0.00236754
0.010427
0.0104885
0.0106231
0.010835
0.0111279
0.0115067
0.0119811
0.0125596
0.0132601
0.0140927
0.0150901
0.0162542
0.0176461
0.0192083
0.0210587
0.0227997
0.0247165
0.0240702
0.0218664
-0.00324011
-4.29617e-05
-8.30195e-05
-0.000121344
-0.000156209
-0.000186546
-0.000211722
-0.000231605
-0.000246263
-0.000256279
-0.000262132
-0.000100173
-0.000220563
-0.000334548
-0.000438325
-0.000529038
-0.000604674
-0.000664817
-0.0007093
-0.00073926
-0.000754878
-0.000159602
-0.000363898
-0.000557421
-0.000733592
-0.000887455
-0.0010155
-0.00111701
-0.00119175
-0.00124182
-0.0012681
-0.000225366
-0.0005197
-0.000798608
-0.00105205
-0.00127263
-0.00145523
-0.00159911
-0.00170417
-0.00177378
-0.00180915
-0.000298343
-0.000691264
-0.00106333
-0.0014003
-0.00169189
-0.00193141
-0.00211846
-0.00225338
-0.00234117
-0.00238335
-0.000380892
-0.000883936
-0.00135952
-0.00178801
-0.00215578
-0.00245462
-0.00268524
-0.00284887
-0.00295278
-0.00299879
-0.000476102
-0.0011047
-0.00169739
-0.0022274
-0.00267711
-0.00303735
-0.00331117
-0.00350142
-0.00361836
-0.00366408
-0.00058789
-0.00136265
-0.00209016
-0.00273376
-0.00327138
-0.00369417
-0.00400955
-0.00422295
-0.0043485
-0.00438837
-0.000721522
-0.00167023
-0.0025555
-0.00332671
-0.00395751
-0.00444222
-0.00479558
-0.00502678
-0.00515482
-0.00518161
-0.000884434
-0.00204521
-0.00311772
-0.00403167
-0.00475859
-0.00530155
-0.00568651
-0.00592772
-0.00604993
-0.00605452
-0.00108755
-0.00251435
-0.0038112
-0.00488172
-0.00570268
-0.00629548
-0.00670164
-0.00694189
-0.00704725
-0.0070185
-0.00134742
-0.00311946
-0.00468536
-0.00592039
-0.00682414
-0.00745126
-0.00786226
-0.00808641
-0.00816056
-0.00808543
-0.00169148
-0.00392628
-0.00580937
-0.00720367
-0.00816551
-0.00880121
-0.00919151
-0.00937876
-0.00940327
-0.00926721
-0.00217679
-0.00503692
-0.00727242
-0.00879689
-0.00977548
-0.0103797
-0.0107101
-0.0108324
-0.0107841
-0.010573
-0.0029515
-0.00662057
-0.0091852
-0.0107695
-0.0116984
-0.0122067
-0.0124208
-0.0124429
-0.0122951
-0.0119995
-0.00439699
-0.00901368
-0.011725
-0.0132177
-0.0139632
-0.0142622
-0.0142783
-0.0141558
-0.0138819
-0.0135068
-0.00721437
-0.0126878
-0.0151763
-0.0162729
-0.016556
-0.0164368
-0.0161333
-0.0158101
-0.0153969
-0.0149718
-0.0120088
-0.0175271
-0.019542
-0.019855
-0.019248
-0.0184362
-0.017691
-0.0171248
-0.0166006
-0.0162073
-0.0188977
-0.0218688
-0.0234235
-0.0225611
-0.0209376
-0.0195822
-0.0185743
-0.0178757
-0.0173382
-0.0170807
-0.0478373
-0.0277749
-0.0281537
-0.0250602
-0.0223257
-0.0203309
-0.0189653
-0.0180836
-0.0175368
-0.0176725
-0.00026153
-0.000232965
-0.000193644
-0.000151343
-0.00011184
-7.82544e-05
-5.12336e-05
-3.01897e-05
-1.45305e-05
-3.31252e-06
4.19611e-06
8.94928e-06
1.14143e-05
1.25288e-05
1.22259e-05
1.1305e-05
9.40675e-06
7.11137e-06
4.08795e-06
9.85071e-07
-0.000763709
-0.000681872
-0.000563588
-0.000443951
-0.000331556
-0.000232465
-0.000152111
-8.9424e-05
-4.26612e-05
-9.0742e-06
1.3429e-05
2.77389e-05
3.51684e-05
3.849e-05
3.76625e-05
3.47982e-05
2.92943e-05
2.23617e-05
1.36078e-05
4.57613e-06
-0.00128154
-0.00114024
-0.000941051
-0.000740174
-0.000551347
-0.000385653
-0.000251644
-0.000147301
-6.95018e-05
-1.36817e-05
2.36856e-05
4.74403e-05
5.97165e-05
6.51683e-05
6.37639e-05
5.89116e-05
4.98527e-05
3.82442e-05
2.38318e-05
8.49816e-06
-0.00182318
-0.00161333
-0.00132736
-0.0010407
-0.000772166
-0.000538211
-0.000349806
-0.00020352
-9.46988e-05
-1.6843e-05
3.51408e-05
6.80922e-05
8.49703e-05
9.24217e-05
9.02691e-05
8.3407e-05
7.0691e-05
5.43561e-05
3.41458e-05
1.21951e-05
-0.00239343
-0.00210267
-0.00172291
-0.00134549
-0.000993576
-0.000689471
-0.000445857
-0.000257346
-0.000117594
-1.79965e-05
4.82521e-05
9.00574e-05
0.000111203
0.00012047
0.000117331
0.000108422
9.18985e-05
7.07684e-05
4.46144e-05
1.5816e-05
-0.00299833
-0.00261012
-0.00212864
-0.00165454
-0.00121486
-0.000838529
-0.000538878
-0.000307927
-0.000137436
-1.65083e-05
6.35457e-05
0.000113759
0.000138743
0.000149588
0.000145159
0.000134158
0.000113643
8.76515e-05
5.54042e-05
1.94821e-05
-0.00364426
-0.00313738
-0.00254538
-0.00196746
-0.00143502
-0.000984325
-0.000627852
-0.000354353
-0.000153448
-1.17462e-05
8.1531e-05
0.000139586
0.000167879
0.000180008
0.000173913
0.000160786
0.000136044
0.00010515
6.66102e-05
2.32444e-05
-0.00433785
-0.00368558
-0.00297371
-0.00228338
-0.00165271
-0.00112561
-0.000711628
-0.000395632
-0.00016482
-3.07694e-06
0.0001027
0.000167889
0.000198861
0.000211918
0.000203712
0.000188442
0.000159185
0.000123391
7.8288e-05
2.71629e-05
-0.0050861
-0.00425528
-0.003414
-0.00260092
-0.00186632
-0.00126097
-0.000788912
-0.000430699
-0.000170715
1.01295e-05
0.000127524
0.000198983
0.000231899
0.00024546
0.000234633
0.000217225
0.000183112
0.000142487
9.04752e-05
3.13297e-05
-0.00589629
-0.00484631
-0.00386676
-0.00291795
-0.00207392
-0.00138876
-0.000858274
-0.000458434
-0.000170293
2.84728e-05
0.000156423
0.000233114
0.000267141
0.000280703
0.00026669
0.000247174
0.000207818
0.000162527
0.000103181
3.58725e-05
-0.0067759
-0.0054573
-0.00433219
-0.00323131
-0.00227325
-0.00150713
-0.000918137
-0.000477697
-0.000162757
5.2472e-05
0.000189715
0.000270419
0.00030463
0.000317608
0.000299809
0.00027823
0.000233217
0.000183544
0.000116367
4.09593e-05
-0.00773223
-0.00608504
-0.00480997
-0.00353623
-0.0024616
-0.00161381
-0.000966798
-0.000487398
-0.000147443
8.24759e-05
0.000227536
0.000310858
0.000344259
0.000355981
0.000333792
0.000310199
0.000259114
0.000205477
0.000129926
4.67974e-05
-0.00877091
-0.00672312
-0.00529803
-0.00382545
-0.00263574
-0.00170608
-0.00100252
-0.000486641
-0.000123981
0.000118514
0.000269704
0.000354126
0.000385696
0.000395423
0.000368281
0.000342697
0.000285174
0.000228122
0.000143655
5.36146e-05
-0.00989137
-0.00736144
-0.00579071
-0.00408833
-0.00279192
-0.00178062
-0.00102378
-0.000475
-9.25476e-05
0.000160083
0.000315555
0.000399534
0.000428311
0.000435286
0.000402733
0.000375124
0.000310903
0.000251087
0.000157244
6.16129e-05
-0.0110771
-0.00797382
-0.00627571
-0.00431053
-0.00292601
-0.00183386
-0.00102986
-0.000452902
-5.4207e-05
0.000205883
0.000363761
0.000445922
0.000471123
0.000474658
0.000436423
0.000406665
0.000335657
0.000273765
0.000170263
7.08943e-05
-0.0123
-0.00851804
-0.0067312
-0.00447641
-0.00303424
-0.00186293
-0.00102153
-0.00042209
-1.12145e-05
0.000253657
0.000412256
0.000491631
0.000512818
0.000512419
0.000468506
0.000436369
0.0003587
0.000295365
0.000182187
8.13784e-05
-0.013433
-0.00894739
-0.00712538
-0.00457612
-0.00311446
-0.00186738
-0.00100178
-0.00038581
3.29925e-05
0.000300297
0.000458376
0.000534638
0.000551869
0.000547379
0.00049814
0.000463287
0.000379317
0.000314989
0.000192447
9.27362e-05
-0.0143476
-0.00923272
-0.00742607
-0.00461168
-0.00316721
-0.00185083
-0.000975775
-0.000348453
7.42622e-05
0.000342293
0.000499209
0.000572801
0.00058674
0.000578419
0.000524637
0.000486607
0.000396955
0.000331707
0.000200538
0.000104346
-0.0149709
-0.00937922
-0.00762155
-0.00460238
-0.00319638
-0.00182176
-0.000949603
-0.000314663
0.00010856
0.000376422
0.000532123
0.0006042
0.000616108
0.000604646
0.000547532
0.00050579
0.000411273
0.000344715
0.000206052
0.000115419
-0.015359
-0.00942515
-0.00772481
-0.00457368
-0.00320919
-0.00178843
-0.000927789
-0.000287188
0.000133648
0.000401135
0.000555881
0.000628028
0.00063941
0.000625977
0.000566662
0.000521126
0.00042201
0.000354154
0.000208336
0.000126103
-0.0156153
-0.00938224
-0.00774693
-0.00453999
-0.00321078
-0.0017608
-0.000915332
-0.000270879
0.000145961
0.000413171
0.000567287
0.000640641
0.00065235
0.000638802
0.000577909
0.000530611
0.000427017
0.000359889
0.000206801
0.000135504
-0.0154339
-0.00937443
-0.00775281
-0.00452892
-0.00320927
-0.00174988
-0.000909435
-0.000264155
0.000150728
0.000417848
0.000571742
0.000646075
0.000658387
0.000644756
0.000583652
0.000534776
0.000429517
0.000361749
0.000206018
0.000138786
-0.0152854
-0.00937555
-0.007754
-0.00452393
-0.00320599
-0.00174281
-0.000904474
-0.000259625
0.000153617
0.000420674
0.000574465
0.000650023
0.000663269
0.000649606
0.000588772
0.00053798
0.00043163
0.000362536
0.000205224
0.000140273
-0.0152038
-0.00937437
-0.00775364
-0.00452055
-0.0032026
-0.0017376
-0.000900499
-0.000256688
0.000155003
0.000422022
0.000575796
0.000652794
0.000667177
0.000653653
0.000593266
0.000540584
0.000433217
0.000362746
0.000204067
0.000140811
-0.015169
-0.00937188
-0.0077534
-0.00451833
-0.00319975
-0.00173404
-0.000897674
-0.000255296
0.000154931
0.000421961
0.000575809
0.000654432
0.00067012
0.000656905
0.000597095
0.000542605
0.000434256
0.000362437
0.000202532
0.000140539
-0.0151745
-0.00937192
-0.00775379
-0.00451772
-0.0031976
-0.00173238
-0.000896124
-0.000255524
0.000153391
0.0004205
0.000574532
0.000654937
0.000672076
0.000659314
0.000600215
0.00054399
0.000434754
0.000361573
0.000200691
0.000139414
-0.0152184
-0.00937369
-0.0077547
-0.00451875
-0.00319622
-0.00173271
-0.000895928
-0.000257405
0.000150402
0.000417676
0.000572012
0.000654329
0.000673034
0.000660854
0.000602577
0.000544714
0.000434708
0.000360162
0.00019859
0.000137455
-0.0153099
-0.00937215
-0.00775522
-0.00452098
-0.00319555
-0.00173495
-0.000897102
-0.000260922
0.000146014
0.000413557
0.000568319
0.00065266
0.000672996
0.000661531
0.000604142
0.000544784
0.000434112
0.000358297
0.000196244
0.000134774
-0.0154703
-0.00936616
-0.0077535
-0.00452528
-0.003195
-0.00173957
-0.000899615
-0.00026621
0.000140198
0.000408118
0.000563459
0.000649904
0.000671926
0.000661287
0.000604858
0.000544143
0.000432963
0.000356038
0.000193759
0.000131356
-0.0156626
-0.00937483
-0.00774762
-0.004538
-0.00319286
-0.00174949
-0.000903652
-0.000274102
0.000132457
0.000400843
0.000557104
0.000645615
0.000669548
0.000659675
0.000604499
0.000542471
0.00043125
0.000352713
0.000191576
0.00012612
-0.0153149
-0.00946761
-0.00772569
-0.00459074
-0.00318467
-0.00178597
-0.000917183
-0.000298124
0.000110302
0.00037999
0.000539283
0.000632017
0.000660892
0.000652297
0.000600807
0.000534652
0.000426014
0.000340166
0.000187739
0.000107222
-0.0146814
-0.00935298
-0.00753424
-0.00464035
-0.00316349
-0.0018378
-0.000955665
-0.000345237
6.42093e-05
0.000338208
0.000502597
0.000602303
0.000637716
0.000632884
0.00058587
0.000518964
0.000412369
0.000325144
0.000178675
9.13947e-05
-0.0135718
-0.0090643
-0.00718934
-0.00465473
-0.00313249
-0.00188992
-0.00101367
-0.000408892
1.6369e-06
0.000281006
0.000451808
0.000558354
0.000600539
0.000600291
0.00055881
0.000493657
0.000392372
0.00030479
0.000168612
7.65336e-05
-0.0120441
-0.00855798
-0.00671607
-0.00458045
-0.00308373
-0.00192486
-0.00107648
-0.000480771
-7.11157e-05
0.000212355
0.000389495
0.000502016
0.000551052
0.000556069
0.000521316
0.000460387
0.000367253
0.000281326
0.000158217
6.36847e-05
-0.010563
-0.00790008
-0.00618802
-0.00440971
-0.00300653
-0.00193082
-0.00112623
-0.00054794
-0.000143904
0.00014008
0.000321599
0.000438439
0.000493714
0.000504349
0.000476979
0.000422225
0.000338869
0.00025678
0.000147408
5.34887e-05
-0.00913894
-0.00716322
-0.00565017
-0.00416168
-0.00289561
-0.00190556
-0.00115355
-0.000601058
-0.000208404
7.14874e-05
0.000254345
0.000373305
0.00043354
0.000449544
0.000429512
0.000381966
0.000308932
0.000232367
0.000136142
4.58274e-05
-0.00788029
-0.0064389
-0.00513111
-0.00387138
-0.00275269
-0.00185187
-0.00115691
-0.000636305
-0.000260094
1.13744e-05
0.000192344
0.000311137
0.000374683
0.0003953
0.000381969
0.000341826
0.000278805
0.000208852
0.000124572
4.01909e-05
-0.00677743
-0.00573583
-0.00463186
-0.00355965
-0.00258355
-0.00177388
-0.00113782
-0.000653261
-0.000297561
-3.80877e-05
0.000138063
0.000254626
0.000319765
0.000343973
0.000336371
0.000303253
0.000249425
0.000186617
0.000112925
3.5906e-05
-0.00580973
-0.0050685
-0.00415355
-0.00324121
-0.00239577
-0.00167582
-0.0010992
-0.000653147
-0.000321057
-7.64584e-05
9.23429e-05
0.000204916
0.000270036
0.000296741
0.000293791
0.00026701
0.000221357
0.000165784
0.000101414
3.23716e-05
-0.00496175
-0.00444335
-0.00369679
-0.00292352
-0.0021954
-0.0015615
-0.00104402
-0.000637908
-0.000331657
-0.000104152
5.51452e-05
0.000162209
0.000225859
0.000253986
0.000254641
0.00023339
0.000194889
0.000146332
9.0213e-05
2.918e-05
-0.00421773
-0.00386225
-0.00326164
-0.00261022
-0.00198708
-0.00143437
-0.000975074
-0.000609611
-0.000330769
-0.000122037
2.59678e-05
0.00012622
0.000187121
0.000215659
0.000218957
0.00020241
0.000170126
0.000128183
7.9448e-05
2.61177e-05
-0.00356245
-0.0033247
-0.00284779
-0.00230391
-0.00177433
-0.00129746
-0.000894824
-0.000570218
-0.00031986
-0.00013116
4.09206e-06
9.64144e-05
0.000153466
0.000181482
0.00018657
0.000173942
0.000147055
0.000111236
6.91902e-05
2.31071e-05
-0.00298234
-0.00282841
-0.00245449
-0.00200531
-0.00155976
-0.00115341
-0.000805472
-0.000521534
-0.000300352
-0.000132612
-1.12817e-05
7.2154e-05
0.000124419
0.000151078
0.000157213
0.000147782
0.000125588
9.53817e-05
5.94636e-05
2.01425e-05
-0.00246541
-0.00236989
-0.00208065
-0.0017149
-0.00134515
-0.00100436
-0.000708943
-0.000465191
-0.000273591
-0.000127474
-2.09779e-05
5.27662e-05
9.94625e-05
0.000124024
0.000130568
0.000123691
0.000105592
8.05078e-05
5.02553e-05
1.72421e-05
-0.00200095
-0.00194498
-0.00172489
-0.00143278
-0.00113201
-0.000852028
-0.000606892
-0.000402663
-0.000240825
-0.000116788
-2.582e-05
3.75707e-05
7.80546e-05
9.98833e-05
0.000106294
0.000101413
8.69062e-05
6.64988e-05
4.15286e-05
1.44199e-05
-0.00157952
-0.00154919
-0.00138556
-0.00115865
-0.000921007
-0.000697803
-0.000500795
-0.000335293
-0.00020322
-0.000101552
-2.66164e-05
2.58938e-05
5.96497e-05
7.82147e-05
8.40424e-05
8.06856e-05
6.93548e-05
5.32349e-05
3.32368e-05
1.16806e-05
-0.00119269
-0.00117797
-0.00106073
-0.00089192
-0.000712479
-0.000542781
-0.000391929
-0.000264299
-0.000161856
-8.27102e-05
-2.41565e-05
1.70691e-05
4.36952e-05
5.85676e-05
6.34499e-05
6.12331e-05
5.27444e-05
4.05798e-05
2.53159e-05
9.02206e-06
-0.000832709
-0.000826681
-0.000748251
-0.00063182
-0.000506487
-0.000387529
-0.000281251
-0.000190733
-0.000117741
-6.11834e-05
-1.92421e-05
1.04035e-05
2.95931e-05
4.04416e-05
4.40929e-05
4.27185e-05
3.68141e-05
2.83337e-05
1.76147e-05
6.37429e-06
-0.000493192
-0.00049124
-0.000446253
-0.000377918
-0.000303495
-0.000232378
-0.000169557
-0.000115544
-7.18491e-05
-3.78861e-05
-1.26896e-05
5.19032e-06
1.67336e-05
2.33256e-05
2.55372e-05
2.47851e-05
2.12735e-05
1.62711e-05
9.90404e-06
3.48056e-06
-0.000168686
-0.000167052
-0.000152047
-0.000129322
-0.000104687
-8.05692e-05
-5.78666e-05
-3.93315e-05
-2.46587e-05
-1.32415e-05
-4.81926e-06
1.18834e-06
5.00897e-06
7.20511e-06
7.88611e-06
7.60992e-06
6.38786e-06
4.71634e-06
2.53984e-06
4.7489e-07
-0.0425388
-0.0231478
-0.0235576
-0.0232725
-0.02204
-0.0206124
-0.0193094
-0.0182883
-0.0175624
-0.0175238
-0.00680332
-0.0130514
-0.0173677
-0.0194029
-0.0194525
-0.0187593
-0.0179825
-0.0173702
-0.0168416
-0.0164843
-0.0062463
-0.0116545
-0.014245
-0.0157221
-0.0163793
-0.0164701
-0.0162444
-0.0159223
-0.0154965
-0.0150612
-0.00279464
-0.00681871
-0.00953337
-0.0113909
-0.0125912
-0.0132566
-0.0135139
-0.0135314
-0.0133605
-0.0130559
-0.0012901
-0.00442859
-0.00693272
-0.0087491
-0.00999055
-0.0107843
-0.0112306
-0.0114225
-0.011415
-0.0112334
-0.000790676
-0.00314653
-0.00517891
-0.00675682
-0.00790953
-0.0087131
-0.00923552
-0.00952271
-0.00962163
-0.00954581
-0.000507761
-0.00227914
-0.00388877
-0.00522292
-0.00626155
-0.00703038
-0.00757056
-0.00790781
-0.0080774
-0.00808808
-0.00031209
-0.00168118
-0.00296457
-0.00408044
-0.00499252
-0.00569866
-0.00621986
-0.00657147
-0.00677869
-0.006848
-0.000178315
-0.00126396
-0.00229773
-0.00322359
-0.00400712
-0.00463582
-0.00511767
-0.00546081
-0.00568203
-0.0057865
-8.79766e-05
-0.000962101
-0.00180065
-0.00256563
-0.00322963
-0.00377816
-0.00421176
-0.0045335
-0.00475388
-0.004877
-2.648e-05
-0.000736223
-0.00141981
-0.00205111
-0.00260938
-0.00308132
-0.00346386
-0.00375705
-0.00396696
-0.0040967
1.47278e-05
-0.000563846
-0.00112249
-0.00164276
-0.00210908
-0.00251034
-0.00284218
-0.00310312
-0.00329636
-0.00342405
4.05558e-05
-0.000430871
-0.000886752
-0.00131378
-0.00170025
-0.00203729
-0.00232049
-0.00254777
-0.00272059
-0.00284031
5.43645e-05
-0.000327479
-0.00069703
-0.00104456
-0.0013613
-0.00164034
-0.00187776
-0.00207142
-0.00222177
-0.00232959
5.87556e-05
-0.000246479
-0.000541986
-0.00082063
-0.00107589
-0.00130248
-0.00149716
-0.00165799
-0.0017849
-0.00187829
5.58152e-05
-0.00018246
-0.000413142
-0.000631049
-0.000831396
-0.00101025
-0.00116505
-0.00129418
-0.00139738
-0.00147479
4.72934e-05
-0.000131177
-0.000303908
-0.000467249
-0.000617805
-0.000752744
-0.000870167
-0.000968825
-0.00104843
-0.00110901
3.47245e-05
-8.91734e-05
-0.000208981
-0.000322318
-0.000426943
-0.000520958
-0.000603062
-0.000672369
-0.000728623
-0.000771882
1.87651e-05
-5.42095e-05
-0.000124712
-0.000191388
-0.000252941
-0.000308295
-0.000356723
-0.0003977
-0.000431011
-0.000456492
4.92706e-07
-2.36348e-05
-4.72456e-05
-6.96192e-05
-9.02201e-05
-0.000108694
-0.000124825
-0.000138514
-0.000149824
-0.000158744
0.0106394
0.0107004
0.0108327
0.0110405
0.0113278
0.0116993
0.0121638
0.0127298
0.013413
0.0142235
0.0151878
0.0163063
0.0176215
0.0190682
0.020702
0.0220906
0.0232983
0.0215175
0.0168893
-0.00683806
0.0103649
0.0104183
0.0105332
0.010713
0.0109599
0.0112758
0.011665
0.0121299
0.0126767
0.0133028
0.0140134
0.0147838
0.0156103
0.0163905
0.0170922
0.0173653
0.0171228
0.0155147
0.0122951
0.0066507
0.00997848
0.0100224
0.0101164
0.0102626
0.0104615
0.0107121
0.0110145
0.0113661
0.0117643
0.0121988
0.0126588
0.0131121
0.0135261
0.0138162
0.0138985
0.0135931
0.0127025
0.011019
0.00773569
0.00335178
0.0095002
0.00953393
0.00960588
0.00971687
0.0098657
0.0100497
0.0102653
0.0105067
0.0107657
0.0110284
0.0112754
0.0114761
0.0115868
0.0115487
0.0112681
0.0106663
0.00953721
0.00786826
0.00516579
0.00198227
0.00895114
0.00897499
0.00902558
0.0091028
0.00920435
0.00932628
0.00946307
0.00960715
0.00974769
0.00987004
0.00995268
0.00996918
0.00987861
0.00964097
0.00918389
0.00846921
0.00737052
0.00591406
0.00392144
0.00164352
0.00835182
0.00836675
0.00839814
0.00844524
0.00850519
0.00857344
0.00864372
0.00870793
0.00875489
0.00877077
0.00873605
0.00862909
0.00841836
0.00807654
0.00755671
0.00683592
0.00585312
0.00462097
0.0030877
0.00134091
0.00772077
0.00772814
0.00774333
0.00776518
0.00779071
0.00781536
0.00783291
0.00783564
0.00781335
0.00775396
0.00764163
0.00745961
0.00718575
0.00680039
0.00627564
0.00559589
0.00473488
0.00369588
0.00247274
0.00110336
0.00707377
0.00707508
0.00707735
0.00707925
0.00707793
0.00706918
0.00704742
0.00700576
0.00693559
0.00682699
0.00666795
0.00644575
0.00614521
0.00575245
0.00525155
0.00463259
0.00388556
0.00301295
0.00202235
0.000938325
0.00642344
0.0064202
0.00641278
0.00639983
0.00637882
0.00634613
0.00629698
0.0062256
0.00612507
0.00598763
0.00580432
0.00556574
0.00526171
0.00488296
0.00442062
0.00386926
0.0032261
0.00249482
0.00168517
0.000815082
0.00577934
0.0057729
0.00575873
0.00573553
0.00570119
0.0056527
0.00558619
0.00549701
0.00537981
0.00522862
0.00503692
0.00479801
0.0045052
0.00415264
0.00373557
0.00325154
0.00270086
0.00208777
0.00142092
0.000713666
0.00514819
0.00513974
0.00512133
0.00509181
0.00504946
0.00499191
0.0049161
0.00481844
0.00469484
0.00454085
0.00435182
0.00412316
0.00385058
0.00353055
0.0031607
0.00274038
0.00227109
0.00175702
0.00120528
0.000626033
0.00453424
0.00452475
0.0045042
0.00447157
0.00442554
0.00436427
0.00428545
0.00418634
0.00406388
0.00391488
0.00373608
0.00352443
0.00327726
0.00299257
0.00266938
0.002308
0.00191037
0.00148029
0.00102351
0.000547825
0.00393971
0.00392997
0.00390895
0.00387578
0.00382945
0.0037686
0.00369151
0.00359613
0.00348027
0.00334166
0.0031781
0.00298761
0.0027686
0.00252005
0.00224178
0.00193457
0.0016004
0.00124257
0.000865704
0.000475753
0.00336521
0.00335583
0.00333565
0.0033039
0.00325986
0.00320253
0.00313067
0.00304282
0.0029374
0.00281286
0.00266775
0.00250084
0.00231125
0.00209856
0.00186301
0.00160557
0.00132809
0.00103332
0.000724925
0.000407464
0.00281009
0.00280154
0.00278315
0.00275432
0.00271448
0.00266297
0.0025989
0.00252124
0.00242892
0.0023209
0.00219625
0.00205424
0.00189444
0.00171679
0.00152172
0.00131022
0.00108388
0.000844965
0.000596337
0.000341458
0.00227271
0.00226532
0.00224945
0.0022246
0.00219038
0.00214634
0.00209188
0.0020263
0.00194889
0.00185897
0.00175597
0.0016395
0.00150938
0.00136575
0.00120909
0.00104029
0.000860678
0.00067203
0.000476547
0.000276822
0.00175071
0.00174472
0.00173187
0.00171178
0.00168419
0.0016488
0.00160523
0.00155303
0.00149173
0.00142091
0.00134025
0.00124955
0.00114879
0.00103817
0.000918143
0.000789443
0.000653107
0.000510474
0.000363166
0.000213062
0.00124118
0.00123676
0.00122729
0.0012125
0.00119223
0.00116632
0.00113452
0.00109656
0.00105216
0.00100107
0.000943121
0.00087824
0.000806468
0.000727995
0.000643184
0.000552584
0.000456941
0.000357193
0.000254452
0.00014997
0.000740886
0.000738147
0.000732278
0.000723139
0.000710657
0.000694741
0.000675267
0.000652085
0.000625048
0.000594036
0.000558971
0.000519835
0.000476679
0.000429642
0.000378959
0.000324974
0.000268141
0.000209026
0.000148299
8.67016e-05
0.000246286
0.000245311
0.000243238
0.000240032
0.000235675
0.000230141
0.000223389
0.000215373
0.000206049
0.00019538
0.000183344
0.00016994
0.000155189
0.000139143
0.000121886
0.000103539
8.42562e-05
6.42238e-05
4.36696e-05
2.29021e-05
0.0105692
0.0106321
0.0107727
0.0109939
0.0113004
0.0116977
0.0121983
0.0128118
0.0135624
0.0144622
0.01556
0.0168628
0.018475
0.0203603
0.022757
0.0253986
0.0289003
0.0317499
0.0365512
0.0285709
0.0106381
0.0107016
0.010845
0.0110706
0.0113833
0.0117892
0.0123021
0.012932
0.013706
0.014638
0.015783
0.0171543
0.0188717
0.0209229
0.0235849
0.0267005
0.0309363
0.0353453
0.0413308
0.0412008
0.0106944
0.0107586
0.010904
0.0111328
0.0114502
0.0118627
0.0123847
0.0130273
0.0138189
0.0147758
0.0159567
0.0173821
0.0191805
0.0213665
0.0242348
0.0277333
0.0325075
0.038008
0.0448109
0.0487154
0.0107382
0.0108028
0.0109496
0.0111805
0.011501
0.0119178
0.012446
0.013097
0.0139005
0.0148743
0.0160794
0.017542
0.0193959
0.0216759
0.0246876
0.0284529
0.033592
0.0398047
0.0471816
0.0530678
0.0107694
0.0108342
0.0109816
0.0112135
0.0115355
0.0119544
0.0124855
0.0131407
0.0139499
0.014932
0.0161492
0.0176302
0.0195121
0.02184
0.024926
0.028831
0.0341628
0.0407452
0.0484219
0.055181
0.0107879
0.0108527
0.011
0.0112318
0.0115536
0.0119723
0.0125031
0.013158
0.0139668
0.0149484
0.0161649
0.017645
0.0195257
0.0218529
0.0249395
0.0288515
0.0342
0.0408248
0.0485434
0.0554165
0.0107937
0.0108582
0.0110047
0.0112353
0.0115552
0.0119715
0.0124988
0.0131489
0.0139511
0.0149235
0.0161265
0.0175863
0.0194366
0.021714
0.0247272
0.0285122
0.0336999
0.040039
0.0475414
0.0538098
0.0107869
0.010851
0.010996
0.0112242
0.0115407
0.0119521
0.0124728
0.0131139
0.0139035
0.014858
0.0160353
0.0174562
0.0192483
0.0214291
0.0242976
0.0278247
0.0326773
0.0383893
0.0454013
0.050091
0.0107676
0.010831
0.0109739
0.0111986
0.0115101
0.0119146
0.0124256
0.0130534
0.0138247
0.0147534
0.0158935
0.0172585
0.0189664
0.0210084
0.0236649
0.0268089
0.0311455
0.0358609
0.0421699
0.0435574
0.0107357
0.0107985
0.0109385
0.0111586
0.0114635
0.0118589
0.0123572
0.012968
0.0137151
0.0146108
0.0157023
0.0169972
0.0185957
0.0204648
0.0228395
0.0254853
0.0290553
0.03225
0.0376793
0.0325901
)
;

boundaryField
{
    inlet
    {
        type            zeroGradient;
    }
    outlet
    {
        type            fixedValue;
        value           uniform 0;
    }
    upAndBottom
    {
        type            empty;
    }
    obstacle
    {
        type            zeroGradient;
    }
}


// ************************************************************************* //
