/*--------------------------------*- C++ -*----------------------------------*\
| =========                 |                                                 |
| \\      /  F ield         | OpenFOAM: The Open Source CFD Toolbox           |
|  \\    /   O peration     | Version:  v1806                                 |
|   \\  /    A nd           | Web:      www.OpenFOAM.com                      |
|    \\/     M anipulation  |                                                 |
\*---------------------------------------------------------------------------*/
FoamFile
{
    version     2.0;
    format      ascii;
    class       volScalarField;
    location    "12";
    object      p;
}
// * * * * * * * * * * * * * * * * * * * * * * * * * * * * * * * * * * * * * //

dimensions      [0 2 -2 0 0 0 0];


internalField   nonuniform List<scalar> 
2400
(
0.00321658
0.00346703
0.00365304
0.00399086
0.00414681
0.00444491
0.00500272
0.00549579
0.00593428
0.00641014
0.0072264
0.00774998
0.00807198
0.00811336
0.00833622
0.00863518
0.00790482
0.00502929
2.04375e-06
0.00385225
0.00961282
0.00999786
0.0109879
0.0119728
0.0125264
0.0137597
0.0147041
0.0159977
0.0179875
0.0196766
0.0216003
0.0229246
0.0238339
0.0250665
0.0259507
0.025123
0.0227287
0.0212132
0.0217558
0.0111609
0.0157433
0.0168193
0.0184627
0.0198991
0.0207792
0.0225328
0.0243024
0.0267746
0.0299035
0.0327149
0.0359214
0.0385225
0.0401799
0.0418434
0.0429494
0.0420219
0.0382018
0.0315362
0.0206671
0.0186752
0.0216271
0.023425
0.0259428
0.0277045
0.0288897
0.0311627
0.0338359
0.0372677
0.0417695
0.0458069
0.0502879
0.0540627
0.0567808
0.0589504
0.0607407
0.0586483
0.0540255
0.048255
0.0454771
0.0241682
0.0270223
0.0308545
0.0334128
0.0353647
0.0366617
0.0398029
0.0431045
0.047908
0.0533577
0.0591287
0.0643531
0.069966
0.0733751
0.0772752
0.0785311
0.0772127
0.0700075
0.0601131
0.0454361
0.0430679
0.0321782
0.0373596
0.0406635
0.0427274
0.044201
0.0477893
0.0525273
0.0582533
0.065119
0.0717425
0.0789004
0.0855204
0.0907743
0.0955243
0.0977053
0.0961912
0.0879526
0.075618
0.0588782
0.0506698
0.0366781
0.0446203
0.0475092
0.0498391
0.0510963
0.0560649
0.0615046
0.0687122
0.0765212
0.0844445
0.093419
0.101419
0.108644
0.114335
0.117818
0.116264
0.108088
0.0953885
0.0830865
0.0461416
0.0409505
0.0519112
0.0536787
0.0567145
0.0573331
0.0646204
0.069695
0.0793868
0.0869198
0.0979826
0.107186
0.11814
0.126351
0.135042
0.138602
0.139163
0.129011
0.112288
0.0846321
0.0566184
0.0451306
0.0584865
0.0596541
0.0631472
0.0635201
0.0723927
0.0776426
0.0895281
0.0972081
0.110756
0.12099
0.135145
0.144575
0.156401
0.160926
0.163353
0.152404
0.136221
0.114494
0.0634613
0.0489561
0.064838
0.0644266
0.0690489
0.0683439
0.0802635
0.084627
0.0996514
0.106321
0.124511
0.133374
0.153358
0.161473
0.181056
0.182723
0.192785
0.176332
0.159812
0.12405
0.0804936
0.0531429
0.0701569
0.068822
0.0741089
0.0735493
0.0872872
0.0914084
0.108949
0.115285
0.137044
0.145748
0.171286
0.178654
0.206624
0.20551
0.226419
0.202066
0.192161
0.143853
0.102207
0.0574413
0.074538
0.0725387
0.078358
0.0782528
0.093395
0.0979941
0.117269
0.124034
0.148635
0.158123
0.188643
0.196311
0.232811
0.229856
0.264035
0.230967
0.235524
0.166498
0.109366
0.0620276
0.0776105
0.0754663
0.0818917
0.0825092
0.0985703
0.103392
0.124327
0.131342
0.159462
0.16891
0.205078
0.212989
0.258965
0.254456
0.305443
0.262205
0.291265
0.189886
0.133226
0.0674448
0.0788632
0.0778454
0.0843105
0.0870999
0.102448
0.109308
0.129715
0.140365
0.168377
0.183246
0.219567
0.232925
0.283168
0.283077
0.348519
0.299316
0.358828
0.214198
0.176234
0.0732662
0.0785712
0.0788288
0.0859045
0.0908637
0.105348
0.113732
0.134082
0.146905
0.17543
0.193123
0.231995
0.24909
0.304918
0.309755
0.389538
0.339723
0.430916
0.246083
0.236431
0.0815953
0.0760382
0.0800267
0.08615
0.0954753
0.106282
0.119731
0.136074
0.156849
0.179824
0.209511
0.240715
0.275422
0.32215
0.350761
0.426664
0.407143
0.509717
0.304228
0.358156
0.0878943
0.0727446
0.0815079
0.0871843
0.100165
0.107531
0.124184
0.138602
0.16273
0.185043
0.21819
0.250282
0.291032
0.339415
0.378716
0.461132
0.444937
0.598555
0.364889
0.555502
0.093992
0.0681923
0.0848186
0.085995
0.106337
0.104975
0.133113
0.135726
0.176532
0.180919
0.23938
0.245529
0.327
0.33862
0.442553
0.479038
0.56769
0.639795
0.544137
0.523284
0.0973407
0.065005
0.0869599
0.0852928
0.110413
0.104304
0.139023
0.13535
0.185139
0.181137
0.251388
0.249076
0.347457
0.354039
0.485516
0.529953
0.665006
0.784647
0.771847
1.26508
0.0981156
0.0626894
0.0877202
0.0842668
0.112072
0.103397
0.141604
0.135181
0.188939
0.181106
0.258275
0.248309
0.364797
0.351718
0.536689
0.523588
0.844807
0.746324
1.19414
-0.74686
0.0550053
0.0476557
0.0236365
0.00679076
-0.000225116
-0.00127691
-0.000400138
0.000375371
0.000597133
0.000450583
-0.0452781
-0.0392356
-0.0161197
-5.92389e-05
0.00614319
0.00607689
0.00377831
0.00150514
-6.90053e-05
-0.000999636
0.0693594
0.0607947
0.0339693
0.014064
0.00416846
0.000863895
0.000212155
-8.95473e-05
-0.000827517
-0.00202744
-0.0335721
-0.028294
-0.00697086
0.00687602
0.011159
0.00943119
0.00567709
0.00214601
-0.00044899
-0.00220798
0.0724372
0.0575594
0.0246345
0.000827832
-0.0104914
-0.0125139
-0.0104691
-0.00818582
-0.00736908
-0.00835565
0.0765795
0.0605638
0.0269069
0.00247346
-0.0095735
-0.0124524
-0.0113437
-0.00995441
-0.00995446
-0.0116392
-0.0195865
-0.0167405
0.0017723
0.0127243
0.0140878
0.00947848
0.00291799
-0.00323604
-0.0082295
-0.0121055
0.0909635
0.0783937
0.0473479
0.0225958
0.00734012
-0.00137659
-0.00706872
-0.0118508
-0.0165774
-0.0213539
-0.0106268
-0.0104612
0.00477855
0.0121808
0.00979629
0.00176741
-0.00767848
-0.0162323
-0.023286
-0.0289716
0.0913709
0.0720072
0.0339063
0.00338203
-0.0155922
-0.0255767
-0.0309883
-0.0351598
-0.0398124
-0.0453763
0.0967166
0.0723127
0.0262006
-0.0120618
-0.0362743
-0.0482187
-0.05344
-0.0569386
-0.0615038
-0.0678484
0.0992074
0.0727548
0.0235367
-0.0183451
-0.0460692
-0.0609675
-0.0684467
-0.0737337
-0.0799364
-0.0879387
0.100422
0.0676569
0.0106776
-0.0391138
-0.0735774
-0.0934113
-0.1038
-0.110167
-0.115997
-0.122744
0.105834
0.0591957
-0.0109483
-0.0713153
-0.1148
-0.143186
-0.162376
-0.177865
-0.192661
-0.207519
0.0841956
0.0187704
-0.0569756
-0.112435
-0.144291
-0.158839
-0.165639
-0.171531
-0.179524
-0.190233
-0.0275514
-0.15605
-0.278336
-0.364806
-0.414553
-0.439754
-0.453413
-0.463598
-0.473449
-0.48275
0.0564688
-0.070511
-0.167442
-0.222108
-0.244088
-0.253247
-0.262772
-0.277733
-0.298642
-0.324218
-0.799709
-1.06371
-1.19929
-1.21268
-1.16219
-1.10218
-1.04952
-1.00791
-0.974016
-0.944467
-0.228174
-0.47354
-0.567319
-0.570188
-0.561864
-0.567746
-0.591705
-0.627117
-0.669038
-0.712269
-4.10111
-4.03975
-3.22775
-2.55021
-2.11731
-1.85816
-1.67772
-1.50947
-1.34708
-1.19326
-0.000735859
-0.00186651
-0.00249525
-0.00314035
-0.00317706
-0.00247091
-0.00172882
-0.00106613
0.000962428
0.00314853
0.00560183
0.00842152
0.0129346
0.017208
0.0236042
0.0294865
0.0348753
0.0338137
0.0308043
0.0125305
-0.0033213
-0.00645415
-0.00808462
-0.00923028
-0.00914742
-0.00761409
-0.00590237
-0.00373845
0.00164921
0.00798694
0.0148016
0.0219268
0.0325383
0.0434731
0.0564441
0.0677883
0.0783471
0.076014
0.0565486
0.0197464
-0.00592378
-0.0109941
-0.014018
-0.0161658
-0.0161634
-0.0138015
-0.0107863
-0.00653275
0.00171327
0.0106827
0.0212253
0.0330782
0.0472696
0.0617004
0.0804205
0.09784
0.10976
0.107147
0.0889556
0.0391239
-0.0082279
-0.0157968
-0.020259
-0.0235204
-0.0230866
-0.0195769
-0.0165933
-0.0114631
0.000464296
0.0128663
0.0251276
0.0399631
0.0587865
0.0760987
0.0966454
0.117095
0.129014
0.11764
0.0795703
0.0265635
-0.0144059
-0.0228626
-0.0282883
-0.0326101
-0.0316666
-0.0270449
-0.0235689
-0.0172866
-0.00285426
0.0123792
0.0270759
0.0433751
0.064626
0.0856083
0.106838
0.124836
0.135943
0.131055
0.106634
0.045757
-0.0198968
-0.0305313
-0.0373792
-0.0423913
-0.0398503
-0.0345927
-0.0322446
-0.0244012
-0.00649641
0.0104625
0.026038
0.0442226
0.0668413
0.0891832
0.113991
0.133829
0.140052
0.122176
0.0788937
0.0258796
-0.0248627
-0.0388956
-0.0480025
-0.0536169
-0.0484289
-0.0429456
-0.0431096
-0.0340832
-0.0116398
0.00790415
0.0223745
0.040417
0.0658621
0.0904142
0.110947
0.127193
0.135994
0.130291
0.106151
0.0440517
-0.0360776
-0.0515624
-0.0621514
-0.0671507
-0.0582453
-0.0533397
-0.0563955
-0.0459908
-0.0195462
0.00260335
0.0181658
0.0347603
0.0589846
0.0856281
0.113679
0.131964
0.13354
0.112388
0.0705826
0.0238961
-0.0472418
-0.0653459
-0.0780439
-0.0802291
-0.0662829
-0.0647113
-0.072808
-0.059017
-0.0266468
-0.00309869
0.00960378
0.0262235
0.0530421
0.081634
0.104567
0.119276
0.124768
0.117622
0.0957646
0.039454
-0.0662333
-0.0854385
-0.0983783
-0.093538
-0.0735446
-0.0791243
-0.0933016
-0.0752606
-0.0361951
-0.00931974
0.00161328
0.0113668
0.0353121
0.0691364
0.100527
0.117074
0.117828
0.0994834
0.0636706
0.022553
-0.0917578
-0.113786
-0.124695
-0.102918
-0.0748166
-0.0936386
-0.116943
-0.0910063
-0.0417629
-0.0124445
-0.00624281
0.00013855
0.0246459
0.0578716
0.0895076
0.107401
0.113871
0.106853
0.0862285
0.0356893
-0.118916
-0.148401
-0.168476
-0.129618
-0.0885551
-0.124351
-0.158107
-0.122719
-0.0592697
-0.021109
-0.0193888
-0.0253794
-0.00625036
0.0329308
0.0737077
0.0985717
0.105411
0.0929322
0.062381
0.022781
-0.150949
-0.171011
-0.164879
-0.0936512
-0.0595525
-0.135365
-0.188464
-0.138691
-0.0560224
-0.0122719
-0.0223425
-0.0427393
-0.0300075
0.00926323
0.0554267
0.0909828
0.108704
0.103632
0.0801464
0.0325404
-0.252876
-0.29001
-0.28612
-0.140498
-0.0768714
-0.196701
-0.267954
-0.191854
-0.0737597
-0.00863586
-0.0343569
-0.0828753
-0.0792778
-0.031441
0.0280893
0.0760117
0.101042
0.0942892
0.0653173
0.0239643
-0.232967
-0.275005
-0.223851
-0.0353579
-0.00554826
-0.223364
-0.342605
-0.236584
-0.0641478
0.0256794
-0.0308871
-0.119777
-0.135593
-0.0836811
-0.00815895
0.0611487
0.103718
0.104146
0.0763206
0.0294819
-0.504258
-0.536306
-0.43558
-0.0439522
0.00816396
-0.332305
-0.483795
-0.315993
-0.0591956
0.0679826
-0.0332098
-0.18366
-0.220587
-0.144988
-0.0424315
0.04145
0.0868567
0.0867297
0.0591074
0.0198277
-0.414497
-0.578546
-0.391538
0.150042
0.128429
-0.460821
-0.734629
-0.447852
-0.0358139
0.159566
-0.0255405
-0.279976
-0.353157
-0.242637
-0.103656
0.0017567
0.0626911
0.0771734
0.0612745
0.0234846
-0.83522
-0.972704
-0.681811
0.319776
0.207317
-0.631259
-1.0069
-0.622527
0.00643011
0.285476
-0.00591106
-0.408146
-0.510301
-0.345659
-0.150483
-0.0203849
0.0492378
0.0713776
0.0591193
0.0237358
-0.880346
-1.3947
-1.01153
0.570272
0.262548
-1.07038
-1.56411
-0.873095
0.0430363
0.430936
0.0522722
-0.510342
-0.694276
-0.472994
-0.218583
-0.0460377
0.0380393
0.0662828
0.0587089
0.0261504
-0.793941
-1.85829
-1.38731
1.0395
0.824856
-1.04996
-1.85154
-1.05254
0.00917006
0.480501
0.0565055
-0.503881
-0.672806
-0.472727
-0.222945
-0.0450402
0.0388172
0.0676983
0.0584984
0.0260812
-1.3178
-2.18446
-1.63024
0.508295
0.454498
-1.0047
-1.71157
-1.0641
-0.241161
0.144285
-0.164434
-0.522188
-0.584086
-0.396215
-0.177757
-0.0224278
0.0487173
0.0720794
0.0592774
0.0264637
-1.27159
-2.23026
-1.69723
0.205416
0.214535
-0.980736
-1.68356
-1.06711
-0.361145
-0.0283524
-0.288934
-0.540122
-0.54198
-0.356839
-0.152929
-0.0101989
0.0540148
0.0744547
0.0598685
0.0266746
-1.37997
-2.28796
-1.69064
-0.144151
-0.0971645
-0.957402
-1.59684
-1.06013
-0.487001
-0.228096
-0.433553
-0.566383
-0.499252
-0.312478
-0.124286
0.00407084
0.0604527
0.0774465
0.0607963
0.0268684
-1.43406
-2.26199
-1.5842
-0.506845
-0.434648
-0.919948
-1.45828
-1.03851
-0.620581
-0.449097
-0.591384
-0.601018
-0.458335
-0.26558
-0.0922571
0.0205425
0.0682423
0.0811097
0.062034
0.0270674
-1.52734
-2.16637
-1.3942
-0.837124
-0.770944
-0.860025
-1.26969
-1.00252
-0.755879
-0.680181
-0.751592
-0.640875
-0.420833
-0.217057
-0.0574089
0.0390921
0.0773773
0.0854335
0.0635905
0.0273004
-1.61612
-1.98958
-1.14602
-1.10858
-1.0629
-0.767103
-1.03504
-0.951185
-0.885165
-0.910279
-0.90713
-0.682974
-0.387636
-0.168094
-0.0204541
0.059471
0.0878177
0.0904293
0.0654991
0.0275844
-1.68051
-1.75529
-0.870915
-1.30558
-1.2867
-0.641322
-0.764202
-0.883294
-1.00403
-1.12944
-1.05241
-0.724194
-0.35855
-0.119733
0.0179571
0.0814476
0.0995336
0.0961078
0.0677776
0.0279294
-1.86498
-1.48261
-0.592241
-1.43126
-1.4255
-0.492155
-0.470423
-0.79961
-1.11074
-1.32953
-1.18362
-0.761949
-0.332846
-0.0727784
0.0573245
0.104766
0.112453
0.10245
0.0704247
0.0283444
-1.79028
-1.19035
-0.332991
-1.49662
-1.47649
-0.3237
-0.163817
-0.702017
-1.20469
-1.50493
-1.29767
-0.793903
-0.30945
-0.0278916
0.0967372
0.129108
0.126441
0.109398
0.0734173
0.0288316
-2.11764
-0.887753
-0.119529
-1.52198
-1.44818
-0.121848
0.116481
-0.59707
-1.28816
-1.65359
-1.39245
-0.817548
-0.286892
0.0147264
0.135732
0.154102
0.141291
0.116873
0.0767346
0.0294011
-1.55277
-0.269299
0.135248
-1.54391
-1.29767
0.275875
0.59251
-0.412482
-1.41333
-1.85978
-1.51941
-0.840471
-0.24741
0.0827735
0.199747
0.196463
0.167196
0.130047
0.0826986
0.0304319
-1.46538
-0.0896764
0.0280338
-1.49666
-1.17769
0.445569
0.84118
-0.234881
-1.53295
-2.02609
-1.60187
-0.819326
-0.179387
0.168618
0.281579
0.255348
0.204595
0.150107
0.0921911
0.0325406
-1.21787
-0.260363
-0.287651
-1.31842
-0.873336
0.508182
0.68518
-0.255655
-1.58904
-2.07892
-1.58935
-0.750432
-0.0989404
0.244041
0.349812
0.305729
0.238998
0.169604
0.101755
0.0349441
-0.853869
-0.295232
-0.210404
-0.955606
-0.622469
0.476313
0.670545
-0.258764
-1.52695
-2.0003
-1.4709
-0.637176
-0.0115621
0.309238
0.402811
0.347996
0.269529
0.187884
0.111172
0.037589
-0.826024
-0.391557
-0.215362
-0.713404
-0.437687
0.319626
0.447942
-0.275538
-1.34486
-1.73568
-1.24793
-0.502398
0.0620083
0.357412
0.440691
0.381438
0.295554
0.204198
0.119785
0.0400667
-0.592637
-0.342669
-0.188727
-0.509788
-0.333663
0.22854
0.30914
-0.246621
-1.06955
-1.39878
-0.987327
-0.368206
0.116282
0.385488
0.463899
0.406327
0.317566
0.219354
0.12837
0.0427556
-0.522693
-0.351725
-0.199252
-0.403054
-0.277631
0.0944524
0.182748
-0.212221
-0.812553
-1.05933
-0.731574
-0.247693
0.15006
0.392834
0.472867
0.422728
0.334672
0.232017
0.135698
0.0449156
-0.427034
-0.316794
-0.195632
-0.315083
-0.239496
0.0377098
0.0980882
-0.17914
-0.608534
-0.78416
-0.530352
-0.154003
0.171261
0.3882
0.470346
0.431423
0.347565
0.243771
0.143491
0.0475574
-0.348123
-0.285727
-0.190324
-0.253565
-0.210341
-0.0160116
0.036174
-0.157156
-0.466747
-0.587057
-0.379031
-0.0809087
0.184419
0.375827
0.460419
0.433577
0.354886
0.250809
0.148291
0.0489402
-0.284254
-0.254127
-0.17921
-0.208312
-0.186507
-0.049089
-0.00343163
-0.141983
-0.364286
-0.444042
-0.275894
-0.0274375
0.19306
0.359512
0.441429
0.426521
0.357093
0.257931
0.155226
0.0516037
-0.23323
-0.222351
-0.16573
-0.174433
-0.164178
-0.0678473
-0.0278613
-0.126539
-0.285505
-0.337049
-0.194865
0.0127469
0.196615
0.340323
0.420105
0.416586
0.355095
0.25778
0.155322
0.0514871
-0.189333
-0.191276
-0.150246
-0.147201
-0.143393
-0.0769757
-0.0410022
-0.110563
-0.224165
-0.254625
-0.13497
0.0397563
0.196246
0.321496
0.394706
0.396842
0.345844
0.259007
0.161938
0.0545378
-0.152561
-0.162078
-0.133274
-0.124349
-0.124029
-0.0780444
-0.0462041
-0.0948467
-0.174962
-0.191157
-0.090574
0.0581497
0.192133
0.298846
0.365315
0.375925
0.334618
0.251787
0.155768
0.0519895
-0.123259
-0.135467
-0.116022
-0.104701
-0.106138
-0.0744657
-0.0465727
-0.0793544
-0.136055
-0.142699
-0.0574231
0.0682537
0.182171
0.274369
0.334815
0.34655
0.313929
0.244937
0.161273
0.0556706
-0.0978869
-0.110814
-0.0981509
-0.0867329
-0.0891422
-0.0670519
-0.0431517
-0.0651965
-0.104874
-0.104364
-0.0338223
0.0702545
0.168051
0.247086
0.299265
0.313954
0.291474
0.230007
0.148564
0.0497846
-0.0758293
-0.0880725
-0.0800555
-0.069683
-0.0726732
-0.0574195
-0.0374203
-0.0516839
-0.0793839
-0.0752355
-0.0176621
0.067452
0.14899
0.214658
0.260303
0.274895
0.258723
0.211649
0.148552
0.0531076
-0.0565485
-0.0669353
-0.0619708
-0.0536172
-0.0564933
-0.0458456
-0.0301358
-0.0392478
-0.0580658
-0.0522977
-0.00725783
0.0590092
0.125022
0.178987
0.216325
0.228978
0.220844
0.184517
0.128174
0.0429967
-0.0391421
-0.047096
-0.0439398
-0.037791
-0.0406321
-0.0337182
-0.0216127
-0.0272051
-0.0400893
-0.0339848
-0.000734799
0.0466563
0.0955011
0.136561
0.165806
0.176418
0.172866
0.14906
0.114218
0.0422409
-0.0230682
-0.0279611
-0.0261901
-0.0227939
-0.0245482
-0.0201412
-0.0129742
-0.0164693
-0.0235966
-0.0190293
0.00128395
0.0309247
0.0623865
0.0883779
0.107048
0.113264
0.113532
0.10037
0.0783484
0.0259399
-0.00739442
-0.00937392
-0.00830228
-0.00729755
-0.00879243
-0.00699318
-0.00369788
-0.00530488
-0.00806019
-0.00601804
0.00101177
0.0111306
0.0226838
0.0334133
0.0411621
0.0427359
0.0437441
0.0394062
0.0359246
0.0136136
-5.0606
-4.74291
-3.60847
-2.84712
-2.46168
-2.28188
-2.13371
-2.00922
-1.90116
-1.82791
-1.26118
-1.52488
-1.53778
-1.45786
-1.39452
-1.36592
-1.37058
-1.38583
-1.40802
-1.41993
-1.47296
-1.82278
-1.92801
-1.85656
-1.7437
-1.64581
-1.57471
-1.52078
-1.47584
-1.42536
-0.744812
-0.956862
-1.0261
-1.00185
-0.958031
-0.924686
-0.907039
-0.900086
-0.897533
-0.892303
-0.449559
-0.661957
-0.799384
-0.864347
-0.887253
-0.893908
-0.89648
-0.897552
-0.895648
-0.888644
-0.275698
-0.448154
-0.572159
-0.636661
-0.656262
-0.654922
-0.647253
-0.639718
-0.632528
-0.625456
-0.148986
-0.283437
-0.392206
-0.457475
-0.486131
-0.496239
-0.501128
-0.506514
-0.512714
-0.518848
-0.0657673
-0.169785
-0.266911
-0.332535
-0.36833
-0.385559
-0.395093
-0.402767
-0.410083
-0.416699
-0.016653
-0.0964474
-0.181757
-0.243289
-0.279888
-0.29868
-0.308969
-0.316423
-0.32337
-0.329976
0.00859377
-0.0520352
-0.125348
-0.180456
-0.214319
-0.231954
-0.241493
-0.248313
-0.254949
-0.261728
0.0212616
-0.0244804
-0.0866028
-0.134835
-0.165039
-0.181113
-0.190104
-0.196874
-0.203716
-0.210938
0.0226112
-0.0102506
-0.056874
-0.0935605
-0.118052
-0.133391
-0.143807
-0.152139
-0.159739
-0.166938
-0.0379091
-0.0495794
-0.0535753
-0.0635937
-0.0781202
-0.0928409
-0.105525
-0.115808
-0.124101
-0.130945
0.025584
0.00650089
-0.023505
-0.0462868
-0.0615388
-0.0727829
-0.0822401
-0.0906827
-0.0981637
-0.10469
-0.0387271
-0.0432996
-0.0379555
-0.0387485
-0.0456209
-0.0544138
-0.0627496
-0.0700317
-0.0763489
-0.0818206
0.0280094
0.0137785
-0.0108149
-0.0278052
-0.0370063
-0.0428497
-0.0479306
-0.0529645
-0.0578364
-0.0623039
-0.0364957
-0.0368023
-0.0267468
-0.0228601
-0.0252294
-0.0298724
-0.0345678
-0.0387287
-0.0425045
-0.0459298
0.0315759
0.0208234
-0.000358025
-0.0138697
-0.0196144
-0.0221334
-0.0241853
-0.0265094
-0.0290572
-0.0315024
-0.0339774
-0.0306544
-0.0169523
-0.00967444
-0.0090066
-0.0109642
-0.0132665
-0.0152044
-0.0169338
-0.0184517
0.0307649
0.0238519
0.00764685
-0.00154524
-0.00403349
-0.00418436
-0.00429976
-0.00466915
-0.0051617
-0.00550131
0.0925668
0.0542101
0.0826526
0.0755138
0.106687
0.0926972
0.134919
0.122085
0.181016
0.166137
0.250003
0.232695
0.358771
0.331022
0.536907
0.488758
0.870328
0.688868
1.38653
-1.18035
0.0905094
0.0529113
0.0800769
0.0740849
0.103261
0.0909018
0.130597
0.120337
0.174402
0.163774
0.240755
0.230681
0.342218
0.327297
0.50194
0.480357
0.745656
0.683825
0.769753
0.695323
0.0874371
0.0520457
0.0768376
0.072292
0.0989042
0.0887102
0.12492
0.117517
0.1659
0.160314
0.22881
0.225517
0.322152
0.317561
0.463438
0.451963
0.646237
0.620549
0.642961
0.686899
0.0833031
0.0514943
0.0728564
0.0702398
0.0935298
0.0864493
0.117604
0.114553
0.155295
0.157041
0.212901
0.220979
0.29533
0.311677
0.409145
0.442983
0.533127
0.596849
0.433309
0.599364
0.0782163
0.0511304
0.0685744
0.0678992
0.0878003
0.084083
0.110151
0.111289
0.144881
0.153179
0.197466
0.215264
0.269988
0.303481
0.371353
0.426152
0.471895
0.562822
0.332773
0.53958
0.07219
0.051093
0.064017
0.0655895
0.0815984
0.0820123
0.102006
0.108489
0.133143
0.149445
0.179657
0.209099
0.245457
0.293113
0.334638
0.406336
0.406541
0.517014
0.25518
0.434034
0.0655698
0.0513179
0.0594842
0.0631523
0.0750865
0.0798658
0.0939617
0.105298
0.122119
0.144279
0.165407
0.20062
0.225826
0.281259
0.306665
0.382645
0.356188
0.463971
0.205537
0.33842
0.0583391
0.0517692
0.0551991
0.060465
0.0684713
0.0771743
0.0865238
0.101272
0.1124
0.138321
0.151933
0.191615
0.207047
0.267515
0.27697
0.355431
0.3104
0.409294
0.170963
0.257876
0.0509339
0.0516723
0.051711
0.0574143
0.0625123
0.0736764
0.0795127
0.0966717
0.103184
0.13169
0.139508
0.18188
0.189472
0.251232
0.249955
0.325778
0.27146
0.357178
0.14895
0.192848
0.0439242
0.0508561
0.0484159
0.0541617
0.0566637
0.069596
0.0726516
0.0914186
0.0942435
0.124323
0.127749
0.170954
0.172518
0.232709
0.224807
0.294009
0.23872
0.307541
0.133759
0.141456
0.0375227
0.0492074
0.0450217
0.0505943
0.0509098
0.0649356
0.0658701
0.0854266
0.0854827
0.116122
0.116196
0.158707
0.155822
0.212741
0.200609
0.261969
0.209609
0.261769
0.120325
0.104143
0.031709
0.0467559
0.0413675
0.046668
0.045239
0.0597513
0.0590701
0.0787372
0.0767842
0.106965
0.104552
0.145139
0.139373
0.191505
0.177784
0.229991
0.184019
0.219106
0.11008
0.0711356
0.0264419
0.0435363
0.0374419
0.0423595
0.039665
0.0540479
0.0523088
0.0713374
0.0681491
0.0967448
0.0931232
0.130305
0.123287
0.169008
0.156572
0.198074
0.161646
0.179245
0.102244
0.0502715
0.021635
0.0396135
0.0332409
0.0376838
0.0341518
0.0478876
0.0455216
0.0633023
0.0593974
0.0856406
0.0814287
0.114491
0.107183
0.146164
0.135885
0.167389
0.139727
0.144442
0.0865342
0.0364839
0.0172371
0.0350459
0.0287892
0.0326408
0.0286931
0.0413101
0.0387021
0.0546735
0.0505454
0.0737141
0.0695707
0.0978469
0.0911055
0.123049
0.115679
0.138003
0.118295
0.114613
0.0755754
0.0307724
0.0132307
0.0298642
0.0240882
0.0272665
0.0232992
0.0343669
0.0318131
0.0455236
0.0415888
0.0611109
0.0574869
0.0805869
0.0750275
0.0999112
0.0955773
0.110002
0.097182
0.0888519
0.0588363
0.0221569
0.00960261
0.0241204
0.0191596
0.021578
0.0179596
0.0271153
0.0248841
0.035924
0.0324769
0.0480002
0.0452095
0.0629655
0.0587155
0.0769371
0.0753872
0.0835105
0.0759461
0.066533
0.0468314
0.0192089
0.00636074
0.0178349
0.0140249
0.0156489
0.0127068
0.0195629
0.0178443
0.0260039
0.0233048
0.0344841
0.0326013
0.0450911
0.0422934
0.0543951
0.0545558
0.0583836
0.0546161
0.0461836
0.0304958
0.0121205
0.00347929
0.0110732
0.00840274
0.00946885
0.00752422
0.0119078
0.0107735
0.0157056
0.0139847
0.020828
0.0198672
0.0270903
0.0253855
0.0322651
0.033364
0.0345776
0.0327575
0.0274601
0.0200526
0.00910586
0.00102857
0.0037363
0.00312547
0.00322874
0.00248095
0.00381076
0.00370897
0.00535878
0.00469781
0.00676663
0.00665637
0.00915473
0.0087209
0.0105572
0.0109939
0.0114838
0.011227
0.00911735
0.00507477
0.00118972
0.0976275
0.0607901
0.0886108
0.0817946
0.113527
0.10016
0.143789
0.130279
0.192742
0.174801
0.264948
0.239994
0.378111
0.34068
0.570238
0.511285
0.970831
0.817854
2.19157
1.07409
0.0972486
0.0602971
0.0886124
0.0812455
0.113568
0.0995662
0.143948
0.129858
0.19286
0.174691
0.265472
0.240352
0.379858
0.34153
0.576235
0.516505
0.99328
0.86907
2.28499
1.71503
0.0968914
0.0597655
0.0885008
0.080628
0.113494
0.098802
0.14394
0.128915
0.192951
0.173076
0.266032
0.238993
0.381998
0.340369
0.583102
0.515978
1.0259
0.896267
2.45907
2.16244
0.0965355
0.0592007
0.0882823
0.0800119
0.113283
0.0980664
0.143677
0.128061
0.192719
0.172415
0.266094
0.238479
0.383052
0.340006
0.586827
0.51746
1.03953
0.921037
2.51735
2.39112
0.0961536
0.0586155
0.0879442
0.0793947
0.112917
0.0973287
0.143183
0.127173
0.192201
0.171572
0.26563
0.237649
0.383089
0.339073
0.588173
0.515871
1.04781
0.92427
2.55605
2.49865
0.0957321
0.0580086
0.0874774
0.0787686
0.112391
0.0965889
0.142447
0.12625
0.191348
0.170718
0.264603
0.236756
0.382111
0.338089
0.586917
0.513035
1.04626
0.914056
2.55686
2.43891
0.0952617
0.0573763
0.0868835
0.0781341
0.111707
0.0958463
0.141472
0.125322
0.190173
0.169854
0.263032
0.235821
0.380101
0.336899
0.582996
0.509064
1.03049
0.889092
2.50495
2.22523
0.0947421
0.0567121
0.0861701
0.077497
0.110881
0.0951048
0.140314
0.12442
0.188697
0.168967
0.260971
0.234839
0.37716
0.335413
0.577044
0.50369
1.01529
0.847668
2.43885
1.85252
0.0941909
0.0560135
0.0853667
0.0768692
0.109925
0.0943788
0.139013
0.123578
0.18694
0.168084
0.25838
0.233892
0.373157
0.333897
0.568048
0.498175
0.977661
0.804193
2.25603
1.26465
0.0936169
0.0553024
0.084455
0.0763047
0.108822
0.0937052
0.137583
0.122876
0.184912
0.167242
0.255584
0.233061
0.368834
0.332253
0.559308
0.492557
0.948171
0.75026
2.11004
0.449359
)
;

boundaryField
{
    inlet
    {
        type            zeroGradient;
    }
    outlet
    {
        type            fixedValue;
        value           uniform 0;
    }
    upAndBottom
    {
        type            empty;
    }
    obstacle
    {
        type            zeroGradient;
    }
}


// ************************************************************************* //
