/*--------------------------------*- C++ -*----------------------------------*\
| =========                 |                                                 |
| \\      /  F ield         | OpenFOAM: The Open Source CFD Toolbox           |
|  \\    /   O peration     | Version:  v1806                                 |
|   \\  /    A nd           | Web:      www.OpenFOAM.com                      |
|    \\/     M anipulation  |                                                 |
\*---------------------------------------------------------------------------*/
FoamFile
{
    version     2.0;
    format      ascii;
    class       volScalarField;
    location    "310";
    object      p;
}
// * * * * * * * * * * * * * * * * * * * * * * * * * * * * * * * * * * * * * //

dimensions      [0 2 -2 0 0 0 0];


internalField   nonuniform List<scalar> 
4400
(
0.0073626
0.00933399
0.00884372
0.00735652
0.00590771
0.00464543
0.00363868
0.00289641
0.00236687
0.00198099
0.00168548
0.00144456
0.00123555
0.00104553
0.000867798
0.000698749
0.000536101
0.000378081
0.000223189
7.15486e-05
0.0251383
0.0174688
0.0124484
0.00940846
0.00740002
0.00599492
0.00496302
0.00418125
0.00356809
0.00306508
0.0026348
0.00225588
0.00191585
0.0016065
0.00132159
0.00105607
0.00080563
0.000566377
0.000334948
0.000109445
0.0194543
0.0163202
0.0136901
0.0114943
0.0097542
0.00828782
0.00701148
0.0059122
0.0049828
0.00420469
0.00355182
0.00299766
0.00251894
0.00209676
0.00171663
0.00136765
0.00104161
0.000732017
0.000433727
0.000142914
0.0190613
0.0165546
0.0140709
0.0118867
0.0100711
0.00859648
0.00737288
0.00634009
0.00545963
0.00470173
0.00404101
0.00345679
0.00293315
0.00245784
0.00202116
0.00161505
0.00123262
0.000867818
0.000515381
0.000170686
0.0152245
0.0139363
0.0126035
0.011282
0.0100135
0.00884842
0.00779047
0.00682794
0.00595507
0.00516834
0.00446191
0.00382708
0.00325355
0.00273091
0.00224941
0.00180038
0.00137626
0.000970469
0.00057741
0.000191859
0.0138477
0.0128953
0.0118075
0.0106722
0.00957072
0.00853918
0.00759313
0.00673058
0.00594398
0.00522522
0.00456645
0.00395989
0.00339806
0.00287408
0.00238168
0.00191517
0.0014692
0.00103882
0.000619451
0.000206338
0.0116444
0.011065
0.0103957
0.00966101
0.00889199
0.0081148
0.00735256
0.00661797
0.00591659
0.00525148
0.0046239
0.00403323
0.00347723
0.00295238
0.00245452
0.00197914
0.00152175
0.00107799
0.000643823
0.000214784
0.0105244
0.0100721
0.00952273
0.00890511
0.00825245
0.00758871
0.00693044
0.006289
0.00567011
0.005076
0.00450704
0.00396244
0.00344061
0.00293945
0.00245652
0.00198915
0.00153452
0.00108976
0.000652029
0.000217811
0.00915306
0.00884361
0.0084649
0.00802679
0.00754382
0.00703064
0.0064996
0.00596163
0.00542465
0.00489421
0.00437407
0.00386655
0.00337268
0.00289243
0.00242496
0.00196879
0.00152206
0.0010827
0.000648595
0.000216825
0.0083171
0.00806075
0.00774021
0.0073658
0.00695158
0.00650933
0.00604916
0.00557925
0.00510587
0.00463343
0.0041648
0.00370179
0.00324539
0.00279594
0.00235328
0.00191684
0.00148575
0.00105894
0.000635194
0.000212493
0.00740894
0.00721696
0.00697482
0.00668728
0.00636088
0.00600314
0.00562096
0.00522069
0.00480799
0.00438755
0.00396308
0.0035374
0.00311253
0.00268978
0.00226982
0.00185283
0.00143859
0.00102663
0.00061633
0.000206226
0.00679559
0.00662912
0.00641777
0.00616562
0.00587927
0.0055646
0.00522721
0.00487213
0.00450373
0.00412561
0.00374068
0.00335121
0.00295892
0.00256507
0.00217055
0.00177591
0.00138142
0.000987189
0.00059315
0.000198511
0.00617831
0.00604415
0.00587231
0.00566544
0.00542672
0.00516012
0.00486954
0.00455876
0.00423138
0.0038907
0.00353959
0.00318053
0.00281556
0.00244629
0.00207399
0.00169956
0.00132366
0.000946757
0.000569135
0.000190442
0.00574027
0.00561975
0.00546534
0.0052789
0.00506387
0.00482342
0.00456074
0.00427893
0.00398087
0.00366917
0.00334616
0.00301385
0.002674
0.00232808
0.00197736
0.00162286
0.00126547
0.000905932
0.000544842
0.000182285
0.00532724
0.00522398
0.00509065
0.00492887
0.00474042
0.00452757
0.00429271
0.00403822
0.0037665
0.00347983
0.00318039
0.00287016
0.00255092
0.00222428
0.00189161
0.00155411
0.00121285
0.000868738
0.000522582
0.000174767
0.0050342
0.00493851
0.00481508
0.00466495
0.00449019
0.00429275
0.00407463
0.00383789
0.00358451
0.00331642
0.00303544
0.00274327
0.00244149
0.00213154
0.00181476
0.00149239
0.00116554
0.000835266
0.000502529
0.000168001
0.00477858
0.00469179
0.0045794
0.00444251
0.00428229
0.00410027
0.00389804
0.00367727
0.00343965
0.00318691
0.00292072
0.00264272
0.00235448
0.00205747
0.00175306
0.00144255
0.00112714
0.000807985
0.000486122
0.000162433
0.00461072
0.00452719
0.00441979
0.00428907
0.00413626
0.00396266
0.00376963
0.00355865
0.00333122
0.00308887
0.00283312
0.00256546
0.00228733
0.00200014
0.00170523
0.00140389
0.00109735
0.0007868
0.000473367
0.000158105
0.00448828
0.00440866
0.00430646
0.00418209
0.00403619
0.00386983
0.00368423
0.00348072
0.00326067
0.00302553
0.00277676
0.00251584
0.0022442
0.00196325
0.00167437
0.00137886
0.00107799
0.000772986
0.000465017
0.000155248
0.00444417
0.00436645
0.004265
0.00414108
0.00399591
0.00383064
0.00364653
0.0034449
0.00322713
0.00299458
0.00274866
0.00249073
0.00222218
0.00194433
0.00165851
0.00136601
0.00106807
0.000765915
0.000460751
0.000153792
0.0259998
0.0303764
0.0338146
0.0366578
0.0389919
0.0408564
0.0422918
0.0433327
0.0440044
0.0443232
0.0442975
0.043928
0.0432079
0.0421221
0.0406468
0.0387484
0.036388
0.0335237
0.0300429
0.0255717
0.0334255
0.0345657
0.035498
0.0362669
0.0368981
0.0374035
0.0377904
0.0380641
0.0382287
0.0382863
0.0382382
0.0380844
0.0378237
0.0374538
0.0369702
0.0363663
0.0356388
0.0347963
0.0338028
0.0323605
0.0219405
0.0225142
0.0230488
0.023533
0.0239589
0.0243206
0.024613
0.0248325
0.0249763
0.0250426
0.0250302
0.024939
0.0247696
0.0245232
0.0242022
0.0238097
0.0233499
0.0228277
0.0222501
0.0216311
0.0213404
0.021612
0.0218542
0.0220654
0.0222439
0.0223884
0.0224976
0.0225706
0.0226068
0.0226054
0.0225663
0.0224894
0.0223748
0.0222227
0.0220337
0.0218086
0.0215491
0.0212584
0.0209334
0.0205481
0.0157367
0.015879
0.0160085
0.016124
0.0162244
0.0163088
0.0163764
0.0164266
0.0164588
0.0164726
0.016468
0.0164448
0.0164034
0.0163439
0.016267
0.0161735
0.0160636
0.0159374
0.0157982
0.015662
0.0147931
0.014881
0.014958
0.0150237
0.0150777
0.0151198
0.0151497
0.0151673
0.0151722
0.0151646
0.0151443
0.0151113
0.0150658
0.0150079
0.0149377
0.0148555
0.0147619
0.0146584
0.0145434
0.014404
0.0118408
0.0118926
0.0119388
0.0119793
0.0120139
0.0120424
0.0120647
0.0120808
0.0120904
0.0120936
0.0120903
0.0120805
0.0120643
0.0120416
0.0120127
0.0119777
0.0119363
0.0118881
0.0118346
0.0117853
0.0109941
0.0110313
0.0110634
0.0110903
0.011112
0.0111283
0.0111393
0.0111449
0.011145
0.0111396
0.0111288
0.0111126
0.0110909
0.0110639
0.0110315
0.0109939
0.0109513
0.0109043
0.0108521
0.0107878
0.00928123
0.00930577
0.0093274
0.00934604
0.00936167
0.00937423
0.0093837
0.00939006
0.00939327
0.00939333
0.00939022
0.00938395
0.00937452
0.00936194
0.00934624
0.00932748
0.00930552
0.00928002
0.0092517
0.00922575
0.00858238
0.00860166
0.00861817
0.00863186
0.00864274
0.00865076
0.00865591
0.00865819
0.00865759
0.00865411
0.00864774
0.00863851
0.00862641
0.00861147
0.00859369
0.00857309
0.00854981
0.00852416
0.00849574
0.00846076
0.00751125
0.00752527
0.00753746
0.00754782
0.00755631
0.00756294
0.0075677
0.00757056
0.00757153
0.0075706
0.00756776
0.00756303
0.00755639
0.00754786
0.00753744
0.00752516
0.00751095
0.0074946
0.0074765
0.00745938
0.00696327
0.00697494
0.00698487
0.00699306
0.00699949
0.00700416
0.00700707
0.0070082
0.00700756
0.00700514
0.00700096
0.00699501
0.00698729
0.00697782
0.0069666
0.00695363
0.00693898
0.00692282
0.00690494
0.0068833
0.00626521
0.0062744
0.00628231
0.00628893
0.00629426
0.00629829
0.00630101
0.00630243
0.00630255
0.00630135
0.00629883
0.00629501
0.00628988
0.00628343
0.00627569
0.00626665
0.00625628
0.00624448
0.00623143
0.0062186
0.00585805
0.00586605
0.00587283
0.00587839
0.00588272
0.00588583
0.00588771
0.00588835
0.00588776
0.00588593
0.00588287
0.00587859
0.00587307
0.00586633
0.00585837
0.00584918
0.00583881
0.00582734
0.00581466
0.00579968
0.00540359
0.00541033
0.00541609
0.00542085
0.00542462
0.00542739
0.00542916
0.00542994
0.00542971
0.00542847
0.00542624
0.005423
0.00541876
0.00541352
0.00540728
0.00540006
0.00539182
0.00538251
0.00537224
0.0053618
0.0051253
0.00513141
0.00513657
0.00514079
0.00514405
0.00514637
0.00514773
0.00514814
0.00514759
0.00514609
0.00514364
0.00514023
0.00513588
0.00513058
0.00512433
0.00511713
0.005109
0.0051
0.00509007
0.0050786
0.00484865
0.00485411
0.00485875
0.00486255
0.00486552
0.00486765
0.00486894
0.0048694
0.00486902
0.0048678
0.00486574
0.00486285
0.00485912
0.00485455
0.00484916
0.00484293
0.00483586
0.00482792
0.00481918
0.00481004
0.0046899
0.00469505
0.00469939
0.00470291
0.00470563
0.00470752
0.0047086
0.00470887
0.00470831
0.00470694
0.00470476
0.00470175
0.00469793
0.00469329
0.00468784
0.00468157
0.0046745
0.00466665
0.00465799
0.00464816
0.00455764
0.00456251
0.00456662
0.00456996
0.00457253
0.00457434
0.00457538
0.00457565
0.00457515
0.00457388
0.00457184
0.00456903
0.00456545
0.0045611
0.00455598
0.00455009
0.00454342
0.00453597
0.00452775
0.00451901
0.00451416
0.00451897
0.00452304
0.00452635
0.0045289
0.0045307
0.00453174
0.00453202
0.00453155
0.00453032
0.00452833
0.00452559
0.0045221
0.00451785
0.00451286
0.00450711
0.00450063
0.00449341
0.00448547
0.00447668
0.00914232
0.00940425
0.00961333
0.00978628
0.00992619
0.0100341
0.0101148
0.0101773
0.0102354
0.0103082
0.0104205
0.0106024
0.0108897
0.0113252
0.0119633
0.0128612
0.0140399
0.0154624
0.0172634
0.0203625
0.0110123
0.0115294
0.0121234
0.0127703
0.0134743
0.0142443
0.0150861
0.016004
0.0170008
0.0180778
0.0192341
0.0204669
0.0217711
0.0231398
0.0245635
0.0260302
0.0275261
0.0290403
0.0305656
0.0320673
0.0124753
0.0127853
0.0131106
0.0134536
0.0138141
0.0141922
0.014588
0.0150015
0.0154325
0.015881
0.0163471
0.016831
0.0173334
0.0178548
0.0183956
0.0189556
0.0195338
0.0201279
0.0207337
0.0213424
0.013284
0.0136901
0.0140965
0.0145104
0.0149322
0.0153601
0.0157927
0.0162286
0.0166662
0.0171039
0.0175398
0.0179721
0.0183988
0.0188178
0.019227
0.0196241
0.0200066
0.0203722
0.0207181
0.0210417
0.0118482
0.0120368
0.012236
0.0124379
0.0126409
0.0128452
0.0130508
0.0132572
0.013464
0.0136708
0.013877
0.0140822
0.0142855
0.0144863
0.0146837
0.0148767
0.0150643
0.0152454
0.0154186
0.0155828
0.0114866
0.0116965
0.0118971
0.012096
0.0122938
0.0124895
0.0126822
0.0128716
0.0130572
0.0132384
0.0134148
0.0135858
0.0137509
0.0139095
0.014061
0.014205
0.0143409
0.0144681
0.0145862
0.0146947
0.0100259
0.0101321
0.010243
0.010353
0.0104612
0.0105678
0.0106728
0.0107759
0.010877
0.0109758
0.0110721
0.0111656
0.0112561
0.0113434
0.0114272
0.0115072
0.0115831
0.0116546
0.0117216
0.0117838
0.00939351
0.00950587
0.00961157
0.00971504
0.00981669
0.009916
0.0100127
0.0101065
0.0101974
0.0102852
0.0103696
0.0104505
0.0105278
0.0106012
0.0106706
0.0107358
0.0107967
0.0108531
0.0109049
0.0109519
0.00828763
0.00835219
0.00841862
0.00848369
0.00854692
0.00860845
0.00866829
0.00872636
0.00878256
0.00883681
0.00888902
0.00893912
0.00898702
0.00903263
0.00907588
0.00911667
0.00915493
0.00919059
0.00922357
0.00925381
0.00768626
0.00775249
0.00781449
0.00787476
0.00793354
0.00799056
0.00804568
0.00809883
0.00814996
0.008199
0.00824588
0.00829053
0.00833289
0.00837289
0.00841048
0.0084456
0.0084782
0.00850822
0.00853562
0.00856035
0.00688874
0.00693182
0.00697549
0.00701796
0.00705897
0.00709861
0.00713689
0.00717378
0.00720924
0.00724323
0.00727572
0.00730667
0.00733606
0.00736386
0.00739002
0.00741452
0.00743735
0.00745845
0.00747782
0.00749543
0.00639477
0.00643794
0.00647842
0.0065176
0.00655562
0.00659233
0.00662767
0.00666161
0.00669412
0.00672518
0.00675476
0.00678282
0.00680934
0.00683429
0.00685766
0.00687941
0.00689953
0.006918
0.00693478
0.00694988
0.0058302
0.00586157
0.00589292
0.00592329
0.00595251
0.00598066
0.00600773
0.00603372
0.00605859
0.00608233
0.00610494
0.00612639
0.00614667
0.00616576
0.00618365
0.00620034
0.0062158
0.00623003
0.00624301
0.00625474
0.00545593
0.00548689
0.00551606
0.00554422
0.00557145
0.00559766
0.00562283
0.00564694
0.00566997
0.00569192
0.00571276
0.00573249
0.0057511
0.00576856
0.00578488
0.00580003
0.00581401
0.00582681
0.00583842
0.00584884
0.00507012
0.00509484
0.00511926
0.00514284
0.00516551
0.0051873
0.0052082
0.00522821
0.00524732
0.00526552
0.0052828
0.00529916
0.00531458
0.00532907
0.0053426
0.00535519
0.00536681
0.00537746
0.00538715
0.00539586
0.00481169
0.00483598
0.00485901
0.0048812
0.0049026
0.00492317
0.00494289
0.00496174
0.00497973
0.00499684
0.00501306
0.0050284
0.00504283
0.00505637
0.00506899
0.00508069
0.00509148
0.00510133
0.00511026
0.00511825
0.00457034
0.00459135
0.00461191
0.00463174
0.00465079
0.00466907
0.0046866
0.00470335
0.00471932
0.00473451
0.00474891
0.00476252
0.00477534
0.00478735
0.00479855
0.00480895
0.00481853
0.00482729
0.00483524
0.00484236
0.00442116
0.00444206
0.00446195
0.00448111
0.00449955
0.00451725
0.0045342
0.00455039
0.00456582
0.00458048
0.00459436
0.00460747
0.0046198
0.00463135
0.00464211
0.00465207
0.00466124
0.00466961
0.00467718
0.00468394
0.00430403
0.00432343
0.00434229
0.00436046
0.00437791
0.00439464
0.00441065
0.00442595
0.00444052
0.00445436
0.00446747
0.00447984
0.00449148
0.00450237
0.00451253
0.00452193
0.00453058
0.00453848
0.00454563
0.00455201
0.00426343
0.00428277
0.00430134
0.00431923
0.00433645
0.00435296
0.00436878
0.00438389
0.00439829
0.00441197
0.00442494
0.00443717
0.00444869
0.00445946
0.00446951
0.00447881
0.00448737
0.00449519
0.00450226
0.00450858
0.00472298
0.00510976
0.00527749
0.0053965
0.00548782
0.00554792
0.00558122
0.00559453
0.00559323
0.0055813
0.0055619
0.0055376
0.00551046
0.00548212
0.00545389
0.0054268
0.00540173
0.00537921
0.00535894
0.00534085
0.00469769
0.00480646
0.00486621
0.00490352
0.00492691
0.00493871
0.00494118
0.00493658
0.00492678
0.00491324
0.0048971
0.00487927
0.00486046
0.00484124
0.00482202
0.00480315
0.00478492
0.00476737
0.00474952
0.00473078
0.00411731
0.00415317
0.00418336
0.00420708
0.00422481
0.00423716
0.00424471
0.00424804
0.00424769
0.00424422
0.00423813
0.00422987
0.00421984
0.0042084
0.00419584
0.00418242
0.00416844
0.00415392
0.00413782
0.00411947
0.00379818
0.00381246
0.00382214
0.00382848
0.00383188
0.00383256
0.0038308
0.00382693
0.00382126
0.0038141
0.00380574
0.00379645
0.00378647
0.00377602
0.00376527
0.00375442
0.00374364
0.00373293
0.00372178
0.00371002
0.00317988
0.0031815
0.00318309
0.00318307
0.00318137
0.00317825
0.00317391
0.0031685
0.00316214
0.00315499
0.00314719
0.00313885
0.0031301
0.00312105
0.00311179
0.00310241
0.00309305
0.00308369
0.00307369
0.00306257
0.00270274
0.00270274
0.00270122
0.00269841
0.00269444
0.00268941
0.00268345
0.0026767
0.00266926
0.00266127
0.00265282
0.00264402
0.00263498
0.00262577
0.00261646
0.00260715
0.00259792
0.00258875
0.00257911
0.00256879
0.00209729
0.00209284
0.00208851
0.00208327
0.0020771
0.00207018
0.00206266
0.00205462
0.00204615
0.00203734
0.00202829
0.00201907
0.00200975
0.0020004
0.00199108
0.00198184
0.00197278
0.00196386
0.00195452
0.00194439
0.0015345
0.00152852
0.00152224
0.00151523
0.00150752
0.00149925
0.0014905
0.00148137
0.00147192
0.00146225
0.00145241
0.00144248
0.00143253
0.0014226
0.00141275
0.00140303
0.00139353
0.00138421
0.0013745
0.00136413
0.000912027
0.000903516
0.000895353
0.000886613
0.000877279
0.000867508
0.000857399
0.000847021
0.000836441
0.000825728
0.000814948
0.000804161
0.000793426
0.000782792
0.000772303
0.000762018
0.000752019
0.000742257
0.000732146
0.000721355
0.000272145
0.000259629
0.000247998
0.000236082
0.000223825
0.000211384
0.000198844
0.000186254
0.000173665
0.000161128
0.000148697
0.000136419
0.000124341
0.000112502
0.000100939
8.97035e-05
7.88772e-05
6.84054e-05
5.76615e-05
4.62715e-05
-0.000391195
-0.000405638
-0.000419093
-0.000432771
-0.0004467
-0.00046073
-0.000474794
-0.000488858
-0.000502885
-0.000516832
-0.000530655
-0.000544309
-0.000557753
-0.000570949
-0.000583859
-0.00059643
-0.000608578
-0.00062037
-0.000632473
-0.000645193
-0.00113758
-0.00116256
-0.00118431
-0.00120555
-0.00122653
-0.00124701
-0.00126692
-0.00128627
-0.00130506
-0.00132327
-0.0013409
-0.00135792
-0.00137432
-0.00139008
-0.00140518
-0.0014196
-0.00143323
-0.00144615
-0.00145915
-0.00147279
-0.00183856
-0.00186313
-0.00188555
-0.00190767
-0.00192951
-0.00195092
-0.00197189
-0.00199246
-0.00201266
-0.00203248
-0.00205192
-0.00207097
-0.00208961
-0.00210782
-0.00212556
-0.00214279
-0.00215941
-0.00217552
-0.00219194
-0.00220886
-0.00277867
-0.00283394
-0.00288034
-0.00292443
-0.00296685
-0.00300711
-0.00304515
-0.00308105
-0.00311492
-0.00314684
-0.00317687
-0.00320508
-0.00323151
-0.00325622
-0.00327922
-0.00330053
-0.00332004
-0.00333784
-0.00335506
-0.00337284
-0.00342106
-0.00346408
-0.00350386
-0.00354265
-0.00358024
-0.00361648
-0.00365148
-0.00368539
-0.00371835
-0.00375044
-0.00378177
-0.00381237
-0.00384229
-0.00387155
-0.00390013
-0.00392796
-0.00395492
-0.00398119
-0.00400782
-0.00403453
-0.00478725
-0.00492796
-0.00504936
-0.00516462
-0.00527475
-0.00537846
-0.00547525
-0.00556513
-0.00564818
-0.00572453
-0.00579435
-0.0058579
-0.00591541
-0.00596716
-0.00601338
-0.00605422
-0.00608962
-0.00611973
-0.00614645
-0.00617262
-0.00484707
-0.00492671
-0.00501129
-0.0050956
-0.00517767
-0.00525732
-0.00533451
-0.00540916
-0.00548126
-0.00555092
-0.00561838
-0.00568391
-0.00574783
-0.00581045
-0.00587202
-0.00593266
-0.00599229
-0.00605135
-0.00611172
-0.00617175
-0.00707706
-0.00748893
-0.00787764
-0.00825898
-0.00863278
-0.0089948
-0.00934158
-0.0096704
-0.00997885
-0.0102649
-0.0105272
-0.0107648
-0.0109775
-0.0111658
-0.0113306
-0.0114731
-0.0115937
-0.0116929
-0.0117746
-0.011845
-0.00353394
-0.00369324
-0.00390186
-0.00412535
-0.00435876
-0.00460253
-0.00485526
-0.00511465
-0.00537837
-0.00564422
-0.00591017
-0.00617456
-0.00643628
-0.00669505
-0.00695158
-0.00720713
-0.00746391
-0.0077324
-0.00804552
-0.00841909
-0.00724433
-0.00815405
-0.00911194
-0.0101336
-0.0112263
-0.0123915
-0.0136296
-0.0149396
-0.0163188
-0.0177625
-0.0192635
-0.0208124
-0.0223972
-0.024004
-0.0256153
-0.0272079
-0.0287541
-0.0302483
-0.0317431
-0.0331817
0.000104799
0.000318636
0.00053447
0.000752034
0.000972
0.00119521
0.00142268
0.00165571
0.00189625
0.00214735
0.00241417
0.00270572
0.00303669
0.0034286
0.00391013
0.00451874
0.00529356
0.00623653
0.00724671
0.00824866
0.000128901
0.000389724
0.000653643
0.000921605
0.00119525
0.00147653
0.00176757
0.00207069
0.00238839
0.00272334
0.00307847
0.0034573
0.00386478
0.0043095
0.00480738
0.00538515
0.00608047
0.0069481
0.00810628
0.00974719
0.000150126
0.000452235
0.000757991
0.00106935
0.00138872
0.00171903
0.0020638
0.0024274
0.00281536
0.00323489
0.00369524
0.00420794
0.00478656
0.00544581
0.00619989
0.00705958
0.0080283
0.00909984
0.010268
0.011566
0.000167472
0.00050318
0.000842586
0.00118821
0.00154261
0.00190872
0.00228978
0.00268932
0.00311135
0.00356047
0.0040422
0.0045634
0.00513302
0.00576288
0.0064683
0.0072682
0.00818592
0.0092534
0.0105188
0.0120664
0.000180317
0.00054077
0.000904679
0.00127493
0.00165424
0.00204578
0.00245317
0.00288051
0.00333246
0.00381431
0.00433183
0.00489101
0.0054976
0.00615643
0.00687057
0.00764089
0.00846773
0.00935584
0.010315
0.0113194
0.000188593
0.000564765
0.000943725
0.00132823
0.00172057
0.00212326
0.00253896
0.00297049
0.00342083
0.00389322
0.00439126
0.00491898
0.00548097
0.00608225
0.0067283
0.00742529
0.00818051
0.00899996
0.00988135
0.0108236
0.000192703
0.0005765
0.000962462
0.00135324
0.00175088
0.00215763
0.00257591
0.00300821
0.00345704
0.00392484
0.00441384
0.0049258
0.00546175
0.00602174
0.00660473
0.00720857
0.00783005
0.00846394
0.00910155
0.00972595
0.000193066
0.000577103
0.000962455
0.00135133
0.00174517
0.0021455
0.00255386
0.00297175
0.00340061
0.00384179
0.00429661
0.00476623
0.00525165
0.00575356
0.00627226
0.00680742
0.00735754
0.00791806
0.00847865
0.00903247
0.000190617
0.000569543
0.000949164
0.00133138
0.00171728
0.002108
0.00250466
0.00290828
0.00331967
0.00373941
0.00416768
0.00460417
0.00504796
0.00549743
0.00595014
0.00640273
0.00685052
0.00728744
0.00770809
0.00810265
0.000185848
0.000555095
0.000924362
0.00129506
0.00166778
0.00204312
0.0024216
0.00280365
0.00318954
0.0035794
0.00397312
0.00437036
0.00477047
0.00517242
0.00557466
0.00597496
0.00637019
0.00675577
0.00712443
0.00747238
0.000179758
0.00053691
0.000893655
0.00125106
0.00160945
0.00196905
0.00233009
0.0026926
0.00305644
0.00342124
0.0037863
0.00415057
0.0045126
0.00487049
0.00522183
0.00556371
0.00589257
0.00620467
0.00649676
0.0067631
0.000172711
0.000515877
0.000858231
0.00120044
0.00154248
0.00188427
0.00222567
0.00256644
0.00290621
0.00324445
0.00358045
0.00391332
0.00424191
0.00456481
0.00488028
0.00518622
0.0054801
0.00575877
0.00601793
0.00625567
0.000165516
0.000494544
0.000822543
0.00114989
0.00147638
0.00180171
0.00212552
0.00244736
0.00276663
0.00308256
0.00339417
0.0037003
0.00399953
0.00429021
0.00457046
0.00483815
0.00509099
0.00532664
0.00554315
0.00573713
0.000158375
0.000473353
0.000787125
0.00109977
0.00141088
0.00171999
0.00202656
0.00233002
0.00262968
0.00292476
0.00321437
0.00349748
0.00377295
0.00403947
0.00429558
0.00453965
0.00476991
0.00498429
0.00518026
0.00535678
0.000151842
0.000454061
0.00075501
0.00105455
0.00135215
0.00164725
0.00193918
0.00222727
0.00251071
0.00278863
0.00306004
0.00332382
0.00357877
0.00382355
0.00405673
0.00427683
0.00448226
0.00467153
0.00484336
0.00499569
0.000146001
0.000436798
0.00072629
0.00101412
0.00129968
0.00158228
0.00186122
0.00213576
0.0024051
0.00266838
0.00292469
0.00317305
0.00341241
0.00364167
0.00385963
0.00406506
0.00425667
0.00443303
0.00459254
0.00473447
0.000141203
0.000422684
0.00070288
0.000981274
0.00125719
0.00152991
0.00179865
0.00206263
0.002321
0.00257287
0.00281729
0.00305325
0.00327973
0.00349563
0.00369985
0.00389123
0.00406866
0.00423102
0.00437736
0.00450632
0.000137478
0.000411729
0.000684729
0.00095582
0.00122428
0.00148933
0.0017502
0.00200606
0.00225607
0.00249937
0.00273505
0.00296218
0.00317982
0.00338698
0.00358269
0.00376597
0.00393581
0.00409123
0.00423114
0.00435505
0.000135022
0.00040456
0.000672897
0.000939279
0.00120295
0.00146311
0.00171896
0.00196967
0.00221436
0.00245214
0.00268209
0.00290327
0.00311473
0.00331548
0.00350458
0.00368107
0.00384405
0.00399269
0.0041264
0.00424442
0.000133782
0.000400933
0.000666903
0.000930893
0.00119212
0.00144979
0.0017031
0.00195122
0.00219331
0.0024285
0.00265592
0.00287467
0.00308385
0.00328256
0.00346986
0.00364484
0.00380658
0.00395419
0.00408662
0.00420294
1.91382e-06
1.04267e-05
2.09204e-05
3.23632e-05
4.51527e-05
6.00847e-05
7.81821e-05
0.000100936
0.000130698
0.000171247
0.000228569
0.000311667
0.000432845
0.000606168
0.000843102
0.00114742
0.00151272
0.00191305
0.00225385
0.00244822
1.78269e-05
5.87619e-05
0.000102352
0.000149286
0.000201043
0.000259323
0.000326165
0.000404038
0.000496035
0.000606152
0.000739653
0.000903425
0.00110604
0.00135736
0.00166768
0.00204589
0.00249579
0.00301242
0.00358282
0.0042078
3.04739e-05
9.6497e-05
0.000165932
0.00024008
0.000321226
0.000411903
0.000515083
0.000634334
0.000773901
0.000938672
0.00113389
0.00136439
0.00163323
0.00194005
0.00227959
0.00264171
0.00301304
0.00337722
0.00371346
0.00399845
3.86096e-05
0.00012027
0.000205367
0.000295306
0.000392228
0.000498404
0.000616345
0.000748916
0.000899426
0.00107166
0.00126979
0.00149781
0.00175854
0.00205187
0.00237279
0.00270906
0.00303976
0.00333713
0.00357487
0.00374066
4.22147e-05
0.000130661
0.000222369
0.000318799
0.000422017
0.000534127
0.000657345
0.000794002
0.00094647
0.001117
0.00130741
0.00151858
0.00174969
0.00199735
0.00225434
0.00250874
0.00274414
0.00294256
0.00309001
0.00317689
4.1138e-05
0.000127102
0.000215711
0.00030804
0.000405681
0.000510192
0.00062319
0.000746389
0.000881585
0.00103058
0.00119497
0.0013757
0.0015723
0.00178171
0.00199689
0.00220608
0.00239361
0.0025434
0.0026451
0.00269804
3.68623e-05
0.00011425
0.000193758
0.000276167
0.000362743
0.000454607
0.000552826
0.000658409
0.000772253
0.000895065
0.00102724
0.00116865
0.00131826
0.00147357
0.00162986
0.00177952
0.00191215
0.00201653
0.00208479
0.00211253
2.94501e-05
9.21126e-05
0.00015626
0.000222168
0.000290687
0.000362519
0.00043835
0.00051887
0.000604747
0.000696575
0.000794762
0.000899323
0.00100951
0.0011233
0.00123684
0.00134396
0.00143634
0.00150518
0.00154455
0.00155242
2.0752e-05
6.63416e-05
0.000112833
0.000160095
0.000208638
0.000258758
0.000310682
0.000364601
0.000420649
0.000478896
0.000539317
0.000601744
0.000665741
0.000730378
0.000793815
0.000852753
0.000902112
0.000935986
0.000950018
0.000940588
1.08024e-05
3.69044e-05
6.3358e-05
8.95301e-05
0.000115586
0.000141498
0.000167209
0.000192681
0.000217883
0.000242773
0.000267271
0.000291199
0.000314198
0.000335591
0.000354156
0.000367807
0.000373468
0.000367916
0.000349339
0.000314773
1.35016e-06
9.06747e-06
1.65216e-05
2.26077e-05
2.71446e-05
2.9714e-05
2.98473e-05
2.70973e-05
2.10427e-05
1.13023e-05
-2.44665e-06
-2.0452e-05
-4.2879e-05
-6.98354e-05
-0.000101497
-0.000138354
-0.000181238
-0.000230306
-0.000283621
-0.000341309
-7.42561e-06
-1.67159e-05
-2.6811e-05
-3.93529e-05
-5.4886e-05
-7.41926e-05
-9.80948e-05
-0.000127376
-0.000162776
-0.000204985
-0.000254626
-0.000312231
-0.000378212
-0.000452813
-0.000536127
-0.000628152
-0.000728494
-0.000834791
-0.000941159
-0.0010473
-1.39116e-05
-3.56417e-05
-5.88354e-05
-8.56865e-05
-0.000117155
-0.00015448
-0.000198962
-0.000251879
-0.000314462
-0.000387888
-0.000473236
-0.000571447
-0.000683242
-0.000809045
-0.000948922
-0.00110248
-0.0012681
-0.00144014
-0.00160516
-0.00175067
-1.75828e-05
-4.61948e-05
-7.68269e-05
-0.000112275
-0.000153964
-0.000203619
-0.000263071
-0.000334149
-0.000418682
-0.00051848
-0.000635312
-0.000770854
-0.000926641
-0.00110403
-0.00130424
-0.00152826
-0.00177565
-0.00204086
-0.00230899
-0.00257317
-1.68782e-05
-4.37527e-05
-7.32098e-05
-0.000108633
-0.000151953
-0.000205467
-0.000271665
-0.000353134
-0.000452557
-0.000572688
-0.000716299
-0.000886088
-0.0010846
-0.00131424
-0.00157737
-0.00187605
-0.00221012
-0.00257227
-0.00293875
-0.00326546
-1.09808e-05
-2.59142e-05
-4.37008e-05
-6.82261e-05
-0.000101871
-0.000147433
-0.000208034
-0.000287066
-0.000388252
-0.000515689
-0.000673842
-0.000867479
-0.00110162
-0.00138156
-0.00171299
-0.00210162
-0.00255181
-0.00306431
-0.00363741
-0.00428425
1.51153e-06
1.14179e-05
1.84433e-05
1.84154e-05
8.65636e-06
-1.39498e-05
-5.29396e-05
-0.000112263
-0.000196397
-0.000310483
-0.000460487
-0.000653399
-0.000897571
-0.00120302
-0.00158076
-0.00204007
-0.00258467
-0.00321163
-0.00390739
-0.00460384
2.10762e-05
6.96491e-05
0.000115868
0.000155697
0.000186468
0.000205051
0.000207783
0.000190446
0.000148174
7.5335e-05
-3.46283e-05
-0.000189616
-0.000399843
-0.000679521
-0.00104887
-0.00153673
-0.00218261
-0.00304086
-0.00419418
-0.00577242
4.71054e-05
0.000147027
0.000245798
0.000340247
0.000428355
0.000507672
0.000575115
0.000626846
0.000658075
0.000662857
0.000633894
0.000562331
0.000437741
0.000249375
-1.10124e-05
-0.000351
-0.00078603
-0.00136504
-0.00218647
-0.00324726
7.68702e-05
0.000235723
0.000395121
0.000553401
0.000709947
0.000864005
0.00101451
0.00115997
0.00129807
0.00142502
0.00153418
0.00161407
0.00164575
0.0015991
0.00142601
0.00105773
0.000403418
-0.000650277
-0.00225312
-0.00471553
-4.79227e-05
-0.000129025
-0.00021617
-0.00030672
-0.000402374
-0.000504351
-0.000613649
-0.000730956
-0.000856428
-0.000989474
-0.00112855
-0.00127104
-0.00141335
-0.00155118
-0.00168038
-0.00179871
-0.00190967
-0.00202349
-0.00214214
-0.00237043
-4.9098e-05
-0.000132549
-0.000222131
-0.000315476
-0.000414457
-0.000520469
-0.000634734
-0.000758193
-0.000891272
-0.00103364
-0.00118393
-0.00133963
-0.001497
-0.0016514
-0.00179791
-0.0019331
-0.0020589
-0.0021816
-0.00229161
-0.00245669
-5.01081e-05
-0.000135223
-0.000226731
-0.000322322
-0.000424059
-0.000533533
-0.000652193
-0.000781253
-0.000921435
-0.00107269
-0.00123391
-0.00140265
-0.00157508
-0.0017461
-0.00190986
-0.0020612
-0.00219946
-0.00232766
-0.00243422
-0.00257046
-5.08473e-05
-0.000137019
-0.00022985
-0.000327081
-0.000430939
-0.000543216
-0.000665601
-0.00079959
-0.000946227
-0.0011058
-0.00127746
-0.00145893
-0.00164628
-0.00183395
-0.00201504
-0.00218243
-0.00233254
-0.0024661
-0.00257271
-0.00270537
-5.12641e-05
-0.000137879
-0.00023138
-0.000329585
-0.000434859
-0.0005492
-0.000674534
-0.000812654
-0.00096495
-0.00113208
-0.00131353
-0.00150725
-0.00170927
-0.00191363
-0.0021124
-0.00229641
-0.00245924
-0.00259987
-0.00270909
-0.0028479
-5.13343e-05
-0.000137742
-0.000231218
-0.000329674
-0.000435595
-0.000551176
-0.000678577
-0.000819899
-0.000976899
-0.00115065
-0.00134105
-0.00154634
-0.00176265
-0.00198373
-0.00220075
-0.0024026
-0.00258008
-0.00273047
-0.00284499
-0.00299492
-5.10386e-05
-0.000136553
-0.000229272
-0.000327206
-0.00043294
-0.000548853
-0.000677335
-0.000820793
-0.000981374
-0.0011606
-0.00135888
-0.00157485
-0.0018049
-0.00204267
-0.00227864
-0.00250001
-0.00269487
-0.00285836
-0.00298091
-0.00314603
-5.0362e-05
-0.000134267
-0.000225462
-0.000322057
-0.000426711
-0.000541971
-0.000670442
-0.000814832
-0.000977691
-0.00116104
-0.00136586
-0.00159135
-0.00183432
-0.00208859
-0.00234424
-0.00258709
-0.00280266
-0.00298319
-0.00311659
-0.00330118
-4.92931e-05
-0.000130851
-0.000219728
-0.00031413
-0.000416758
-0.000530307
-0.000657573
-0.000801553
-0.000965202
-0.00115108
-0.00136081
-0.00159431
-0.00184905
-0.00211932
-0.00239521
-0.00266159
-0.00290164
-0.00310386
-0.00325118
-0.00346057
-4.78255e-05
-0.000126285
-0.000212031
-0.000303358
-0.000402974
-0.000513687
-0.00063846
-0.00078055
-0.00094331
-0.00112986
-0.00134254
-0.00158215
-0.00184705
-0.00213237
-0.00242868
-0.00272047
-0.00298907
-0.00321844
-0.00338321
-0.00362446
-4.59583e-05
-0.000120564
-0.000202355
-0.00028971
-0.000385293
-0.000491995
-0.000612898