/*--------------------------------*- C++ -*----------------------------------*\
| =========                 |                                                 |
| \\      /  F ield         | OpenFOAM: The Open Source CFD Toolbox           |
|  \\    /   O peration     | Version:  v1806                                 |
|   \\  /    A nd           | Web:      www.OpenFOAM.com                      |
|    \\/     M anipulation  |                                                 |
\*---------------------------------------------------------------------------*/
FoamFile
{
    version     2.0;
    format      ascii;
    class       volVectorField;
    location    "250";
    object      U;
}
// * * * * * * * * * * * * * * * * * * * * * * * * * * * * * * * * * * * * * //

dimensions      [0 1 -1 0 0 0 0];


internalField   nonuniform List<vector> 
2400
(
(0.3 -0.000267503 0)
(0.299996 -0.00082231 0)
(0.299988 -0.00138169 0)
(0.299974 -0.0019828 0)
(0.299954 -0.00260954 0)
(0.299926 -0.00330194 0)
(0.299892 -0.00404171 0)
(0.29985 -0.00486729 0)
(0.299801 -0.00575766 0)
(0.299744 -0.00674444 0)
(0.299684 -0.00780186 0)
(0.29962 -0.00894746 0)
(0.29956 -0.0101435 0)
(0.299506 -0.0113835 0)
(0.299469 -0.0126074 0)
(0.299456 -0.0137797 0)
(0.299479 -0.0148087 0)
(0.299546 -0.0156388 0)
(0.299665 -0.016159 0)
(0.299839 -0.0163305 0)
(0.299999 -0.000265058 0)
(0.299989 -0.00081807 0)
(0.29997 -0.00137172 0)
(0.299942 -0.00197081 0)
(0.299903 -0.00259065 0)
(0.299853 -0.003281 0)
(0.299794 -0.00401318 0)
(0.299724 -0.00483717 0)
(0.299647 -0.00572047 0)
(0.299562 -0.00670736 0)
(0.299476 -0.00776084 0)
(0.299393 -0.00891071 0)
(0.299323 -0.01011 0)
(0.299274 -0.0113623 0)
(0.299263 -0.0126013 0)
(0.299304 -0.0137976 0)
(0.29941 -0.014856 0)
(0.299595 -0.0157206 0)
(0.299862 -0.0162763 0)
(0.300207 -0.0164713 0)
(0.299999 -0.000260205 0)
(0.299982 -0.00080977 0)
(0.299951 -0.00135281 0)
(0.299905 -0.00194905 0)
(0.299843 -0.00255685 0)
(0.299764 -0.00324536 0)
(0.299671 -0.00396485 0)
(0.299564 -0.00478891 0)
(0.299447 -0.00566096 0)
(0.29932 -0.00665205 0)
(0.299196 -0.00770033 0)
(0.299078 -0.00886262 0)
(0.298986 -0.0100699 0)
(0.298931 -0.0113489 0)
(0.29894 -0.0126168 0)
(0.299031 -0.0138587 0)
(0.299229 -0.0149668 0)
(0.299549 -0.0158905 0)
(0.299995 -0.0164955 0)
(0.300552 -0.0167412 0)
(0.299998 -0.000252789 0)
(0.299975 -0.000797646 0)
(0.299931 -0.00132441 0)
(0.299868 -0.0019175 0)
(0.299781 -0.00250695 0)
(0.299672 -0.00319471 0)
(0.299543 -0.00389478 0)
(0.299394 -0.00472192 0)
(0.299233 -0.00557627 0)
(0.299058 -0.00657742 0)
(0.298889 -0.00761634 0)
(0.298727 -0.00880143 0)
(0.298604 -0.0100185 0)
(0.298531 -0.0113408 0)
(0.298549 -0.0126498 0)
(0.298682 -0.0139608 0)
(0.298966 -0.0151414 0)
(0.299422 -0.0161492 0)
(0.300054 -0.0168279 0)
(0.300846 -0.0171311 0)
(0.299998 -0.00024269 0)
(0.299968 -0.00078204 0)
(0.299912 -0.00128606 0)
(0.29983 -0.00187634 0)
(0.299718 -0.00243969 0)
(0.299578 -0.00312879 0)
(0.299412 -0.00380019 0)
(0.29922 -0.004635 0)
(0.299012 -0.00546142 0)
(0.298785 -0.00648095 0)
(0.298566 -0.00750116 0)
(0.298353 -0.00872279 0)
(0.298191 -0.00994551 0)
(0.298087 -0.0113323 0)
(0.298106 -0.0126895 0)
(0.298267 -0.0140986 0)
(0.298631 -0.0153747 0)
(0.299221 -0.0164988 0)
(0.300049 -0.0172788 0)
(0.301095 -0.0176576 0)
(0.299997 -0.000229783 0)
(0.299961 -0.000763286 0)
(0.299892 -0.00123733 0)
(0.299793 -0.00182604 0)
(0.299656 -0.00235405 0)
(0.299485 -0.00304813 0)
(0.29928 -0.00367892 0)
(0.299044 -0.00452857 0)
(0.298786 -0.00531223 0)
(0.298503 -0.00636258 0)
(0.298229 -0.00734763 0)
(0.297954 -0.00862575 0)
(0.297746 -0.00984036 0)
(0.297597 -0.0113211 0)
(0.297606 -0.0127246 0)
(0.297779 -0.0142707 0)
(0.298219 -0.0156617 0)
(0.298939 -0.0169441 0)
(0.299975 -0.0178581 0)
(0.3013 -0.0183404 0)
(0.299995 -0.000213993 0)
(0.299955 -0.000741692 0)
(0.299872 -0.00117781 0)
(0.299757 -0.00176711 0)
(0.299592 -0.0022491 0)
(0.299391 -0.00295357 0)
(0.299147 -0.00352886 0)
(0.298865 -0.0044037 0)
(0.298555 -0.00512426 0)
(0.298211 -0.00622341 0)
(0.297877 -0.0071474 0)
(0.297531 -0.00851105 0)
(0.297267 -0.00968947 0)
(0.297053 -0.0113077 0)
(0.297042 -0.012738 0)
(0.297203 -0.0144786 0)
(0.297712 -0.0159923 0)
(0.298553 -0.0174929 0)
(0.299815 -0.0185786 0)
(0.301455 -0.0192008 0)
(0.299994 -0.000195372 0)
(0.299949 -0.000717438 0)
(0.299852 -0.00110727 0)
(0.299721 -0.00169993 0)
(0.299529 -0.0021241 0)
(0.299298 -0.00284585 0)
(0.299012 -0.00334793 0)
(0.298684 -0.00426145 0)
(0.298318 -0.00489265 0)
(0.29791 -0.00606485 0)
(0.297508 -0.00689045 0)
(0.297079 -0.00838043 0)
(0.296748 -0.00947485 0)
(0.296447 -0.0112946 0)
(0.296402 -0.0127042 0)
(0.296517 -0.0147278 0)
(0.297093 -0.016346 0)
(0.298034 -0.0181594 0)
(0.299547 -0.0194534 0)
(0.301543 -0.0202677 0)
(0.299992 -0.000174176 0)
(0.299944 -0.000690454 0)
(0.299832 -0.00102582 0)
(0.299687 -0.00162461 0)
(0.299465 -0.00197877 0)
(0.299206 -0.0027253 0)
(0.298876 -0.00313455 0)
(0.298503 -0.0041024 0)
(0.298077 -0.00461277 0)
(0.297601 -0.00588784 0)
(0.297123 -0.00656598 0)
(0.296599 -0.00823579 0)
(0.296189 -0.0091749 0)
(0.295772 -0.0112864 0)
(0.295678 -0.0125875 0)
(0.2957 -0.0150309 0)
(0.29634 -0.0166846 0)
(0.297338 -0.0189698 0)
(0.299146 -0.0204886 0)
(0.301541 -0.0215826 0)
(0.29999 -0.000150942 0)
(0.29994 -0.000660274 0)
(0.299812 -0.000934081 0)
(0.299654 -0.0015407 0)
(0.299402 -0.00181362 0)
(0.299117 -0.00259148 0)
(0.298739 -0.00288826 0)
(0.298322 -0.00392601 0)
(0.29783 -0.00428136 0)
(0.297285 -0.00569183 0)
(0.296721 -0.00616412 0)
(0.296092 -0.00807735 0)
(0.295584 -0.00876652 0)
(0.295023 -0.0112874 0)
(0.294859 -0.0123433 0)
(0.294726 -0.0154059 0)
(0.29543 -0.016947 0)
(0.296406 -0.0199697 0)
(0.298582 -0.021665 0)
(0.301407 -0.0232109 0)
(0.299989 -0.000126565 0)
(0.299938 -0.000625896 0)
(0.299794 -0.000833433 0)
(0.299624 -0.00144701 0)
(0.29934 -0.00163038 0)
(0.299031 -0.00244273 0)
(0.298603 -0.0026104 0)
(0.298146 -0.00372986 0)
(0.29758 -0.00389768 0)
(0.296966 -0.00547337 0)
(0.296303 -0.00567821 0)
(0.295563 -0.00790103 0)
(0.294934 -0.00822897 0)
(0.294199 -0.011297 0)
(0.293934 -0.0119233 0)
(0.293575 -0.0158699 0)
(0.294334 -0.0170486 0)
(0.295168 -0.0212265 0)
(0.297821 -0.0229197 0)
(0.301065 -0.0252589 0)
(0.299987 -0.000102344 0)
(0.299938 -0.000585668 0)
(0.299776 -0.000726177 0)
(0.299597 -0.00134137 0)
(0.299278 -0.00143231 0)
(0.298951 -0.00227576 0)
(0.298468 -0.00230484 0)
(0.297976 -0.0035089 0)
(0.297327 -0.00346499 0)
(0.296652 -0.00522466 0)
(0.29587 -0.00510725 0)
(0.295018 -0.00769553 0)
(0.294235 -0.00754846 0)
(0.293307 -0.0113028 0)
(0.292891 -0.0112835 0)
(0.292235 -0.0164264 0)
(0.293017 -0.0168919 0)
(0.293546 -0.0228172 0)
(0.296822 -0.0241466 0)
(0.300375 -0.0278928 0)
(0.299987 -7.99699e-05 0)
(0.29994 -0.000537228 0)
(0.299761 -0.000615679 0)
(0.299573 -0.00122049 0)
(0.299219 -0.00122462 0)
(0.298877 -0.00208523 0)
(0.298334 -0.00197873 0)
(0.297818 -0.00325456 0)
(0.297071 -0.00299186 0)
(0.296351 -0.00493206 0)
(0.295418 -0.0044585 0)
(0.294477 -0.00743968 0)
(0.293481 -0.0067228 0)
(0.292368 -0.0112756 0)
(0.29171 -0.0103913 0)
(0.29071 -0.0170547 0)
(0.291427 -0.0163777 0)
(0.291464 -0.0248049 0)
(0.295521 -0.0251955 0)
(0.299122 -0.0313683 0)
(0.29999 -6.13707e-05 0)
(0.29994 -0.000477614 0)
(0.299751 -0.000506325 0)
(0.299549 -0.0010799 0)
(0.299164 -0.0010146 0)
(0.298809 -0.0018634 0)
(0.298205 -0.00164326 0)
(0.297674 -0.00295385 0)
(0.296813 -0.00249403 0)
(0.296073 -0.00457413 0)
(0.294946 -0.00375065 0)
(0.293961 -0.00709896 0)
(0.292657 -0.0057666 0)
(0.291426 -0.0111638 0)
(0.290352 -0.00923546 0)
(0.289048 -0.0176984 0)
(0.289475 -0.0154167 0)
(0.288883 -0.0272169 0)
(0.293804 -0.0258614 0)
(0.29698 -0.0360242 0)
(0.3 -4.82905e-05 0)
(0.299934 -0.000403806 0)
(0.299751 -0.000402994 0)
(0.299518 -0.000914546 0)
(0.299124 -0.000811224 0)
(0.298739 -0.00160036 0)
(0.298092 -0.00131403 0)
(0.297535 -0.00258852 0)
(0.296567 -0.00199657 0)
(0.295818 -0.0041187 0)
(0.294462 -0.00301922 0)
(0.293491 -0.00661867 0)
(0.291751 -0.0047199 0)
(0.290541 -0.0108815 0)
(0.288745 -0.00783948 0)
(0.287369 -0.0182488 0)
(0.286977 -0.0139482 0)
(0.285898 -0.030041 0)
(0.291432 -0.0259202 0)
(0.293522 -0.0422227 0)
(0.300023 -4.15382e-05 0)
(0.299912 -0.00031396 0)
(0.299771 -0.000309568 0)
(0.299467 -0.000720674 0)
(0.299116 -0.000622731 0)
(0.298644 -0.00128669 0)
(0.298024 -0.00100822 0)
(0.297375 -0.00213711 0)
(0.296374 -0.00153371 0)
(0.295551 -0.00352056 0)
(0.294017 -0.00232528 0)
(0.293041 -0.00591235 0)
(0.290803 -0.00366715 0)
(0.289734 -0.0102783 0)
(0.286842 -0.00628806 0)
(0.285828 -0.0184993 0)
(0.283602 -0.0119719 0)
(0.282865 -0.0332526 0)
(0.287792 -0.0250397 0)
(0.288498 -0.051119 0)
(0.300064 -4.0173e-05 0)
(0.299863 -0.00020882 0)
(0.299823 -0.000226901 0)
(0.299377 -0.000498854 0)
(0.299162 -0.000452462 0)
(0.298495 -0.000920002 0)
(0.298045 -0.00073612 0)
(0.297136 -0.00158727 0)
(0.296317 -0.0011333 0)
(0.295181 -0.00273945 0)
(0.293753 -0.00174012 0)
(0.292475 -0.00487059 0)
(0.290023 -0.00276711 0)
(0.288835 -0.0090949 0)
(0.284841 -0.00479339 0)
(0.284331 -0.0180091 0)
(0.27908 -0.00961306 0)
(0.280281 -0.0365964 0)
(0.281048 -0.0225312 0)
(0.282858 -0.0651666 0)
(0.300124 -4.12273e-05 0)
(0.299782 -9.27261e-05 0)
(0.299913 -0.000151429 0)
(0.299237 -0.000256189 0)
(0.299282 -0.000295203 0)
(0.298265 -0.000511164 0)
(0.298199 -0.000491484 0)
(0.296761 -0.000953185 0)
(0.296492 -0.000791426 0)
(0.294581 -0.00178415 0)
(0.293885 -0.00128148 0)
(0.291526 -0.00345802 0)
(0.289862 -0.00213366 0)
(0.287357 -0.00710582 0)
(0.28354 -0.00375455 0)
(0.28203 -0.0159103 0)
(0.274224 -0.00746304 0)
(0.277491 -0.0385531 0)
(0.268402 -0.0180044 0)
(0.279666 -0.0845523 0)
(0.300199 -3.88626e-05 0)
(0.299675 2.67232e-05 0)
(0.300031 -7.57066e-05 0)
(0.299056 -4.77282e-06 0)
(0.299465 -0.000135485 0)
(0.297964 -8.22809e-05 0)
(0.29848 -0.000246319 0)
(0.296252 -0.000278499 0)
(0.296922 -0.000457691 0)
(0.293712 -0.000733027 0)
(0.294526 -0.000855719 0)
(0.290021 -0.00178445 0)
(0.290738 -0.00164559 0)
(0.284696 -0.00436866 0)
(0.284283 -0.00329891 0)
(0.277259 -0.0114787 0)
(0.27236 -0.00713129 0)
(0.269963 -0.0350462 0)
(0.253371 -0.0169098 0)
(0.279863 -0.11011 0)
(0.300272 -3.41006e-05 0)
(0.29956 0.000150267 0)
(0.300153 -3.38221e-06 0)
(0.298873 0.000252674 0)
(0.299667 1.89509e-05 0)
(0.297654 0.000362993 0)
(0.29881 -1.0761e-05 0)
(0.295719 0.000435574 0)
(0.297468 -0.000141521 0)
(0.29277 0.000398533 0)
(0.295447 -0.00046778 0)
(0.288276 3.17034e-05 0)
(0.292322 -0.00113989 0)
(0.281226 -0.00129833 0)
(0.28709 -0.00257942 0)
(0.269468 -0.00608454 0)
(0.276842 -0.00616158 0)
(0.249497 -0.0275133 0)
(0.257166 -0.016936 0)
(0.273206 -0.175322 0)
(0.299985 -0.0161671 0)
(0.300024 -0.0161126 0)
(0.300059 -0.0160482 0)
(0.300093 -0.0159747 0)
(0.300127 -0.0158922 0)
(0.300162 -0.0158006 0)
(0.300198 -0.0156999 0)
(0.300234 -0.0155904 0)
(0.300269 -0.0154722 0)
(0.300304 -0.0153459 0)
(0.30044 -0.016333 0)
(0.300501 -0.016286 0)
(0.300561 -0.0162288 0)
(0.30062 -0.0161613 0)
(0.30068 -0.0160835 0)
(0.30074 -0.0159957 0)
(0.3008 -0.0158979 0)
(0.30086 -0.0157904 0)
(0.30092 -0.0156732 0)
(0.300979 -0.0155474 0)
(0.300925 -0.0166024 0)
(0.301024 -0.0165536 0)
(0.30112 -0.0164935 0)
(0.301215 -0.0164228 0)
(0.301308 -0.0163416 0)
(0.301401 -0.01625 0)
(0.301494 -0.0161481 0)
(0.301585 -0.0160363 0)
(0.301675 -0.0159144 0)
(0.301763 -0.0157836 0)
(0.301377 -0.0169966 0)
(0.301517 -0.0169479 0)
(0.301652 -0.0168873 0)
(0.301783 -0.0168152 0)
(0.301914 -0.0167318 0)
(0.302044 -0.016637 0)
(0.302173 -0.0165311 0)
(0.3023 -0.0164141 0)
(0.302425 -0.0162862 0)
(0.302547 -0.0161484 0)
(0.301801 -0.0175308 0)
(0.301987 -0.0174827 0)
(0.302165 -0.017421 0)
(0.302338 -0.0173463 0)
(0.302511 -0.0172587 0)
(0.302683 -0.0171583 0)
(0.302853 -0.0170453 0)
(0.30302 -0.0169198 0)
(0.303184 -0.0167819 0)
(0.303344 -0.0166331 0)
(0.302204 -0.0182236 0)
(0.302441 -0.018176 0)
(0.302669 -0.0181127 0)
(0.302891 -0.0180343 0)
(0.303111 -0.017941 0)
(0.30333 -0.0178329 0)
(0.303547 -0.01771 0)
(0.30376 -0.0175728 0)
(0.303969 -0.0174214 0)
(0.304172 -0.0172574 0)
(0.302587 -0.0190986 0)
(0.302884 -0.0190521 0)
(0.303169 -0.0189869 0)
(0.303448 -0.0189037 0)
(0.303724 -0.0188027 0)
(0.303999 -0.018684 0)
(0.30427 -0.0185478 0)
(0.304537 -0.0183946 0)
(0.304798 -0.0182246 0)
(0.305051 -0.0180401 0)
(0.302944 -0.0201887 0)
(0.303313 -0.0201445 0)
(0.303668 -0.0200775 0)
(0.304015 -0.0199882 0)
(0.304359 -0.0198769 0)
(0.304701 -0.019744 0)
(0.305038 -0.0195898 0)
(0.305368 -0.019415 0)
(0.305691 -0.0192199 0)
(0.306003 -0.0190076 0)
(0.303266 -0.0215414 0)
(0.303724 -0.0215017 0)
(0.304166 -0.0214329 0)
(0.304599 -0.0213355 0)
(0.305028 -0.0212103 0)
(0.305452 -0.0210578 0)
(0.30587 -0.0208788 0)
(0.306278 -0.0206743 0)
(0.306675 -0.0204447 0)
(0.307058 -0.0201946 0)
(0.303539 -0.0232292 0)
(0.30411 -0.023196 0)
(0.304667 -0.0231239 0)
(0.305211 -0.0230141 0)
(0.305747 -0.0228683 0)
(0.306276 -0.0226875 0)
(0.306795 -0.0224731 0)
(0.3073 -0.0222267 0)
(0.307789 -0.0219487 0)
(0.308259 -0.0216464 0)
(0.303748 -0.0253635 0)
(0.304475 -0.025336 0)
(0.305184 -0.0252542 0)
(0.305874 -0.0251222 0)
(0.306551 -0.0249433 0)
(0.307214 -0.0247194 0)
(0.307861 -0.0244522 0)
(0.308488 -0.0241445 0)
(0.309092 -0.0237972 0)
(0.309668 -0.0234209 0)
(0.303883 -0.028107 0)
(0.304837 -0.028077 0)
(0.305758 -0.0279691 0)
(0.306641 -0.027795 0)
(0.307498 -0.0275604 0)
(0.308335 -0.0272678 0)
(0.309147 -0.0269197 0)
(0.309928 -0.0265203 0)
(0.310675 -0.026071 0)
(0.31138 -0.0255882 0)
(0.303957 -0.031691 0)
(0.305259 -0.0316347 0)
(0.306472 -0.0314661 0)
(0.307605 -0.0312125 0)
(0.308695 -0.0308836 0)
(0.309755 -0.0304813 0)
(0.310777 -0.0300084 0)
(0.311752 -0.029471 0)
(0.312676 -0.0288711 0)
(0.313539 -0.0282348 0)
(0.304033 -0.0364172 0)
(0.305878 -0.0362911 0)
(0.307491 -0.0360033 0)
(0.308938 -0.0356074 0)
(0.31032 -0.0351191 0)
(0.311665 -0.03454 0)
(0.312957 -0.0338731 0)
(0.314179 -0.0331282 0)
(0.315322 -0.0323068 0)
(0.316377 -0.0314513 0)
(0.304269 -0.0426231 0)
(0.306961 -0.042376 0)
(0.309141 -0.0419028 0)
(0.311001 -0.0412876 0)
(0.31276 -0.0405509 0)
(0.314472 -0.0396947 0)
(0.316106 -0.0387251 0)
(0.317631 -0.0376594 0)
(0.319041 -0.0364996 0)
(0.320324 -0.0353176 0)
(0.305125 -0.0509872 0)
(0.309074 -0.0504517 0)
(0.31206 -0.0496592 0)
(0.31451 -0.0487227 0)
(0.316807 -0.0476494 0)
(0.319022 -0.0464279 0)
(0.321095 -0.0450606 0)
(0.322975 -0.0435723 0)
(0.324654 -0.041956 0)
(0.326112 -0.0403441 0)
(0.308578 -0.0629003 0)
(0.314029 -0.0614768 0)
(0.317688 -0.059705 0)
(0.320533 -0.0578097 0)
(0.323205 -0.0558074 0)
(0.325766 -0.0536745 0)
(0.328086 -0.0514107 0)
(0.330081 -0.0490493 0)
(0.33174 -0.0465761 0)
(0.333093 -0.0441811 0)
(0.317904 -0.0808106 0)
(0.32501 -0.0787436 0)
(0.328487 -0.0761663 0)
(0.330315 -0.0732431 0)
(0.331746 -0.069981 0)
(0.332943 -0.0664123 0)
(0.333729 -0.0626051 0)
(0.334 -0.0586463 0)
(0.333807 -0.0545392 0)
(0.33311 -0.050571 0)
(0.316889 -0.0839372 0)
(0.321189 -0.0768094 0)
(0.320642 -0.0709911 0)
(0.318386 -0.0658844 0)
(0.31573 -0.0609589 0)
(0.31265 -0.056076 0)
(0.308972 -0.0512408 0)
(0.304716 -0.0464508 0)
(0.300126 -0.041672 0)
(0.294955 -0.0368855 0)
(0.272076 -0.113067 0)
(0.251426 -0.0968436 0)
(0.224767 -0.0826837 0)
(0.202979 -0.0701365 0)
(0.185691 -0.0587666 0)
(0.170789 -0.0484978 0)
(0.157528 -0.0393383 0)
(0.145945 -0.0312271 0)
(0.135852 -0.0240075 0)
(0.126682 -0.0173326 0)
(0.300426 -0.0148849 0)
(0.300644 -0.0138536 0)
(0.300856 -0.0126233 0)
(0.301039 -0.0112746 0)
(0.301195 -0.00987407 0)
(0.301316 -0.00849611 0)
(0.301406 -0.00718249 0)
(0.301469 -0.00598144 0)
(0.301508 -0.00489461 0)
(0.301526 -0.00396761 0)
(0.301531 -0.00315169 0)
(0.30152 -0.00252257 0)
(0.301514 -0.00195704 0)
(0.301485 -0.00159099 0)
(0.30149 -0.00121445 0)
(0.301451 -0.00103921 0)
(0.301471 -0.000790203 0)
(0.301423 -0.000732276 0)
(0.301444 -0.000592494 0)
(0.301381 -0.000615263 0)
(0.301178 -0.0150778 0)
(0.301469 -0.0140201 0)
(0.301713 -0.0127621 0)
(0.301887 -0.0113845 0)
(0.301998 -0.00995685 0)
(0.302046 -0.00855329 0)
(0.302048 -0.00721824 0)
(0.302015 -0.00599896 0)
(0.301957 -0.00489747 0)
(0.301884 -0.00396054 0)
(0.301806 -0.00313662 0)
(0.30172 -0.00250563 0)
(0.301656 -0.00193791 0)
(0.301576 -0.00157555 0)
(0.301551 -0.00120058 0)
(0.301479 -0.00102931 0)
(0.301493 -0.000781989 0)
(0.301417 -0.00072077 0)
(0.301445 -0.000579328 0)
(0.301347 -0.000588448 0)
(0.302055 -0.0153013 0)
(0.302472 -0.0142061 0)
(0.302797 -0.0128991 0)
(0.303001 -0.0114685 0)
(0.303095 -0.00999347 0)
(0.303088 -0.00854956 0)
(0.303007 -0.0071846 0)
(0.302876 -0.00594338 0)
(0.30271 -0.00482779 0)
(0.302527 -0.0038848 0)
(0.302343 -0.00305887 0)
(0.302156 -0.00243442 0)
(0.302009 -0.00187305 0)
(0.30185 -0.0015244 0)
(0.301777 -0.0011591 0)
(0.301645 -0.000998947 0)
(0.301647 -0.000757766 0)
(0.301518 -0.000694684 0)
(0.301551 -0.000553796 0)
(0.30139 -0.000545454 0)
(0.302953 -0.0156362 0)
(0.303519 -0.0144663 0)
(0.303943 -0.0130739 0)
(0.304191 -0.0115573 0)
(0.30428 -0.0100085 0)
(0.304227 -0.00850422 0)
(0.304072 -0.00709601 0)
(0.30385 -0.00582432 0)
(0.303581 -0.00469043 0)
(0.303293 -0.00374137 0)
(0.303003 -0.00291575 0)
(0.302715 -0.00230444 0)
(0.302484 -0.00175628 0)
(0.302239 -0.00143126 0)
(0.302119 -0.00108353 0)
(0.301921 -0.000942622 0)
(0.301913 -0.000713152 0)
(0.301722 -0.000649964 0)
(0.301764 -0.000511519 0)
(0.301529 -0.00047864 0)
(0.303875 -0.0160778 0)
(0.304604 -0.0148018 0)
(0.305135 -0.01329 0)
(0.305427 -0.0116556 0)
(0.305506 -0.010008 0)
(0.305403 -0.00842415 0)
(0.30517 -0.00695981 0)
(0.304856 -0.00564882 0)
(0.304484 -0.00449182 0)
(0.30409 -0.00353581 0)
(0.303696 -0.00271145 0)
(0.303307 -0.0021193 0)
(0.302994 -0.00158982 0)
(0.302666 -0.00129861 0)
(0.302505 -0.000975945 0)
(0.302243 -0.000862939 0)
(0.302235 -0.00065043 0)
(0.301986 -0.00058774 0)
(0.302046 -0.000452393 0)
(0.301737 -0.000385531 0)
(0.304844 -0.0166417 0)
(0.305751 -0.0152203 0)
(0.306394 -0.0135482 0)
(0.306722 -0.01176 0)
(0.306778 -0.00998697 0)
(0.306611 -0.00830399 0)
(0.306288 -0.00677144 0)
(0.305874 -0.00541311 0)
(0.305389 -0.0042293 0)
(0.304885 -0.00326631 0)
(0.304381 -0.00244478 0)
(0.303888 -0.001879 0)
(0.303493 -0.00137436 0)
(0.303081 -0.00112899 0)
(0.302886 -0.000840033 0)
(0.302565 -0.00076478 0)
(0.302571 -0.000575272 0)
(0.302271 -0.000512775 0)
(0.302361 -0.00038109 0)
(0.301986 -0.000267988 0)
(0.305886 -0.017342 0)
(0.306991 -0.015726 0)
(0.307745 -0.0138447 0)
(0.308096 -0.0118623 0)
(0.30811 -0.00993572 0)
(0.30786 -0.00813424 0)
(0.307429 -0.00652258 0)
(0.306901 -0.00510988 0)
(0.30629 -0.00389685 0)
(0.305668 -0.00292772 0)
(0.305044 -0.00211148 0)
(0.30444 -0.00158094 0)
(0.303958 -0.00110849 0)
(0.303459 -0.000923763 0)
(0.303237 -0.000679096 0)
(0.302861 -0.000653564 0)
(0.302895 -0.000494835 0)
(0.302555 -0.000431437 0)
(0.302689 -0.000304368 0)
(0.302256 -0.000128932 0)
(0.30703 -0.0181972 0)
(0.308355 -0.0163235 0)
(0.309218 -0.0141732 0)
(0.309572 -0.0119512 0)
(0.309516 -0.00984185 0)
(0.309158 -0.007903 0)
(0.308597 -0.00620303 0)
(0.307939 -0.00473014 0)
(0.307187 -0.00348698 0)
(0.306434 -0.00251307 0)
(0.305677 -0.00170554 0)
(0.304953 -0.00122074 0)
(0.304377 -0.000789188 0)
(0.303786 -0.000683509 0)
(0.303542 -0.000496051 0)
(0.303114 -0.000535372 0)
(0.303196 -0.000417385 0)
(0.302824 -0.000351146 0)
(0.303022 -0.000229903 0)
(0.302538 2.91284e-05 0)
(0.308314 -0.0192303 0)
(0.309883 -0.0170157 0)
(0.310847 -0.0145237 0)
(0.311171 -0.0120115 0)
(0.31101 -0.00968928 0)
(0.310511 -0.0075954 0)
(0.309795 -0.00580046 0)
(0.308988 -0.00426326 0)
(0.308078 -0.00299096 0)
(0.307181 -0.00201381 0)
(0.306275 -0.00121934 0)
(0.305418 -0.000792247 0)
(0.30474 -0.000411671 0)
(0.304047 -0.00040835 0)
(0.303789 -0.000293862 0)
(0.30331 -0.000417562 0)
(0.303465 -0.000352693 0)
(0.303071 -0.000280549 0)
(0.303354 -0.000166252 0)
(0.302824 0.000204641 0)
(0.309792 -0.0204684 0)
(0.311629 -0.0178023 0)
(0.312671 -0.0148804 0)
(0.312919 -0.0120227 0)
(0.312606 -0.00945722 0)
(0.311928 -0.00719331 0)
(0.311027 -0.00530042 0)
(0.310049 -0.00369725 0)
(0.308962 -0.00239904 0)
(0.307905 -0.00141977 0)
(0.306834 -0.000643519 0)
(0.305825 -0.000285123 0)
(0.305031 3.08912e-05 0)
(0.304222 -9.55794e-05 0)
(0.303957 -7.29689e-05 0)
(0.303424 -0.000308442 0)
(0.303682 -0.000311844 0)
(0.303269 -0.000229245 0)
(0.30367 -0.000122235 0)
(0.303087 0.000398288 0)
(0.311538 -0.0219412 0)
(0.31366 -0.0186761 0)
(0.314736 -0.0152194 0)
(0.314843 -0.0119572 0)
(0.314318 -0.0091192 0)
(0.313412 -0.00667564 0)
(0.312294 -0.00468653 0)
(0.311119 -0.00301917 0)
(0.309838 -0.00170023 0)
(0.308599 -0.00071838 0)
(0.307341 3.26845e-05 0)
(0.306151 0.000308813 0)
(0.305222 0.00054515 0)
(0.304268 0.000254497 0)
(0.303999 0.000163877 0)
(0.303396 -0.000217184 0)
(0.30379 -0.00030473 0)
(0.303351 -0.000205961 0)
(0.3039 -0.000104685 0)
(0.303237 0.000616112 0)
(0.313656 -0.0236763 0)
(0.316062 -0.0196188 0)
(0.317099 -0.0155063 0)
(0.316976 -0.0117781 0)
(0.316162 -0.00864149 0)
(0.314969 -0.0060176 0)
(0.313592 -0.00394021 0)
(0.312187 -0.00221479 0)
(0.310686 -0.000880112 0)
(0.309228 0.000106418 0)
(0.307748 0.000825086 0)
(0.306327 0.00100838 0)
(0.305226 0.00114735 0)
(0.304073 0.000652233 0)
(0.30379 0.000423261 0)
(0.303072 -0.000148559 0)
(0.303625 -0.000334304 0)
(0.303121 -0.000214407 0)
(0.303844 -0.000112641 0)
(0.303039 0.000874379 0)
(0.316302 -0.0256954 0)
(0.318955 -0.0205992 0)
(0.319835 -0.0156936 0)
(0.319358 -0.0114334 0)
(0.318145 -0.00797727 0)
(0.316577 -0.0051843 0)
(0.314871 -0.00303578 0)
(0.313178 -0.00126253 0)
(0.311402 8.42247e-05 0)
(0.309655 0.00108239 0)
(0.307887 0.00176626 0)
(0.306139 0.00185582 0)
(0.304792 0.00187409 0)
(0.303338 0.0011325 0)
(0.302985 0.000734823 0)
(0.302062 -8.92591e-05 0)
(0.302754 -0.000383281 0)
(0.302104 -0.000244008 0)
(0.302998 -0.000126621 0)
(0.301954 0.00120484 0)
(0.319726 -0.0279909 0)
(0.32252 -0.0215576 0)
(0.323039 -0.0157032 0)
(0.321994 -0.010839 0)
(0.320177 -0.00704565 0)
(0.318057 -0.00410628 0)
(0.31587 -0.0019149 0)
(0.313754 -0.00011675 0)
(0.311575 0.00124118 0)
(0.309402 0.00226622 0)
(0.307213 0.00292161 0)
(0.304976 0.00292392 0)
(0.303245 0.00279435 0)
(0.301316 0.00176505 0)
(0.300768 0.00115953 0)
(0.299476 8.15353e-06 0)
(0.300213 -0.000397583 0)
(0.299294 -0.000260714 0)
(0.300303 -0.000103134 0)
(0.29893 0.00165022 0)
(0.324358 -0.0305073 0)
(0.326936 -0.0223992 0)
(0.326622 -0.0154093 0)
(0.32453 -0.00985799 0)
(0.321652 -0.00570296 0)
(0.318581 -0.00263917 0)
(0.315568 -0.00043115 0)
(0.312753 0.00135224 0)
(0.309926 0.00271561 0)
(0.307111 0.00377604 0)
(0.304294 0.00441139 0)
(0.301357 0.00433791 0)
(0.299041 0.00402834 0)
(0.296405 0.00267895 0)
(0.295458 0.00181463 0)
(0.293577 0.000245866 0)
(0.294181 -0.000279084 0)
(0.29289 -0.000208642 0)
(0.293916 9.08563e-06 0)
(0.292268 0.00223917 0)
(0.330541 -0.0334224 0)
(0.331652 -0.0230409 0)
(0.329287 -0.0145126 0)
(0.325052 -0.00815843 0)
(0.320192 -0.00368095 0)
(0.315417 -0.000587821 0)
(0.310992 0.00156005 0)
(0.307059 0.00328412 0)
(0.303293 0.00464581 0)
(0.299661 0.0057415 0)
(0.296065 0.00636556 0)
(0.292323 0.00622784 0)
(0.289274 0.00570718 0)
(0.285782 0.0040243 0)
(0.284241 0.00283876 0)
(0.281612 0.000758857 0)
(0.281939 7.29227e-05 0)
(0.280338 -6.09126e-05 0)
(0.281349 0.000210776 0)
(0.279836 0.00292729 0)
(0.336611 -0.0342591 0)
(0.332648 -0.021559 0)
(0.325585 -0.0113355 0)
(0.317198 -0.00430587 0)
(0.309037 0.000145835 0)
(0.301738 0.00285433 0)
(0.295492 0.00460176 0)
(0.290342 0.00601977 0)
(0.285754 0.00722075 0)
(0.281608 0.00824819 0)
(0.277547 0.00882276 0)
(0.27339 0.00861781 0)
(0.269822 0.00786978 0)
(0.265726 0.00586764 0)
(0.263669 0.00428688 0)
(0.260495 0.00159703 0)
(0.260708 0.00064207 0)
(0.259259 7.64946e-05 0)
(0.260496 0.000335854 0)
(0.260002 0.00351379 0)
(0.329941 -0.0343205 0)
(0.314252 -0.0180956 0)
(0.300026 -0.00593173 0)
(0.286191 0.00125454 0)
(0.274659 0.00537911 0)
(0.265512 0.00739831 0)
(0.258664 0.00842691 0)
(0.25375 0.00920424 0)
(0.249932 0.00998361 0)
(0.246851 0.0107914 0)
(0.243751 0.0112812 0)
(0.2405 0.0110668 0)
(0.237382 0.0101716 0)
(0.233705 0.00793533 0)
(0.231824 0.00590867 0)
(0.22905 0.002491 0)
(0.22986 0.00107429 0)
(0.229493 -0.000175221 0)
(0.231554 -4.61624e-05 0)
(0.233144 0.00362219 0)
(0.280019 -0.0209521 0)
(0.246574 -0.00479882 0)
(0.228633 0.00695849 0)
(0.213629 0.0110517 0)
(0.204266 0.012861 0)
(0.198213 0.0126761 0)
(0.195256 0.0119912 0)
(0.194417 0.0114971 0)
(0.194658 0.0115398 0)
(0.195318 0.0120678 0)
(0.195418 0.0125763 0)
(0.194962 0.0125616 0)
(0.193864 0.0117193 0)
(0.192242 0.0094021 0)
(0.191816 0.00691492 0)
(0.190977 0.00271089 0)
(0.193321 0.000699903 0)
(0.195055 -0.00139367 0)
(0.198428 -0.00143413 0)
(0.202653 0.00288849 0)
(0.119176 0.00827624 0)
(0.105524 0.0083823 0)
(0.108156 0.0151843 0)
(0.106438 0.0143104 0)
(0.110554 0.0143906 0)
(0.114645 0.0122896 0)
(0.120405 0.0106198 0)
(0.126704 0.00953321 0)
(0.133038 0.00951407 0)
(0.13881 0.0103858 0)
(0.14331 0.0114342 0)
(0.146738 0.0120391 0)
(0.148939 0.0114898 0)
(0.150705 0.00923905 0)
(0.152877 0.0063282 0)
(0.155099 0.00141184 0)
(0.159207 -0.00109998 0)
(0.163387 -0.00398218 0)
(0.167753 -0.0039794 0)
(0.174264 0.00115279 0)
(0.044808 -0.00197473 0)
(0.0368071 0.00416669 0)
(0.0512383 0.0114214 0)
(0.0548025 0.0108288 0)
(0.0650816 0.0109146 0)
(0.0736113 0.00864039 0)
(0.0835077 0.0069457 0)
(0.0931074 0.00595213 0)
(0.10234 0.0062191 0)
(0.110647 0.00756121 0)
(0.117564 0.00912885 0)
(0.123294 0.0102511 0)
(0.127732 0.0100153 0)
(0.131736 0.00788859 0)
(0.13564 0.00490526 0)
(0.139719 -0.000248684 0)
(0.144458 -0.00298053 0)
(0.149818 -0.00599189 0)
(0.154071 -0.00612703 0)
(0.161432 -0.000370364 0)
(0.0207513 -0.00880451 0)
(0.0127958 0.0032192 0)
(0.0299361 0.0097826 0)
(0.0354064 0.00929486 0)
(0.0479734 0.00912174 0)
(0.0581812 0.00684307 0)
(0.069611 0.00511873 0)
(0.0804138 0.00419595 0)
(0.0906968 0.00459658 0)
(0.0999339 0.00614867 0)
(0.107783 0.00794257 0)
(0.114435 0.0092854 0)
(0.119819 0.00919393 0)
(0.124771 0.0071278 0)
(0.129417 0.00414226 0)
(0.134269 -0.00106785 0)
(0.139214 -0.00387847 0)
(0.145005 -0.00687094 0)
(0.149103 -0.00711245 0)
(0.156702 -0.00104422 0)
(0.00443396 -0.00968554 0)
(-0.00519233 0.00237046 0)
(0.0131709 0.00785023 0)
(0.0201043 0.00751779 0)
(0.0344728 0.00704518 0)
(0.04602 0.00482499 0)
(0.0586324 0.00309567 0)
(0.0703353 0.00227906 0)
(0.0813955 0.00282898 0)
(0.0913372 0.00459385 0)
(0.0999458 0.00660863 0)
(0.107391 0.00816342 0)
(0.11364 0.00821432 0)
(0.119464 0.00622166 0)
(0.124795 0.0032544 0)
(0.130336 -0.00196355 0)
(0.135403 -0.00482456 0)
(0.141511 -0.00775379 0)
(0.145354 -0.00810034 0)
(0.153047 -0.00173796 0)
(-0.00562928 -0.00815472 0)
(-0.0174487 0.00156844 0)
(0.00131231 0.0056675 0)
(0.00930588 0.00547669 0)
(0.0249773 0.00472175 0)
(0.0374892 0.00260978 0)
(0.0509041 0.000916543 0)
(0.0631765 0.000238548 0)
(0.0747173 0.000952202 0)
(0.0851144 0.00292823 0)
(0.0942862 0.00515316 0)
(0.102367 0.0069069 0)
(0.109371 0.00709228 0)
(0.115961 0.00518692 0)
(0.121891 0.00225492 0)
(0.128014 -0.00292203 0)
(0.133111 -0.00580103 0)
(0.13941 -0.008634 0)
(0.142909 -0.00906391 0)
(0.150548 -0.0024404 0)
(-0.0106642 -0.00530609 0)
(-0.0241884 0.000853664 0)
(-0.00539181 0.00337857 0)
(0.00328238 0.00327291 0)
(0.0197597 0.00223348 0)
(0.0328411 0.000270009 0)
(0.0466624 -0.00135217 0)
(0.0591586 -0.00186721 0)
(0.0708706 -0.000982429 0)
(0.0814586 0.00119317 0)
(0.090978 0.00360943 0)
(0.0995155 0.00554169 0)
(0.107135 0.00584962 0)
(0.114356 0.00404251 0)
(0.120776 0.00116312 0)
(0.127357 -0.00392431 0)
(0.132388 -0.00678816 0)
(0.138746 -0.00949093 0)
(0.141827 -0.00998294 0)
(0.149262 -0.00313676 0)
(-0.0114179 -0.00188307 0)
(-0.0255563 0.000238903 0)
(-0.00680967 0.00105817 0)
(0.00217993 0.00098521 0)
(0.0189683 -0.000336236 0)
(0.0322145 -0.00211939 0)
(0.0460406 -0.0036427 0)
(0.0584118 -0.00397853 0)
(0.0699827 -0.00292306 0)
(0.0804902 -0.000567641 0)
(0.0901289 0.00201356 0)
(0.0989256 0.00409742 0)
(0.106997 0.00451236 0)
(0.114695 0.00281133 0)
(0.121474 5.20328e-07 0)
(0.128374 -0.00495013 0)
(0.133245 -0.00776594 0)
(0.139529 -0.0103053 0)
(0.142134 -0.0108396 0)
(0.149219 -0.00381293 0)
(-0.00811834 0.00133535 0)
(-0.0216098 -0.000367934 0)
(-0.00291045 -0.00127307 0)
(0.00602879 -0.00132038 0)
(0.0226296 -0.00290665 0)
(0.0356317 -0.00448719 0)
(0.0490648 -0.00588981 0)
(0.0609692 -0.00603785 0)
(0.0720943 -0.00481981 0)
(0.0822517 -0.00231014 0)
(0.0917764 0.000403502 0)
(0.100623 0.00260705 0)
(0.108964 0.00311005 0)
(0.116967 0.0015199 0)
(0.12396 -0.00120831 0)
(0.131034 -0.00597879 0)
(0.135654 -0.00871505 0)
(0.141737 -0.0110611 0)
(0.143826 -0.0116177 0)
(0.150423 -0.00445567 0)
(-0.000506299 0.00355665 0)
(-0.0123116 -0.00103039 0)
(0.00624778 -0.00358512 0)
(0.0147516 -0.00357392 0)
(0.0306471 -0.00539649 0)
(0.0429977 -0.00676186 0)
(0.0556519 -0.00802983 0)
(0.0667642 -0.00798948 0)
(0.0771556 -0.00662278 0)
(0.086705 -0.00399054 0)
(0.0958852 -0.00118099 0)
(0.10457 0.00110615 0)
(0.112986 0.00167508 0)
(0.12111 0.000197588 0)
(0.128164 -0.0024366 0)
(0.135263 -0.00698948 0)
(0.139549 -0.00961735 0)
(0.145316 -0.0117451 0)
(0.146867 -0.0123038 0)
(0.152851 -0.00505153 0)
(0.0121082 0.00381864 0)
(0.00247134 -0.00177538 0)
(0.0205034 -0.00579165 0)
(0.0281545 -0.0056961 0)
(0.0428033 -0.00772414 0)
(0.0541008 -0.00887408 0)
(0.065609 -0.0100021 0)
(0.0756301 -0.0097815 0)
(0.0850268 -0.00828563 0)
(0.0937315 -0.00556688 0)
(0.102349 -0.00270109 0)
(0.110663 -0.00036865 0)
(0.118957 0.00024121 0)
(0.127018 -0.00112488 0)
(0.133972 -0.00365801 0)
(0.140952 -0.00796227 0)
(0.14483 -0.0104562 0)
(0.150178 -0.012347 0)
(0.151189 -0.0128869 0)
(0.156453 -0.00558886 0)
(0.0306993 0.000617164 0)
(0.022986 -0.00274223 0)
(0.0396028 -0.00780956 0)
(0.0459207 -0.00763259 0)
(0.0587585 -0.00981357 0)
(0.0686155 -0.0107746 0)
(0.0786379 -0.0117557 0)
(0.0873035 -0.0113727 0)
(0.09548 -0.00977115 0)