x,y,z,p
0,0,0,0.00031779
0,0.1,0,0.000510465
0,0.2,0,0.000703139
0,0.3,0,0.000895814
0,0.4,0,0.00108849
0,0.5,0,0.00128805
0,0.6,0,0.00154037
0,0.7,0,0.0017927
0,0.8,0,0.00204503
0,0.9,0,0.00229736
0,1,0,0.00254759
0,1.1,0,0.00279086
0,1.2,0,0.00303413
0,1.3,0,0.00327739
0,1.4,0,0.00352066
0,1.5,0,0.00376033
0,1.6,0,0.00399322
0,1.7,0,0.0042261
0,1.8,0,0.00445899
0,1.9,0,0.00469187
0,2,0,0.00491869
0,2.1,0,0.00513842
0,2.2,0,0.00535816
0,2.3,0,0.00557789
0,2.4,0,0.00579763
0,2.5,0,0.00600784
0,2.6,0,0.00621108
0,2.7,0,0.00641431
0,2.8,0,0.00661755
0,2.9,0,0.00682079
0,3,0,0.00701042
0,3.1,0,0.00719401
0,3.2,0,0.00737761
0,3.3,0,0.0075612
0,3.4,0,0.00774479
0,3.5,0,0.00791025
0,3.6,0,0.00807139
0,3.7,0,0.00823253
0,3.8,0,0.00839367
0,3.9,0,0.00855481
0,4,0,0.00869302
0,4.1,0,0.00882931
0,4.2,0,0.0089656
0,4.3,0,0.00910189
0,4.4,0,0.00923715
0,4.5,0,0.00934655
0,4.6,0,0.00945594
0,4.7,0,0.00956534
0,4.8,0,0.00967474
0,4.9,0,0.00977973
0,5,0,0.0098605
0,5.1,0,0.00994128
0,5.2,0,0.0100221
0,5.3,0,0.0101028
0,5.4,0,0.0101755
0,5.5,0,0.0102263
0,5.6,0,0.010277
0,5.7,0,0.0103278
0,5.8,0,0.0103786
0,5.9,0,0.0104174
0,6,0,0.0104371
0,6.1,0,0.0104568
0,6.2,0,0.0104765
0,6.3,0,0.0104962
0,6.4,0,0.0105001
0,6.5,0,0.0104882
0,6.6,0,0.0104763
0,6.7,0,0.0104643
0,6.8,0,0.0104524
0,6.9,0,0.010421
0,7,0,0.0103774
0,7.1,0,0.0103339
0,7.2,0,0.0102903
0,7.3,0,0.0102468
0,7.4,0,0.0101805
0,7.5,0,0.0101059
0,7.6,0,0.0100313
0,7.7,0,0.0099567
0,7.8,0,0.00988209
0,7.9,0,0.00978211
0,8,0,0.00967753
0,8.1,0,0.00957294
0,8.2,0,0.00946835
0,8.3,0,0.00936377
0,8.4,0,0.00923188
0,8.5,0,0.00909891
0,8.6,0,0.00896594
0,8.7,0,0.00883296
0,8.8,0,0.00869795
0,8.9,0,0.00853856
0,9,0,0.00837917
0,9.1,0,0.00821977
0,9.2,0,0.00806038
0,9.3,0,0.00789636
0,9.4,0,0.00771287
0,9.5,0,0.00752939
0,9.6,0,0.00734591
0,9.7,0,0.00716243
0,9.8,0,0.00697232
0,9.9,0,0.00676728
0,10,0,0.00656224
0,10.1,0,0.0063572
0,10.2,0,0.00615216
0,10.3,0,0.00593927
0,10.4,0,0.00571566
0,10.5,0,0.00549205
0,10.6,0,0.00526843
0,10.7,0,0.00504482
0,10.8,0,0.00481307
0,10.9,0,0.00457435
0,11,0,0.00433562
0,11.1,0,0.00409689
0,11.2,0,0.00385817
0,11.3,0,0.00361202
0,11.4,0,0.00336194
0,11.5,0,0.00311186
0,11.6,0,0.00286178
0,11.7,0,0.0026117
0,11.8,0,0.00235538
0,11.9,0,0.00209719
0,12,0,0.001839
0,12.1,0,0.00158082
0,12.2,0,0.00132263
0,12.3,0,0.00111825
0,12.4,0,0.000920897
0,12.5,0,0.000723539
0,12.6,0,0.000526182
0,12.7,0,0.000328825
0.1,0,0,0.000254232
0.1,0.1,0,0.000512272
0.1,0.2,0,0.000704947
0.1,0.3,0,0.000897622
0.1,0.4,0,0.0010903
0.1,0.5,0,0.00129024
0.1,0.6,0,0.00154281
0.1,0.7,0,0.00179514
0.1,0.8,0,0.00204747
0.1,0.9,0,0.0022998
0.1,1,0,0.00255003
0.1,1.1,0,0.0027933
0.1,1.2,0,0.00303657
0.1,1.3,0,0.00327983
0.1,1.4,0,0.00352375
0.1,1.5,0,0.00376474
0.1,1.6,0,0.00399763
0.1,1.7,0,0.00423051
0.1,1.8,0,0.0044634
0.1,1.9,0,0.0046971
0.1,2,0,0.00492492
0.1,2.1,0,0.00514466
0.1,2.2,0,0.00536439
0.1,2.3,0,0.00558413
0.1,2.4,0,0.00580478
0.1,2.5,0,0.0060157
0.1,2.6,0,0.00621893
0.1,2.7,0,0.00642217
0.1,2.8,0,0.00662541
0.1,2.9,0,0.0068296
0.1,3,0,0.00701967
0.1,3.1,0,0.00720326
0.1,3.2,0,0.00738685
0.1,3.3,0,0.00757045
0.1,3.4,0,0.00775504
0.1,3.5,0,0.00792074
0.1,3.6,0,0.00808189
0.1,3.7,0,0.00824303
0.1,3.8,0,0.00840417
0.1,3.9,0,0.00856641
0.1,4,0,0.00870471
0.1,4.1,0,0.008841
0.1,4.2,0,0.00897729
0.1,4.3,0,0.0091136
0.1,4.4,0,0.00924997
0.1,4.5,0,0.00935936
0.1,4.6,0,0.00946876
0.1,4.7,0,0.00957816
0.1,4.8,0,0.00968768
0.1,4.9,0,0.0097935
0.1,5,0,0.00987428
0.1,5.1,0,0.00995505
0.1,5.2,0,0.0100358
0.1,5.3,0,0.0101168
0.1,5.4,0,0.01019
0.1,5.5,0,0.0102407
0.1,5.6,0,0.0102915
0.1,5.7,0,0.0103423
0.1,5.8,0,0.0103932
0.1,5.9,0,0.0104322
0.1,6,0,0.0104519
0.1,6.1,0,0.0104717
0.1,6.2,0,0.0104914
0.1,6.3,0,0.0105111
0.1,6.4,0,0.0105151
0.1,6.5,0,0.0105032
0.1,6.6,0,0.0104912
0.1,6.7,0,0.0104793
0.1,6.8,0,0.0104673
0.1,6.9,0,0.0104359
0.1,7,0,0.0103923
0.1,7.1,0,0.0103488
0.1,7.2,0,0.0103052
0.1,7.3,0,0.0102615
0.1,7.4,0,0.0101951
0.1,7.5,0,0.0101205
0.1,7.6,0,0.0100459
0.1,7.7,0,0.0099713
0.1,7.8,0,0.00989628
0.1,7.9,0,0.00979623
0.1,8,0,0.00969164
0.1,8.1,0,0.00958705
0.1,8.2,0,0.00948247
0.1,8.3,0,0.00937721
0.1,8.4,0,0.0092453
0.1,8.5,0,0.00911233
0.1,8.6,0,0.00897935
0.1,8.7,0,0.00884633
0.1,8.8,0,0.00871045
0.1,8.9,0,0.00855105
0.1,9,0,0.00839166
0.1,9.1,0,0.00823227
0.1,9.2,0,0.00807268
0.1,9.3,0,0.00790775
0.1,9.4,0,0.00772426
0.1,9.5,0,0.00754078
0.1,9.6,0,0.0073573
0.1,9.7,0,0.00717344
0.1,9.8,0,0.0069824
0.1,9.9,0,0.00677736
0.1,10,0,0.00657232
0.1,10.1,0,0.00636729
0.1,10.2,0,0.00616162
0.1,10.3,0,0.00594781
0.1,10.4,0,0.0057242
0.1,10.5,0,0.00550059
0.1,10.6,0,0.00527698
0.1,10.7,0,0.00505249
0.1,10.8,0,0.00481995
0.1,10.9,0,0.00458123
0.1,11,0,0.0043425
0.1,11.1,0,0.00410377
0.1,11.2,0,0.00386389
0.1,11.3,0,0.0036171
0.1,11.4,0,0.00336702
0.1,11.5,0,0.00311694
0.1,11.6,0,0.00286686
0.1,11.7,0,0.00261542
0.1,11.8,0,0.00235869
0.1,11.9,0,0.0021005
0.1,12,0,0.00184231
0.1,12.1,0,0.00158413
0.1,12.2,0,0.00132363
0.1,12.3,0,0.00111915
0.1,12.4,0,0.000921794
0.1,12.5,0,0.000724436
0.1,12.6,0,0.000527079
0.1,12.7,0,0.00026306
0.2,0,0,0.000190674
0.2,0.1,0,0.000450468
0.2,0.2,0,0.000706755
0.2,0.3,0,0.00089943
0.2,0.4,0,0.0010921
0.2,0.5,0,0.0012924
0.2,0.6,0,0.00154501
0.2,0.7,0,0.00179758
0.2,0.8,0,0.00204991
0.2,0.9,0,0.00230223
0.2,1,0,0.00255247
0.2,1.1,0,0.00279574
0.2,1.2,0,0.003039
0.2,1.3,0,0.00328288
0.2,1.4,0,0.00352816
0.2,1.5,0,0.00376915
0.2,1.6,0,0.00400204
0.2,1.7,0,0.00423492
0.2,1.8,0,0.00446858
0.2,1.9,0,0.00470333
0.2,2,0,0.00493116
0.2,2.1,0,0.00515089
0.2,2.2,0,0.00537063
0.2,2.3,0,0.00559124
0.2,2.4,0,0.00581263
0.2,2.5,0,0.00602355
0.2,2.6,0,0.00622679
0.2,2.7,0,0.00643002
0.2,2.8,0,0.00663418
0.2,2.9,0,0.00683884
0.2,3,0,0.00702892
0.2,3.1,0,0.00721251
0.2,3.2,0,0.0073961
0.2,3.3,0,0.00758067
0.2,3.4,0,0.00776554
0.2,3.5,0,0.00793124
0.2,3.6,0,0.00809238
0.2,3.7,0,0.00825352
0.2,3.8,0,0.00841574
0.2,3.9,0,0.0085781
0.2,4,0,0.0087164
0.2,4.1,0,0.00885269
0.2,4.2,0,0.00898898
0.2,4.3,0,0.00912642
0.2,4.4,0,0.00926278
0.2,4.5,0,0.00937218
0.2,4.6,0,0.00948158
0.2,4.7,0,0.00959108
0.2,4.8,0,0.00970145
0.2,4.9,0,0.00980727
0.2,5,0,0.00988805
0.2,5.1,0,0.00996882
0.2,5.2,0,0.0100498
0.2,5.3,0,0.0101312
0.2,5.4,0,0.0102044
0.2,5.5,0,0.0102552
0.2,5.6,0,0.010306
0.2,5.7,0,0.0103569
0.2,5.8,0,0.010408
0.2,5.9,0,0.0104471
0.2,6,0,0.0104668
0.2,6.1,0,0.0104865
0.2,6.2,0,0.0105063
0.2,6.3,0,0.0105261
0.2,6.4,0,0.01053
0.2,6.5,0,0.0105181
0.2,6.6,0,0.0105062
0.2,6.7,0,0.0104942
0.2,6.8,0,0.0104822
0.2,6.9,0,0.0104508
0.2,7,0,0.0104072
0.2,7.1,0,0.0103636
0.2,7.2,0,0.0103199
0.2,7.3,0,0.0102761
0.2,7.4,0,0.0102097
0.2,7.5,0,0.0101351
0.2,7.6,0,0.0100605
0.2,7.7,0,0.0099855
0.2,7.8,0,0.00991039
0.2,7.9,0,0.00981034
0.2,8,0,0.00970575
0.2,8.1,0,0.00960117
0.2,8.2,0,0.00949593
0.2,8.3,0,0.00939063
0.2,8.4,0,0.00925871
0.2,8.5,0,0.00912574
0.2,8.6,0,0.00899274
0.2,8.7,0,0.00885882
0.2,8.8,0,0.00872294
0.2,8.9,0,0.00856355
0.2,9,0,0.00840415
0.2,9.1,0,0.0082446
0.2,9.2,0,0.00808407
0.2,9.3,0,0.00791914
0.2,9.4,0,0.00773565
0.2,9.5,0,0.00755217
0.2,9.6,0,0.00736834
0.2,9.7,0,0.00718353
0.2,9.8,0,0.00699249
0.2,9.9,0,0.00678745
0.2,10,0,0.00658241
0.2,10.1,0,0.00637678
0.2,10.2,0,0.00617016
0.2,10.3,0,0.00595635
0.2,10.4,0,0.00573274
0.2,10.5,0,0.00550913
0.2,10.6,0,0.00528468
0.2,10.7,0,0.00505937
0.2,10.8,0,0.00482683
0.2,10.9,0,0.0045881
0.2,11,0,0.00434938
0.2,11.1,0,0.00410953
0.2,11.2,0,0.00386897
0.2,11.3,0,0.00362219
0.2,11.4,0,0.00337211
0.2,11.5,0,0.00312203
0.2,11.6,0,0.00287063
0.2,11.7,0,0.00261873
0.2,11.8,0,0.002362
0.2,11.9,0,0.00210381
0.2,12,0,0.00184562
0.2,12.1,0,0.00158518
0.2,12.2,0,0.00132431
0.2,12.3,0,0.00112005
0.2,12.4,0,0.000922691
0.2,12.5,0,0.000725333
0.2,12.6,0,0.000462954
0.2,12.7,0,0.000197295
0.3,0,0,0.000127116
0.3,0.1,0,0.00038691
0.3,0.2,0,0.000646703
0.3,0.3,0,0.000901238
0.3,0.4,0,0.00109391
0.3,0.5,0,0.00129456
0.3,0.6,0,0.00154718
0.3,0.7,0,0.00179979
0.3,0.8,0,0.00205235
0.3,0.9,0,0.00230467
0.3,1,0,0.00255491
0.3,1.1,0,0.00279818
0.3,1.2,0,0.003042
0.3,1.3,0,0.00328729
0.3,1.4,0,0.00353257
0.3,1.5,0,0.00377356
0.3,1.6,0,0.00400645
0.3,1.7,0,0.00424007
0.3,1.8,0,0.00447482
0.3,1.9,0,0.00470957
0.3,2,0,0.00493739
0.3,2.1,0,0.00515713
0.3,2.2,0,0.0053777
0.3,2.3,0,0.0055991
0.3,2.4,0,0.00582049
0.3,2.5,0,0.00603141
0.3,2.6,0,0.00623464
0.3,2.7,0,0.00643877
0.3,2.8,0,0.00664343
0.3,2.9,0,0.00684809
0.3,3,0,0.00703817
0.3,3.1,0,0.00722176
0.3,3.2,0,0.00740629
0.3,3.3,0,0.00759116
0.3,3.4,0,0.00777603
0.3,3.5,0,0.00794174
0.3,3.6,0,0.00810288
0.3,3.7,0,0.00826506
0.3,3.8,0,0.00842743
0.3,3.9,0,0.0085898
0.3,4,0,0.00872809
0.3,4.1,0,0.00886438
0.3,4.2,0,0.00900179
0.3,4.3,0,0.00913924
0.3,4.4,0,0.0092756
0.3,4.5,0,0.009385
0.3,4.6,0,0.00949448
0.3,4.7,0,0.00960485
0.3,4.8,0,0.00971523
0.3,4.9,0,0.00982105
0.3,5,0,0.00990182
0.3,5.1,0,0.00998273
0.3,5.2,0,0.0100642
0.3,5.3,0,0.0101457
0.3,5.4,0,0.0102189
0.3,5.5,0,0.0102697
0.3,5.6,0,0.0103206
0.3,5.7,0,0.0103717
0.3,5.8,0,0.0104229
0.3,5.9,0,0.0104619
0.3,6,0,0.0104816
0.3,6.1,0,0.0105014
0.3,6.2,0,0.0105212
0.3,6.3,0,0.0105411
0.3,6.4,0,0.010545
0.3,6.5,0,0.0105331
0.3,6.6,0,0.0105211
0.3,6.7,0,0.0105091
0.3,6.8,0,0.0104971
0.3,6.9,0,0.0104656
0.3,7,0,0.0104221
0.3,7.1,0,0.0103783
0.3,7.2,0,0.0103345
0.3,7.3,0,0.0102907
0.3,7.4,0,0.0102243
0.3,7.5,0,0.0101497
0.3,7.6,0,0.0100747
0.3,7.7,0,0.00999961
0.3,7.8,0,0.0099245
0.3,7.9,0,0.00982445
0.3,8,0,0.00971987
0.3,8.1,0,0.00961464
0.3,8.2,0,0.00950934
0.3,8.3,0,0.00940404
0.3,8.4,0,0.00927213
0.3,8.5,0,0.00913915
0.3,8.6,0,0.00900523
0.3,8.7,0,0.00887131
0.3,8.8,0,0.00873543
0.3,8.9,0,0.00857604
0.3,9,0,0.00841651
0.3,9.1,0,0.00825599
0.3,9.2,0,0.00809546
0.3,9.3,0,0.00793053
0.3,9.4,0,0.00774705
0.3,9.5,0,0.00756325
0.3,9.6,0,0.00737843
0.3,9.7,0,0.00719361
0.3,9.8,0,0.00700257
0.3,9.9,0,0.00679753
0.3,10,0,0.00659194
0.3,10.1,0,0.00638532
0.3,10.2,0,0.0061787
0.3,10.3,0,0.00596489
0.3,10.4,0,0.00574128
0.3,10.5,0,0.00551687
0.3,10.6,0,0.00529156
0.3,10.7,0,0.00506625
0.3,10.8,0,0.00483371
0.3,10.9,0,0.00459498
0.3,11,0,0.00435518
0.3,11.1,0,0.00411462
0.3,11.2,0,0.00387406
0.3,11.3,0,0.00362727
0.3,11.4,0,0.00337719
0.3,11.5,0,0.00312584
0.3,11.6,0,0.00287394
0.3,11.7,0,0.00262204
0.3,11.8,0,0.0023653
0.3,11.9,0,0.00210712
0.3,12,0,0.00184674
0.3,12.1,0,0.00158587
0.3,12.2,0,0.001325
0.3,12.3,0,0.00112094
0.3,12.4,0,0.000923587
0.3,12.5,0,0.000662848
0.3,12.6,0,0.000397189
0.3,12.7,0,0.00013153
0.4,0,0,6.35579e-05
0.4,0.1,0,0.000323352
0.4,0.2,0,0.000583145
0.4,0.3,0,0.000842939
0.4,0.4,0,0.00109572
0.4,0.5,0,0.00129673
0.4,0.6,0,0.00154934
0.4,0.7,0,0.00180195
0.4,0.8,0,0.00205456
0.4,0.9,0,0.00230711
0.4,1,0,0.00255735
0.4,1.1,0,0.00280113
0.4,1.2,0,0.00304641
0.4,1.3,0,0.0032917
0.4,1.4,0,0.00353698
0.4,1.5,0,0.00377797
0.4,1.6,0,0.00401155
0.4,1.7,0,0.0042463
0.4,1.8,0,0.00448105
0.4,1.9,0,0.0047158
0.4,2,0,0.00494363
0.4,2.1,0,0.00516416
0.4,2.2,0,0.00538556
0.4,2.3,0,0.00560695
0.4,2.4,0,0.00582835
0.4,2.5,0,0.00603926
0.4,2.6,0,0.00624335
0.4,2.7,0,0.00644802
0.4,2.8,0,0.00665268
0.4,2.9,0,0.00685734
0.4,3,0,0.00704741
0.4,3.1,0,0.00723192
0.4,3.2,0,0.00741679
0.4,3.3,0,0.00760166
0.4,3.4,0,0.00778653
0.4,3.5,0,0.00795223
0.4,3.6,0,0.00811439
0.4,3.7,0,0.00827676
0.4,3.8,0,0.00843912
0.4,3.9,0,0.00860149
0.4,4,0,0.00873979
0.4,4.1,0,0.00887717
0.4,4.2,0,0.00901461
0.4,4.3,0,0.00915205
0.4,4.4,0,0.00928842
0.4,4.5,0,0.00939788
0.4,4.6,0,0.00950825
0.4,4.7,0,0.00961862
0.4,4.8,0,0.009729
0.4,4.9,0,0.00983482
0.4,5,0,0.00991572
0.4,5.1,0,0.0099972
0.4,5.2,0,0.0100787
0.4,5.3,0,0.0101602
0.4,5.4,0,0.0102334
0.4,5.5,0,0.0102843
0.4,5.6,0,0.0103354
0.4,5.7,0,0.0103866
0.4,5.8,0,0.0104377
0.4,5.9,0,0.0104768
0.4,6,0,0.0104965
0.4,6.1,0,0.0105164
0.4,6.2,0,0.0105362
0.4,6.3,0,0.010556
0.4,6.4,0,0.01056
0.4,6.5,0,0.010548
0.4,6.6,0,0.010536
0.4,6.7,0,0.010524
0.4,6.8,0,0.0105119
0.4,6.9,0,0.0104805
0.4,7,0,0.0104368
0.4,7.1,0,0.0103929
0.4,7.2,0,0.0103491
0.4,7.3,0,0.0103053
0.4,7.4,0,0.0102389
0.4,7.5,0,0.0101639
0.4,7.6,0,0.0100888
0.4,7.7,0,0.0100137
0.4,7.8,0,0.00993862
0.4,7.9,0,0.00983857
0.4,8,0,0.00973336
0.4,8.1,0,0.00962806
0.4,8.2,0,0.00952276
0.4,8.3,0,0.00941746
0.4,8.4,0,0.00928554
0.4,8.5,0,0.00915164
0.4,8.6,0,0.00901772
0.4,8.7,0,0.0088838
0.4,8.8,0,0.00874793
0.4,8.9,0,0.00858842
0.4,9,0,0.0084279
0.4,9.1,0,0.00826738
0.4,9.2,0,0.00810685
0.4,9.3,0,0.00794192
0.4,9.4,0,0.00775815
0.4,9.5,0,0.00757333
0.4,9.6,0,0.00738851
0.4,9.7,0,0.0072037
0.4,9.8,0,0.00701266
0.4,9.9,0,0.0068071
0.4,10,0,0.00660048
0.4,10.1,0,0.00639386
0.4,10.2,0,0.00618724
0.4,10.3,0,0.00597344
0.4,10.4,0,0.00574907
0.4,10.5,0,0.00552375
0.4,10.6,0,0.00529844
0.4,10.7,0,0.00507313
0.4,10.8,0,0.00484059
0.4,10.9,0,0.00460083
0.4,11,0,0.00436027
0.4,11.1,0,0.00411971
0.4,11.2,0,0.00387914
0.4,11.3,0,0.00363236
0.4,11.4,0,0.00338105
0.4,11.5,0,0.00312915
0.4,11.6,0,0.00287725
0.4,11.7,0,0.00262535
0.4,11.8,0,0.00236861
0.4,11.9,0,0.0021083
0.4,12,0,0.00184743
0.4,12.1,0,0.00158656
0.4,12.2,0,0.00132569
0.4,12.3,0,0.00112184
0.4,12.4,0,0.000862743
0.4,12.5,0,0.000597083
0.4,12.6,0,0.000331424
0.4,12.7,0,6.5765e-05
0.5,0,0,0
0.5,0.1,0,0.000259986
0.5,0.2,0,0.000519972
0.5,0.3,0,0.000779957
0.5,0.4,0,0.00103994
0.5,0.5,0,0.00129895
0.5,0.6,0,0.00155155
0.5,0.7,0,0.00180415
0.5,0.8,0,0.00205675
0.5,0.9,0,0.00230934
0.5,1,0,0.00256025
0.5,1.1,0,0.00280554
0.5,1.2,0,0.00305082
0.5,1.3,0,0.00329611
0.5,1.4,0,0.00354139
0.5,1.5,0,0.00378303
0.5,1.6,0,0.00401778
0.5,1.7,0,0.00425254
0.5,1.8,0,0.00448729
0.5,1.9,0,0.00472204
0.5,2,0,0.00495063
0.5,2.1,0,0.00517202
0.5,2.2,0,0.00539341
0.5,2.3,0,0.00561481
0.5,2.4,0,0.0058362
0.5,2.5,0,0.00604794
0.5,2.6,0,0.0062526
0.5,2.7,0,0.00645726
0.5,2.8,0,0.00666193
0.5,2.9,0,0.00686659
0.5,3,0,0.00705755
0.5,3.1,0,0.00724242
0.5,3.2,0,0.00742728
0.5,3.3,0,0.00761215
0.5,3.4,0,0.00779702
0.5,3.5,0,0.00796372
0.5,3.6,0,0.00812608
0.5,3.7,0,0.00828845
0.5,3.8,0,0.00845081
0.5,3.9,0,0.00861318
0.5,4,0,0.00875254
0.5,4.1,0,0.00888998
0.5,4.2,0,0.00902743
0.5,4.3,0,0.00916487
0.5,4.4,0,0.00930127
0.5,4.5,0,0.00941165
0.5,4.6,0,0.00952202
0.5,4.7,0,0.00963239
0.5,4.8,0,0.00974277
0.5,4.9,0,0.0098487
0.5,5,0,0.00993018
0.5,5.1,0,0.0100117
0.5,5.2,0,0.0100931
0.5,5.3,0,0.0101746
0.5,5.4,0,0.0102479
0.5,5.5,0,0.0102991
0.5,5.6,0,0.0103502
0.5,5.7,0,0.0104014
0.5,5.8,0,0.0104525
0.5,5.9,0,0.0104917
0.5,6,0,0.0105115
0.5,6.1,0,0.0105313
0.5,6.2,0,0.0105511
0.5,6.3,0,0.010571
0.5,6.4,0,0.0105749
0.5,6.5,0,0.0105629
0.5,6.6,0,0.0105508
0.5,6.7,0,0.0105388
0.5,6.8,0,0.0105268
0.5,6.9,0,0.0104952
0.5,7,0,0.0104514
0.5,7.1,0,0.0104075
0.5,7.2,0,0.0103637
0.5,7.3,0,0.0103199
0.5,7.4,0,0.0102532
0.5,7.5,0,0.0101781
0.5,7.6,0,0.0101029
0.5,7.7,0,0.0100278
0.5,7.8,0,0.00995273
0.5,7.9,0,0.00985207
0.5,8,0,0.00974677
0.5,8.1,0,0.00964147
0.5,8.2,0,0.00953617
0.5,8.3,0,0.00943087
0.5,8.4,0,0.00929805
0.5,8.5,0,0.00916413
0.5,8.6,0,0.00903022
0.5,8.7,0,0.0088963
0.5,8.8,0,0.00876033
0.5,8.9,0,0.00859981
0.5,9,0,0.00843929
0.5,9.1,0,0.00827877
0.5,9.2,0,0.00811824
0.5,9.3,0,0.00795305
0.5,9.4,0,0.00776823
0.5,9.5,0,0.00758342
0.5,9.6,0,0.0073986
0.5,9.7,0,0.00721378
0.5,9.8,0,0.00702226
0.5,9.9,0,0.00681564
0.5,10,0,0.00660902
0.5,10.1,0,0.0064024
0.5,10.2,0,0.00619579
0.5,10.3,0,0.00598126
0.5,10.4,0,0.00575595
0.5,10.5,0,0.00553063
0.5,10.6,0,0.00530532
0.5,10.7,0,0.00508
0.5,10.8,0,0.00484648
0.5,10.9,0,0.00460592
0.5,11,0,0.00436535
0.5,11.1,0,0.00412479
0.5,11.2,0,0.00388423
0.5,11.3,0,0.00363625
0.5,11.4,0,0.00338435
0.5,11.5,0,0.00313245
0.5,11.6,0,0.00288056
0.5,11.7,0,0.00262866
0.5,11.8,0,0.00236986
0.5,11.9,0,0.00210899
0.5,12,0,0.00184812
0.5,12.1,0,0.00158725
0.5,12.2,0,0.00132638
0.5,12.3,0,0.00106264
0.5,12.4,0,0.000796978
0.5,12.5,0,0.000531318
0.5,12.6,0,0.000265659
0.5,12.7,0,0
0.6,0,0,0
0.6,0.1,0,0.00026029
0.6,0.2,0,0.000520276
0.6,0.3,0,0.000780261
0.6,0.4,0,0.00104025
0.6,0.5,0,0.00130013
0.6,0.6,0,0.00155832
0.6,0.7,0,0.00181092
0.6,0.8,0,0.00206352
0.6,0.9,0,0.00231611
0.6,1,0,0.00256846
0.6,1.1,0,0.00281838
0.6,1.2,0,0.00306366
0.6,1.3,0,0.00330895
0.6,1.4,0,0.00355423
0.6,1.5,0,0.00379594
0.6,1.6,0,0.00403069
0.6,1.7,0,0.00426545
0.6,1.8,0,0.0045002
0.6,1.9,0,0.00473767
0.6,2,0,0.00496968
0.6,2.1,0,0.00519108
0.6,2.2,0,0.00541247
0.6,2.3,0,0.00563387
0.6,2.4,0,0.00585797
0.6,2.5,0,0.00607178
0.6,2.6,0,0.00627644
0.6,2.7,0,0.0064811
0.6,2.8,0,0.00668577
0.6,2.9,0,0.00689352
0.6,3,0,0.0070859
0.6,3.1,0,0.00727077
0.6,3.2,0,0.00745563
0.6,3.3,0,0.0076405
0.6,3.4,0,0.00782858
0.6,3.5,0,0.00799606
0.6,3.6,0,0.00815842
0.6,3.7,0,0.00832079
0.6,3.8,0,0.00848316
0.6,3.9,0,0.00864886
0.6,4,0,0.0087885
0.6,4.1,0,0.00892595
0.6,4.2,0,0.00906339
0.6,4.3,0,0.00920088
0.6,4.4,0,0.0093404
0.6,4.5,0,0.00945077
0.6,4.6,0,0.00956115
0.6,4.7,0,0.00967152
0.6,4.8,0,0.00978225
0.6,4.9,0,0.00989048
0.6,5,0,0.00997197
0.6,5.1,0,0.0100534
0.6,5.2,0,0.0101349
0.6,5.3,0,0.0102169
0.6,5.4,0,0.0102918
0.6,5.5,0,0.010343
0.6,5.6,0,0.0103941
0.6,5.7,0,0.0104453
0.6,5.8,0,0.010497
0.6,5.9,0,0.010537
0.6,6,0,0.0105568
0.6,6.1,0,0.0105766
0.6,6.2,0,0.0105965
0.6,6.3,0,0.0106167
0.6,6.4,0,0.0106209
0.6,6.5,0,0.0106089
0.6,6.6,0,0.0105969
0.6,6.7,0,0.0105849
0.6,6.8,0,0.0105729
0.6,6.9,0,0.0105412
0.6,7,0,0.0104974
0.6,7.1,0,0.0104536
0.6,7.2,0,0.0104097
0.6,7.3,0,0.0103653
0.6,7.4,0,0.0102984
0.6,7.5,0,0.0102233
0.6,7.6,0,0.0101482
0.6,7.7,0,0.0100731
0.6,7.8,0,0.00999663
0.6,7.9,0,0.00989573
0.6,8,0,0.00979043
0.6,8.1,0,0.00968513
0.6,8.2,0,0.00957983
0.6,8.3,0,0.00947235
0.6,8.4,0,0.00933945
0.6,8.5,0,0.00920553
0.6,8.6,0,0.00907161
0.6,8.7,0,0.00893753
0.6,8.8,0,0.00879877
0.6,8.9,0,0.00863825
0.6,9,0,0.00847773
0.6,9.1,0,0.00831721
0.6,9.2,0,0.00815608
0.6,9.3,0,0.00798798
0.6,9.4,0,0.00780316
0.6,9.5,0,0.00761834
0.6,9.6,0,0.00743353
0.6,9.7,0,0.00724752
0.6,9.8,0,0.00705309
0.6,9.9,0,0.00684647
0.6,10,0,0.00663986
0.6,10.1,0,0.00643324
0.6,10.2,0,0.00622478
0.6,10.3,0,0.00600759
0.6,10.4,0,0.00578227
0.6,10.5,0,0.00555696
0.6,10.6,0,0.00533165
0.6,10.7,0,0.00510366
0.6,10.8,0,0.00486771
0.6,10.9,0,0.00462715
0.6,11,0,0.00438659
0.6,11.1,0,0.00414603
0.6,11.2,0,0.00390156
0.6,11.3,0,0.0036514
0.6,11.4,0,0.0033995
0.6,11.5,0,0.0031476
0.6,11.6,0,0.0028957
0.6,11.7,0,0.00263788
0.6,11.8,0,0.00237723
0.6,11.9,0,0.00211633
0.6,12,0,0.00185543
0.6,12.1,0,0.00159453
0.6,12.2,0,0.00132972
0.6,12.3,0,0.00106165
0.6,12.4,0,0.000796101
0.6,12.5,0,0.000530734
0.6,12.6,0,0.000265367
0.6,12.7,0,0
0.7,0,0,0
0.7,0.1,0,0.000260296
0.7,0.2,0,0.00052058
0.7,0.3,0,0.000780565
0.7,0.4,0,0.00104055
0.7,0.5,0,0.00130045
0.7,0.6,0,0.00155964
0.7,0.7,0,0.00181769
0.7,0.8,0,0.00207029
0.7,0.9,0,0.00232289
0.7,1,0,0.00257525
0.7,1.1,0,0.00282671
0.7,1.2,0,0.0030765
0.7,1.3,0,0.00332179
0.7,1.4,0,0.00356707
0.7,1.5,0,0.00380885
0.7,1.6,0,0.00404361
0.7,1.7,0,0.00427836
0.7,1.8,0,0.00451561
0.7,1.9,0,0.00475673
0.7,2,0,0.00498874
0.7,2.1,0,0.00521014
0.7,2.2,0,0.00543153
0.7,2.3,0,0.00565552
0.7,2.4,0,0.00588181
0.7,2.5,0,0.00609562
0.7,2.6,0,0.00630028
0.7,2.7,0,0.00650494
0.7,2.8,0,0.00671259
0.7,2.9,0,0.00692187
0.7,3,0,0.00711425
0.7,3.1,0,0.00729912
0.7,3.2,0,0.00748398
0.7,3.3,0,0.00767197
0.7,3.4,0,0.00786092
0.7,3.5,0,0.0080284
0.7,3.6,0,0.00819076
0.7,3.7,0,0.00835313
0.7,3.8,0,0.00851875
0.7,3.9,0,0.00868482
0.7,4,0,0.00882446
0.7,4.1,0,0.00896191
0.7,4.2,0,0.00909935
0.7,4.3,0,0.00924001
0.7,4.4,0,0.00937953
0.7,4.5,0,0.0094899
0.7,4.6,0,0.00960028
0.7,4.7,0,0.00971094
0.7,4.8,0,0.00982404
0.7,4.9,0,0.00993227
0.7,5,0,0.0100138
0.7,5.1,0,0.0100952
0.7,5.2,0,0.0101772
0.7,5.3,0,0.0102608
0.7,5.4,0,0.0103357
0.7,5.5,0,0.0103869
0.7,5.6,0,0.010438
0.7,5.7,0,0.0104897
0.7,5.8,0,0.0105423
0.7,5.9,0,0.0105823
0.7,6,0,0.0106022
0.7,6.1,0,0.010622
0.7,6.2,0,0.0106422
0.7,6.3,0,0.0106627
0.7,6.4,0,0.010667
0.7,6.5,0,0.010655
0.7,6.6,0,0.010643
0.7,6.7,0,0.0106309
0.7,6.8,0,0.0106189
0.7,6.9,0,0.0105873
0.7,7,0,0.0105434
0.7,7.1,0,0.0104996
0.7,7.2,0,0.0104552
0.7,7.3,0,0.0104105
0.7,7.4,0,0.0103436
0.7,7.5,0,0.0102685
0.7,7.6,0,0.0101934
0.7,7.7,0,0.010117
0.7,7.8,0,0.0100403
0.7,7.9,0,0.00993939
0.7,8,0,0.00983409
0.7,8.1,0,0.00972879
0.7,8.2,0,0.00962137
0.7,8.3,0,0.00951375
0.7,8.4,0,0.00938084
0.7,8.5,0,0.00924692
0.7,8.6,0,0.00911291
0.7,8.7,0,0.00897597
0.7,8.8,0,0.00883721
0.7,8.9,0,0.00867669
0.7,9,0,0.00851617
0.7,9.1,0,0.00835512
0.7,9.2,0,0.008191
0.7,9.3,0,0.00802291
0.7,9.4,0,0.00783809
0.7,9.5,0,0.00765327
0.7,9.6,0,0.00746736
0.7,9.7,0,0.00727835
0.7,9.8,0,0.00708392
0.7,9.9,0,0.00687731
0.7,10,0,0.00667069
0.7,10.1,0,0.00646233
0.7,10.2,0,0.0062511
0.7,10.3,0,0.00603392
0.7,10.4,0,0.0058086
0.7,10.5,0,0.00558329
0.7,10.6,0,0.00535542
0.7,10.7,0,0.00512493
0.7,10.8,0,0.00488895
0.7,10.9,0,0.00464838
0.7,11,0,0.00440782
0.7,11.1,0,0.00416346
0.7,11.2,0,0.00391677
0.7,11.3,0,0.00366655
0.7,11.4,0,0.00341465
0.7,11.5,0,0.00316275
0.7,11.6,0,0.00290501
0.7,11.7,0,0.0026453
0.7,11.8,0,0.00238463
0.7,11.9,0,0.00212373
0.7,12,0,0.00186283
0.7,12.1,0,0.00159805
0.7,12.2,0,0.00133267
0.7,12.3,0,0.00106456
0.7,12.4,0,0.000796239
0.7,12.5,0,0.000530734
0.7,12.6,0,0.000265367
0.7,12.7,0,0
0.8,0,0,0
0.8,0.1,0,0.000260296
0.8,0.2,0,0.000520592
0.8,0.3,0,0.00078087
0.8,0.4,0,0.00104086
0.8,0.5,0,0.00130076
0.8,0.6,0,0.00155996
0.8,0.7,0,0.00181915
0.8,0.8,0,0.00207706
0.8,0.9,0,0.00232966
0.8,1,0,0.00258203
0.8,1.1,0,0.00283349
0.8,1.2,0,0.00308496
0.8,1.3,0,0.00333462
0.8,1.4,0,0.00357991
0.8,1.5,0,0.00382177
0.8,1.6,0,0.00405652
0.8,1.7,0,0.00429356
0.8,1.8,0,0.00453467
0.8,1.9,0,0.00477579
0.8,2,0,0.0050078
0.8,2.1,0,0.0052292
0.8,2.2,0,0.00545307
0.8,2.3,0,0.00567936
0.8,2.4,0,0.00590565
0.8,2.5,0,0.00611946
0.8,2.6,0,0.00632412
0.8,2.7,0,0.00653166
0.8,2.8,0,0.00674094
0.8,2.9,0,0.00695022
0.8,3,0,0.0071426
0.8,3.1,0,0.00732747
0.8,3.2,0,0.00751535
0.8,3.3,0,0.00770431
0.8,3.4,0,0.00789326
0.8,3.5,0,0.00806074
0.8,3.6,0,0.00822311
0.8,3.7,0,0.00838864
0.8,3.8,0,0.00855471
0.8,3.9,0,0.00872078
0.8,4,0,0.00886043
0.8,4.1,0,0.00899787
0.8,4.2,0,0.00913845
0.8,4.3,0,0.00927914
0.8,4.4,0,0.00941866
0.8,4.5,0,0.00952903
0.8,4.6,0,0.00963963
0.8,4.7,0,0.00975273
0.8,4.8,0,0.00986582
0.8,4.9,0,0.00997405
0.8,5,0,0.0100555
0.8,5.1,0,0.0101375
0.8,5.2,0,0.0102211
0.8,5.3,0,0.0103047
0.8,5.4,0,0.0103796
0.8,5.5,0,0.0104308
0.8,5.6,0,0.0104824
0.8,5.7,0,0.010535
0.8,5.8,0,0.0105877
0.8,5.9,0,0.0106277
0.8,6,0,0.0106475
0.8,6.1,0,0.0106676
0.8,6.2,0,0.0106882
0.8,6.3,0,0.0107088
0.8,6.4,0,0.0107131
0.8,6.5,0,0.0107011
0.8,6.6,0,0.010689
0.8,6.7,0,0.010677
0.8,6.8,0,0.0106649
0.8,6.9,0,0.0106333
0.8,7,0,0.0105895
0.8,7.1,0,0.0105451
0.8,7.2,0,0.0105004
0.8,7.3,0,0.0104557
0.8,7.4,0,0.0103888
0.8,7.5,0,0.0103137
0.8,7.6,0,0.0102374
0.8,7.7,0,0.0101607
0.8,7.8,0,0.010084
0.8,7.9,0,0.00998305
0.8,8,0,0.00987775
0.8,8.1,0,0.00977038
0.8,8.2,0,0.00966276
0.8,8.3,0,0.00955514
0.8,8.4,0,0.00942223
0.8,8.5,0,0.00928829
0.8,8.6,0,0.00915135
0.8,8.7,0,0.00901441
0.8,8.8,0,0.00887565
0.8,8.9,0,0.00871513
0.8,9,0,0.00855416
0.8,9.1,0,0.00839005
0.8,9.2,0,0.00822593
0.8,9.3,0,0.00805783
0.8,9.4,0,0.00787302
0.8,9.5,0,0.0076872
0.8,9.6,0,0.00749819
0.8,9.7,0,0.00730918
0.8,9.8,0,0.00711476
0.8,9.9,0,0.00690814
0.8,10,0,0.00669989
0.8,10.1,0,0.00648866
0.8,10.2,0,0.00627743
0.8,10.3,0,0.00606024
0.8,10.4,0,0.00583493
0.8,10.5,0,0.00560719
0.8,10.6,0,0.00537669
0.8,10.7,0,0.0051462
0.8,10.8,0,0.00491018
0.8,10.9,0,0.00466962
0.8,11,0,0.00442536
0.8,11.1,0,0.00417867
0.8,11.2,0,0.00393197
0.8,11.3,0,0.0036817
0.8,11.4,0,0.0034298
0.8,11.5,0,0.00317215
0.8,11.6,0,0.00291244
0.8,11.7,0,0.00265273
0.8,11.8,0,0.00239202
0.8,11.9,0,0.00213112
0.8,12,0,0.00186638
0.8,12.1,0,0.001601
0.8,12.2,0,0.00133562
0.8,12.3,0,0.00106747
0.8,12.4,0,0.000799149
0.8,12.5,0,0.000530826
0.8,12.6,0,0.000265367
0.8,12.7,0,0
0.9,0,0,0
0.9,0.1,0,0.000260296
0.9,0.2,0,0.000520592
0.9,0.3,0,0.000780888
0.9,0.4,0,0.00104116
0.9,0.5,0,0.00130108
0.9,0.6,0,0.00156028
0.9,0.7,0,0.00181947
0.9,0.8,0,0.00207866
0.9,0.9,0,0.00233643
0.9,1,0,0.00258881
0.9,1.1,0,0.00284028
0.9,1.2,0,0.00309174
0.9,1.3,0,0.00334321
0.9,1.4,0,0.00359275
0.9,1.5,0,0.00383468
0.9,1.6,0,0.0040715
0.9,1.7,0,0.00431262
0.9,1.8,0,0.00455373
0.9,1.9,0,0.00479485
0.9,2,0,0.00502686
0.9,2.1,0,0.00525063
0.9,2.2,0,0.00547691
0.9,2.3,0,0.0057032
0.9,2.4,0,0.00592949
0.9,2.5,0,0.0061433
0.9,2.6,0,0.00635073
0.9,2.7,0,0.00656001
0.9,2.8,0,0.00676929
0.9,2.9,0,0.00697857
0.9,3,0,0.00717095
0.9,3.1,0,0.00735874
0.9,3.2,0,0.00754769
0.9,3.3,0,0.00773665
0.9,3.4,0,0.0079256
0.9,3.5,0,0.00809308
0.9,3.6,0,0.00825853
0.9,3.7,0,0.0084246
0.9,3.8,0,0.00859067
0.9,3.9,0,0.00875674
0.9,4,0,0.00889639
0.9,4.1,0,0.0090369
0.9,4.2,0,0.00917758
0.9,4.3,0,0.00931826
0.9,4.4,0,0.00945778
0.9,4.5,0,0.00956832
0.9,4.6,0,0.00968142
0.9,4.7,0,0.00979451
0.9,4.8,0,0.00990761
0.9,4.9,0,0.0100158
0.9,5,0,0.0100977
0.9,5.1,0,0.0101813
0.9,5.2,0,0.010265
0.9,5.3,0,0.0103486
0.9,5.4,0,0.0104235
0.9,5.5,0,0.0104751
0.9,5.6,0,0.0105277
0.9,5.7,0,0.0105804
0.9,5.8,0,0.010633
0.9,5.9,0,0.010673
0.9,6,0,0.0106931
0.9,6.1,0,0.0107137
0.9,6.2,0,0.0107343
0.9,6.3,0,0.0107549
0.9,6.4,0,0.0107591
0.9,6.5,0,0.0107471
0.9,6.6,0,0.010735
0.9,6.7,0,0.010723
0.9,6.8,0,0.0107109
0.9,6.9,0,0.0106793
0.9,7,0,0.0106349
0.9,7.1,0,0.0105903
0.9,7.2,0,0.0105456
0.9,7.3,0,0.0105009
0.9,7.4,0,0.010434
0.9,7.5,0,0.0103577
0.9,7.6,0,0.010281
0.9,7.7,0,0.0102043
0.9,7.8,0,0.0101276
0.9,7.9,0,0.0100267
0.9,8,0,0.00991939
0.9,8.1,0,0.00981177
0.9,8.2,0,0.00970415
0.9,8.3,0,0.00959653
0.9,8.4,0,0.00946363
0.9,8.5,0,0.00932673
0.9,8.6,0,0.00918979
0.9,8.7,0,0.00905285
0.9,8.8,0,0.00891409
0.9,8.9,0,0.00875321
0.9,9,0,0.00858909
0.9,9.1,0,0.00842498
0.9,9.2,0,0.00826086
0.9,9.3,0,0.00809276
0.9,9.4,0,0.00790704
0.9,9.5,0,0.00771803
0.9,9.6,0,0.00752903
0.9,9.7,0,0.00734002
0.9,9.8,0,0.00714559
0.9,9.9,0,0.00693745
0.9,10,0,0.00672622
0.9,10.1,0,0.00651499
0.9,10.2,0,0.00630376
0.9,10.3,0,0.00608657
0.9,10.4,0,0.00585895
0.9,10.5,0,0.00562845
0.9,10.6,0,0.00539796
0.9,10.7,0,0.00516747
0.9,10.8,0,0.00493142
0.9,10.9,0,0.00468727
0.9,11,0,0.00444057
0.9,11.1,0,0.00419388
0.9,11.2,0,0.00394718
0.9,11.3,0,0.00369685
0.9,11.4,0,0.00343928
0.9,11.5,0,0.00317957
0.9,11.6,0,0.00291986
0.9,11.7,0,0.00266015
0.9,11.8,0,0.00239942
0.9,11.9,0,0.00213471
0.9,12,0,0.00186933
0.9,12.1,0,0.00160395
0.9,12.2,0,0.00133856
0.9,12.3,0,0.00107038
0.9,12.4,0,0.00080206
0.9,12.5,0,0.000533736
0.9,12.6,0,0.000265413
0.9,12.7,0,0
1,0,0,0
1,0.1,0,0.000260296
1,0.2,0,0.000520592
1,0.3,0,0.000780888
1,0.4,0,0.00104118
1,0.5,0,0.0013014
1,0.6,0,0.00156059
1,0.7,0,0.00181979
1,0.8,0,0.00207898
1,0.9,0,0.00233817
1,1,0,0.0025956
1,1.1,0,0.00284706
1,1.2,0,0.00309853
1,1.3,0,0.00334999
1,1.4,0,0.00360146
1,1.5,0,0.00384944
1,1.6,0,0.00409056
1,1.7,0,0.00433167
1,1.8,0,0.00457279
1,1.9,0,0.00481391
1,2,0,0.00504818
1,2.1,0,0.00527446
1,2.2,0,0.00550075
1,2.3,0,0.00572704
1,2.4,0,0.00595333
1,2.5,0,0.0061698
1,2.6,0,0.00637908
1,2.7,0,0.00658836
1,2.8,0,0.00679764
1,2.9,0,0.00700692
1,3,0,0.00720212
1,3.1,0,0.00739108
1,3.2,0,0.00758003
1,3.3,0,0.00776899
1,3.4,0,0.00795794
1,3.5,0,0.00812842
1,3.6,0,0.00829449
1,3.7,0,0.00846056
1,3.8,0,0.00862663
1,3.9,0,0.00879271
1,4,0,0.00893534
1,4.1,0,0.00907603
1,4.2,0,0.00921671
1,4.3,0,0.00935739
1,4.4,0,0.00949701
1,4.5,0,0.00961011
1,4.6,0,0.0097232
1,4.7,0,0.0098363
1,4.8,0,0.00994939
1,4.9,0,0.010058
1,5,0,0.0101416
1,5.1,0,0.0102252
1,5.2,0,0.0103089
1,5.3,0,0.0103925
1,5.4,0,0.0104678
1,5.5,0,0.0105204
1,5.6,0,0.0105731
1,5.7,0,0.0106257
1,5.8,0,0.0106783
1,5.9,0,0.0107186
1,6,0,0.0107392
1,6.1,0,0.0107598
1,6.2,0,0.0107803
1,6.3,0,0.0108009
1,6.4,0,0.0108052
1,6.5,0,0.0107931
1,6.6,0,0.0107811
1,6.7,0,0.010769
1,6.8,0,0.010757
1,6.9,0,0.0107248
1,7,0,0.0106802
1,7.1,0,0.0106355
1,7.2,0,0.0105908
1,7.3,0,0.0105462
1,7.4,0,0.0104781
1,7.5,0,0.0104014
1,7.6,0,0.0103247
1,7.7,0,0.010248
1,7.8,0,0.0101713
1,7.9,0,0.0100684
1,8,0,0.00996079
1,8.1,0,0.00985317
1,8.2,0,0.00974555
1,8.3,0,0.00963793
1,8.4,0,0.00950211
1,8.5,0,0.00936517
1,8.6,0,0.00922823
1,8.7,0,0.00909129
1,8.8,0,0.00895225
1,8.9,0,0.00878814
1,9,0,0.00862402
1,9.1,0,0.0084599
1,9.2,0,0.00829579
1,9.3,0,0.00812688
1,9.4,0,0.00793788
1,9.5,0,0.00774887
1,9.6,0,0.00755986
1,9.7,0,0.00737085
1,9.8,0,0.00717501
1,9.9,0,0.00696378
1,10,0,0.00675255
1,10.1,0,0.00654132
1,10.2,0,0.00633009
1,10.3,0,0.00611073
1,10.4,0,0.0058803
1,10.5,0,0.00564987
1,10.6,0,0.00541943
1,10.7,0,0.005189
1,10.8,0,0.00494943
1,10.9,0,0.0047027
1,11,0,0.00445597
1,11.1,0,0.00420924
1,11.2,0,0.00396251
1,11.3,0,0.00370641
1,11.4,0,0.0034467
1,11.5,0,0.00318699
1,11.6,0,0.00292728
1,11.7,0,0.00266757
1,11.8,0,0.00240304
1,11.9,0,0.00213766
1,12,0,0.00187228
1,12.1,0,0.0016069
1,12.2,0,0.00134151
1,12.3,0,0.00107329
1,12.4,0,0.000804971
1,12.5,0,0.000536647
1,12.6,0,0.000268324
1,12.7,0,0
1.1,0,0,0
1.1,0.1,0,0.00026815
1.1,0.2,0,0.000528386
1.1,0.3,0,0.000788622
1.1,0.4,0,0.00104886
1.1,0.5,0,0.00130918
1.1,0.6,0,0.00157059
1.1,0.7,0,0.00182974
1.1,0.8,0,0.00208889
1.1,0.9,0,0.00234804
1.1,1,0,0.00260802
1.1,1.1,0,0.00286966
1.1,1.2,0,0.00312125
1.1,1.3,0,0.00337285
1.1,1.4,0,0.00362445
1.1,1.5,0,0.00387297
1.1,1.6,0,0.00411411
1.1,1.7,0,0.00435524
1.1,1.8,0,0.00459638
1.1,1.9,0,0.00484088
1.1,2,0,0.00507998
1.1,2.1,0,0.00530626
1.1,2.2,0,0.00553255
1.1,2.3,0,0.00575884
1.1,2.4,0,0.00599031
1.1,2.5,0,0.00621087
1.1,2.6,0,0.00642015
1.1,2.7,0,0.00662943
1.1,2.8,0,0.00683871
1.1,2.9,0,0.00705282
1.1,3,0,0.00725025
1.1,3.1,0,0.0074392
1.1,3.2,0,0.00762816
1.1,3.3,0,0.00781711
1.1,3.4,0,0.00801157
1.1,3.5,0,0.00818339
1.1,3.6,0,0.00834946
1.1,3.7,0,0.00851553
1.1,3.8,0,0.0086816
1.1,3.9,0,0.00885343
1.1,4,0,0.00899656
1.1,4.1,0,0.00913725
1.1,4.2,0,0.00927793
1.1,4.3,0,0.0094187
1.1,4.4,0,0.00956368
1.1,4.5,0,0.00967677
1.1,4.6,0,0.00978987
1.1,4.7,0,0.00990296
1.1,4.8,0,0.0100167
1.1,4.9,0,0.0101292
1.1,5,0,0.0102128
1.1,5.1,0,0.0102964
1.1,5.2,0,0.0103801
1.1,5.3,0,0.0104646
1.1,5.4,0,0.0105427
1.1,5.5,0,0.0105953
1.1,5.6,0,0.0106479
1.1,5.7,0,0.0107006
1.1,5.8,0,0.0107542
1.1,5.9,0,0.0107961
1.1,6,0,0.0108167
1.1,6.1,0,0.0108372
1.1,6.2,0,0.0108578
1.1,6.3,0,0.010879
1.1,6.4,0,0.010884
1.1,6.5,0,0.0108719
1.1,6.6,0,0.0108598
1.1,6.7,0,0.0108478
1.1,6.8,0,0.0108357