/*--------------------------------*- C++ -*----------------------------------*\
| =========                 |                                                 |
| \\      /  F ield         | OpenFOAM: The Open Source CFD Toolbox           |
|  \\    /   O peration     | Version:  v1806                                 |
|   \\  /    A nd           | Web:      www.OpenFOAM.com                      |
|    \\/     M anipulation  |                                                 |
\*---------------------------------------------------------------------------*/
FoamFile
{
    version     2.0;
    format      ascii;
    class       volScalarField;
    location    "6";
    object      p;
}
// * * * * * * * * * * * * * * * * * * * * * * * * * * * * * * * * * * * * * //

dimensions      [0 2 -2 0 0 0 0];


internalField   nonuniform List<scalar> 
4400
(
-0.800628
1.64626
0.803932
0.3017
0.220564
0.206682
0.197523
0.19294
0.19095
0.181109
0.167075
0.150711
0.133118
0.115608
0.0985564
0.0822963
0.0656512
0.0466336
0.0278039
0.00825737
2.75555
1.60764
1.10215
0.800833
0.664208
0.554511
0.458577
0.391439
0.347902
0.304918
0.268507
0.24001
0.202462
0.176993
0.148979
0.116295
0.0943966
0.0632751
0.0408488
0.0110742
2.74834
2.32243
1.81399
1.35574
1.03385
0.815868
0.668951
0.564838
0.488386
0.42291
0.367573
0.32058
0.27267
0.23287
0.193523
0.153304
0.11939
0.0828667
0.0507204
0.0158962
3.29806
2.41723
1.86343
1.4737
1.21383
1.02161
0.859408
0.725004
0.619585
0.532994
0.459694
0.395977
0.337751
0.285264
0.235803
0.188466
0.144341
0.101679
0.0607825
0.0200363
2.9869
2.53049
2.08509
1.73221
1.45414
1.21437
1.0136
0.855477
0.729964
0.627468
0.540447
0.464009
0.395678
0.332949
0.274674
0.220015
0.168087
0.118591
0.0705002
0.0234092
3.01471
2.51766
2.09913
1.76139
1.50169
1.29846
1.11917
0.959729
0.823837
0.710144
0.612251
0.525673
0.447908
0.376489
0.310352
0.248501
0.189751
0.13366
0.0792389
0.026275
2.75033
2.42763
2.11584
1.84477
1.62026
1.41079
1.21496
1.04549
0.902189
0.780172
0.674137
0.579792
0.494545
0.416219
0.343473
0.275208
0.210305
0.148107
0.0878295
0.0290267
2.67847
2.3869
2.10516
1.84876
1.62362
1.43373
1.26347
1.10613
0.963153
0.837167
0.726011
0.626239
0.535272
0.451328
0.373033
0.299279
0.229064
0.161528
0.0959876
0.0317445
2.47836
2.26249
2.05052
1.84909
1.66523
1.48634
1.31251
1.1527
1.01019
0.883104
0.769079
0.665426
0.570124
0.481609
0.398669
0.320249
0.245338
0.173138
0.102976
0.0341409
2.39995
2.21631
2.01928
1.82716
1.64382
1.47798
1.3263
1.18263
1.04647
0.92021
0.804532
0.698376
0.600002
0.508048
0.42141
0.338999
0.259984
0.183656
0.109292
0.0362457
2.25462
2.10592
1.95301
1.79832
1.64928
1.49999
1.35027
1.20578
1.07152
0.947234
0.832085
0.725023
0.624888
0.530506
0.440899
0.355263
0.272873
0.193002
0.114974
0.0381269
2.18748
2.05863
1.91302
1.76382
1.61662
1.47719
1.34464
1.21563
1.08975
0.96873
0.854462
0.747004
0.645603
0.549356
0.457447
0.369164
0.283867
0.200958
0.119793
0.0397904
2.08249
1.97192
1.85428
1.73196
1.60896
1.48372
1.35515
1.226
1.10155
0.983285
0.871011
0.764216
0.662379
0.56493
0.471312
0.380952
0.293315
0.207865
0.124
0.0411992
2.02964
1.93154
1.81863
1.69774
1.57716
1.45834
1.34103
1.22432
1.10846
0.994812
0.884677
0.778513
0.676325
0.577919
0.482897
0.390827
0.30129
0.213717
0.127594
0.0423882
1.95696
1.86938
1.77325
1.67134
1.56584
1.45726
1.34434
1.22872
1.1145
1.0032
0.89479
0.789371
0.68717
0.588207
0.492214
0.398888
0.307803
0.218506
0.13053
0.043423
1.91985
1.84088
1.74806
1.64351
1.54176
1.43713
1.33168
1.22533
1.11803
1.01004
0.902772
0.797739
0.695494
0.596119
0.499469
0.405202
0.312959
0.222318
0.132882
0.0442072
1.8661
1.79163
1.70884
1.62234
1.53342
1.43938
1.33849
1.23233
1.12389
1.01532
0.908333
0.803771
0.701795
0.602353
0.505258
0.410276
0.317098
0.22536
0.134737
0.0447856
1.83594
1.7655
1.6877
1.6054
1.52272
1.43223
1.33494
1.23197
1.12537
1.01786
0.911752
0.807883
0.706309
0.606921
0.509568
0.414085
0.320225
0.227724
0.136228
0.0453556
1.80747
1.73807
1.66786
1.59816
1.51995
1.43324
1.33646
1.23152
1.1237
1.01707
0.912479
0.809732
0.70874
0.609515
0.512052
0.416301
0.322065
0.229107
0.137082
0.0456597
1.83179
1.77143
1.69939
1.60928
1.50891
1.40703
1.30759
1.20919
1.11106
1.01183
0.911303
0.810374
0.709977
0.610852
0.513364
0.417438
0.322977
0.229748
0.137437
0.0457292
5.25378
5.60453
5.85718
6.03669
6.15447
6.22432
6.25143
6.24415
6.2026
6.12745
6.01759
5.87106
5.68156
5.44387
5.14322
4.77108
4.3052
3.73088
3.02582
2.1831
5.42544
5.53656
5.62739
5.69222
5.73502
5.75798
5.76112
5.74479
5.70902
5.65354
5.57805
5.48219
5.36548
5.22852
5.06978
4.89234
4.68716
4.46712
4.20386
3.94279
4.83104
4.90666
4.97193
5.02478
5.06309
5.08539
5.09155
5.08122
5.05408
5.00978
4.9479
4.86786
4.76915
4.6508
4.51289
4.35376
4.17518
3.97457
3.75743
3.52358
4.46441
4.50235
4.53346
4.55658
4.57108
4.57645
4.57238
4.5587
4.53533
4.50227
4.45965
4.40769
4.34664
4.277
4.19901
4.1135
4.02048
3.92125
3.81526
3.70521
4.02278
4.04579
4.06428
4.07691
4.08348
4.08351
4.07661
4.06246
4.04083
4.01154
3.9745
3.92965
3.87702
3.81668
3.7489
3.67388
3.59224
3.50433
3.41151
3.31435
3.70091
3.7136
3.72253
3.72745
3.72818
3.72459
3.71659
3.70412
3.68717
3.66578
3.64001
3.60996
3.57573
3.53748
3.49532
3.44942
3.39987
3.34686
3.29046
3.23083
3.37766
3.38481
3.38898
3.39004
3.38782
3.38219
3.37304
3.36025
3.34377
3.32356
3.2996
3.27191
3.24053
3.20556
3.16713
3.12539
3.08058
3.03295
2.98289
2.93061
3.13524
3.13944
3.14138
3.14102
3.13831
3.13324
3.12577
3.11592
3.10367
3.08905
3.07208
3.05277
3.03117
3.00728
2.98112
2.95272
2.92207
2.88918
2.85407
2.8165
2.89977
2.90146
2.90127
2.89914
2.89503
2.8889
2.88069
2.8704
2.85799
2.84346
2.82682
2.80809
2.78731
2.76452
2.73979
2.71321
2.68489
2.65495
2.62354
2.5907
2.72274
2.72396
2.72373
2.72205
2.71892
2.71432
2.70825
2.70071
2.6917
2.68122
2.66927
2.65586
2.64098
2.62463
2.6068
2.58748
2.56667
2.54436
2.52054
2.49495
2.55098
2.55079
2.54933
2.54659
2.54253
2.53717
2.53048
2.52245
2.51309
2.5024
2.49039
2.47708
2.4625
2.44669
2.42968
2.41153
2.39231
2.37208
2.3509
2.32888
2.4237
2.42387
2.42305
2.42124
2.41844
2.41465
2.40986
2.40408
2.39729
2.3895
2.38069
2.37088
2.36006
2.34821
2.33533
2.32143
2.30649
2.29052
2.27353
2.25527
2.29939
2.29863
2.29696
2.29439
2.2909
2.28649
2.28116
2.27492
2.26778
2.25973
2.25079
2.24099
2.23033
2.21885
2.20658
2.19355
2.1798
2.16538
2.15031
2.13474
2.21046
2.21029
2.2094
2.20778
2.20543
2.20235
2.19854
2.19399
2.18871
2.18268
2.17591
2.16838
2.16011
2.15108
2.14128
2.13072
2.1194
2.10734
2.09453
2.08074
2.12331
2.12245
2.12089
2.11865
2.11572
2.11211
2.10782
2.10285
2.09723
2.09094
2.08402
2.07647
2.06831
2.05956
2.05025
2.04039
2.03001
2.01913
2.00777
1.99613
2.06573
2.06548
2.06464
2.06323
2.06123
2.05865
2.05549
2.05174
2.0474
2.04247
2.03694
2.03082
2.02411
2.0168
2.0089
2.00042
1.99135
1.98174
1.97159
1.96065
2.00823
2.00738
2.00595
2.00395
2.00139
1.99826
1.99457
1.99033
1.98553
1.98019
1.97432
1.96792
1.96102
1.95361
1.94572
1.93736
1.92855
1.91929
1.9096
1.89967
1.97479
1.97433
1.97335
1.97187
1.96988
1.96737
1.96435
1.9608
1.95673
1.95212
1.94698
1.94129
1.93505
1.92825
1.92089
1.91297
1.90448
1.89544
1.88587
1.87557
1.9434
1.94228
1.94064
1.93849
1.93583
1.93268
1.92903
1.92489
1.92028
1.91519
1.90964
1.90364
1.89718
1.89028
1.88294
1.87516
1.86694
1.85824
1.84905
1.83956
1.94462
1.94454
1.94398
1.94294
1.94143
1.93944
1.93696
1.934
1.93056
1.92663
1.92222
1.91733
1.91198
1.90615
1.89988
1.89317
1.88603
1.87852
1.87071
1.86246
3.11834
3.22752
3.33713
3.44695
3.55687
3.66675
3.77645
3.88578
3.99436
4.1014
4.20552
4.30484
4.39711
4.4797
4.54882
4.59909
4.62652
4.63607
4.67216
4.86112
3.16872
3.25685
3.34576
3.43532
3.52541
3.61599
3.70699
3.79833
3.88999
3.98215
4.07538
4.17089
4.27064
4.37721
4.49356
4.62313
4.76885
4.93156
5.10794
5.28214
3.22076
3.30313
3.3858
3.46856
3.55126
3.63367
3.71556
3.79667
3.8768
3.9559
4.03407
4.11167
4.1892
4.2673
4.3464
4.42624
4.50626
4.58663
4.66796
4.75018
3.14523
3.21307
3.28138
3.35006
3.41901
3.48816
3.55749
3.62703
3.69687
3.76709
3.8378
3.90901
3.98049
4.05171
4.12181
4.18975
4.25447
4.31502
4.37054
4.42042
3.067
3.12548
3.18359
3.24116
3.2981
3.35427
3.40958
3.46392
3.51725
3.56949
3.62059
3.67041
3.71872
3.76531
3.80993
3.85239
3.89246
3.92988
3.96433
3.99544
2.93967
2.98772
3.03549
3.08293
3.12996
3.17651
3.22251
3.26789
3.31255
3.35633
3.39903
3.44037
3.48003
3.51767
3.55295
3.58555
3.6152
3.64169
3.66486
3.68463
2.81616
2.85622
2.89557
2.93413
2.97181
3.00852
3.04418
3.07871
3.11202
3.14401
3.17459
3.20365
3.23108
3.25678
3.28064
3.30253
3.32233
3.33989
3.35506
3.3677
2.68208
2.71516
2.74765
2.77951
2.81067
2.84108
2.87065
2.89932
2.92698
2.95351
2.97879
3.00268
3.02504
3.04573
3.06461
3.08158
3.09655
3.10945
3.12021
3.12882
2.55725
2.58471
2.61141
2.6373
2.66234
2.68645
2.70958
2.73169
2.7527
2.77257
2.79125
2.80868
2.82481
2.83958
2.85293
2.86481
2.87514
2.88386
2.89091
2.89623
2.43732
2.4604
2.48284
2.50461
2.52567
2.54598
2.56549
2.58414
2.60189
2.61866
2.6344
2.64904
2.66251
2.67475
2.68572
2.69536
2.70364
2.71053
2.71602
2.7201
2.32885
2.34827
2.367
2.38501
2.40228
2.41876
2.43442
2.44924
2.46317
2.4762
2.48829
2.49941
2.50953
2.51863
2.52667
2.53362
2.53945
2.54413
2.54763
2.54992
2.23059
2.24736
2.26354
2.2791
2.29404
2.30831
2.32189
2.33475
2.34687
2.35821
2.36874
2.37842
2.38722
2.39512
2.4021
2.40813
2.4132
2.41729
2.42041
2.42255
2.14406
2.15851
2.17235
2.18559
2.1982
2.21015
2.22143
2.23202
2.24191
2.25106
2.25948
2.26714
2.27403
2.28013
2.28542
2.28989
2.29353
2.29631
2.29822
2.29925
2.06912
2.082
2.09435
2.10616
2.11743
2.12812
2.13824
2.14775
2.15666
2.16493
2.17255
2.17951
2.18579
2.19138
2.19626
2.20043
2.20389
2.20662
2.20863
2.20991
2.00551
2.01693
2.02782
2.03819
2.04802
2.0573
2.06602
2.07416
2.08171
2.08868
2.09503
2.10077
2.10589
2.11037
2.11421
2.1174
2.11993
2.1218
2.12298
2.12349
1.95339
1.9639
1.97394
1.98352
1.99261
2.00121
2.00932
2.01692
2.024
2.03056
2.03657
2.04204
2.04696
2.05131
2.0551
2.05831
2.06095
2.06302
2.0645
2.0654
1.91167
1.92125
1.93037
1.93903
1.94722
1.95493
1.96215
1.96888
1.9751
1.98081
1.98601
1.99068
1.99482
1.99843
2.0015
2.00402
2.00598
2.00739
2.00824
2.00852
1.88072
1.88981
1.89849
1.90673
1.91453
1.9219
1.92881
1.93526
1.94124
1.94675
1.95178
1.95633
1.96038
1.96394
1.967
1.96956
1.97161
1.97317
1.97421
1.97476
1.85964
1.86833
1.87659
1.8844
1.89177
1.89868
1.90512
1.91109
1.91658
1.92159
1.92611
1.93014
1.93366
1.93668
1.93919
1.94119
1.94267
1.94363
1.94408
1.944
1.84952
1.85848
1.867
1.8751
1.88277
1.89002
1.89682
1.90319
1.90912
1.9146
1.91964
1.92422
1.92835
1.93202
1.93522
1.93796
1.94023
1.94204
1.94337
1.94423
0.108571
1.74992
2.64019
3.3415
3.74413
4.04231
4.20697
4.30137
4.33471
4.33154
4.3061
4.27269
4.23883
4.20938
4.18642
4.17004
4.15956
4.15394
4.15232
4.15488
0.743028
1.79515
2.6775
3.27268
3.70765
3.98866
4.16619
4.26377
4.30335
4.30561
4.28639
4.2572
4.22838
4.2037
4.18447
4.17084
4.16201
4.15695
4.15511
4.15763
1.16704
1.97261
2.72912
3.24558
3.66798
3.9376
4.12408
4.22715
4.27451
4.28241
4.26733
4.24232
4.21458
4.19263
4.17591
4.16446
4.15741
4.15353
4.15229
4.15521
1.4462
2.11741
2.74971
3.21648
3.60455
3.87116
4.06188
4.1752
4.23368
4.251
4.24284
4.22224
4.19861
4.17835
4.16362
4.15415
4.14878
4.14615
4.14558
4.14852
1.67968
2.23612
2.76086
3.18159
3.53242
3.79398
3.98625
4.11099
4.1826
4.21242
4.21417
4.20033
4.18111
4.16337
4.15021
4.14205
4.13778
4.13596
4.13575
4.13824
1.87278
2.33603
2.7741
3.14637
3.46266
3.7132
3.90474
4.03905
4.12403
4.16812
4.18215
4.1773
4.16373
4.14899
4.13725
4.12967
4.12573
4.12404
4.12373
4.12544
2.03589
2.42203
2.79148
3.11709
3.40089
3.63591
3.82346
3.96379
4.06054
4.11893
4.1466
4.15261
4.14624
4.13534
4.12508
4.1177
4.11332
4.11115
4.11024
4.11103
2.17307
2.49858
2.81245
3.0966
3.34992
3.56707
3.74726
3.88953
3.99495
4.06599
4.10727
4.12522
4.1275
4.12155
4.11322
4.1059
4.10069
4.09743
4.09558
4.0954
2.28975
2.56716
2.83655
3.08489
3.31052
3.50913
3.6794
3.81984
3.93015
4.01095
4.06437
4.09427
4.10614
4.1063
4.10066
4.09358
4.08737
4.08269
4.07962
4.07845
2.38958
2.62921
2.86277
3.081
3.28205
3.46268
3.62153
3.75716
3.86871
3.95576
4.01877
4.05944
4.08105
4.08823
4.08624
4.0799
4.07267
4.06642
4.06192
4.05968
2.47606
2.68565
2.89048
3.08357
3.26331
3.42721
3.57415
3.70293
3.81264
3.90244
3.97186
4.02115
4.05168
4.06622
4.06881
4.06399
4.056
4.04803
4.04186
4.03832
2.55185
2.7376
2.91926
3.09155
3.25305
3.40188
3.53715
3.65796
3.76355
3.85304
3.92559
3.98064
4.01826
4.03964
4.0473
4.04493
4.03674
4.02695
4.01878
4.01343
2.61938
2.78602
2.94901
3.10418
3.2503
3.38591
3.5103
3.62284
3.72293
3.8098
3.88256
3.9403
3.9824
4.00896
4.02124
4.02179
4.01412
4.0026
3.9919
3.98394
2.68028
2.83158
2.97947
3.12065
3.25399
3.3783
3.49302
3.59766
3.69177
3.7747
3.8456
3.90345
3.94728
3.97657
3.99174
3.99442
3.98737
3.97431
3.96044
3.94842
2.73543
2.87422
3.00981
3.13952
3.26232
3.37717
3.48355
3.58105
3.66932
3.74781
3.81575
3.87209
3.91569
3.94558
3.96149
3.96436
3.95655
3.94151
3.92354
3.90486
2.7852
2.91351
3.03885
3.15901
3.27296
3.37974
3.47882
3.56979
3.65234
3.72602
3.79019
3.84392
3.88604
3.91525
3.93065
3.93235
3.92232
3.90433
3.88123
3.85052
2.83084
2.95031
3.06699
3.17899
3.28525
3.38482
3.4771
3.56165
3.63812
3.7061
3.76507
3.81427
3.8526
3.87875
3.89172
3.89158
3.88019
3.8609
3.83397
3.78361
2.8759
2.9886
3.09855
3.20399
3.30387
3.39723
3.48341
3.56187
3.63215
3.69378
3.74613
3.78827
3.81886
3.83646
3.84065
3.83326
3.81854
3.80059
3.77541
3.71014
2.92484
3.03406
3.14035
3.24218
3.33862
3.42874
3.51179
3.58716
3.65426
3.71242
3.76061
3.79716
3.81962
3.82534
3.8135
3.78737
3.75491
3.72532
3.69469
3.62381
2.97679
3.08564
3.19167
3.29399
3.39171
3.484
3.57015
3.64954
3.72151
3.78524
3.83936
3.88166
3.90894
3.91797
3.9075
3.87858
3.83299
3.771
3.67826
3.50654
0.0258887
0.0825129
0.143553
0.208082
0.27551
0.335204
0.390528
0.452724
0.51953
0.590027
0.666
0.753786
0.848865
0.97664
1.13332
1.32068
1.567
1.89592
2.30938
2.79146
0.0254862
0.100851
0.153725
0.23938
0.288645
0.358897
0.44798
0.505062
0.59906
0.669779
0.776622
0.869455
1.00938
1.15537
1.31226
1.53718
1.80086
2.1214
2.49583
2.90833
0.0332891
0.107065
0.174261
0.253181
0.319163
0.396444
0.485052
0.564441
0.65887
0.751046
0.862189
0.978686
1.1233
1.28313
1.46029
1.68412
1.94809
2.25277
2.59685
2.97408
0.0378786
0.114136
0.190968
0.269301
0.347542
0.431651
0.521592
0.614149
0.712855
0.818538
0.935239
1.06539
1.21303
1.3782
1.56529
1.78394
2.0337
2.31298
2.6184
2.94348
0.0405931
0.121755
0.203968
0.2868
0.372761
0.462109
0.555986
0.655441
0.760011
0.872997
0.995521
1.13104
1.28052
1.44757
1.63432
1.84318
2.07627
2.33144
2.60471
2.89047
0.042704
0.128277
0.214889
0.302733
0.393511
0.487835
0.586038
0.689514
0.799022
0.916129
1.04226
1.17959
1.32937
1.49337
1.67385
1.87111
2.08421
2.31205
2.55077
2.79482
0.044495
0.134066
0.224589
0.316773
0.41164
0.509403
0.611183
0.717923
0.830271
0.949656
1.07708
1.21383
1.36121
1.52052
1.69187
1.87535
2.07067
2.27501
2.48474
2.69403
0.0462887
0.13928
0.233269
0.328855
0.426657
0.527545
0.631872
0.740508
0.854535
0.974531
1.10152
1.23635
1.37962
1.53173
1.69311
1.86291
2.03926
2.22045
2.40268
2.58113
0.0476705
0.143375
0.24003
0.338286
0.438556
0.541315
0.647487
0.757528
0.871994
0.991685
1.11706
1.2486
1.38674
1.53164
1.68255
1.83889
1.99932
2.16089
2.32029
2.47276
0.048784
0.146738
0.245664
0.345878
0.447887
0.552317
0.65938
0.769745
0.883966
1.00236
1.12532
1.25302
1.38544
1.52232
1.66338
1.80721
1.95201
2.09572
2.23505
2.36622
0.0497918
0.149633
0.250269
0.352086
0.455442
0.560596
0.668232
0.778556
0.891813
1.00836
1.1283
1.25171
1.37837
1.50792
1.63936
1.77182
1.90369
2.03241
2.15529
2.2686
0.0505091
0.151728
0.253584
0.356391
0.460527
0.56632
0.673888
0.783607
0.89576
1.01028
1.12721
1.24641
1.36747
1.48981
1.61277
1.73498
1.85478
1.97041
2.07924
2.17855
0.0510027
0.15328
0.256046
0.359611
0.46417
0.569965
0.677327
0.786263
0.896832
1.00917
1.12302
1.23813
1.35409
1.47025
1.58555
1.69898
1.80909
1.91389
2.01143
2.09895
0.051421
0.15443
0.257873
0.361906
0.466754
0.572575
0.679353
0.787276
0.89637
1.00642
1.11729
1.22861
1.33985
1.45031
1.55915
1.66506
1.76657
1.86228
1.9504
2.02892
0.0517384
0.155298
0.25917
0.363502
0.468358
0.573851
0.680152
0.787083
0.894628
1.00271
1.11091
1.21886
1.32604
1.43178
1.53504
1.63479
1.72966
1.81817
1.8988
1.96974
0.0519223
0.155887
0.260024
0.364429
0.469199
0.574467
0.680122
0.786155
0.892399
0.998573
1.10444
1.20956
1.31331
1.41494
1.51371
1.60844
1.6978
1.78056
1.85526
1.92051
0.0520363
0.156196
0.260505
0.365006
0.469684
0.574583
0.679861
0.785138
0.890193
0.994842
1.0987
1.20149
1.30253
1.40098
1.49597
1.5868
1.67222
1.75069
1.82098
1.88158
0.052176
0.156498
0.260934
0.365429
0.469994
0.574676
0.679467
0.784079
0.888263
0.991713
1.09411
1.19515
1.2941
1.39
1.48219
1.57
1.65223
1.72751
1.79457
1.8522
0.0522125
0.156646
0.261116
0.365634
0.470134
0.574639
0.67912
0.783256
0.886806
0.989558
1.09104
1.19075
1.28816
1.38246
1.4727
1.55831
1.63829
1.71131
1.77637
1.83224
0.0521975
0.15663
0.261039
0.365441
0.470189
0.574902
0.678758
0.782637
0.886009
0.98835
1.08962
1.18857
1.28486
1.37815
1.46773
1.55171
1.62963
1.70127
1.76525
1.82134
0.0128363
0.0382478
0.0643811
0.0910839
0.113711
0.137277
0.156541
0.167754
0.17123
0.160946
0.132527
0.0806077
0.00221596
-0.117191
-0.281831
-0.50833
-0.837419
-1.14722
-1.10342
-4.94326
0.0134991
0.0401122
0.067419
0.0954265
0.119253
0.144239
0.165296
0.178478
0.184497
0.177738
0.154185
0.10912
0.0408057
-0.0632182
-0.205483
-0.401142
-0.669377
-0.855198
-0.809902
-3.37694
0.0141796
0.0420147
0.0705059
0.0998358
0.124885
0.151348
0.174302
0.189564
0.198249
0.195163
0.176614
0.138546
0.0805505
-0.00818917
-0.129233
-0.293674
-0.499299
-0.586178
-0.539918
-2.0666
0.0148793
0.0439576
0.0736382
0.104302
0.130586
0.15858
0.183541
0.200991
0.212451
0.213158
0.199728
0.168779
0.121251
0.0474811
-0.05325
-0.186035
-0.330689
-0.342677
-0.283078
-1.02317
0.0155985
0.0459438
0.0768136
0.108824
0.136343
0.165917
0.192999
0.21273
0.227061
0.231655
0.22344
0.199698
0.16269
0.103468
0.0223904
-0.0787198
-0.167208
-0.124139
-0.0363646
-0.243429
0.0163334
0.0479701
0.0800302
0.11341
0.142167
0.173365
0.202665
0.224758
0.242047
0.2506
0.247674
0.231177
0.20464
0.159517
0.0975845
0.0276543
-0.0110368
0.0723628
0.2021
0.354811
0.017078
0.0500252
0.0832925
0.118074
0.148118
0.180965
0.212528
0.237049
0.257363
0.269937
0.272349
0.263082
0.246854
0.215402
0.172169
0.132286
0.136399
0.250895
0.428141
0.806195
0.017828
0.052085
0.0866144
0.122826
0.154291
0.188792
0.222565
0.249591
0.272965
0.289632
0.297381
0.29529
0.289073
0.2709
0.245957
0.234446
0.274828
0.415788
0.641188
1.15937
0.0185925
0.0541209
0.0900221
0.127648
0.160765
0.196908
0.232732
0.262378
0.288786
0.309651
0.322669
0.327705
0.331071
0.32581
0.318735
0.333428
0.404348
0.569148
0.838453
1.43562
0.0194005
0.0561259
0.0935341
0.13249
0.167485
0.20526
0.242976
0.275405
0.304767
0.329953
0.34811
0.360258
0.372752
0.380033
0.390309
0.42884
0.525743
0.7127
1.02106
1.65796
0.0202834
0.0581728
0.0971083
0.13731
0.174108
0.213547
0.253286
0.288607
0.320884
0.350428
0.373635
0.392853
0.414267
0.433673
0.460441
0.520564
0.639908
0.847268
1.18828
1.83807
0.0212086
0.0604841
0.100551
0.142176
0.179924
0.221146
0.263791
0.30178
0.337245
0.370828
0.399302
0.425263
0.456083
0.487113
0.528814
0.608944
0.748208
0.974279
1.34175
1.98733
0.0219888
0.0634445
0.10347
0.147357
0.184066
0.227277
0.274814
0.314524
0.354141
0.390738
0.425365
0.457049
0.498817
0.540872
0.594958
0.694527
0.851905
1.09473
1.48177
2.11253
0.0223032
0.0673726
0.105488
0.153175
0.186217
0.231629
0.286675
0.326453
0.371896
0.409789
0.452136
0.48774
0.542645
0.595097
0.658459
0.777716
0.951796
1.20961
1.60993
2.21963
0.0221055
0.0718404
0.106981
0.159352
0.187821
0.235449
0.29898
0.33794
0.390211
0.428364
0.479349
0.517558
0.586263
0.648641
0.719517
0.857812
1.04695
1.3182
1.7265
2.31228
0.0226253
0.074536
0.110342
0.163864
0.193326
0.242735
0.309467
0.35141
0.406968
0.448825
0.504958
0.548662
0.6258
0.698066
0.779972
0.932045
1.13416
1.41782
1.83107
2.39371
0.0273923
0.0705917
0.120759
0.162259
0.2098
0.260037
0.313406
0.372157
0.417375
0.476275
0.524213
0.585932
0.655107
0.737791
0.843821
0.995273
1.20841
1.50346
1.92103
2.46661
0.0410248
0.0548415
0.143848
0.14984
0.242401
0.292452
0.305976
0.405894
0.416082
0.516127
0.531591
0.634653
0.669619
0.763454
0.915072
1.04283
1.26682
1.57136
1.99407
2.53338
0.0619677
0.0302501
0.17646
0.129985
0.285132
0.334813
0.290764
0.449215
0.406031
0.564843
0.529416
0.691718
0.674635
0.779284
0.99054
1.07781
1.31424
1.62489
2.05238
2.59492
0.0682645
0.0247758
0.18828
0.13081
0.303866
0.354897
0.296647
0.470849
0.415623
0.591707
0.545383
0.727422
0.700103
0.812589
1.0449
1.12496
1.37039
1.68452
2.11171
2.64959
0.000307436
0.00623474
0.0131865
0.0195238
0.0259332
0.0370118
0.0478333
0.0565301
0.0554448
0.0346804
-0.0134104
-0.103483
-0.255528
-0.513649
-0.892755
-1.31435
-2.61104
-3.15362
-5.29807
-6.16208
0.0014939
0.00804923
0.0156176
0.0227893
0.0296658
0.0403378
0.0498782
0.0563429
0.0525687
0.028767
-0.0229981
-0.117368
-0.275547
-0.540369
-0.919303
-1.35887
-2.68594
-3.16993
-5.46863
-6.31223
0.0021478
0.00935313
0.0176666
0.0257577
0.0334075
0.0441282
0.0529784
0.0577441
0.051713
0.0252961
-0.0295743
-0.127682
-0.291377
-0.560781
-0.937987
-1.39827
-2.74335
-3.17087
-5.65837
-6.41948
0.00301431
0.0110039
0.020052
0.0289911
0.0371923
0.0478052
0.055852
0.0590239
0.0510294
0.0224278
-0.034962
-0.136165
-0.304186
-0.575624
-0.949782
-1.43199
-2.78229
-3.15221
-5.8608
-6.49951
0.00357468
0.0123828
0.0222536
0.0320913
0.0409861
0.0517818
0.0593873
0.0613571
0.0517838
0.0214082
-0.0379623
-0.141675
-0.312889
-0.584263
-0.954621
-1.45918
-2.80297
-3.11717
-6.07482
-6.55551
0.00425219
0.0139511
0.0246489
0.0353483
0.0448142
0.0557387
0.0629088
0.0638445
0.0530099
0.0212862
-0.0395389
-0.145098
-0.318098
-0.58733
-0.952881
-1.48
-2.8044
-3.06463
-6.28898
-6.58267
0.00477323
0.0153785
0.0269641
0.0385634
0.0486952
0.0599381
0.0669387
0.067149
0.0554022
0.0227382
-0.0390418
-0.145779
-0.319219
-0.584554
-0.944705
-1.49411
-2.78628
-3.00003
-6.50463
-6.57138
0.00536341
0.0169121
0.0293948
0.0418844
0.052635
0.0642021
0.0711129
0.0707942
0.0584518
0.0252551
-0.0369968
-0.144184
-0.316605
-0.576354
-0.930663
-1.5011
-2.74661
-2.92933
-6.73295
-6.51765
0.00587836
0.0183812
0.0318026
0.045218
0.0566615
0.0686907
0.0757243
0.0751375
0.0625183
0.0291748
-0.0330751
-0.139959
-0.309977
-0.562747
-0.911279
-1.49937
-2.68283
-2.86546
-7.00786
-6.41939
0.00643475
0.0199155
0.0342872
0.0486378
0.0607712
0.0733052
0.0805778
0.0799289
0.0673337
0.0342183
-0.027568
-0.13336
-0.299598
-0.544232
-0.887263
-1.48637
-2.59069
-2.81904
-7.37079
-6.27277
0.00695862
0.0214299
0.0367819
0.0521034
0.064989
0.0781398
0.085831
0.0853503
0.0730675
0.040534
-0.0203239
-0.124216
-0.285443
-0.521175
-0.859045
-1.45854
-2.46718
-2.79572
-7.83082
-6.06966
0.00750889
0.0229906
0.0393362
0.0556499
0.0693091
0.0831402
0.091381
0.0912716
0.0795763
0.0479642
-0.0115068
-0.112695
-0.267821
-0.494206
-0.826679
-1.41253
-2.31259
-2.78707
-8.30167
-5.79601
0.00804938
0.0245571
0.0419203
0.0592621
0.0737501
0.0883589
0.0973075
0.0977757
0.0869244
0.0565566
-0.00106159
-0.0987662
-0.246928
-0.463795
-0.78949
-1.34659
-2.13445
-2.77123
-8.42558
-5.44076
0.00860901
0.0261621
0.0445577
0.0629552
0.078306
0.0937655
0.103556
0.104793
0.0950308
0.0662181
0.0109093
-0.0825982
-0.223147
-0.43037
-0.746296
-1.2619
-1.94736
-2.72181
-7.6763
-4.9876
0.00917125
0.0277878
0.0472365
0.0667247
0.0829888
0.0993864
0.110162
0.112352
0.103904
0.0769456
0.0243984
-0.0642815
-0.196776
-0.394083
-0.696089
-1.16273
-1.76772
-2.62863
-6.05777
-4.20863
0.00974981
0.0294494
0.0499671
0.0705764
0.087793
0.105204
0.117095
0.120413
0.113494
0.0886782
0.0393175
-0.0440142
-0.168149
-0.354951
-0.638651
-1.05525
-1.6034
-2.49117
-4.46483
-3.51687
0.0103379
0.03114
0.0527457
0.07451
0.0927256
0.111229
0.124365
0.128973
0.123781
0.101385
0.0556084
-0.0219572
-0.137498
-0.312878
-0.574661
-0.944372
-1.45263
-2.29533
-3.27531
-3.39599
0.0109414
0.0328661
0.0555764
0.0785274
0.0977829
0.117451
0.131953
0.138006
0.134731
0.115017
0.0731732
0.00169201
-0.105016
-0.267848
-0.505516
-0.833298
-1.30636
-2.04569
-2.43412
-3.86508
0.0115579
0.0346251
0.0584588
0.0826297
0.102969
0.123872
0.139854
0.147496
0.146311
0.129525
0.0919182
0.0267699
-0.0708259
-0.219988
-0.432775
-0.723608
-1.1567
-1.76102
-1.86864
-4.91776
0.0121897
0.0364192
0.0613938
0.0868159
0.108279
0.130483
0.148055
0.15742
0.158491
0.144855
0.111738
0.0531185
-0.0350434
-0.169619
-0.357849
-0.61557
-1.00035
-1.45399
-1.44849
-5.86006
0.00284309
0.00806916
0.0127954
0.017082
0.0209732
0.0245076
0.0277192
0.0306382
0.0332921
0.0357053
0.0378993
0.0398915
0.0416958
0.0433243
0.0447889
0.0461013
0.0472722
0.0483111
0.0492263
0.0500246
0.00792894
0.0227091
0.036353
0.0489503
0.060554
0.0712277
0.0810301
0.0900173
0.0982432
0.105759
0.112613
0.118852
0.124518
0.129651
0.134288
0.138462
0.142204
0.145539
0.148492
0.151082
0.0126368
0.0363506
0.0585503
0.0793239
0.0986563
0.116597
0.133189
0.148491
0.162562
0.175467
0.187272
0.198045
0.20785
0.21675
0.224804
0.232068
0.238592
0.24442
0.249591
0.254136
0.0180411
0.0517537
0.0833894
0.113049
0.140634
0.166233
0.189886
0.211671
0.231673
0.249988
0.266714
0.281954
0.295808
0.308374
0.319744
0.330004
0.339232
0.347496
0.354854
0.361357
0.024561
0.0699703
0.112493
0.152165
0.188784
0.222599
0.25362
0.282018
0.307918
0.331488
0.352886
0.372282
0.389837
0.405708
0.420039
0.432966
0.444607
0.455065
0.464428
0.472766
0.032881
0.0926735
0.148405
0.199722
0.246435
0.289146
0.32774
0.362678
0.394108
0.422382
0.447748
0.470512
0.490934
0.509277
0.525772
0.540632
0.554045
0.566172
0.577142
0.587058
0.0439348
0.122124
0.194442
0.259429
0.317521
0.36975
0.415741
0.456725
0.492662
0.524436
0.552313
0.576933
0.598661
0.617979
0.635236
0.650794
0.664929
0.67788
0.689827
0.700905
0.0590384
0.16152
0.255083
0.336093
0.407278
0.469188
0.521811
0.567579
0.605907
0.639003
0.666738
0.690663
0.711066
0.728976
0.744809
0.759201
0.77251
0.785089
0.797164
0.808892
0.0795469
0.214414
0.335152
0.434512
0.520937
0.591387
0.64967
0.697367
0.734764
0.765505
0.788945
0.808378
0.8236
0.836754
0.848178
0.858967
0.869554
0.880406
0.891772
0.903785
0.105481
0.281446
0.434891
0.553944
0.65674
0.732071
0.795066
0.8395
0.873003
0.895851
0.910503
0.920417
0.926132
0.930548
0.934559
0.939343
0.945756
0.954091
0.964628
0.977318
0.133206
0.352701
0.538124
0.675261
0.792233
0.867032
0.932511
0.964992
0.991547
0.999641
1.0029
0.998395
0.992597
0.985184
0.981481
0.979993
0.983626
0.991421
1.00365
1.01973
0.149086
0.38978
0.587773
0.732568
0.84726
0.917233
0.975916
0.989111
1.00841
0.992861
0.984922
0.962682
0.952885
0.933145
0.935257
0.934625
0.946396
0.963815
0.9871
1.01462
0.125925
0.322646
0.481499
0.598615
0.678942
0.730108
0.753258
0.74462
0.738092
0.69292
0.667488
0.63553
0.631652
0.625071
0.652256
0.684158
0.735427
0.790566
0.850012
0.908731
0.050873
0.120728
0.166488
0.186081
0.17418
0.139939
0.0718187
-0.00139288
-0.0914855
-0.163415
-0.221226
-0.247149
-0.230956
-0.180086
-0.0856793
0.0335646
0.180865
0.320998
0.456251
0.578064
-0.0373362
-0.133524
-0.252758
-0.399184
-0.5801
-0.788723
-1.03073
-1.25955
-1.48438
-1.64633
-1.74822
-1.75897
-1.68137
-1.52207
-1.27668
-1.01584
-0.741947
-0.492404
-0.284651
-0.122047
-0.0916056
-0.312909
-0.574114
-0.885827
-1.25441
-1.66717
-2.10559
-2.52204
-2.88349
-3.14691
-3.28848
-3.29723
-3.16658
-2.91416
-2.57766
-2.17783
-1.78425
-1.45392
-1.21412
-1.07713
-0.0742541
-0.244803
-0.457838
-0.720564
-1.03943
-1.3987
-1.77074
-2.10877
-2.37616
-2.54275
-2.58732
-2.50212
-2.31337
-2.05549
-1.79098
-1.5836
-1.48539
-1.53967
-1.82162
-2.27328
0.0156832
0.0277905
-0.000183555
-0.0574259
-0.128352
-0.170475
-0.146445
-0.0402803
0.135923
0.372109
0.66073
0.991761
1.34258
1.66729
1.90036
1.97218
1.68069
1.34303
0.656477
-0.56828
0.0129437
0.0372072
0.0665069
0.10651
0.173001
0.282782
0.445417
0.658045
0.902819
1.16176
1.4237
1.67807
1.90999
2.08268
2.10304
2.00891
1.51287
0.632811
-0.568698
-1.7876
0.00250022
0.00503818
0.00428892
-0.000160934
-0.00425008
-0.0010671
0.0141482
0.0396226
0.0662441
0.0821801
0.0761762
0.0365719
-0.0514296
-0.226253
-0.529749
-0.902207
-1.66762
-2.76751
-3.53787
-4.26006
0.0505045
0.0507618
0.0510025
0.051227
0.0514353
0.0516276
0.0518041
0.0519648
0.0521098
0.0522393
0.0523531
0.0524513
0.0525339
0.0526007
0.0526516
0.0526866
0.0527054
0.0527079
0.0526939
0.0526633
0.152651
0.153493
0.154282
0.155017
0.155699
0.156329
0.156907
0.157434
0.157909
0.158332
0.158704
0.159024
0.159292
0.159508
0.159671
0.159781
0.159838
0.159839
0.159786
0.159677
0.256897
0.258381
0.259774
0.261076
0.262288
0.26341
0.264443
0.265387
0.266242
0.267009
0.267686
0.268273
0.268771
0.269177
0.269493
0.269715
0.269844
0.269878
0.269816
0.269657
0.365334
0.367479
0.3695
0.371397
0.37317
0.374821
0.37635
0.377758
0.379043
0.380207
0.381247
0.382165
0.382957
0.383624
0.384163
0.384574
0.384853
0.384999
0.38501
0.384884
0.47792
0.480716
0.483366
0.48587
0.48823
0.490445
0.492517
0.494445
0.496229
0.497867
0.499358
0.500702
0.501895
0.502936
0.503822
0.50455
0.505116
0.505518
0.505752
0.505815
0.593306
0.596725
0.599994
0.603115
0.606089
0.608915
0.611594
0.614124
0.616505
0.618733
0.620806
0.622722
0.624477
0.626066
0.627485
0.628731
0.629796
0.630675
0.631363
0.631855
0.708101
0.71209
0.71596
0.71971
0.723339
0.726848
0.730234
0.733493
0.736623
0.739618
0.742475
0.745186
0.747746
0.750147
0.752383
0.754443
0.756322
0.758008
0.759492
0.760766
0.816898
0.821426
0.82591
0.830348
0.834735
0.839067
0.843338
0.847542
0.851671
0.855715
0.859665
0.86351
0.867238
0.870838
0.874296
0.877598
0.880731
0.883688
0.886437
0.888974
0.912635
0.917783
0.923018
0.928333
0.933717
0.939158
0.944643
0.950158
0.955688
0.961215
0.966721
0.972187
0.977593
0.982919
0.988143
0.993242
0.998194
1.00297
1.00756
1.01193
0.987574
0.993717
1.00013
1.00679
1.01368
1.02077
1.02804
1.03546
1.043
1.05064
1.05833
1.06605