x,y,z,p
0,0,0,0.00039858
0,0.1,0,0.00064014
0,0.2,0,0.000881701
0,0.3,0,0.00112326
0,0.4,0,0.00136482
0,0.5,0,0.00161498
0,0.6,0,0.00193108
0,0.7,0,0.00224719
0,0.8,0,0.00256329
0,0.9,0,0.00287939
0,1,0,0.00319265
0,1.1,0,0.00349641
0,1.2,0,0.00380018
0,1.3,0,0.00410395
0,1.4,0,0.00440771
0,1.5,0,0.00470655
0,1.6,0,0.00499609
0,1.7,0,0.00528563
0,1.8,0,0.00557516
0,1.9,0,0.0058647
0,2,0,0.00614683
0,2.1,0,0.00642033
0,2.2,0,0.00669382
0,2.3,0,0.00696732
0,2.4,0,0.00724082
0,2.5,0,0.00750271
0,2.6,0,0.00775611
0,2.7,0,0.0080095
0,2.8,0,0.0082629
0,2.9,0,0.00851629
0,3,0,0.00875227
0,3.1,0,0.0089805
0,3.2,0,0.00920873
0,3.3,0,0.00943697
0,3.4,0,0.0096652
0,3.5,0,0.00987031
0,3.6,0,0.0100699
0,3.7,0,0.0102695
0,3.8,0,0.0104691
0,3.9,0,0.0106687
0,4,0,0.0108391
0,4.1,0,0.011007
0,4.2,0,0.0111749
0,4.3,0,0.0113428
0,4.4,0,0.0115094
0,4.5,0,0.011643
0,4.6,0,0.0117766
0,4.7,0,0.0119102
0,4.8,0,0.0120439
0,4.9,0,0.0121719
0,5,0,0.0122691
0,5.1,0,0.0123663
0,5.2,0,0.0124635
0,5.3,0,0.0125607
0,5.4,0,0.0126476
0,5.5,0,0.0127069
0,5.6,0,0.0127661
0,5.7,0,0.0128253
0,5.8,0,0.0128846
0,5.9,0,0.0129288
0,6,0,0.0129489
0,6.1,0,0.0129691
0,6.2,0,0.0129893
0,6.3,0,0.0130095
0,6.4,0,0.01301
0,6.5,0,0.0129907
0,6.6,0,0.0129714
0,6.7,0,0.0129521
0,6.8,0,0.0129328
0,6.9,0,0.0128894
0,7,0,0.0128309
0,7.1,0,0.0127724
0,7.2,0,0.012714
0,7.3,0,0.0126555
0,7.4,0,0.0125692
0,7.5,0,0.0124725
0,7.6,0,0.0123759
0,7.7,0,0.0122793
0,7.8,0,0.0121827
0,7.9,0,0.0120553
0,8,0,0.0119222
0,8.1,0,0.0117891
0,8.2,0,0.011656
0,8.3,0,0.011523
0,8.4,0,0.0113568
0,8.5,0,0.0111894
0,8.6,0,0.0110219
0,8.7,0,0.0108545
0,8.8,0,0.0106846
0,8.9,0,0.0104852
0,9,0,0.0102859
0,9.1,0,0.0100866
0,9.2,0,0.00988729
0,9.3,0,0.00968243
0,9.4,0,0.00945432
0,9.5,0,0.0092262
0,9.6,0,0.00899809
0,9.7,0,0.00876998
0,9.8,0,0.00853411
0,9.9,0,0.00828083
0,10,0,0.00802754
0,10.1,0,0.00777425
0,10.2,0,0.00752096
0,10.3,0,0.00725871
0,10.4,0,0.00698425
0,10.5,0,0.00670979
0,10.6,0,0.00643532
0,10.7,0,0.00616086
0,10.8,0,0.00587728
0,10.9,0,0.00558588
0,11,0,0.00529449
0,11.1,0,0.00500309
0,11.2,0,0.00471169
0,11.3,0,0.00441157
0,11.4,0,0.00410682
0,11.5,0,0.00380208
0,11.6,0,0.00349734
0,11.7,0,0.00319259
0,11.8,0,0.00287906
0,11.9,0,0.0025629
0,12,0,0.00224673
0,12.1,0,0.00193057
0,12.2,0,0.0016144
0,12.3,0,0.00136433
0,12.4,0,0.00112288
0,12.5,0,0.000881421
0,12.6,0,0.000639968
0,12.7,0,0.000398514
0.1,0,0,0.000318864
0.1,0.1,0,0.000639373
0.1,0.2,0,0.000880933
0.1,0.3,0,0.00112249
0.1,0.4,0,0.00136405
0.1,0.5,0,0.00161347
0.1,0.6,0,0.00193098
0.1,0.7,0,0.00224708
0.1,0.8,0,0.00256318
0.1,0.9,0,0.00287928
0.1,1,0,0.00319353
0.1,1.1,0,0.00350016
0.1,1.2,0,0.00380393
0.1,1.3,0,0.0041077
0.1,1.4,0,0.00441147
0.1,1.5,0,0.00471173
0.1,1.6,0,0.00500375
0.1,1.7,0,0.00529328
0.1,1.8,0,0.00558282
0.1,1.9,0,0.00587236
0.1,2,0,0.00615557
0.1,2.1,0,0.00643026
0.1,2.2,0,0.00670376
0.1,2.3,0,0.00697725
0.1,2.4,0,0.00725075
0.1,2.5,0,0.00751385
0.1,2.6,0,0.00776808
0.1,2.7,0,0.00802147
0.1,2.8,0,0.00827487
0.1,2.9,0,0.00852826
0.1,3,0,0.00876536
0.1,3.1,0,0.00899405
0.1,3.2,0,0.00922228
0.1,3.3,0,0.00945052
0.1,3.4,0,0.00967875
0.1,3.5,0,0.00988494
0.1,3.6,0,0.0100848
0.1,3.7,0,0.0102844
0.1,3.8,0,0.010484
0.1,3.9,0,0.0106836
0.1,4,0,0.0108551
0.1,4.1,0,0.0110231
0.1,4.2,0,0.011191
0.1,4.3,0,0.0113589
0.1,4.4,0,0.0115255
0.1,4.5,0,0.0116602
0.1,4.6,0,0.0117938
0.1,4.7,0,0.0119274
0.1,4.8,0,0.012061
0.1,4.9,0,0.0121891
0.1,5,0,0.0122871
0.1,5.1,0,0.0123843
0.1,5.2,0,0.0124815
0.1,5.3,0,0.0125787
0.1,5.4,0,0.0126658
0.1,5.5,0,0.0127254
0.1,5.6,0,0.0127846
0.1,5.7,0,0.0128438
0.1,5.8,0,0.0129031
0.1,5.9,0,0.0129473
0.1,6,0,0.0129676
0.1,6.1,0,0.0129878
0.1,6.2,0,0.013008
0.1,6.3,0,0.0130282
0.1,6.4,0,0.0130286
0.1,6.5,0,0.0130092
0.1,6.6,0,0.0129899
0.1,6.7,0,0.0129706
0.1,6.8,0,0.0129513
0.1,6.9,0,0.0129076
0.1,7,0,0.012849
0.1,7.1,0,0.0127905
0.1,7.2,0,0.0127321
0.1,7.3,0,0.0126736
0.1,7.4,0,0.0125867
0.1,7.5,0,0.0124899
0.1,7.6,0,0.0123933
0.1,7.7,0,0.0122966
0.1,7.8,0,0.0122
0.1,7.9,0,0.0120716
0.1,8,0,0.0119384
0.1,8.1,0,0.0118053
0.1,8.2,0,0.0116722
0.1,8.3,0,0.0115392
0.1,8.4,0,0.0113717
0.1,8.5,0,0.0112042
0.1,8.6,0,0.0110367
0.1,8.7,0,0.0108693
0.1,8.8,0,0.0106993
0.1,8.9,0,0.0104986
0.1,9,0,0.0102993
0.1,9.1,0,0.0100999
0.1,9.2,0,0.00990063
0.1,9.3,0,0.00969545
0.1,9.4,0,0.00946605
0.1,9.5,0,0.00923794
0.1,9.6,0,0.00900982
0.1,9.7,0,0.00878171
0.1,9.8,0,0.00854527
0.1,9.9,0,0.00829073
0.1,10,0,0.00803744
0.1,10.1,0,0.00778415
0.1,10.2,0,0.00753086
0.1,10.3,0,0.00726771
0.1,10.4,0,0.00699207
0.1,10.5,0,0.00671761
0.1,10.6,0,0.00644315
0.1,10.7,0,0.00616868
0.1,10.8,0,0.00588385
0.1,10.9,0,0.00559143
0.1,11,0,0.00530004
0.1,11.1,0,0.00500864
0.1,11.2,0,0.00471724
0.1,11.3,0,0.00441547
0.1,11.4,0,0.00410991
0.1,11.5,0,0.00380517
0.1,11.6,0,0.00350042
0.1,11.7,0,0.00319568
0.1,11.8,0,0.00288215
0.1,11.9,0,0.00256599
0.1,12,0,0.00224982
0.1,12.1,0,0.00193366
0.1,12.2,0,0.00161715
0.1,12.3,0,0.00136659
0.1,12.4,0,0.00112513
0.1,12.5,0,0.000883678
0.1,12.6,0,0.000642224
0.1,12.7,0,0.000318811
0.2,0,0,0.000239148
0.2,0.1,0,0.000560239
0.2,0.2,0,0.000880166
0.2,0.3,0,0.00112173
0.2,0.4,0,0.00136329
0.2,0.5,0,0.00161177
0.2,0.6,0,0.00192948
0.2,0.7,0,0.00224697
0.2,0.8,0,0.00256307
0.2,0.9,0,0.00287917
0.2,1,0,0.00319353
0.2,1.1,0,0.00350112
0.2,1.2,0,0.00380768
0.2,1.3,0,0.00411145
0.2,1.4,0,0.00441522
0.2,1.5,0,0.00471555
0.2,1.6,0,0.00500902
0.2,1.7,0,0.00530094
0.2,1.8,0,0.00559048
0.2,1.9,0,0.00588001
0.2,2,0,0.00616322
0.2,2.1,0,0.00643905
0.2,2.2,0,0.00671369
0.2,2.3,0,0.00698719
0.2,2.4,0,0.00726068
0.2,2.5,0,0.00752378
0.2,2.6,0,0.00777926
0.2,2.7,0,0.00803344
0.2,2.8,0,0.00828683
0.2,2.9,0,0.00854023
0.2,3,0,0.00877732
0.2,3.1,0,0.00900718
0.2,3.2,0,0.00923584
0.2,3.3,0,0.00946407
0.2,3.4,0,0.0096923
0.2,3.5,0,0.00989849
0.2,3.6,0,0.0100994
0.2,3.7,0,0.0102992
0.2,3.8,0,0.0104988
0.2,3.9,0,0.0106985
0.2,4,0,0.0108699
0.2,4.1,0,0.0110391
0.2,4.2,0,0.011207
0.2,4.3,0,0.0113749
0.2,4.4,0,0.0115416
0.2,4.5,0,0.0116763
0.2,4.6,0,0.0118109
0.2,4.7,0,0.0119445
0.2,4.8,0,0.0120781
0.2,4.9,0,0.0122063
0.2,5,0,0.0123044
0.2,5.1,0,0.0124023
0.2,5.2,0,0.0124995
0.2,5.3,0,0.0125967
0.2,5.4,0,0.0126838
0.2,5.5,0,0.0127435
0.2,5.6,0,0.0128031
0.2,5.7,0,0.0128623
0.2,5.8,0,0.0129216
0.2,5.9,0,0.0129659
0.2,6,0,0.0129862
0.2,6.1,0,0.0130065
0.2,6.2,0,0.0130267
0.2,6.3,0,0.0130469
0.2,6.4,0,0.0130472
0.2,6.5,0,0.0130278
0.2,6.6,0,0.0130085
0.2,6.7,0,0.0129892
0.2,6.8,0,0.0129699
0.2,6.9,0,0.0129262
0.2,7,0,0.0128673
0.2,7.1,0,0.0128087
0.2,7.2,0,0.0127502
0.2,7.3,0,0.0126917
0.2,7.4,0,0.0126048
0.2,7.5,0,0.0125074
0.2,7.6,0,0.0124106
0.2,7.7,0,0.012314
0.2,7.8,0,0.0122174
0.2,7.9,0,0.0120889
0.2,8,0,0.0119547
0.2,8.1,0,0.0118215
0.2,8.2,0,0.0116884
0.2,8.3,0,0.0115553
0.2,8.4,0,0.0113879
0.2,8.5,0,0.011219
0.2,8.6,0,0.0110516
0.2,8.7,0,0.0108841
0.2,8.8,0,0.0107141
0.2,8.9,0,0.0105133
0.2,9,0,0.0103126
0.2,9.1,0,0.0101133
0.2,9.2,0,0.00991396
0.2,9.3,0,0.00970879
0.2,9.4,0,0.00947903
0.2,9.5,0,0.00924967
0.2,9.6,0,0.00902156
0.2,9.7,0,0.00879344
0.2,9.8,0,0.00855701
0.2,9.9,0,0.00830185
0.2,10,0,0.00804735
0.2,10.1,0,0.00779406
0.2,10.2,0,0.00754077
0.2,10.3,0,0.00727762
0.2,10.4,0,0.00700103
0.2,10.5,0,0.00672543
0.2,10.6,0,0.00645097
0.2,10.7,0,0.00617651
0.2,10.8,0,0.00589167
0.2,10.9,0,0.00559795
0.2,11,0,0.00530558
0.2,11.1,0,0.00501419
0.2,11.2,0,0.00472279
0.2,11.3,0,0.00442102
0.2,11.4,0,0.00411376
0.2,11.5,0,0.00380826
0.2,11.6,0,0.00350351
0.2,11.7,0,0.00319877
0.2,11.8,0,0.00288524
0.2,11.9,0,0.00256908
0.2,12,0,0.00225291
0.2,12.1,0,0.00193641
0.2,12.2,0,0.00161985
0.2,12.3,0,0.00136884
0.2,12.4,0,0.00112739
0.2,12.5,0,0.000885935
0.2,12.6,0,0.000564722
0.2,12.7,0,0.000239108
0.3,0,0,0.000159432
0.3,0.1,0,0.000480523
0.3,0.2,0,0.000801614
0.3,0.3,0,0.00112096
0.3,0.4,0,0.00136252
0.3,0.5,0,0.00161007
0.3,0.6,0,0.00192778
0.3,0.7,0,0.0022455
0.3,0.8,0,0.00256296
0.3,0.9,0,0.00287907
0.3,1,0,0.00319353
0.3,1.1,0,0.00350112
0.3,1.2,0,0.00380871
0.3,1.3,0,0.0041152
0.3,1.4,0,0.00441897
0.3,1.5,0,0.00471937
0.3,1.6,0,0.00501283
0.3,1.7,0,0.0053063
0.3,1.8,0,0.00559813
0.3,1.9,0,0.00588767
0.3,2,0,0.00617088
0.3,2.1,0,0.00644671
0.3,2.2,0,0.00672253
0.3,2.3,0,0.00699712
0.3,2.4,0,0.00727062
0.3,2.5,0,0.00753372
0.3,2.6,0,0.00778919
0.3,2.7,0,0.00804467
0.3,2.8,0,0.0082988
0.3,2.9,0,0.00855219
0.3,3,0,0.00878929
0.3,3.1,0,0.00901915
0.3,3.2,0,0.009249
0.3,3.3,0,0.00947762
0.3,3.4,0,0.00970585
0.3,3.5,0,0.00991204
0.3,3.6,0,0.010113
0.3,3.7,0,0.0103139
0.3,3.8,0,0.0105137
0.3,3.9,0,0.0107133
0.3,4,0,0.0108848
0.3,4.1,0,0.0110539
0.3,4.2,0,0.0112231
0.3,4.3,0,0.011391
0.3,4.4,0,0.0115576
0.3,4.5,0,0.0116923
0.3,4.6,0,0.0118271
0.3,4.7,0,0.0119617
0.3,4.8,0,0.0120953
0.3,4.9,0,0.0122234
0.3,5,0,0.0123215
0.3,5.1,0,0.0124196
0.3,5.2,0,0.0125175
0.3,5.3,0,0.0126147
0.3,5.4,0,0.0127018
0.3,5.5,0,0.0127615
0.3,5.6,0,0.0128213
0.3,5.7,0,0.0128809
0.3,5.8,0,0.0129401
0.3,5.9,0,0.0129844
0.3,6,0,0.0130047
0.3,6.1,0,0.0130251
0.3,6.2,0,0.0130454
0.3,6.3,0,0.0130655
0.3,6.4,0,0.0130659
0.3,6.5,0,0.0130465
0.3,6.6,0,0.0130271
0.3,6.7,0,0.0130077
0.3,6.8,0,0.0129884
0.3,6.9,0,0.0129447
0.3,7,0,0.0128858
0.3,7.1,0,0.0128269
0.3,7.2,0,0.0127683
0.3,7.3,0,0.0127098
0.3,7.4,0,0.0126229
0.3,7.5,0,0.0125255
0.3,7.6,0,0.0124281
0.3,7.7,0,0.0123313
0.3,7.8,0,0.0122347
0.3,7.9,0,0.0121062
0.3,8,0,0.011972
0.3,8.1,0,0.0118378
0.3,8.2,0,0.0117046
0.3,8.3,0,0.0115715
0.3,8.4,0,0.0114041
0.3,8.5,0,0.0112352
0.3,8.6,0,0.0110664
0.3,8.7,0,0.0108989
0.3,8.8,0,0.0107289
0.3,8.9,0,0.0105281
0.3,9,0,0.0103272
0.3,9.1,0,0.0101266
0.3,9.2,0,0.0099273
0.3,9.3,0,0.00972213
0.3,9.4,0,0.00949237
0.3,9.5,0,0.00926262
0.3,9.6,0,0.00903329
0.3,9.7,0,0.00880518
0.3,9.8,0,0.00856874
0.3,9.9,0,0.00831358
0.3,10,0,0.00805842
0.3,10.1,0,0.00780396
0.3,10.2,0,0.00755067
0.3,10.3,0,0.00728753
0.3,10.4,0,0.00701093
0.3,10.5,0,0.00673434
0.3,10.6,0,0.00645879
0.3,10.7,0,0.00618433
0.3,10.8,0,0.00589949
0.3,10.9,0,0.00560577
0.3,11,0,0.00531205
0.3,11.1,0,0.00501974
0.3,11.2,0,0.00472834
0.3,11.3,0,0.00442657
0.3,11.4,0,0.00411931
0.3,11.5,0,0.00381204
0.3,11.6,0,0.0035066
0.3,11.7,0,0.00320186
0.3,11.8,0,0.00288833
0.3,11.9,0,0.00257216
0.3,12,0,0.00225568
0.3,12.1,0,0.00193911
0.3,12.2,0,0.00162255
0.3,12.3,0,0.0013711
0.3,12.4,0,0.00112965
0.3,12.5,0,0.000810633
0.3,12.6,0,0.000485019
0.3,12.7,0,0.000159405
0.4,0,0,7.9716e-05
0.4,0.1,0,0.000400807
0.4,0.2,0,0.000721898
0.4,0.3,0,0.00104299
0.4,0.4,0,0.00136175
0.4,0.5,0,0.00160837
0.4,0.6,0,0.00192608
0.4,0.7,0,0.0022438
0.4,0.8,0,0.00256152
0.4,0.9,0,0.00287896
0.4,1,0,0.00319353
0.4,1.1,0,0.00350112
0.4,1.2,0,0.00380871
0.4,1.3,0,0.0041163
0.4,1.4,0,0.00442272
0.4,1.5,0,0.00472319
0.4,1.6,0,0.00501665
0.4,1.7,0,0.00531012
0.4,1.8,0,0.00560358
0.4,1.9,0,0.00589532
0.4,2,0,0.00617853
0.4,2.1,0,0.00645436
0.4,2.2,0,0.00673019
0.4,2.3,0,0.00700602
0.4,2.4,0,0.00728055
0.4,2.5,0,0.00754365
0.4,2.6,0,0.00779913
0.4,2.7,0,0.0080546
0.4,2.8,0,0.00831008
0.4,2.9,0,0.00856416
0.4,3,0,0.00880126
0.4,3.1,0,0.00903111
0.4,3.2,0,0.00926097
0.4,3.3,0,0.00949082
0.4,3.4,0,0.0097194
0.4,3.5,0,0.00992559
0.4,3.6,0,0.0101265
0.4,3.7,0,0.0103275
0.4,3.8,0,0.0105284
0.4,3.9,0,0.0107282
0.4,4,0,0.0108996
0.4,4.1,0,0.0110688
0.4,4.2,0,0.0112379
0.4,4.3,0,0.011407
0.4,4.4,0,0.0115737
0.4,4.5,0,0.0117084
0.4,4.6,0,0.0118431
0.4,4.7,0,0.0119778
0.4,4.8,0,0.0121124
0.4,4.9,0,0.0122406
0.4,5,0,0.0123386
0.4,5.1,0,0.0124367
0.4,5.2,0,0.0125348
0.4,5.3,0,0.0126327
0.4,5.4,0,0.0127198
0.4,5.5,0,0.0127795
0.4,5.6,0,0.0128393
0.4,5.7,0,0.012899
0.4,5.8,0,0.0129586
0.4,5.9,0,0.0130029
0.4,6,0,0.0130232
0.4,6.1,0,0.0130436
0.4,6.2,0,0.013064
0.4,6.3,0,0.0130842
0.4,6.4,0,0.0130846
0.4,6.5,0,0.0130652
0.4,6.6,0,0.0130457
0.4,6.7,0,0.0130263
0.4,6.8,0,0.013007
0.4,6.9,0,0.0129633
0.4,7,0,0.0129044
0.4,7.1,0,0.0128455
0.4,7.2,0,0.0127865
0.4,7.3,0,0.0127279
0.4,7.4,0,0.012641
0.4,7.5,0,0.0125436
0.4,7.6,0,0.0124462
0.4,7.7,0,0.0123488
0.4,7.8,0,0.012252
0.4,7.9,0,0.0121236
0.4,8,0,0.0119893
0.4,8.1,0,0.0118551
0.4,8.2,0,0.0117209
0.4,8.3,0,0.0115877
0.4,8.4,0,0.0114202
0.4,8.5,0,0.0112514
0.4,8.6,0,0.0110825
0.4,8.7,0,0.0109138
0.4,8.8,0,0.0107437
0.4,8.9,0,0.0105429
0.4,9,0,0.0103421
0.4,9.1,0,0.0101412
0.4,9.2,0,0.00994063
0.4,9.3,0,0.00973546
0.4,9.4,0,0.00950571
0.4,9.5,0,0.00927595
0.4,9.6,0,0.0090462
0.4,9.7,0,0.00881691
0.4,9.8,0,0.00858047
0.4,9.9,0,0.00832531
0.4,10,0,0.00807015
0.4,10.1,0,0.00781499
0.4,10.2,0,0.00756058
0.4,10.3,0,0.00729743
0.4,10.4,0,0.00702084
0.4,10.5,0,0.00674424
0.4,10.6,0,0.00646765
0.4,10.7,0,0.00619215
0.4,10.8,0,0.00590732
0.4,10.9,0,0.00561359
0.4,11,0,0.00531987
0.4,11.1,0,0.00502615
0.4,11.2,0,0.00473389
0.4,11.3,0,0.00443212
0.4,11.4,0,0.00412486
0.4,11.5,0,0.00381759
0.4,11.6,0,0.00351033
0.4,11.7,0,0.00320495
0.4,11.8,0,0.00289142
0.4,11.9,0,0.00257494
0.4,12,0,0.00225838
0.4,12.1,0,0.00194181
0.4,12.2,0,0.00162525
0.4,12.3,0,0.00137336
0.4,12.4,0,0.00105654
0.4,12.5,0,0.000730931
0.4,12.6,0,0.000405317
0.4,12.7,0,7.97027e-05
0.5,0,0,0
0.5,0.1,0,0.000321395
0.5,0.2,0,0.000642789
0.5,0.3,0,0.000964184
0.5,0.4,0,0.00128558
0.5,0.5,0,0.00160683
0.5,0.6,0,0.00192448
0.5,0.7,0,0.00224213
0.5,0.8,0,0.00255982
0.5,0.9,0,0.00287753
0.5,1,0,0.00319352
0.5,1.1,0,0.00350112
0.5,1.2,0,0.00380871
0.5,1.3,0,0.0041163
0.5,1.4,0,0.00442389
0.5,1.5,0,0.00472701
0.5,1.6,0,0.00502047
0.5,1.7,0,0.00531394
0.5,1.8,0,0.0056074
0.5,1.9,0,0.00590086
0.5,2,0,0.00618619
0.5,2.1,0,0.00646202
0.5,2.2,0,0.00673784
0.5,2.3,0,0.00701367
0.5,2.4,0,0.0072895
0.5,2.5,0,0.00755359
0.5,2.6,0,0.00780906
0.5,2.7,0,0.00806454
0.5,2.8,0,0.00832001
0.5,2.9,0,0.00857549
0.5,3,0,0.00881323
0.5,3.1,0,0.00904308
0.5,3.2,0,0.00927293
0.5,3.3,0,0.00950279
0.5,3.4,0,0.00973264
0.5,3.5,0,0.00993915
0.5,3.6,0,0.0101401
0.5,3.7,0,0.010341
0.5,3.8,0,0.010542
0.5,3.9,0,0.0107429
0.5,4,0,0.0109145
0.5,4.1,0,0.0110836
0.5,4.2,0,0.0112528
0.5,4.3,0,0.0114219
0.5,4.4,0,0.0115897
0.5,4.5,0,0.0117244
0.5,4.6,0,0.0118592
0.5,4.7,0,0.0119939
0.5,4.8,0,0.0121286
0.5,4.9,0,0.0122577
0.5,5,0,0.0123558
0.5,5.1,0,0.0124539
0.5,5.2,0,0.0125519
0.5,5.3,0,0.01265
0.5,5.4,0,0.0127378
0.5,5.5,0,0.0127975
0.5,5.6,0,0.0128573
0.5,5.7,0,0.012917
0.5,5.8,0,0.0129768
0.5,5.9,0,0.0130214
0.5,6,0,0.0130417
0.5,6.1,0,0.0130621
0.5,6.2,0,0.0130825
0.5,6.3,0,0.0131028
0.5,6.4,0,0.0131033
0.5,6.5,0,0.0130839
0.5,6.6,0,0.0130644
0.5,6.7,0,0.013045
0.5,6.8,0,0.0130256
0.5,6.9,0,0.0129818
0.5,7,0,0.0129229
0.5,7.1,0,0.012864
0.5,7.2,0,0.0128051
0.5,7.3,0,0.0127462
0.5,7.4,0,0.0126591
0.5,7.5,0,0.0125617
0.5,7.6,0,0.0124643
0.5,7.7,0,0.0123669
0.5,7.8,0,0.0122695
0.5,7.9,0,0.0121409
0.5,8,0,0.0120067
0.5,8.1,0,0.0118724
0.5,8.2,0,0.0117382
0.5,8.3,0,0.011604
0.5,8.4,0,0.0114364
0.5,8.5,0,0.0112676
0.5,8.6,0,0.0110987
0.5,8.7,0,0.0109299
0.5,8.8,0,0.0107586
0.5,8.9,0,0.0105577
0.5,9,0,0.0103569
0.5,9.1,0,0.010156
0.5,9.2,0,0.0099552
0.5,9.3,0,0.0097488
0.5,9.4,0,0.00951904
0.5,9.5,0,0.00928929
0.5,9.6,0,0.00905954
0.5,9.7,0,0.00882978
0.5,9.8,0,0.00859221
0.5,9.9,0,0.00833705
0.5,10,0,0.00808189
0.5,10.1,0,0.00782673
0.5,10.2,0,0.00757157
0.5,10.3,0,0.00730734
0.5,10.4,0,0.00703074
0.5,10.5,0,0.00675415
0.5,10.6,0,0.00647755
0.5,10.7,0,0.00620096
0.5,10.8,0,0.00591514
0.5,10.9,0,0.00562142
0.5,11,0,0.00532769
0.5,11.1,0,0.00503397
0.5,11.2,0,0.00474024
0.5,11.3,0,0.00443767
0.5,11.4,0,0.00413041
0.5,11.5,0,0.00382314
0.5,11.6,0,0.00351588
0.5,11.7,0,0.00320862
0.5,11.8,0,0.00289422
0.5,11.9,0,0.00257767
0.5,12,0,0.00226112
0.5,12.1,0,0.00194458
0.5,12.2,0,0.00162803
0.5,12.3,0,0.00130341
0.5,12.4,0,0.000977558
0.5,12.5,0,0.000651705
0.5,12.6,0,0.000325853
0.5,12.7,0,0
0.6,0,0,0
0.6,0.1,0,0.000325777
0.6,0.2,0,0.000647172
0.6,0.3,0,0.000968566
0.6,0.4,0,0.00128996
0.6,0.5,0,0.00161133
0.6,0.6,0,0.0019321
0.6,0.7,0,0.00224975
0.6,0.8,0,0.00256741
0.6,0.9,0,0.00288506
0.6,1,0,0.00320255
0.6,1.1,0,0.0035172
0.6,1.2,0,0.00382481
0.6,1.3,0,0.00413242
0.6,1.4,0,0.00444003
0.6,1.5,0,0.00474539
0.6,1.6,0,0.00504323
0.6,1.7,0,0.00533673
0.6,1.8,0,0.00563024
0.6,1.9,0,0.00592375
0.6,2,0,0.00621298
0.6,2.1,0,0.00649307
0.6,2.2,0,0.0067689
0.6,2.3,0,0.00704472
0.6,2.4,0,0.00732055
0.6,2.5,0,0.00758771
0.6,2.6,0,0.00784532
0.6,2.7,0,0.00810079
0.6,2.8,0,0.00835627
0.6,2.9,0,0.00861174
0.6,3,0,0.00885301
0.6,3.1,0,0.00908432
0.6,3.2,0,0.00931417
0.6,3.3,0,0.00954403
0.6,3.4,0,0.00977388
0.6,3.5,0,0.00998408
0.6,3.6,0,0.0101858
0.6,3.7,0,0.0103867
0.6,3.8,0,0.0105877
0.6,3.9,0,0.0107886
0.6,4,0,0.0109639
0.6,4.1,0,0.0111333
0.6,4.2,0,0.0113024
0.6,4.3,0,0.0114715
0.6,4.4,0,0.0116395
0.6,4.5,0,0.0117773
0.6,4.6,0,0.011912
0.6,4.7,0,0.0120468
0.6,4.8,0,0.0121815
0.6,4.9,0,0.012311
0.6,5,0,0.0124111
0.6,5.1,0,0.0125092
0.6,5.2,0,0.0126073
0.6,5.3,0,0.0127053
0.6,5.4,0,0.0127935
0.6,5.5,0,0.0128544
0.6,5.6,0,0.0129142
0.6,5.7,0,0.0129739
0.6,5.8,0,0.0130337
0.6,5.9,0,0.0130785
0.6,6,0,0.0130992
0.6,6.1,0,0.0131196
0.6,6.2,0,0.0131399
0.6,6.3,0,0.0131603
0.6,6.4,0,0.0131605
0.6,6.5,0,0.0131409
0.6,6.6,0,0.0131214
0.6,6.7,0,0.013102
0.6,6.8,0,0.0130826
0.6,6.9,0,0.0130379
0.6,7,0,0.0129785
0.6,7.1,0,0.0129196
0.6,7.2,0,0.0128606
0.6,7.3,0,0.0128017
0.6,7.4,0,0.0127129
0.6,7.5,0,0.0126148
0.6,7.6,0,0.0125174
0.6,7.7,0,0.01242
0.6,7.8,0,0.0123226
0.6,7.9,0,0.0121912
0.6,8,0,0.0120565
0.6,8.1,0,0.0119223
0.6,8.2,0,0.0117881
0.6,8.3,0,0.0116538
0.6,8.4,0,0.0114825
0.6,8.5,0,0.0113136
0.6,8.6,0,0.0111447
0.6,8.7,0,0.0109758
0.6,8.8,0,0.0108042
0.6,8.9,0,0.0105991
0.6,9,0,0.0103983
0.6,9.1,0,0.0101975
0.6,9.2,0,0.00999662
0.6,9.3,0,0.0097892
0.6,9.4,0,0.00955531
0.6,9.5,0,0.00932556
0.6,9.6,0,0.0090958
0.6,9.7,0,0.00886605
0.6,9.8,0,0.00862664
0.6,9.9,0,0.00836749
0.6,10,0,0.00811233
0.6,10.1,0,0.00785717
0.6,10.2,0,0.00760201
0.6,10.3,0,0.00733514
0.6,10.4,0,0.00705508
0.6,10.5,0,0.00677849
0.6,10.6,0,0.00650189
0.6,10.7,0,0.0062253
0.6,10.8,0,0.00593515
0.6,10.9,0,0.00563799
0.6,11,0,0.00534427
0.6,11.1,0,0.00505054
0.6,11.2,0,0.00475682
0.6,11.3,0,0.00445415
0.6,11.4,0,0.00414689
0.6,11.5,0,0.00383963
0.6,11.6,0,0.00353236
0.6,11.7,0,0.00321924
0.6,11.8,0,0.00290302
0.6,11.9,0,0.00258647
0.6,12,0,0.00226993
0.6,12.1,0,0.00195338
0.6,12.2,0,0.00162969
0.6,12.3,0,0.00130395
0.6,12.4,0,0.000978094
0.6,12.5,0,0.000652241
0.6,12.6,0,0.000326389
0.6,12.7,0,0
0.7,0,0,0
0.7,0.1,0,0.000325809
0.7,0.2,0,0.000651554
0.7,0.3,0,0.000972948
0.7,0.4,0,0.00129434
0.7,0.5,0,0.00161572
0.7,0.6,0,0.00193666
0.7,0.7,0,0.00225738
0.7,0.8,0,0.00257503
0.7,0.9,0,0.00289268
0.7,1,0,0.00321019
0.7,1.1,0,0.00352677
0.7,1.2,0,0.00384114
0.7,1.3,0,0.00414875
0.7,1.4,0,0.00445636
0.7,1.5,0,0.00476178
0.7,1.6,0,0.00506202
0.7,1.7,0,0.00535964
0.7,1.8,0,0.00565314
0.7,1.9,0,0.00594665
0.7,2,0,0.00623596
0.7,2.1,0,0.00652005
0.7,2.2,0,0.00679995
0.7,2.3,0,0.00707578
0.7,2.4,0,0.0073516
0.7,2.5,0,0.00761876
0.7,2.6,0,0.00787956
0.7,2.7,0,0.00813705
0.7,2.8,0,0.00839252
0.7,2.9,0,0.008648
0.7,3,0,0.00888927
0.7,3.1,0,0.00912423
0.7,3.2,0,0.00935541
0.7,3.3,0,0.00958527
0.7,3.4,0,0.00981512
0.7,3.5,0,0.0100253
0.7,3.6,0,0.0102308
0.7,3.7,0,0.0104325
0.7,3.8,0,0.0106334
0.7,3.9,0,0.0108343
0.7,4,0,0.0110096
0.7,4.1,0,0.0111827
0.7,4.2,0,0.011352
0.7,4.3,0,0.0115211
0.7,4.4,0,0.0116891
0.7,4.5,0,0.0118271
0.7,4.6,0,0.0119649
0.7,4.7,0,0.0120996
0.7,4.8,0,0.0122344
0.7,4.9,0,0.0123638
0.7,5,0,0.0124644
0.7,5.1,0,0.0125645
0.7,5.2,0,0.0126626
0.7,5.3,0,0.0127607
0.7,5.4,0,0.0128489
0.7,5.5,0,0.0129102
0.7,5.6,0,0.012971
0.7,5.7,0,0.0130308
0.7,5.8,0,0.0130905
0.7,5.9,0,0.0131354
0.7,6,0,0.0131563
0.7,6.1,0,0.013177
0.7,6.2,0,0.0131974
0.7,6.3,0,0.0132177
0.7,6.4,0,0.013218
0.7,6.5,0,0.0131981
0.7,6.6,0,0.0131784
0.7,6.7,0,0.013159
0.7,6.8,0,0.0131396
0.7,6.9,0,0.0130949
0.7,7,0,0.0130345
0.7,7.1,0,0.0129751
0.7,7.2,0,0.0129162
0.7,7.3,0,0.0128573
0.7,7.4,0,0.0127684
0.7,7.5,0,0.0126685
0.7,7.6,0,0.0125706
0.7,7.7,0,0.0124731
0.7,7.8,0,0.0123757
0.7,7.9,0,0.0122443
0.7,8,0,0.0121068
0.7,8.1,0,0.0119722
0.7,8.2,0,0.011838
0.7,8.3,0,0.0117037
0.7,8.4,0,0.0115324
0.7,8.5,0,0.0113595
0.7,8.6,0,0.0111907
0.7,8.7,0,0.0110218
0.7,8.8,0,0.0108501
0.7,8.9,0,0.0106446
0.7,9,0,0.0104397
0.7,9.1,0,0.0102389
0.7,9.2,0,0.010038
0.7,9.3,0,0.00983062
0.7,9.4,0,0.0095956
0.7,9.5,0,0.00936183
0.7,9.6,0,0.00913207
0.7,9.7,0,0.00890232
0.7,9.8,0,0.00866291
0.7,9.9,0,0.00840179
0.7,10,0,0.00814278
0.7,10.1,0,0.00788762
0.7,10.2,0,0.00763245
0.7,10.3,0,0.00736558
0.7,10.4,0,0.00708274
0.7,10.5,0,0.00680283
0.7,10.6,0,0.00652623
0.7,10.7,0,0.00624964
0.7,10.8,0,0.00595949
0.7,10.9,0,0.00565773
0.7,11,0,0.00536084
0.7,11.1,0,0.00506712
0.7,11.2,0,0.0047734
0.7,11.3,0,0.00447063
0.7,11.4,0,0.00416337
0.7,11.5,0,0.00385611
0.7,11.6,0,0.00354315
0.7,11.7,0,0.00322806
0.7,11.8,0,0.00291182
0.7,11.9,0,0.00259528
0.7,12,0,0.00227873
0.7,12.1,0,0.00195522
0.7,12.2,0,0.00163024
0.7,12.3,0,0.00130448
0.7,12.4,0,0.00097863
0.7,12.5,0,0.000652778
0.7,12.6,0,0.0003264
0.7,12.7,0,0
0.8,0,0,0
0.8,0.1,0,0.000325809
0.8,0.2,0,0.000651617
0.8,0.3,0,0.000977331
0.8,0.4,0,0.00129873
0.8,0.5,0,0.0016201
0.8,0.6,0,0.00194104
0.8,0.7,0,0.00226198
0.8,0.8,0,0.00258265
0.8,0.9,0,0.00290031
0.8,1,0,0.00321783
0.8,1.1,0,0.00353441
0.8,1.2,0,0.00385099
0.8,1.3,0,0.00416508
0.8,1.4,0,0.00447269
0.8,1.5,0,0.00477816
0.8,1.6,0,0.00507841
0.8,1.7,0,0.00537866
0.8,1.8,0,0.00567605
0.8,1.9,0,0.00596955
0.8,2,0,0.00625894
0.8,2.1,0,0.00654303
0.8,2.2,0,0.00682712
0.8,2.3,0,0.00710683
0.8,2.4,0,0.00738266
0.8,2.5,0,0.00764981
0.8,2.6,0,0.00791061
0.8,2.7,0,0.00817141
0.8,2.8,0,0.00842877
0.8,2.9,0,0.00868425
0.8,3,0,0.00892552
0.8,3.1,0,0.00916048
0.8,3.2,0,0.00939544
0.8,3.3,0,0.00962651
0.8,3.4,0,0.00985636
0.8,3.5,0,0.0100666
0.8,3.6,0,0.0102721
0.8,3.7,0,0.0104776
0.8,3.8,0,0.0106791
0.8,3.9,0,0.0108801
0.8,4,0,0.0110553
0.8,4.1,0,0.0112285
0.8,4.2,0,0.0114016
0.8,4.3,0,0.0115708
0.8,4.4,0,0.0117387
0.8,4.5,0,0.0118768
0.8,4.6,0,0.0120148
0.8,4.7,0,0.0121525
0.8,4.8,0,0.0122872
0.8,4.9,0,0.0124167
0.8,5,0,0.0125173
0.8,5.1,0,0.0126179
0.8,5.2,0,0.0127179
0.8,5.3,0,0.012816
0.8,5.4,0,0.0129042
0.8,5.5,0,0.0129655
0.8,5.6,0,0.0130269
0.8,5.7,0,0.0130877
0.8,5.8,0,0.0131474
0.8,5.9,0,0.0131922
0.8,6,0,0.0132132
0.8,6.1,0,0.0132341
0.8,6.2,0,0.0132548
0.8,6.3,0,0.0132752
0.8,6.4,0,0.0132754
0.8,6.5,0,0.0132555
0.8,6.6,0,0.0132357
0.8,6.7,0,0.013216
0.8,6.8,0,0.0131966
0.8,6.9,0,0.013152
0.8,7,0,0.0130915
0.8,7.1,0,0.0130311
0.8,7.2,0,0.0129717
0.8,7.3,0,0.0129128
0.8,7.4,0,0.012824
0.8,7.5,0,0.0127241
0.8,7.6,0,0.0126242
0.8,7.7,0,0.0125263
0.8,7.8,0,0.0124289
0.8,7.9,0,0.0122975
0.8,8,0,0.0121599
0.8,8.1,0,0.0120224
0.8,8.2,0,0.0118879
0.8,8.3,0,0.0117536
0.8,8.4,0,0.0115822
0.8,8.5,0,0.0114094
0.8,8.6,0,0.0112366
0.8,8.7,0,0.0110678
0.8,8.8,0,0.0108961
0.8,8.9,0,0.0106906
0.8,9,0,0.0104851
0.8,9.1,0,0.0102803
0.8,9.2,0,0.0100795
0.8,9.3,0,0.00987204
0.8,9.4,0,0.00963701
0.8,9.5,0,0.00940199
0.8,9.6,0,0.00916834
0.8,9.7,0,0.00893859
0.8,9.8,0,0.00869918
0.8,9.9,0,0.00843806
0.8,10,0,0.00817694
0.8,10.1,0,0.00791806
0.8,10.2,0,0.0076629
0.8,10.3,0,0.00739603
0.8,10.4,0,0.00711318
0.8,10.5,0,0.00683034
0.8,10.6,0,0.00655057
0.8,10.7,0,0.00627398
0.8,10.8,0,0.00598383
0.8,10.9,0,0.00568207
0.8,11,0,0.00538031
0.8,11.1,0,0.00508369
0.8,11.2,0,0.00478997
0.8,11.3,0,0.00448711
0.8,11.4,0,0.00417985
0.8,11.5,0,0.00386705
0.8,11.6,0,0.00355197
0.8,11.7,0,0.00323688
0.8,11.8,0,0.00292063
0.8,11.9,0,0.00260408
0.8,12,0,0.00228075
0.8,12.1,0,0.00195577
0.8,12.2,0,0.00163079
0.8,12.3,0,0.00130502
0.8,12.4,0,0.000979166
0.8,12.5,0,0.0006528
0.8,12.6,0,0.0003264
0.8,12.7,0,0
0.9,0,0,0
0.9,0.1,0,0.000325809
0.9,0.2,0,0.000651617
0.9,0.3,0,0.000977426
0.9,0.4,0,0.00130311
0.9,0.5,0,0.00162449
0.9,0.6,0,0.00194543
0.9,0.7,0,0.00226637
0.9,0.8,0,0.00258731
0.9,0.9,0,0.00290793
0.9,1,0,0.00322548
0.9,1.1,0,0.00354205
0.9,1.2,0,0.00385863
0.9,1.3,0,0.00417521
0.9,1.4,0,0.00448903
0.9,1.5,0,0.00479455
0.9,1.6,0,0.0050948
0.9,1.7,0,0.00539504
0.9,1.8,0,0.00569529
0.9,1.9,0,0.00599246
0.9,2,0,0.00628192
0.9,2.1,0,0.00656601
0.9,2.2,0,0.0068501
0.9,2.3,0,0.00713419
0.9,2.4,0,0.00741371
0.9,2.5,0,0.00768086
0.9,2.6,0,0.00794167
0.9,2.7,0,0.00820247
0.9,2.8,0,0.00846327
0.9,2.9,0,0.0087205
0.9,3,0,0.00896177
0.9,3.1,0,0.00919673
0.9,3.2,0,0.00943169
0.9,3.3,0,0.00966665
0.9,3.4,0,0.0098976
0.9,3.5,0,0.0101078
0.9,3.6,0,0.0103133
0.9,3.7,0,0.0105189
0.9,3.8,0,0.0107244
0.9,3.9,0,0.0109258
0.9,4,0,0.011101
0.9,4.1,0,0.0112742
0.9,4.2,0,0.0114473
0.9,4.3,0,0.0116204
0.9,4.4,0,0.0117883
0.9,4.5,0,0.0119264
0.9,4.6,0,0.0120644
0.9,4.7,0,0.0122025
0.9,4.8,0,0.0123401
0.9,4.9,0,0.0124696
0.9,5,0,0.0125702
0.9,5.1,0,0.0126708
0.9,5.2,0,0.0127713
0.9,5.3,0,0.0128713
0.9,5.4,0,0.0129595
0.9,5.5,0,0.0130208
0.9,5.6,0,0.0130822
0.9,5.7,0,0.0131435
0.9,5.8,0,0.0132043
0.9,5.9,0,0.0132491
0.9,6,0,0.0132701
0.9,6.1,0,0.013291
0.9,6.2,0,0.013312
0.9,6.3,0,0.0133326
0.9,6.4,0,0.0133329
0.9,6.5,0,0.013313
0.9,6.6,0,0.0132931
0.9,6.7,0,0.0132732
0.9,6.8,0,0.0132536
0.9,6.9,0,0.013209
0.9,7,0,0.0131486
0.9,7.1,0,0.0130881
0.9,7.2,0,0.0130277
0.9,7.3,0,0.0129684
0.9,7.4,0,0.0128795
0.9,7.5,0,0.0127796
0.9,7.6,0,0.0126797
0.9,7.7,0,0.0125799
0.9,7.8,0,0.012482
0.9,7.9,0,0.0123506
0.9,8,0,0.0122131
0.9,8.1,0,0.0120755
0.9,8.2,0,0.0119379
0.9,8.3,0,0.0118035
0.9,8.4,0,0.0116321
0.9,8.5,0,0.0114593
0.9,8.6,0,0.0112864
0.9,8.7,0,0.0111137
0.9,8.8,0,0.0109421
0.9,8.9,0,0.0107366
0.9,9,0,0.0105311
0.9,9.1,0,0.0103256
0.9,9.2,0,0.0101209
0.9,9.3,0,0.00991346
0.9,9.4,0,0.00967843
0.9,9.5,0,0.00944341
0.9,9.6,0,0.00920838
0.9,9.7,0,0.00897486
0.9,9.8,0,0.00873545
0.9,9.9,0,0.00847433
0.9,10,0,0.0082132
0.9,10.1,0,0.00795208
0.9,10.2,0,0.00769334
0.9,10.3,0,0.00742647
0.9,10.4,0,0.00714363
0.9,10.5,0,0.00686078
0.9,10.6,0,0.00657794
0.9,10.7,0,0.00629831
0.9,10.8,0,0.00600817
0.9,10.9,0,0.00570641
0.9,11,0,0.00540465
0.9,11.1,0,0.00510289
0.9,11.2,0,0.00480655
0.9,11.3,0,0.0045036
0.9,11.4,0,0.00419095
0.9,11.5,0,0.00387587
0.9,11.6,0,0.00356079
0.9,11.7,0,0.0032457
0.9,11.8,0,0.00292943
0.9,11.9,0,0.00260628
0.9,12,0,0.0022813
0.9,12.1,0,0.00195632
0.9,12.2,0,0.00163134
0.9,12.3,0,0.00130556
0.9,12.4,0,0.000979199
0.9,12.5,0,0.0006528
0.9,12.6,0,0.0003264
0.9,12.7,0,0
1,0,0,0
1,0.1,0,0.000325809
1,0.2,0,0.000651617
1,0.3,0,0.000977426
1,0.4,0,0.00130323
1,0.5,0,0.00162887
1,0.6,0,0.00194981
1,0.7,0,0.00227075
1,0.8,0,0.00259169
1,0.9,0,0.00291264
1,1,0,0.00323312
1,1.1,0,0.0035497
1,1.2,0,0.00386627
1,1.3,0,0.00418285
1,1.4,0,0.00449942
1,1.5,0,0.00481094
1,1.6,0,0.00511119
1,1.7,0,0.00541143
1,1.8,0,0.00571168
1,1.9,0,0.00601192
1,2,0,0.0063049
1,2.1,0,0.00658899
1,2.2,0,0.00687308
1,2.3,0,0.00715717
1,2.4,0,0.00744126
1,2.5,0,0.00771192
1,2.6,0,0.00797272
1,2.7,0,0.00823352
1,2.8,0,0.00849432
1,2.9,0,0.00875512
1,3,0,0.00899803
1,3.1,0,0.00923299
1,3.2,0,0.00946794
1,3.3,0,0.0097029
1,3.4,0,0.00993786
1,3.5,0,0.010149
1,3.6,0,0.0103546
1,3.7,0,0.0105601
1,3.8,0,0.0107656
1,3.9,0,0.0109711
1,4,0,0.0111468
1,4.1,0,0.0113199
1,4.2,0,0.011493
1,4.3,0,0.0116662
1,4.4,0,0.0118379
1,4.5,0,0.011976
1,4.6,0,0.0121141
1,4.7,0,0.0122521
1,4.8,0,0.0123902
1,4.9,0,0.0125225
1,5,0,0.0126231
1,5.1,0,0.0127236
1,5.2,0,0.0128242
1,5.3,0,0.0129248
1,5.4,0,0.0130148
1,5.5,0,0.0130762
1,5.6,0,0.0131375
1,5.7,0,0.0131989
1,5.8,0,0.0132602
1,5.9,0,0.013306
1,6,0,0.013327
1,6.1,0,0.0133479
1,6.2,0,0.0133689
1,6.3,0,0.0133898
1,6.4,0,0.0133903
1,6.5,0,0.0133704
1,6.6,0,0.0133506
1,6.7,0,0.0133307
1,6.8,0,0.0133108
1,6.9,0,0.013266
1,7,0,0.0132056
1,7.1,0,0.0131452
1,7.2,0,0.0130847
1,7.3,0,0.0130243
1,7.4,0,0.0129351
1,7.5,0,0.0128352
1,7.6,0,0.0127353
1,7.7,0,0.0126354
1,7.8,0,0.0125355
1,7.9,0,0.0124038
1,8,0,0.0122662
1,8.1,0,0.0121286
1,8.2,0,0.0119911
1,8.3,0,0.0118535
1,8.4,0,0.011682
1,8.5,0,0.0115091
1,8.6,0,0.0113363
1,8.7,0,0.0111634
1,8.8,0,0.010988
1,8.9,0,0.0107825
1,9,0,0.010577
1,9.1,0,0.0103715
1,9.2,0,0.010166
1,9.3,0,0.00995487
1,9.4,0,0.00971985
1,9.5,0,0.00948482
1,9.6,0,0.0092498
1,9.7,0,0.00901477
1,9.8,0,0.00877172
1,9.9,0,0.0085106
1,10,0,0.00824947
1,10.1,0,0.00798835
1,10.2,0,0.00772723
1,10.3,0,0.00745692
1,10.4,0,0.00717407
1,10.5,0,0.00689123
1,10.6,0,0.00660838
1,10.7,0,0.00632554
1,10.8,0,0.00603251
1,10.9,0,0.00573075
1,11,0,0.00542899
1,11.1,0,0.00512722
1,11.2,0,0.00482546
1,11.3,0,0.00451486
1,11.4,0,0.00419977
1,11.5,0,0.00388469
1,11.6,0,0.00356961
1,11.7,0,0.00325452
1,11.8,0,0.00293181
1,11.9,0,0.00260683
1,12,0,0.00228185
1,12.1,0,0.00195687
1,12.2,0,0.00163189
1,12.3,0,0.0013056
1,12.4,0,0.000979199
1,12.5,0,0.0006528
1,12.6,0,0.0003264
1,12.7,0,0
1.1,0,0,0
1.1,0.1,0,0.000325809
1.1,0.2,0,0.000651617
1.1,0.3,0,0.000977426
1.1,0.4,0,0.00130337
1.1,0.5,0,0.00163809
1.1,0.6,0,0.00196954
1.1,0.7,0,0.0022904
1.1,0.8,0,0.00261126
1.1,0.9,0,0.00293212
1.1,1,0,0.00325334
1.1,1.1,0,0.00357795
1.1,1.2,0,0.00389439
1.1,1.3,0,0.00421083
1.1,1.4,0,0.00452727
1.1,1.5,0,0.00484272
1.1,1.6,0,0.00515092
1.1,1.7,0,0.00545113
1.1,1.8,0,0.00575135
1.1,1.9,0,0.00605156
1.1,2,0,0.00634991
1.1,2.1,0,0.00663991
1.1,2.2,0,0.00692443
1.1,2.3,0,0.00720896
1.1,2.4,0,0.00749348
1.1,2.5,0,0.00776919
1.1,2.6,0,0.00803337
1.1,2.7,0,0.00829417
1.1,2.8,0,0.00855497
1.1,2.9,0,0.00881577
1.1,3,0,0.00906493
1.1,3.1,0,0.00930245
1.1,3.2,0,0.00953741
1.1,3.3,0,0.00977237
1.1,3.4,0,0.0100073
1.1,3.5,0,0.0102252
1.1,3.6,0,0.0104322
1.1,3.7,0,0.0106377
1.1,3.8,0,0.0108432
1.1,3.9,0,0.0110487
1.1,4,0,0.011231
1.1,4.1,0,0.0114045
1.1,4.2,0,0.0115777
1.1,4.3,0,0.0117508
1.1,4.4,0,0.0119228
1.1,4.5,0,0.0120663
1.1,4.6,0,0.0122044
1.1,4.7,0,0.0123424
1.1,4.8,0,0.0124805
1.1,4.9,0,0.0126135
1.1,5,0,0.0127176
1.1,5.1,0,0.0128182
1.1,5.2,0,0.0129188
1.1,5.3,0,0.0130193
1.1,5.4,0,0.0131101
1.1,5.5,0,0.0131734
1.1,5.6,0,0.0132348
1.1,5.7,0,0.0132961
1.1,5.8,0,0.0133575
1.1,5.9,0,0.0134037
1.1,6,0,0.0134252
1.1,6.1,0,0.0134461
1.1,6.2,0,0.0134671
1.1,6.3,0,0.013488
1.1,6.4,0,0.0134882
1.1,6.5,0,0.0134679
1.1,6.6,0,0.013448
1.1,6.7,0,0.0134281
1.1,6.8,0,0.0134083
1.1,6.9,0,0.0133619
1.1,7,0,0.0133005
1.1,7.1,0,0.0132401
1.1,7.2,0,0.0131797
1.1,7.3,0,0.0131193
1.1,7.4,0,0.0130269
1.1,7.5,0,0.012926
1.1,7.6,0,0.0128261
1.1,7.7,0,0.0127262
1.1,7.8,0,0.0126263
1.1,7.9,0,0.0124897
1.1,8,0,0.0123513
1.1,8.1,0,0.0122138
1.1,8.2,0,0.0120762
1.1,8.3,0,0.0119387
1.1,8.4,0,0.0117605