/*--------------------------------*- C++ -*----------------------------------*\
| =========                 |                                                 |
| \\      /  F ield         | OpenFOAM: The Open Source CFD Toolbox           |
|  \\    /   O peration     | Version:  v1806                                 |
|   \\  /    A nd           | Web:      www.OpenFOAM.com                      |
|    \\/     M anipulation  |                                                 |
\*---------------------------------------------------------------------------*/
FoamFile
{
    version     2.0;
    format      ascii;
    class       volScalarField;
    location    "150";
    object      p;
}
// * * * * * * * * * * * * * * * * * * * * * * * * * * * * * * * * * * * * * //

dimensions      [0 2 -2 0 0 0 0];


internalField   nonuniform List<scalar> 
4400
(
-0.0221083
0.00174565
0.000577136
-0.00034331
-0.000158762
8.74489e-05
0.000239165
0.000336183
0.00039957
0.000433064
0.000440614
0.000427869
0.000399907
0.000360558
0.000312739
0.000258811
0.000200895
0.000140531
7.62358e-05
1.03381e-05
0.0149689
0.011601
0.00789317
0.00529213
0.00397119
0.00324078
0.00271708
0.00230999
0.00198938
0.00172759
0.00150294
0.00130242
0.00111866
0.000947072
0.000784599
0.000629198
0.000479482
0.000334043
0.000190941
5.22461e-05
0.0240044
0.0177344
0.0133168
0.00993542
0.00759289
0.0060421
0.00494596
0.00412007
0.00347454
0.00295385
0.0025195
0.00214584
0.00181612
0.00151903
0.00124659
0.000992963
0.000753795
0.000525612
0.000304941
9.07208e-05
0.0284409
0.0215271
0.016587
0.0129108
0.0102227
0.00827978
0.00683275
0.00571033
0.00481383
0.00408075
0.00346681
0.00294023
0.00247861
0.00206599
0.00169079
0.00134427
0.00101975
0.000711964
0.000415703
0.000128117
0.0285062
0.0229636
0.0185145
0.015001
0.0122378
0.0100881
0.00840979
0.00707473
0.0059897
0.00508995
0.00432895
0.00367253
0.00309558
0.00257959
0.00211067
0.00167813
0.00127364
0.000890424
0.00052193
0.000164297
0.0279154
0.0235083
0.0195847
0.0162939
0.0136018
0.0114201
0.00965006
0.00819862
0.00699097
0.00597091
0.00509606
0.00433391
0.00365945
0.00305347
0.00250106
0.00199049
0.00151235
0.00105882
0.00062248
0.000198681
0.0267221
0.0232422
0.0199497
0.0170333
0.0145267
0.0124042
0.0106173
0.00910941
0.00782694
0.00672449
0.00576541
0.00492036
0.00416598
0.00348364
0.00285846
0.0022784
0.00173356
0.00121554
0.000716384
0.000230877
0.0255068
0.0227271
0.0199579
0.0173863
0.0150886
0.0130769
0.011332
0.00982041
0.00850597
0.00735497
0.00633828
0.00543132
0.00461359
0.00386812
0.00318083
0.00253999
0.00193572
0.0013594
0.000802898
0.000260594
0.0242797
0.0220216
0.0196986
0.017463
0.015394
0.0135222
0.0118505
0.0103661
0.00904806
0.00787347
0.0068205
0.00586947
0.00500319
0.00420679
0.00346752
0.00277443
0.00211799
0.00148972
0.000881556
0.000287667
0.023156
0.0212938
0.0193267
0.0173752
0.0155157
0.0137877
0.0122061
0.0107701
0.00946984
0.00829137
0.00721947
0.00623936
0.00533732
0.00450091
0.003719
0.00298171
0.00228015
0.00160623
0.000952133
0.000312004
0.0221301
0.0205678
0.0188866
0.0171796
0.0155124
0.0139252
0.0124392
0.0110619
0.00979202
0.00862274
0.00754459
0.00654712
0.00561989
0.00475285
0.00393664
0.00316254
0.00242252
0.001709
0.00101462
0.000333596
0.0212245
0.0198938
0.0184392
0.0169329
0.015431
0.0139716
0.0125785
0.0112639
0.0100317
0.00888045
0.00780524
0.00679941
0.00585549
0.00496571
0.00412241
0.00331816
0.00254581
0.00179843
0.0010692
0.00035249
0.0204315
0.0192795
0.0180047
0.0166639
0.0153034
0.0139579
0.0126512
0.0113981
0.0102061
0.00907745
0.00801103
0.00700324
0.00604912
0.00514297
0.00427871
0.00345013
0.00265101
0.00187511
0.00111615
0.000368782
0.0197524
0.0187393
0.0176064
0.0163989
0.0151557
0.0139076
0.0126777
0.0114816
0.0103291
0.00922499
0.00817076
0.00716529
0.00620577
0.00528827
0.00440813
0.00356026
0.00273933
0.00193976
0.00115587
0.000382598
0.0191808
0.0182748
0.017253
0.0161521
0.0150049
0.0138386
0.0126748
0.0115294
0.0104134
0.00933328
0.00829252
0.00729187
0.00633025
0.00540519
0.00451327
0.0036504
0.00281201
0.0019932
0.00118882
0.000394083
0.0187136
0.0178894
0.0169533
0.0159357
0.0148647
0.0137647
0.0126556
0.0115533
0.0104691
0.00941087
0.00838328
0.00738855
0.00642689
0.00549705
0.00459661
0.00372232
0.0028703
0.00203622
0.00121543
0.000403385
0.0183464
0.017583
0.0167111
0.0157568
0.0147445
0.0136961
0.0126304
0.0115626
0.0105047
0.00946489
0.00844895
0.00746005
0.00649942
0.00556669
0.00466027
0.00377757
0.00291528
0.00206954
0.0012361
0.000410636
0.0180772
0.017357
0.0165308
0.0156216
0.0146514
0.0136405
0.0126066
0.0115646
0.0105264
0.0095008
0.00849406
0.00751007
0.00655073
0.00561635
0.00470592
0.00381735
0.00294777
0.00209368
0.00125113
0.000415935
0.0179044
0.0172116
0.0164141
0.0155333
0.0145899
0.0136028
0.0125894
0.0115641
0.0105387
0.00952247
0.00852188
0.00754126
0.00658296
0.00564769
0.00473482
0.0038426
0.00296844
0.00210907
0.00126075
0.000419346
0.0178252
0.0171441
0.0163597
0.015492
0.0145608
0.0135849
0.0125809
0.0115634
0.0105441
0.00953222
0.00853454
0.00755555
0.00659779
0.00566215
0.00474817
0.00385428
0.00297801
0.00211621
0.00126521
0.000420938
0.0583552
0.0609691
0.0626025
0.0637129
0.0643914
0.0646718
0.0645881
0.0641625
0.0634022
0.0623008
0.0608389
0.0589839
0.0566878
0.053884
0.0504817
0.0463591
0.0413602
0.0352847
0.0277776
0.0180059
0.0544451
0.0557594
0.0567494
0.057457
0.0579099
0.0581183
0.0580878
0.0578224
0.0573243
0.0565937
0.055629
0.0544267
0.0529818
0.0512877
0.0493362
0.0471158
0.0446166
0.0418546
0.0388213
0.0349334
0.0504248
0.0511145
0.0516622
0.0520534
0.0522816
0.0523421
0.0522314
0.0519463
0.051484
0.0508419
0.0500173
0.0490071
0.0478088
0.0464197
0.044838
0.0430627
0.0410971
0.0389532
0.0366287
0.034008
0.0452214
0.0455982
0.0458893
0.046086
0.0461818
0.0461717
0.046052
0.0458198
0.0454732
0.0450109
0.0444325
0.0437381
0.0429285
0.0420053
0.0409707
0.0398279
0.0385825
0.0372438
0.0358118
0.0342349
0.0410534
0.0412407
0.041366
0.0414246
0.0414125
0.0413265
0.0411641
0.0409234
0.0406032
0.0402029
0.0397228
0.0391637
0.0385274
0.0378162
0.0370337
0.036184
0.0352731
0.0343082
0.0332955
0.032231
0.0371521
0.0372507
0.0373042
0.0373107
0.037268
0.0371746
0.0370291
0.0368306
0.0365787
0.0362733
0.0359149
0.0355042
0.0350425
0.0345316
0.0339737
0.0333715
0.0327285
0.0320494
0.0313369
0.0305826
0.0339882
0.0340279
0.0340334
0.0340035
0.0339372
0.0338337
0.0336925
0.0335132
0.0332958
0.0330406
0.0327481
0.0324191
0.0320547
0.0316565
0.031226
0.0307654
0.030277
0.0297637
0.0292279
0.028669
0.0312248
0.0312389
0.0312272
0.031189
0.0311239
0.0310313
0.0309112
0.0307634
0.030588
0.0303852
0.0301555
0.0298995
0.0296178
0.0293114
0.0289814
0.028629
0.0282557
0.0278633
0.0274531
0.027022
0.028939
0.0289359
0.0289125
0.0288684
0.0288036
0.0287177
0.0286108
0.0284829
0.0283342
0.0281649
0.0279754
0.0277662
0.0275378
0.0272909
0.0270263
0.0267448
0.0264475
0.0261354
0.0258097
0.0254693
0.0269784
0.0269688
0.0269431
0.0269012
0.0268431
0.0267685
0.0266776
0.0265704
0.0264471
0.0263078
0.0261529
0.0259826
0.0257973
0.0255975
0.0253838
0.0251566
0.0249166
0.0246647
0.0244014
0.0241253
0.0253381
0.0253242
0.0252973
0.0252573
0.0252041
0.0251378
0.0250584
0.0249659
0.0248606
0.0247425
0.024612
0.0244692
0.0243144
0.0241481
0.0239705
0.0237821
0.0235833
0.0233747
0.0231567
0.0229287
0.0239442
0.0239295
0.0239041
0.0238678
0.0238208
0.023763
0.0236945
0.0236153
0.0235256
0.0234254
0.023315
0.0231945
0.0230642
0.0229243
0.022775
0.0226167
0.0224496
0.0222743
0.0220909
0.0218988
0.0227796
0.0227647
0.0227406
0.0227075
0.0226652
0.022614
0.0225537
0.0224845
0.0224064
0.0223197
0.0222243
0.0221205
0.0220083
0.0218881
0.02176
0.0216242
0.021481
0.0213306
0.0211734
0.0210087
0.021806
0.0217918
0.0217697
0.0217398
0.0217022
0.0216568
0.0216036
0.0215429
0.0214745
0.0213987
0.0213154
0.0212249
0.0211273
0.0210226
0.0209111
0.0207928
0.0206681
0.0205372
0.0204001
0.0202565
0.0210088
0.0209953
0.0209749
0.0209476
0.0209135
0.0208727
0.020825
0.0207707
0.0207097
0.0206422
0.0205682
0.0204877
0.020401
0.0203081
0.0202092
0.0201043
0.0199936
0.0198774
0.0197557
0.0196282
0.0203672
0.0203546
0.0203358
0.0203109
0.0202798
0.0202427
0.0201995
0.0201504
0.0200952
0.0200342
0.0199674
0.0198948
0.0198165
0.0197327
0.0196434
0.0195487
0.0194488
0.0193438
0.0192338
0.0191185
0.0198712
0.0198593
0.0198418
0.0198186
0.0197899
0.0197555
0.0197157
0.0196703
0.0196195
0.0195633
0.0195017
0.0194349
0.0193628
0.0192857
0.0192035
0.0191163
0.0190243
0.0189275
0.0188261
0.0187198
0.019511
0.0194997
0.0194831
0.0194613
0.0194342
0.0194019
0.0193644
0.0193218
0.0192741
0.0192213
0.0191635
0.0191007
0.0190331
0.0189606
0.0188834
0.0188014
0.0187149
0.0186239
0.0185285
0.0184285
0.0192763
0.0192654
0.0192495
0.0192286
0.0192026
0.0191716
0.0191357
0.0190949
0.0190491
0.0189986
0.0189432
0.0188831
0.0188184
0.018749
0.018675
0.0185966
0.0185138
0.0184267
0.0183354
0.0182398
0.0191785
0.0191678
0.0191521
0.0191315
0.019106
0.0190755
0.0190402
0.0190001
0.0189551
0.0189054
0.0188509
0.0187918
0.0187281
0.0186598
0.018587
0.0185097
0.0184281
0.0183423
0.0182522
0.0181575
0.0312726
0.0324079
0.0335197
0.0346161
0.0356959
0.0367552
0.0377913
0.038802
0.039786
0.0407433
0.0416752
0.0425854
0.043482
0.0443805
0.0453075
0.0463004
0.0474086
0.0487491
0.0506982
0.0539572
0.0319148
0.032809
0.0337149
0.0346262
0.0355424
0.0364645
0.0373942
0.0383339
0.0392874
0.0402596
0.0412565
0.0422854
0.0433545
0.0444731
0.0456511
0.0468975
0.0482211
0.0496391
0.0511873
0.0528597
0.0325515
0.0334108
0.0342702
0.0351351
0.0360059
0.0368818
0.0377624
0.0386479
0.0395384
0.0404345
0.0413366
0.0422453
0.043161
0.044084
0.0450139
0.0459491
0.0468868
0.0478216
0.0487417
0.0496222
0.031871
0.0325741
0.0332829
0.0339955
0.0347107
0.0354279
0.0361463
0.0368651
0.0375832
0.0382995
0.0390126
0.0397207
0.0404216
0.0411125
0.0417898
0.042449
0.0430846
0.0436896
0.0442549
0.0447696
0.0310244
0.0316355
0.0322416
0.0328453
0.0334458
0.0340416
0.0346315
0.0352139
0.0357873
0.0363499
0.0368999
0.0374351
0.037953
0.0384508
0.0389255
0.0393733
0.0397904
0.0401721
0.0405135
0.0408091
0.0296996
0.0301926
0.030681
0.0311646
0.0316422
0.0321125
0.0325744
0.0330263
0.033467
0.0338947
0.0343078
0.0347044
0.0350826
0.0354401
0.0357747
0.0360838
0.0363648
0.0366151
0.0368317
0.0370116
0.0283649
0.0287763
0.029179
0.0295743
0.0299615
0.0303393
0.0307066
0.0310623
0.0314051
0.0317337
0.0320467
0.0323429
0.0326206
0.0328785
0.0331147
0.0333279
0.0335162
0.0336781
0.0338118
0.0339157
0.0269474
0.0272807
0.0276059
0.0279234
0.0282322
0.0285315
0.0288204
0.029098
0.0293633
0.0296154
0.0298534
0.0300761
0.0302826
0.0304718
0.0306427
0.0307942
0.0309252
0.0310347
0.0311218
0.0311854
0.0256226
0.0258996
0.0261677
0.0264277
0.0266789
0.0269208
0.0271525
0.0273734
0.0275827
0.0277798
0.027964
0.0281344
0.0282905
0.0284315
0.0285567
0.0286653
0.0287568
0.0288305
0.0288858
0.0289221
0.0243644
0.0245931
0.0248139
0.0250269
0.0252317
0.0254277
0.0256145
0.0257915
0.0259582
0.0261141
0.0262587
0.0263915
0.026512
0.0266197
0.0267141
0.0267948
0.0268613
0.0269133
0.0269504
0.0269722
0.0232334
0.0234265
0.0236118
0.0237898
0.0239602
0.0241224
0.0242761
0.024421
0.0245566
0.0246825
0.0247985
0.0249042
0.0249992
0.0250831
0.0251557
0.0252167
0.0252658
0.0253027
0.0253272
0.025339
0.0222146
0.0223786
0.0225356
0.0226858
0.022829
0.0229648
0.023093
0.0232133
0.0233254
0.023429
0.023524
0.0236099
0.0236866
0.0237539
0.0238115
0.0238593
0.023897
0.0239245
0.0239416
0.0239482
0.0213259
0.021468
0.0216035
0.0217328
0.0218557
0.0219718
0.022081
0.0221831
0.0222778
0.022365
0.0224445
0.022516
0.0225795
0.0226347
0.0226816
0.0227199
0.0227495
0.0227704
0.0227825
0.0227856
0.0205568
0.0206814
0.0208002
0.0209131
0.0210202
0.0211211
0.0212158
0.021304
0.0213856
0.0214605
0.0215285
0.0215895
0.0216434
0.0216901
0.0217294
0.0217612
0.0217855
0.0218022
0.0218112
0.0218125
0.0199102
0.0200219
0.0201279
0.0202286
0.0203238
0.0204134
0.0204972
0.0205751
0.020647
0.0207129
0.0207725
0.0208258
0.0208726
0.020913
0.0209469
0.0209741
0.0209946
0.0210083
0.0210153
0.0210155
0.0193791
0.0194807
0.019577
0.0196684
0.0197547
0.0198357
0.0199114
0.0199816
0.0200464
0.0201055
0.020159
0.0202066
0.0202485
0.0202844
0.0203144
0.0203384
0.0203564
0.0203683
0.0203741
0.0203737
0.0189622
0.0190564
0.0191458
0.0192304
0.0193102
0.0193851
0.0194549
0.0195196
0.0195792
0.0196335
0.0196825
0.0197262
0.0197645
0.0197973
0.0198246
0.0198464
0.0198626
0.0198732
0.0198781
0.0198775
0.0186554
0.0187446
0.0188291
0.0189091
0.0189844
0.019055
0.0191208
0.0191817
0.0192378
0.0192888
0.0193349
0.0193758
0.0194117
0.0194424
0.0194679
0.0194882
0.0195033
0.0195131
0.0195177
0.019517
0.0184569
0.0185424
0.0186235
0.0187002
0.0187724
0.0188401
0.0189032
0.0189616
0.0190153
0.0190642
0.0191083
0.0191475
0.0191818
0.0192112
0.0192356
0.019255
0.0192693
0.0192787
0.0192829
0.0192822
0.0183702
0.018455
0.0185352
0.0186109
0.0186823
0.0187491
0.0188113
0.0188688
0.0189217
0.0189699
0.0190133
0.0190519
0.0190856
0.0191145
0.0191385
0.0191575
0.0191716
0.0191808
0.019185
0.0191842
0.00949397
0.0230237
0.030094
0.0347325
0.0380366
0.0403672
0.0419611
0.0429878
0.0435723
0.043813
0.0437914
0.0435775
0.0432324
0.0428101
0.042359
0.0419224
0.0415408
0.0412489
0.0410829
0.0410607
0.00694504
0.0183366
0.0260445
0.0315225
0.0354289
0.0381992
0.0401336
0.0414364
0.0422542
0.0426994
0.0428619
0.0428166
0.0426268
0.0423474
0.0420258
0.0417031
0.0414135
0.0411886
0.0410553
0.0410364
0.00910357
0.018153
0.0250984
0.0303882
0.0342913
0.0371312
0.0391607
0.0405639
0.0414803
0.0420201
0.0422727
0.0423127
0.0422034
0.0419987
0.0417447
0.0414802
0.0412369
0.0410408
0.0409153
0.040879
0.0123345
0.0195728
0.0254868
0.0302368
0.0338804
0.0366133
0.0386146
0.0400294
0.040977
0.0415568
0.0418525
0.0419357
0.0418675
0.0417006
0.0414795
0.0412411
0.0410153
0.0408252
0.0406884
0.040615
0.0151491
0.0210983
0.0261433
0.030358
0.0337009
0.0362798
0.0382136
0.0396105
0.0405671
0.0411692
0.0414925
0.0416035
0.041561
0.0414156
0.0412105
0.0409815
0.0407571
0.0405591
0.0403991
0.0402779
0.0174614
0.0224686
0.0268159
0.0305575
0.03361
0.0360252
0.0378781
0.0392452
0.0402018
0.0408191
0.0411635
0.0412956
0.0412704
0.0411367
0.0409364
0.0407047
0.0404696
0.0402532
0.0400627
0.0398908
0.0193573
0.0236418
0.027424
0.0307559
0.0335408
0.0357959
0.0375643
0.0388971
0.03985
0.0404801
0.0408437
0.0409945
0.0409832
0.0408558
0.0406535
0.0404107
0.0401566
0.0399141
0.0396884
0.0394663
0.0209202
0.0246263
0.0279429
0.0309204
0.0334625
0.0355651
0.0372489
0.038545
0.0394922
0.0401343
0.0405169
0.0406864
0.0406882
0.0405652
0.0403569
0.0400981
0.039819
0.0395449
0.0392807
0.0390096
0.0222239
0.0254539
0.0283798
0.0310485
0.0333699
0.0353276
0.0369268
0.0381835
0.0391222
0.0397745
0.0401757
0.0403641
0.040379
0.0402598
0.0400438
0.0397655
0.039457
0.0391466
0.0388402
0.0385194
0.0233261
0.0261579
0.0287516
0.031149
0.0332688
0.0350883
0.0366025
0.0378159
0.038742
0.039401
0.0398188
0.0400254
0.0400536
0.0399378
0.0397128
0.0394126
0.0390704
0.0387186
0.0383651
0.0379906
0.0242705
0.0267669
0.0290755
0.0312334
0.0331688
0.0348563
0.0362846
0.0374504
0.0383582
0.0390191
0.0394501
0.0396729
0.0397134
0.0396005
0.0393654
0.0390404
0.0386601
0.0382603
0.0378516
0.0374148
0.0250905
0.0273035
0.0293668
0.0313131
0.0330799
0.0346416
0.0359836
0.0370974
0.0379808
0.0386375
0.0390767
0.0393124
0.0393633
0.0392521
0.0390053
0.0386525
0.0382281
0.0377715
0.0372956
0.036781
0.0258124
0.0277859
0.0296381
0.0313978
0.0330114
0.0344543
0.0357107
0.0367688
0.0376219
0.038268
0.0387096
0.0389538
0.039012
0.0389006
0.03864
0.0382554
0.0377797
0.0372543
0.036693
0.0360745
0.026457
0.0282287
0.0298999
0.031496
0.0329715
0.0343037
0.0354767
0.036477
0.0372949
0.0379243
0.0383623
0.03861
0.038672
0.0385576
0.0382805
0.0378596
0.0373238
0.0367143
0.0360409
0.0352756
0.0270415
0.0286434
0.0301605
0.0316146
0.0329674
0.0341985
0.0352923
0.036235
0.037015
0.0376231
0.0380526
0.038299
0.0383612
0.0382413
0.0379452
0.0374834
0.0368778
0.0361656
0.0353422
0.0343588
0.0275803
0.0290406
0.0304278
0.0317607
0.0330068
0.0341481
0.0351699
0.0360582
0.0368008
0.0373863
0.0378049
0.0380479
0.0381087
0.0379827
0.037667
0.0371616
0.0364782
0.035644
0.0346187
0.033297
0.0280836
0.029427
0.0307063
0.0319374
0.0330933
0.0341578
0.0351172
0.035958
0.0366676
0.0372333
0.0376431
0.0378849
0.0379474
0.0378194
0.0374892
0.0369439
0.0361818
0.0352129
0.0339199
0.0320656
0.0285497
0.029795
0.0309836
0.032129
0.0332084
0.0342074
0.0351134
0.0359136
0.0365952
0.0371451
0.0375495
0.0377941
0.0378637
0.0377417
0.0374072
0.0368342
0.0360066
0.0349083
0.0332782
0.0306312
0.0289794
0.0301396
0.0312503
0.0323222
0.0333362
0.0342793
0.0351397
0.0359055
0.0365642
0.0371026
0.0375062
0.0377593
0.0378445
0.0377415
0.0374239
0.0368576
0.0360184
0.0348515
0.0328802
0.029265
0.0294512
0.0305629
0.031629
0.0326608
0.0336436
0.0345653
0.0354157
0.0361843
0.0368599
0.0374305
0.037883
0.0382028
0.038374
0.0383784
0.0381938
0.0377958
0.0371718
0.03624
0.0343805
0.0305454
0.000193379
0.000643738
0.0011003
0.00157528
0.00207385
0.00260408
0.00317356
0.00379268
0.00447412
0.00523446
0.00609535
0.0070857
0.0082446
0.0096243
0.0112954
0.0133508
0.0159258
0.0191628
0.023183
0.0278337
0.000248986
0.000775683
0.00132404
0.00189141
0.0024877
0.00312073
0.0038006
0.0045389
0.00535026
0.00625287
0.0072699
0.00843102
0.00977408
0.0113471
0.0132095
0.0154374
0.0181163
0.0213269
0.0250589
0.0292761
0.000290827
0.000900657
0.00152933
0.00218088
0.00286398
0.00358758
0.00436234
0.0052007
0.00611771
0.00713167
0.00826509
0.00954562
0.0110069
0.0126894
0.014641
0.0169173
0.0195735
0.022645
0.0261169
0.029974
0.000328584
0.00101301
0.00171484
0.00244086
0.00319978
0.00400095
0.00485505
0.00577449
0.00677381
0.00787026
0.00908426
0.0104399
0.0119652
0.013692
0.0156552
0.0178901
0.0204248
0.0232684
0.0264032
0.0297755
0.000362972
0.00111255
0.00187928
0.0026701
0.00349386
0.00435981
0.00527825
0.0062609
0.00732114
0.00847434
0.00973806
0.0111321
0.0126785
0.0144007
0.0163221
0.0184632
0.0208352
0.0234339
0.0262311
0.0291754
0.000393177
0.00119948
0.0020223
0.00286839
0.00374631
0.00466488
0.0056337
0.00666337
0.00776569
0.00895373
0.0102419
0.0116455
0.0131808
0.0148634
0.0167069
0.0187196
0.0209008
0.023236
0.0256913
0.0282049
0.000419203
0.00127408
0.00214439
0.00303661
0.00395868
0.00491874
0.00592541
0.00698796
0.00811638
0.00932131
0.0106139
0.0120055
0.0135069
0.0151276
0.0168733
0.0187445
0.0207326
0.0228175
0.0249609
0.0271043
0.000441142
0.00133686
0.0022466
0.00317642
0.0041335
0.00512511
0.00615876
0.00724227
0.00838374
0.00959146
0.0108736
0.0122378
0.0136904
0.0152356
0.0168735
0.0185986
0.0203977
0.0222468
0.0241075
0.0259227
0.00045929
0.00138863
0.00233041
0.00329013
0.00427413
0.0052887
0.00634018
0.00743491
0.00857921
0.00977914
0.0110402
0.012367
0.0137623
0.0152261
0.0167549
0.0183395
0.0199638
0.021603
0.0232199
0.0247642
0.000473977
0.00143042
0.00239762
0.00338047
0.00438441
0.00541472
0.00647656
0.0075749
0.00871436
0.00989907
0.0111323
0.0124159
0.01375
0.0151318
0.0165548
0.0180078
0.0194736
0.0209275
0.0223357
0.0236535
0.000485601
0.00146337
0.00245023
0.00345041
0.00446843
0.00550862
0.00657499
0.00767122
0.00880046
0.00996514
0.0111666
0.0124049
0.0136777
0.0149805
0.0163051
0.0176392
0.0189655
0.0202609
0.0214949
0.02263
0.000494573
0.0014887
0.00249033
0.003503
0.00453036
0.00557582
0.00664235
0.00773248
0.00884807
0.00999014
0.0111585
0.0123516
0.0135658
0.014795
0.0160303
0.0172589
0.0184643
0.019625
0.0207146
0.0217012
0.000501315
0.00150765
0.00251999
0.00354124
0.00457424
0.00562153
0.00668517
0.00776668
0.00886683
0.00998548
0.0111213
0.0122715
0.0134314
0.0145942
0.0157505
0.0168878
0.0179904
0.0190391
0.0200109
0.0208794
0.00050623
0.00152137
0.0025412
0.00356799
0.00460386
0.00565058
0.00670941
0.00778102
0.00886529
0.00996114
0.0110664
0.0121773
0.0132885
0.0143929
0.0154809
0.0165404
0.017557
0.0185135
0.0193901
0.0201644
0.000509695
0.00153098
0.00255579
0.00358585
0.00462266
0.00566731
0.0067204
0.00778186
0.00885087
0.00992564
0.0110032
0.0120794
0.0131485
0.0142029
0.0152332
0.0162282
0.0171744
0.0180565
0.0188574
0.0195582
0.000512051
0.00153744
0.00256541
0.00359717
0.00463369
0.00567554
0.00672273
0.00777464
0.00882988
0.0098861
0.0109399
0.0119866
0.0130203
0.0140333
0.0150165
0.0159592
0.0168491
0.0176724
0.0184141
0.0190584
0.000513593
0.00154163
0.00257147
0.00360394
0.00463958
0.00567851
0.00672032
0.00776395
0.00880758
0.00984846
0.0108828
0.0119058
0.0129111
0.0138914
0.0148377
0.0157398
0.0165863
0.0173648
0.0180619
0.018664
0.00051456
0.00154422
0.00257511
0.00360777
0.00464241
0.00567883
0.00671632
0.00775348
0.0087882
0.00981744
0.0108372
0.0118424
0.0128269
0.0137831
0.0147024
0.015575
0.0163902
0.0171364
0.0178015
0.0183734
0.000515121
0.00154571
0.00257715
0.0036098
0.00464367
0.00567835
0.00671292
0.00774579
0.00877464
0.00979628
0.0108066
0.0118003
0.0127713
0.013712
0.0146141
0.015468
0.0162634
0.0169893
0.0176342
0.0181867
0.000515364
0.00154635
0.00257803
0.00361065
0.00464412
0.00567796
0.00671114
0.00774198
0.00876808
0.00978616
0.010792
0.0117804
0.0127451
0.0136787
0.0145728
0.015418
0.0162043
0.0169209
0.0175568
0.0181015
-9.55378e-05
2.75766e-05
-2.69052e-05
8.09621e-06
-1.72661e-05
-2.93444e-05
-7.48501e-05
-0.000140104
-0.00024604
-0.000402375
-0.00062981
-0.000963895
-0.00143206
-0.00215707
-0.0031086
-0.00491554
-0.00654707
-0.0131244
-0.00984932
-0.0522134
-8.42541e-05
5.71471e-05
2.47207e-05
8.11602e-05
8.02096e-05
9.40465e-05
7.79438e-05
4.57372e-05
-2.18377e-05
-0.000132925
-0.0003058
-0.000571641
-0.00095342
-0.00155852
-0.00235106
-0.00387893
-0.00516758
-0.0107079
-0.00674423
-0.0418686
-7.28978e-05
8.67884e-05
7.65189e-05
0.000154404
0.000177945
0.000217749
0.000231146
0.000232113
0.000203094
0.000137544
1.96869e-05
-0.000177225
-0.000471464
-0.000955189
-0.00158602
-0.00283389
-0.00377611
-0.00827697
-0.00385437
-0.0307637
-6.14825e-05
0.000116483
0.000128453
0.000227773
0.000275864
0.000341657
0.000384613
0.000418828
0.000428486
0.000408655
0.00034611
0.000218539
1.25198e-05
-0.000349228
-0.000817336
-0.00178828
-0.00238812
-0.00589329
-0.00115527
-0.0207959
-5.00222e-05
0.000146211
0.000180486
0.000301211
0.000373886
0.000465664
0.0005382
0.000605685
0.000654069
0.000680032
0.000672923
0.000614838
0.000497255
0.00025725
-4.87133e-05
-0.000749068
-0.00101699
-0.00359869
0.00135261
-0.012413
-3.8531e-05
0.000175954
0.000232582
0.000374663
0.000471933
0.000589663
0.000691761
0.000792489
0.000879572
0.000951295
0.000999585
0.00101087
0.000981491
0.000862224
0.000716405
0.000277652
0.000326407
-0.00141793
0.00366775
-0.00552882
-2.70236e-05
0.00020569
0.000284703
0.00044807
0.000569925
0.000713546
0.000845149
0.000979041
0.00110472
0.00122207
0.00132556
0.00140583
0.00146402
0.00146378
0.00147487
0.00128672
0.00163359
0.000636319
0.00579434
8.49745e-05
-1.55146e-05
0.0002354
0.000336813
0.000521377
0.000667783
0.000837205
0.000998218
0.00116514
0.00132926
0.00149198
0.00165031
0.00179896
0.00194367
0.00206014
0.00222384
0.00227383
0.00289819
0.00255936
0.00774154
0.00466841
-4.01969e-06
0.000265062
0.000388879
0.000594525
0.000765427
0.000960535
0.00115083
0.00135061
0.00155291
0.00176066
0.00197332
0.0021895
0.00241935
0.00264965
0.00296081
0.0032355
0.00411566
0.00435168
0.00952126
0.00843035
7.44436e-06
0.000294654
0.000440864
0.000667459
0.000862778
0.00108343
0.00130282
0.00153523
0.00177541
0.00202776
0.0022941
0.00257676
0.00289001
0.00323081
0.0036836
0.00416895
0.00528294
0.00601702
0.0111466
0.01154
1.88575e-05
0.000324154
0.000492737
0.00074012
0.000959759
0.00120578
0.00145408
0.00171883
0.00199651
0.00229292
0.00261216
0.00296005
0.00335471
0.00380226
0.00439033
0.00507205
0.00639821
0.00756105
0.0126309
0.0141307
3.01971e-05
0.000353541
0.000544465
0.000812451
0.00105629
0.00132749
0.00160444
0.00190122
0.00221597
0.00255581
0.00292704
0.00333873
0.00381254
0.00436281
0.00507943
0.00594325
0.00746063
0.0089906
0.013987
0.0163072
4.14487e-05
0.000382787
0.000596019
0.000884397
0.0011523
0.00144845
0.00175378
0.00208223
0.00243353
0.0028161
0.00323831
0.00371221
0.0042627
0.00491139
0.00574957
0.00678144
0.0084701
0.010313
0.0152272
0.0181514
5.26221e-05
0.000411855
0.000647374
0.000955903
0.0012477
0.00156857
0.00190196
0.00226167
0.00264898
0.0030735
0.00354554
0.00407994
0.00470445
0.00544706
0.00639966
0.00758589
0.00942704
0.0115354
0.0163628
0.0197277
6.3716e-05
0.000440717
0.000698498
0.00102692
0.00134244
0.00168775
0.00204887
0.00243938
0.00286208
0.0033277
0.00384835
0.00444138
0.0051371
0.005969
0.00702881
0.00835614
0.0103322
0.0126651
0.0174038
0.0210869
7.45383e-05
0.000469419
0.000749346
0.00109738
0.00143641
0.00180588
0.00219435
0.00261518
0.00307261
0.0035784
0.00414635
0.00479607
0.00556007
0.00647655
0.00763647
0.00909227
0.0111872
0.0137089
0.0183602
0.0222691
8.45673e-05
0.000498115
0.000799877
0.00116723
0.00152953
0.00192286
0.00233824
0.00278888
0.00328031
0.00382531
0.00443918
0.00514359
0.00597294
0.0069694
0.00822265
0.00979515
0.0119943
0.0146743
0.0192426
0.0233049
9.38028e-05
0.000526672
0.000850181
0.00123638
0.00162172
0.00203859
0.00248047
0.00296035
0.00348505
0.00406825
0.00472665
0.0054837
0.00637546
0.00744741
0.00878747
0.0104658
0.0127556
0.0155692
0.0200595
0.0242193
0.000105372
0.00055362
0.000900637
0.00130481
0.00171315
0.00215317
0.00262116
0.00312973
0.00368697
0.00430732
0.00500874
0.00581623
0.0067671
0.00790955
0.00932883
0.0111017
0.0134672
0.0163968
0.0208051
0.0250389
0.000125413
0.000576574
0.000951446
0.00137264
0.00180406
0.0022668
0.00276057
0.00329724
0.00388623
0.00454253
0.00528518
0.0061404
0.00714616
0.00835255
0.00984081
0.0116944
0.0141184
0.0171479
0.021454
0.025792
-0.000272228
-0.000535322
-0.000965776
-0.00134379
-0.00180453
-0.00229122
-0.00285479
-0.00349241
-0.00423723
-0.00511629
-0.0061667
-0.00744625
-0.00895719
-0.0108244
-0.0128402
-0.0156981
-0.0184353
-0.0236644
-0.0262855
-0.0308807
-0.000268433
-0.000507929
-0.000925595
-0.00128344
-0.00172634
-0.00219204
-0.00273442
-0.00334909
-0.00407006
-0.00492391
-0.00594758
-0.0072011
-0.00869057
-0.0105647
-0.012629
-0.0156543
-0.0185855
-0.0242041
-0.0269183
-0.0320034
-0.000263383
-0.000480663
-0.000884308
-0.00122211
-0.00164658
-0.00209104
-0.00261164
-0.00320275
-0.00389892
-0.00472633
-0.00572188
-0.00694762
-0.00841407
-0.0102905
-0.0123964
-0.0155713
-0.0186902
-0.0247144
-0.027568
-0.0331826
-0.000257537
-0.000453488
-0.000842154
-0.00115993
-0.00156543
-0.00198832
-0.00248655
-0.00305339
-0.0037238
-0.00452356
-0.00548966
-0.00668591
-0.00812748
-0.0100008
-0.0121399
-0.0154441
-0.0187345
-0.0251657
-0.0282553
-0.0344249
-0.000250979
-0.000426307
-0.000799148
-0.00109688
-0.0014829
-0.0018839
-0.00235919
-0.00290108
-0.00354478
-0.00431566
-0.00525084
-0.00641563
-0.00782987
-0.00969421
-0.0118573
-0.0152707
-0.0187158
-0.0255468
-0.0289603
-0.0357068
-0.000243794
-0.00039907
-0.00075533
-0.00103297
-0.00139903
-0.00177782
-0.00222959
-0.00274588
-0.00336193
-0.0041027
-0.00500542
-0.00613657
-0.00752056
-0.00936947
-0.0115465
-0.0150485
-0.0186286
-0.0258475
-0.0296664
-0.0370041
-0.000236063
-0.000371739
-0.000710741
-0.000968224
-0.00131387
-0.00167012
-0.00209784
-0.00258785
-0.00317533
-0.00388475
-0.00475342
-0.00584859
-0.00719903
-0.00902551
-0.0112055
-0.0147746
-0.0184668
-0.026058
-0.0303564
-0.0382941
-0.000227852
-0.000344285
-0.000665423
-0.000902667
-0.00122747
-0.00156086
-0.00196398
-0.00242708
-0.00298507
-0.00366191
-0.0044949
-0.00555163
-0.00686487
-0.0086615
-0.0108329
-0.0144466
-0.0182238
-0.0261693
-0.0310048
-0.039552
-0.000219219
-0.000316684
-0.000619414
-0.000836325
-0.00113988
-0.00145009
-0.00182811
-0.00226365
-0.00279127
-0.00343431
-0.00422993
-0.00524566
-0.00651779
-0.00827681
-0.0104275
-0.0140621
-0.0178931
-0.0261721
-0.0315751
-0.0407504
-0.000210213
-0.000288921
-0.000572751
-0.000769226
-0.00105114
-0.00133786
-0.00169029
-0.00209767
-0.00259403
-0.00320207
-0.00395863
-0.00493073
-0.00615766
-0.00787104
-0.00998842
-0.013619
-0.0174682
-0.0260575
-0.0320148
-0.0418616
-0.000200876
-0.000260985
-0.000525473
-0.000701401
-0.000961325
-0.00122426
-0.00155061
-0.00192923
-0.0023935
-0.00296536
-0.00368116
-0.00460698
-0.00578446
-0.00744404
-0.00951515
-0.0131154
-0.0169437
-0.0258156
-0.0322531
-0.0428599
-0.000191243
-0.000232871
-0.000477616
-0.000632884
-0.000870481
-0.00110933
-0.00140917
-0.00175847
-0.00218983
-0.00272436
-0.00339773
-0.0042746
-0.00539834
-0.00699591
-0.00900768
-0.0125501
-0.0163155
-0.0254352
-0.0321993
-0.0437281
-0.000181348
-0.000204575
-0.000429217
-0.000563713
-0.000778669
-0.000993172
-0.00126606
-0.00158549
-0.00198317
-0.00247926
-0.00310855
-0.00393387
-0.00499957
-0.00652701
-0.00846638
-0.0119222
-0.0155816
-0.0249029
-0.0317471
-0.0444681
-0.000171218
-0.000176101
-0.000380313
-0.000493927
-0.000685953
-0.000875847
-0.00112139
-0.00141045
-0.0017737
-0.00223029
-0.00281392
-0.00358514
-0.00458858
-0.00603797
-0.0078921
-0.0112319
-0.0147424
-0.0242026
-0.0307856
-0.0451113
-0.000160878
-0.000147452
-0.00033094
-0.000423566
-0.000592397
-0.000757441
-0.000975268
-0.00123347
-0.0015616
-0.0019777
-0.00251415
-0.00322884
-0.00416592
-0.0055297
-0.0072861
-0.0104802
-0.0138018
-0.0233172
-0.0292156
-0.045714
-0.00015035
-0.000118636
-0.000281134
-0.000352674
-0.000498067
-0.00063804
-0.00082781
-0.00105472
-0.00134709
-0.00172175
-0.00220959
-0.00286546
-0.00373228
-0.00500335
-0.00665011
-0.0096695
-0.0127671
-0.0222304
-0.0269743
-0.0463596
-0.000139654
-8.96613e-05
-0.000230932
-0.000281297
-0.000403031
-0.000517733
-0.000679137
-0.000874345
-0.00113037
-0.00146274
-0.00190064
-0.00249555
-0.00328849
-0.00446035
-0.00598624
-0.00880359
-0.0116489
-0.0209251
-0.0240718
-0.0473176
-0.000128808
-6.05392e-05
-0.000180371
-0.000209482
-0.000307361
-0.000396614
-0.000529372
-0.000692522
-0.00091166
-0.00120096
-0.00158772
-0.00211975
-0.00283549
-0.00390232
-0.00529702
-0.00788778
-0.0104586
-0.0193766
-0.0206372