/*--------------------------------*- C++ -*----------------------------------*\
| =========                 |                                                 |
| \\      /  F ield         | OpenFOAM: The Open Source CFD Toolbox           |
|  \\    /   O peration     | Version:  v1806                                 |
|   \\  /    A nd           | Web:      www.OpenFOAM.com                      |
|    \\/     M anipulation  |                                                 |
\*---------------------------------------------------------------------------*/
FoamFile
{
    version     2.0;
    format      ascii;
    class       volVectorField;
    location    "440";
    object      U;
}
// * * * * * * * * * * * * * * * * * * * * * * * * * * * * * * * * * * * * * //

dimensions      [0 1 -1 0 0 0 0];


internalField   nonuniform List<vector> 
2400
(
(0.300077 4.70119e-05 0)
(0.299899 -0.00175745 0)
(0.300092 -0.00131562 0)
(0.299811 -0.00372771 0)
(0.300055 -0.00297927 0)
(0.299633 -0.00632342 0)
(0.299946 -0.00523709 0)
(0.299319 -0.00995363 0)
(0.299715 -0.00853017 0)
(0.298796 -0.01517 0)
(0.299283 -0.0134727 0)
(0.297959 -0.0226475 0)
(0.298526 -0.0208833 0)
(0.296671 -0.033024 0)
(0.297275 -0.0316625 0)
(0.294831 -0.0462814 0)
(0.295407 -0.0462064 0)
(0.292705 -0.0603406 0)
(0.293148 -0.0626627 0)
(0.291668 -0.0700601 0)
(0.300078 4.8734e-05 0)
(0.299899 -0.00175209 0)
(0.300067 -0.00130678 0)
(0.299771 -0.00371384 0)
(0.299978 -0.00295615 0)
(0.299533 -0.00629687 0)
(0.299788 -0.00519003 0)
(0.299119 -0.00990947 0)
(0.299434 -0.00844169 0)
(0.298439 -0.0151022 0)
(0.298821 -0.0133122 0)
(0.29736 -0.0225516 0)
(0.297807 -0.0206004 0)
(0.29572 -0.0329073 0)
(0.29625 -0.0311916 0)
(0.293438 -0.0461831 0)
(0.294204 -0.0455469 0)
(0.290985 -0.06033 0)
(0.29232 -0.0621464 0)
(0.290504 -0.0701382 0)
(0.300077 4.82606e-05 0)
(0.299902 -0.00173892 0)
(0.300034 -0.00129447 0)
(0.299726 -0.00368596 0)
(0.299873 -0.00292405 0)
(0.299404 -0.00624976 0)
(0.299567 -0.00512514 0)
(0.298852 -0.00983794 0)
(0.299038 -0.00832 0)
(0.297955 -0.0150021 0)
(0.298172 -0.0130925 0)
(0.29655 -0.022427 0)
(0.296818 -0.0202186 0)
(0.294455 -0.032791 0)
(0.29488 -0.0305747 0)
(0.291646 -0.0461762 0)
(0.292637 -0.0447215 0)
(0.288861 -0.0605976 0)
(0.291224 -0.0615706 0)
(0.289015 -0.0705791 0)
(0.300075 4.50626e-05 0)
(0.299908 -0.00171624 0)
(0.299999 -0.00128018 0)
(0.299683 -0.00364209 0)
(0.299757 -0.00288528 0)
(0.299271 -0.00617988 0)
(0.29932 -0.00504604 0)
(0.298569 -0.00973695 0)
(0.298592 -0.00817052 0)
(0.297437 -0.0148684 0)
(0.297445 -0.012821 0)
(0.295676 -0.0222729 0)
(0.295723 -0.0197481 0)
(0.29309 -0.0326723 0)
(0.293387 -0.0298237 0)
(0.28972 -0.0462495 0)
(0.290938 -0.0437307 0)
(0.286577 -0.0611187 0)
(0.290023 -0.0608983 0)
(0.287302 -0.0713762 0)
(0.300073 3.91651e-05 0)
(0.299916 -0.00168386 0)
(0.299964 -0.00126412 0)
(0.299643 -0.0035811 0)
(0.299637 -0.00283931 0)
(0.299143 -0.00608427 0)
(0.299061 -0.00495137 0)
(0.298292 -0.00960069 0)
(0.298123 -0.00799112 0)
(0.296924 -0.0146909 0)
(0.296678 -0.0124949 0)
(0.294805 -0.0220734 0)
(0.294574 -0.0191862 0)
(0.291714 -0.032527 0)
(0.291835 -0.0289374 0)
(0.287746 -0.0463674 0)
(0.289179 -0.0425739 0)
(0.284178 -0.0618606 0)
(0.28876 -0.060114 0)
(0.285364 -0.0725651 0)
(0.300073 3.03729e-05 0)
(0.299922 -0.00164167 0)
(0.29993 -0.00124677 0)
(0.299604 -0.0035022 0)
(0.299519 -0.0027869 0)
(0.29902 -0.00596075 0)
(0.298799 -0.00484273 0)
(0.298028 -0.00942451 0)
(0.29764 -0.00778538 0)
(0.296435 -0.014461 0)
(0.295881 -0.0121209 0)
(0.293972 -0.0218152 0)
(0.293376 -0.0185429 0)
(0.29038 -0.0323373 0)
(0.290224 -0.027927 0)
(0.285771 -0.0465082 0)
(0.287369 -0.0412584 0)
(0.281659 -0.0628062 0)
(0.287453 -0.059206 0)
(0.283183 -0.0742018 0)
(0.300079 1.85762e-05 0)
(0.299922 -0.00158949 0)
(0.299903 -0.00122875 0)
(0.29956 -0.00340478 0)
(0.299407 -0.00272954 0)
(0.298897 -0.00580761 0)
(0.298541 -0.00472339 0)
(0.297772 -0.00920426 0)
(0.297152 -0.00756 0)
(0.295974 -0.0141701 0)
(0.295059 -0.0117109 0)
(0.293197 -0.0214839 0)
(0.292118 -0.017834 0)
(0.289133 -0.032085 0)
(0.288515 -0.0268059 0)
(0.283852 -0.0466552 0)
(0.285473 -0.0397826 0)
(0.279018 -0.063944 0)
(0.286126 -0.0581557 0)
(0.280713 -0.0763491 0)
(0.300094 3.86848e-06 0)
(0.29991 -0.00152738 0)
(0.299888 -0.00121044 0)
(0.299504 -0.00328854 0)
(0.29931 -0.00266858 0)
(0.298763 -0.00562351 0)
(0.2983 -0.00459671 0)
(0.297514 -0.00893602 0)
(0.296676 -0.00732239 0)
(0.295532 -0.0138084 0)
(0.294225 -0.0112798 0)
(0.292481 -0.0210606 0)
(0.29079 -0.0170803 0)
(0.288002 -0.0317451 0)
(0.286648 -0.0255918 0)
(0.282068 -0.0467902 0)
(0.283395 -0.0381365 0)
(0.276295 -0.0652746 0)
(0.284802 -0.0569334 0)
(0.277864 -0.0790639 0)
(0.300122 -1.32076e-05 0)
(0.299882 -0.00145579 0)
(0.299892 -0.00119182 0)
(0.299426 -0.00315383 0)
(0.299241 -0.00260474 0)
(0.298605 -0.00540796 0)
(0.298094 -0.00446523 0)
(0.297235 -0.00861684 0)
(0.296237 -0.00707922 0)
(0.295082 -0.0133669 0)
(0.293408 -0.0108431 0)
(0.291798 -0.0205218 0)
(0.289409 -0.0163092 0)
(0.286988 -0.0312797 0)
(0.284574 -0.0243139 0)
(0.280501 -0.0468834 0)
(0.280971 -0.036312 0)
(0.273623 -0.0668193 0)
(0.283451 -0.0554813 0)
(0.274467 -0.0823923 0)
(0.300166 -3.19394e-05 0)
(0.29983 -0.00137571 0)
(0.299922 -0.00117224 0)
(0.299318 -0.00300183 0)
(0.299211 -0.00253777 0)
(0.298407 -0.00516191 0)
(0.297945 -0.00432992 0)
(0.296907 -0.00824599 0)
(0.295872 -0.00683479 0)
(0.294583 -0.0128389 0)
(0.292666 -0.0104141 0)
(0.29109 -0.0198434 0)
(0.288039 -0.0155536 0)
(0.286034 -0.0306336 0)
(0.282295 -0.0230193 0)
(0.279189 -0.0468769 0)
(0.277995 -0.0343224 0)
(0.271249 -0.0686181 0)
(0.28188 -0.0536894 0)
(0.27033 -0.086401 0)
(0.300231 -5.13585e-05 0)
(0.29975 -0.00128875 0)
(0.299983 -0.00115044 0)
(0.299171 -0.00283478 0)
(0.299232 -0.00246617 0)
(0.298155 -0.00488816 0)
(0.297876 -0.00418952 0)
(0.296503 -0.00782603 0)
(0.295622 -0.0065895 0)
(0.293983 -0.0122235 0)
(0.292074 -0.00999945 0)
(0.290269 -0.0190089 0)
(0.286797 -0.0148455 0)
(0.285013 -0.0297374 0)
(0.27992 -0.0217747 0)
(0.278047 -0.0466631 0)
(0.274305 -0.032231 0)
(0.269472 -0.0706976 0)
(0.279596 -0.0513938 0)
(0.265429 -0.0912634 0)
(0.300315 -7.00338e-05 0)
(0.299641 -0.00119693 0)
(0.300079 -0.00112453 0)
(0.298981 -0.00265585 0)
(0.299311 -0.00238726 0)
(0.297839 -0.00459144 0)
(0.2979 -0.00404025 0)
(0.296003 -0.00736348 0)
(0.295525 -0.0063387 0)
(0.293236 -0.0115275 0)
(0.291712 -0.00959623 0)
(0.289233 -0.0180158 0)
(0.285847 -0.0141996 0)
(0.283732 -0.0285334 0)
(0.277697 -0.0206585 0)
(0.276803 -0.0460653 0)
(0.26995 -0.0301761 0)
(0.268442 -0.0729919 0)
(0.275774 -0.0484287 0)
(0.260258 -0.0973895 0)
(0.300416 -8.64909e-05 0)
(0.299506 -0.0011025 0)
(0.300205 -0.00109233 0)
(0.298752 -0.00246883 0)
(0.299444 -0.00229752 0)
(0.297462 -0.00427798 0)
(0.298022 -0.00387632 0)
(0.295402 -0.00686838 0)
(0.295597 -0.00607288 0)
(0.292318 -0.010766 0)
(0.291638 -0.00919017 0)
(0.287902 -0.0168812 0)
(0.285351 -0.0136026 0)
(0.281977 -0.0270033 0)
(0.275992 -0.0197344 0)
(0.274997 -0.044853 0)
(0.265358 -0.02837 0)
(0.267853 -0.0752308 0)
(0.269468 -0.0447577 0)
(0.256139 -0.105541 0)
(0.30053 -9.9402e-05 0)
(0.299352 -0.00100761 0)
(0.300355 -0.0010518 0)
(0.298494 -0.00227748 0)
(0.299622 -0.00219338 0)
(0.297038 -0.00395446 0)
(0.298226 -0.00369115 0)
(0.294719 -0.00635274 0)
(0.295822 -0.00577943 0)
(0.291243 -0.00996047 0)
(0.291855 -0.0087574 0)
(0.286259 -0.0156406 0)
(0.285402 -0.0130137 0)
(0.2796 -0.0251835 0)
(0.275187 -0.018992 0)
(0.272103 -0.0428595 0)
(0.261395 -0.0270436 0)
(0.266692 -0.0768531 0)
(0.260191 -0.0406783 0)
(0.255055 -0.116835 0)
(0.300648 -0.000107834 0)
(0.29919 -0.000913896 0)
(0.300514 -0.00100152 0)
(0.298226 -0.0020849 0)
(0.299823 -0.00207211 0)
(0.296595 -0.00362673 0)
(0.298479 -0.00347908 0)
(0.293995 -0.00582798 0)
(0.296153 -0.00544596 0)
(0.290074 -0.00913413 0)
(0.292299 -0.00826992 0)
(0.284377 -0.0143414 0)
(0.285957 -0.0123711 0)
(0.276613 -0.0231622 0)
(0.275484 -0.0183146 0)
(0.267758 -0.0401084 0)
(0.259144 -0.026336 0)
(0.263331 -0.0770218 0)
(0.248805 -0.0369972 0)
(0.258476 -0.132448 0)
(0.300761 -0.000111431 0)
(0.299034 -0.000822212 0)
(0.300668 -0.000941063 0)
(0.297969 -0.00189285 0)
(0.30002 -0.00193269 0)
(0.296169 -0.00329848 0)
(0.298738 -0.00323725 0)
(0.293293 -0.00530215 0)
(0.296512 -0.00506429 0)
(0.288913 -0.00830568 0)
(0.292839 -0.00770442 0)
(0.282429 -0.0130296 0)
(0.286813 -0.0116087 0)
(0.273257 -0.0210529 0)
(0.27671 -0.0175269 0)
(0.262018 -0.036806 0)
(0.259335 -0.0261529 0)
(0.256142 -0.0749297 0)
(0.238167 -0.0350084 0)
(0.265363 -0.152521 0)
(0.300861 -0.00011045 0)
(0.298897 -0.000732471 0)
(0.300801 -0.00087128 0)
(0.297744 -0.0017014 0)
(0.300188 -0.00177634 0)
(0.295797 -0.00297041 0)
(0.298953 -0.00296693 0)
(0.292677 -0.00477778 0)
(0.296813 -0.00463394 0)
(0.287883 -0.00748361 0)
(0.293311 -0.00705155 0)
(0.280649 -0.0117342 0)
(0.287648 -0.0106811 0)
(0.269984 -0.0189548 0)
(0.278286 -0.0164489 0)
(0.255546 -0.0332652 0)
(0.261655 -0.0260094 0)
(0.244519 -0.0704698 0)
(0.232511 -0.036042 0)
(0.2708 -0.174676 0)
(0.30094 -0.000105752 0)
(0.298789 -0.000643416 0)
(0.300901 -0.000794485 0)
(0.297568 -0.00150874 0)
(0.300306 -0.0016069 0)
(0.295508 -0.00263973 0)
(0.299089 -0.00267425 0)
(0.2922 -0.0042507 0)
(0.296983 -0.0041641 0)
(0.287088 -0.00666268 0)
(0.293564 -0.00632241 0)
(0.279264 -0.0104547 0)
(0.288127 -0.00958609 0)
(0.267322 -0.01691 0)
(0.279401 -0.0149675 0)
(0.249581 -0.0297749 0)
(0.264449 -0.0251354 0)
(0.229862 -0.0645176 0)
(0.234276 -0.040498 0)
(0.266741 -0.194641 0)
(0.300997 -9.89186e-05 0)
(0.298713 -0.000552822 0)
(0.300964 -0.000714095 0)
(0.297448 -0.00131167 0)
(0.300364 -0.00143015 0)
(0.295313 -0.00230112 0)
(0.299129 -0.00236899 0)
(0.291887 -0.0037117 0)
(0.296988 -0.00367163 0)
(0.286584 -0.00582638 0)
(0.29352 -0.00554643 0)
(0.27841 -0.00916166 0)
(0.288033 -0.00837174 0)
(0.265671 -0.0148787 0)
(0.279363 -0.0131122 0)
(0.245471 -0.0264046 0)
(0.265286 -0.0230465 0)
(0.215936 -0.0580912 0)
(0.239001 -0.046659 0)
(0.24441 -0.207098 0)
(0.301032 -9.07533e-05 0)
(0.298669 -0.000461266 0)
(0.300992 -0.000630233 0)
(0.297382 -0.00111058 0)
(0.300368 -0.00124763 0)
(0.295208 -0.00195426 0)
(0.299079 -0.00205541 0)
(0.291731 -0.0031578 0)
(0.29684 -0.00316717 0)
(0.286358 -0.00496443 0)
(0.293191 -0.00474964 0)
(0.27808 -0.00782505 0)
(0.287356 -0.0071031 0)
(0.265108 -0.0127771 0)
(0.277965 -0.0110366 0)
(0.243916 -0.0229691 0)
(0.262416 -0.0197982 0)
(0.207538 -0.0515598 0)
(0.234883 -0.0500832 0)
(0.196736 -0.199521 0)
(0.291812 -0.0727767 0)
(0.292288 -0.0730253 0)
(0.292765 -0.0723839 0)
(0.293211 -0.0714519 0)
(0.29368 -0.0703023 0)
(0.294156 -0.068976 0)
(0.294586 -0.0676048 0)
(0.294953 -0.0663319 0)
(0.295263 -0.065218 0)
(0.295526 -0.0642879 0)
(0.291607 -0.0729811 0)
(0.292693 -0.0732746 0)
(0.293429 -0.0726872 0)
(0.293982 -0.0717769 0)
(0.294528 -0.0706103 0)
(0.295039 -0.069251 0)
(0.295435 -0.0678421 0)
(0.295727 -0.0665336 0)
(0.295951 -0.0653872 0)
(0.296143 -0.0644312 0)
(0.291268 -0.0734732 0)
(0.293026 -0.073689 0)
(0.294056 -0.0730813 0)
(0.294753 -0.0721383 0)
(0.295404 -0.070902 0)
(0.295965 -0.0694677 0)
(0.296337 -0.0679984 0)
(0.296574 -0.0666501 0)
(0.296734 -0.0654764 0)
(0.296883 -0.0645154 0)
(0.290935 -0.0742455 0)
(0.293389 -0.074278 0)
(0.294694 -0.0735973 0)
(0.29554 -0.072579 0)
(0.296303 -0.0712279 0)
(0.296914 -0.0696826 0)
(0.297274 -0.0681351 0)
(0.297482 -0.0667434 0)
(0.297615 -0.0655484 0)
(0.297763 -0.0645898 0)
(0.290679 -0.0753095 0)
(0.293833 -0.0750565 0)
(0.295364 -0.0742491 0)
(0.296355 -0.0731033 0)
(0.297244 -0.0715902 0)
(0.297922 -0.0699043 0)
(0.298304 -0.06827 0)
(0.298534 -0.0668372 0)
(0.29869 -0.0656266 0)
(0.298867 -0.0646722 0)
(0.290548 -0.0766672 0)
(0.294376 -0.0760316 0)
(0.296066 -0.0750405 0)
(0.297216 -0.0737104 0)
(0.298279 -0.0719951 0)
(0.29908 -0.0701529 0)
(0.299555 -0.0684327 0)
(0.299866 -0.0669591 0)
(0.300072 -0.0657264 0)
(0.300239 -0.0647541 0)
(0.290558 -0.0783007 0)
(0.295005 -0.0772137 0)
(0.296808 -0.0759839 0)
(0.298192 -0.0744185 0)
(0.299543 -0.0724754 0)
(0.30057 -0.0704724 0)
(0.301219 -0.068662 0)
(0.301622 -0.0671243 0)
(0.301799 -0.0658251 0)
(0.301749 -0.0647632 0)
(0.290691 -0.0801922 0)
(0.295709 -0.0786292 0)
(0.297682 -0.0771227 0)
(0.299486 -0.0752847 0)
(0.301304 -0.0730953 0)
(0.302659 -0.0709142 0)
(0.30347 -0.0689689 0)
(0.3038 -0.0672835 0)
(0.303631 -0.0658034 0)
(0.302879 -0.0645096 0)
(0.290953 -0.0823623 0)
(0.296591 -0.0803517 0)
(0.298978 -0.0785602 0)
(0.301497 -0.0764096 0)
(0.30393 -0.0739216 0)
(0.305549 -0.0714785 0)
(0.306237 -0.0692605 0)
(0.305982 -0.0672455 0)
(0.30478 -0.0653798 0)
(0.30249 -0.0636437 0)
(0.291521 -0.0849207 0)
(0.298029 -0.0825528 0)
(0.301263 -0.0804661 0)
(0.304736 -0.0778872 0)
(0.307645 -0.0749301 0)
(0.309038 -0.0720021 0)
(0.308812 -0.0692373 0)
(0.306979 -0.0666018 0)
(0.303636 -0.0640741 0)
(0.298684 -0.061661 0)
(0.292947 -0.0881327 0)
(0.300779 -0.0855152 0)
(0.30523 -0.0829923 0)
(0.309446 -0.0796576 0)
(0.312019 -0.0758459 0)
(0.311986 -0.0720263 0)
(0.309428 -0.0683138 0)
(0.304565 -0.0647093 0)
(0.297707 -0.06125 0)
(0.288939 -0.057991 0)
(0.296276 -0.0924159 0)
(0.305742 -0.0895021 0)
(0.311122 -0.0860419 0)
(0.314858 -0.0812741 0)
(0.315282 -0.0759752 0)
(0.311834 -0.0707223 0)
(0.305047 -0.0656411 0)
(0.295553 -0.0607923 0)
(0.283952 -0.0562754 0)
(0.270643 -0.0521861 0)
(0.302738 -0.0981404 0)
(0.313144 -0.0944123 0)
(0.3177 -0.0889258 0)
(0.318332 -0.0816877 0)
(0.313825 -0.0741548 0)
(0.304533 -0.0669856 0)
(0.291688 -0.060304 0)
(0.27644 -0.0541993 0)
(0.259661 -0.0487993 0)
(0.242059 -0.0441792 0)
(0.312745 -0.105199 0)
(0.321155 -0.0993296 0)
(0.321204 -0.0900859 0)
(0.314933 -0.0792463 0)
(0.302397 -0.0689635 0)
(0.285273 -0.0597734 0)
(0.265542 -0.0517101 0)
(0.244736 -0.0447869 0)
(0.223792 -0.039076 0)
(0.203484 -0.0345114 0)
(0.324357 -0.112508 0)
(0.324661 -0.102231 0)
(0.315133 -0.0871494 0)
(0.29805 -0.072102 0)
(0.275414 -0.0592646 0)
(0.250245 -0.0486737 0)
(0.224879 -0.0400987 0)
(0.200709 -0.0333009 0)
(0.178295 -0.0281642 0)
(0.158008 -0.0243557 0)
(0.332067 -0.11741 0)
(0.31522 -0.100028 0)
(0.291524 -0.0775509 0)
(0.261468 -0.0590684 0)
(0.229578 -0.0450177 0)
(0.199278 -0.0345674 0)
(0.172177 -0.0269493 0)
(0.148666 -0.0214699 0)
(0.128422 -0.0177363 0)
(0.111029 -0.0151741 0)
(0.326759 -0.115164 0)
(0.282762 -0.0891161 0)
(0.243931 -0.0598475 0)
(0.202979 -0.0408026 0)
(0.167401 -0.0281387 0)
(0.13823 -0.0200003 0)
(0.114919 -0.0147986 0)
(0.0962707 -0.011423 0)
(0.0811046 -0.00937288 0)
(0.0683694 -0.00810308 0)
(0.296955 -0.0996331 0)
(0.219099 -0.0666796 0)
(0.172182 -0.0353322 0)
(0.129072 -0.0208824 0)
(0.099614 -0.0126362 0)
(0.078455 -0.00837225 0)
(0.063058 -0.0059848 0)
(0.0513821 -0.00454599 0)
(0.0422045 -0.00381026 0)
(0.034303 -0.00351676 0)
(0.230858 -0.0658233 0)
(0.12429 -0.0339984 0)
(0.0882081 -0.00993318 0)
(0.0569644 -0.00534992 0)
(0.0418346 -0.00258675 0)
(0.0314004 -0.00171742 0)
(0.0243141 -0.00121256 0)
(0.019047 -0.000902759 0)
(0.0150237 -0.000852547 0)
(0.0110402 -0.000965684 0)
(0.114042 -0.033602 0)
(0.0191915 -0.00838539 0)
(0.0174185 0.000869486 0)
(0.00703588 4.45374e-05 0)
(0.0054307 0.000303503 0)
(0.00338486 0.000132854 0)
(0.00222206 0.000100131 0)
(0.00131135 8.80848e-05 0)
(0.000789252 5.0266e-06 0)
(-0.000422828 -0.000390957 0)
(0.295691 -0.06378 0)
(0.295774 -0.0635377 0)
(0.295852 -0.0633165 0)
(0.295928 -0.0631157 0)
(0.296003 -0.0629344 0)
(0.296078 -0.0627715 0)
(0.296153 -0.062626 0)
(0.296229 -0.0624968 0)
(0.296304 -0.062383 0)
(0.29638 -0.0622834 0)
(0.296456 -0.0621972 0)
(0.296531 -0.062123 0)
(0.296607 -0.0620605 0)
(0.29668 -0.0620079 0)
(0.296752 -0.0619661 0)
(0.29682 -0.0619316 0)
(0.296886 -0.0619083 0)
(0.296943 -0.0618897 0)
(0.296993 -0.0618831 0)
(0.29704 -0.0618836 0)
(0.296265 -0.0639176 0)
(0.296328 -0.0636758 0)
(0.296394 -0.0634558 0)
(0.296461 -0.0632558 0)
(0.296529 -0.0630752 0)
(0.296599 -0.0629132 0)
(0.29667 -0.0627688 0)
(0.296742 -0.0626407 0)
(0.296816 -0.0625279 0)
(0.296889 -0.0624288 0)
(0.296962 -0.0623425 0)
(0.297032 -0.0622672 0)
(0.297101 -0.0622026 0)
(0.297163 -0.0621457 0)
(0.297223 -0.0620987 0)
(0.297267 -0.0620546 0)
(0.297312 -0.0620228 0)
(0.297325 -0.0619847 0)
(0.297353 -0.0619689 0)
(0.297318 -0.0619286 0)
(0.296986 -0.064003 0)
(0.297043 -0.063761 0)
(0.297103 -0.0635416 0)
(0.297167 -0.0633435 0)
(0.297232 -0.0631653 0)
(0.297298 -0.0630059 0)
(0.297366 -0.0628636 0)
(0.297432 -0.062737 0)
(0.297497 -0.0626243 0)
(0.297559 -0.0625238 0)
(0.297615 -0.062434 0)
(0.297663 -0.0623527 0)
(0.297703 -0.0622796 0)
(0.297726 -0.0622104 0)
(0.297741 -0.0621489 0)
(0.297721 -0.0620834 0)
(0.297708 -0.0620316 0)
(0.297615 -0.0619579 0)
(0.297587 -0.0619219 0)
(0.297358 -0.0618192 0)
(0.297864 -0.0640827 0)
(0.29792 -0.0638443 0)
(0.297978 -0.0636286 0)
(0.298036 -0.0634337 0)
(0.298093 -0.0632577 0)
(0.298147 -0.0630987 0)
(0.298195 -0.0629548 0)
(0.298235 -0.0628237 0)
(0.298266 -0.0627035 0)
(0.298282 -0.0625919 0)
(0.298283 -0.0624872 0)
(0.298261 -0.0623864 0)
(0.298219 -0.0622894 0)
(0.29814 -0.0621904 0)
(0.298044 -0.0620953 0)
(0.297882 -0.061987 0)
(0.297734 -0.0618936 0)
(0.297433 -0.0617569 0)
(0.297282 -0.0616813 0)
(0.296699 -0.061474 0)
(0.298955 -0.0641654 0)
(0.298996 -0.0639262 0)
(0.299033 -0.0637079 0)
(0.299061 -0.0635078 0)
(0.299076 -0.0633234 0)
(0.299075 -0.0631522 0)
(0.299054 -0.0629917 0)
(0.29901 -0.0628393 0)
(0.298938 -0.0626925 0)
(0.298833 -0.0625486 0)
(0.298692 -0.0624056 0)
(0.298506 -0.0622601 0)
(0.29828 -0.0621122 0)
(0.29799 -0.0619549 0)
(0.297668 -0.061796 0)
(0.297236 -0.0616132 0)
(0.296831 -0.0614461 0)
(0.29617 -0.0612101 0)
(0.295792 -0.0610666 0)
(0.294632 -0.060703 0)
(0.30023 -0.0642198 0)
(0.300204 -0.0639629 0)
(0.300156 -0.0637226 0)
(0.300078 -0.0634954 0)
(0.299966 -0.0632783 0)
(0.299813 -0.0630683 0)
(0.299616 -0.0628624 0)
(0.299369 -0.0626576 0)
(0.299067 -0.0624512 0)
(0.298704 -0.0622404 0)
(0.298277 -0.0620229 0)
(0.297776 -0.0617955 0)
(0.297207 -0.0615582 0)
(0.296541 -0.0613039 0)
(0.295823 -0.0610415 0)
(0.294948 -0.0607455 0)
(0.294116 -0.0604649 0)
(0.292908 -0.0600912 0)
(0.29216 -0.0598445 0)
(0.290169 -0.0592754 0)
(0.301428 -0.0641385 0)
(0.30121 -0.0638288 0)
(0.300938 -0.0635293 0)
(0.300606 -0.0632358 0)
(0.300205 -0.0629448 0)
(0.29973 -0.0626532 0)
(0.299176 -0.0623577 0)
(0.298538 -0.0620554 0)
(0.297812 -0.0617436 0)
(0.296991 -0.0614197 0)
(0.296073 -0.0610817 0)
(0.29505 -0.0607271 0)
(0.293929 -0.0603557 0)
(0.292681 -0.0599619 0)
(0.291361 -0.0595538 0)
(0.289845 -0.0591074 0)
(0.288388 -0.0586737 0)
(0.286443 -0.0581327 0)
(0.285163 -0.0577476 0)
(0.282108 -0.0569435 0)
(0.301846 -0.0636916 0)
(0.301218 -0.063275 0)
(0.300496 -0.0628613 0)
(0.299673 -0.0624465 0)
(0.298742 -0.0620268 0)
(0.297699 -0.0615991 0)
(0.296541 -0.0611605 0)
(0.295264 -0.0607085 0)
(0.293866 -0.0602407 0)
(0.292343 -0.0597556 0)
(0.290697 -0.0592516 0)
(0.28892 -0.0587275 0)
(0.287025 -0.0581831 0)
(0.284986 -0.0576156 0)
(0.282861 -0.0570304 0)
(0.280526 -0.0564105 0)
(0.278264 -0.0557984 0)
(0.275451 -0.0550838 0)
(0.273486 -0.0545359 0)
(0.269244 -0.0535082 0)
(0.30016 -0.0625024 0)
(0.298816 -0.0619137 0)
(0.29734 -0.0613238 0)
(0.295725 -0.0607284 0)
(0.29397 -0.0601241 0)
(0.292073 -0.0595081 0)
(0.290034 -0.0588782 0)
(0.287855 -0.0582327 0)
(0.285537 -0.0575702 0)
(0.283081 -0.05689 0)
(0.280492 -0.0561918 0)
(0.277769 -0.0554759 0)
(0.274926 -0.0547425 0)
(0.271949 -0.0539919 0)
(0.268889 -0.0532264 0)
(0.265646 -0.0524389 0)
(0.262483 -0.0516546 0)
(0.258791 -0.0507958 0)
(0.256057 -0.050087 0)
(0.250704 -0.0489046 0)
(0.294373 -0.0600768 0)
(0.291975 -0.0592613 0)
(0.289424 -0.0584471 0)
(0.28672 -0.0576297 0)
(0.283866 -0.0568063 0)
(0.280865 -0.0559746 0)
(0.277724 -0.0551331 0)
(0.274448 -0.0542809 0)
(0.271046 -0.0534178 0)
(0.267524 -0.0525444 0)
(0.26389 -0.0516614 0)
(0.260152 -0.0507705 0)
(0.256324 -0.0498729 0)
(0.252404 -0.048971 0)
(0.248432 -0.048065 0)
(0.244345 -0.0471567 0)
(0.240348 -0.0462523 0)
(0.23594 -0.0453184 0)
(0.232483 -0.0444915 0)
(0.226345 -0.0432799 0)
(0.282062 -0.055915 0)
(0.278345 -0.0548588 0)
(0.274495 -0.0538162 0)
(0.27052 -0.0527822 0)
(0.266425 -0.0517539 0)
(0.262221 -0.0507297 0)
(0.25792 -0.0497083 0)
(0.253533 -0.0486894 0)
(0.249072 -0.0476736 0)
(0.244548 -0.0466623 0)
(0.239973 -0.0456572 0)
(0.235358 -0.0446607 0)
(0.230719 -0.0436747 0)
(0.22606 -0.0427023 0)
(0.22141 -0.0417432 0)
(0.216741 -0.040803 0)
(0.21218 -0.0398758 0)
(0.207394 -0.0389648 0)
(0.20343 -0.0381079 0)
(0.197046 -0.037021 0)
(0.260999 -0.0497057 0)
(0.255918 -0.048467 0)
(0.250783 -0.0472641 0)
(0.245603 -0.0460905 0)
(0.240386 -0.044943 0)
(0.235147 -0.0438191 0)
(0.229899 -0.0427171 0)
(0.224658 -0.0416364 0)
(0.219433 -0.0405775 0)
(0.214238 -0.0395416 0)
(0.209082 -0.0385305 0)
(0.203976 -0.0375461 0)
(0.19893 -0.0365902 0)
(0.193952 -0.0356648 0)
(0.189055 -0.0347702 0)
(0.184233 -0.0339106 0)
(0.179545 -0.0330781 0)
(0.174821 -0.0322906 0)
(0.170711 -0.0315184 0)
(0.16468 -0.0306849 0)
(0.230111 -0.0415593 0)
(0.223971 -0.0402842 0)
(0.217915 -0.0390729 0)
(0.211944 -0.0379161 0)
(0.206061 -0.0368084 0)
(0.200279 -0.0357449 0)
(0.194609 -0.0347215 0)
(0.189059 -0.0337357 0)
(0.183633 -0.0327865 0)
(0.178336 -0.0318737 0)
(0.173169 -0.0309975 0)
(0.168134 -0.0301584 0)
(0.163234 -0.0293569 0)
(0.158469 -0.0285942 0)
(0.153839 -0.0278703 0)
(0.149344 -0.0271874 0)
(0.144998 -0.0265418 0)
(0.140746 -0.0259477 0)
(0.136884 -0.0253572 0)
(0.131674 -0.0248298 0)
(0.190461 -0.0321728 0)
(0.183948 -0.0310789 0)
(0.177689 -0.0300739 0)
(0.171662 -0.0291432 0)
(0.165858 -0.028276 0)
(0.160278 -0.0274615 0)
(0.154919 -0.0266911 0)
(0.149773 -0.0259591 0)
(0.144829 -0.0252617 0)
(0.140075 -0.0245964 0)
(0.1355 -0.0239622 0)
(0.131095 -0.0233586 0)
(0.126851 -0.0227864 0)
(0.122758 -0.0222468 0)
(0.118811 -0.0217415 0)
(0.115005 -0.0212731 0)
(0.111339 -0.0208433 0)
(0.107811 -0.0204591 0)
(0.104485 -0.0200885 0)
(0.100298 -0.0198315 0)
(0.14564 -0.02277 0)
(0.139659 -0.0220912 0)
(0.134089 -0.0215112 0)
(0.128865 -0.021005 0)
(0.123955 -0.02055 0)
(0.119338 -0.0201267 0)
(0.114985 -0.0197216 0)
(0.110865 -0.0193266 0)
(0.10695 -0.0189377 0)
(0.103215 -0.0185537 0)
(0.0996373 -0.0181758 0)
(0.0962008 -0.0178067 0)
(0.0928915 -0.0174508 0)
(0.0896993 -0.0171129 0)
(0.0866174 -0.0167988 0)
(0.0836409 -0.0165147 0)
(0.0807702 -0.016267 0)
(0.0780206 -0.0160595 0)
(0.075334 -0.015881 0)
(0.0721242 -0.015804 0)
(0.100921 -0.0147248 0)
(0.096286 -0.0146414 0)
(0.0921582 -0.0146349 0)
(0.0884087 -0.0146587 0)
(0.0849717 -0.0146744 0)
(0.0817954 -0.0146569 0)
(0.078827 -0.0145949 0)
(0.0760197 -0.0144869 0)
(0.0733372 -0.0143372 0)
(0.0707529 -0.0141536 0)
(0.0682482 -0.0139458 0)
(0.0658106 -0.0137247 0)
(0.0634323 -0.0135011 0)
(0.0611098 -0.0132858 0)
(0.0588421 -0.0130892 0)
(0.05663 -0.0129214 0)
(0.0544806 -0.0127914 0)
(0.05241 -0.0127023 0)
(0.0503162 -0.0126496 0)
(0.0478891 -0.0126528 0)
(0.0614105 -0.00904319 0)
(0.0585671 -0.00964302 0)
(0.0562346 -0.0102315 0)
(0.0542021 -0.0107361 0)
(0.0523695 -0.0111151 0)
(0.0506637 -0.011358 0)
(0.0490247 -0.0114753 0)
(0.0474119 -0.011487 0)
(0.0458016 -0.0114159 0)
(0.0441826 -0.0112851 0)
(0.0425515 -0.0111157 0)
(0.0409096 -0.0109267 0)
(0.0392619 -0.0107349 0)
(0.0376145 -0.010555 0)
(0.0359745 -0.0104 0)
(0.0343485 -0.0102808 0)
(0.0327487 -0.0102058 0)
(0.0311885 -0.0101775 0)
(0.029566 -0.0101849 0)
(0.0276882 -0.0101846 0)
(0.030506 -0.00602539 0)
(0.0294398 -0.00730218 0)
(0.0287714 -0.00836074 0)
(0.0282166 -0.00913548 0)
(0.0276673 -0.00962862 0)
(0.0270589 -0.00988138 0)
(0.0263544 -0.00994791 0)
(0.0255423 -0.00987977 0)
(0.0246271 -0.00972084 0)
(0.0236211 -0.00950685 0)
(0.0225401 -0.00926622 0)
(0.0214001 -0.00902134 0)
(0.0202166 -0.00879001 0)
(0.0190034 -0.00858651 0)
(0.0177721 -0.00842223 0)
(0.0165314 -0.00830553 0)
(0.0152926 -0.00824105 0)
(0.014069 -0.00823047 0)
(0.0127972 -0.00826319 0)
(0.0112544 -0.00822294 0)
(0.00961092 -0.005175 0)
(0.00984542 -0.00708563 0)
(0.0102751 -0.00839212 0)
(0.0105803 -0.009139 0)
(0.0106907 -0.00945565 0)
(0.0105863 -0.00947271 0)
(0.0102745 -0.00929763 0)
(0.00978207 -0.00900901 0)
(0.00914124 -0.0086619 0)
(0.00838327 -0.00829492 0)
(0.00753609 -0.00793491 0)
(0.00662337 -0.00760061 0)
(0.0056644 -0.00730525 0)
(0.00467417 -0.00705828 0)
(0.00366362 -0.00686628 0)
(0.00263989 -0.00673304 0)
(0.00160683 -0.0066584 0)
(0.00056628 -0.00663684 0)
(-0.000455125 -0.00666073 0)
(-0.00181266 -0.00671398 0)
(-0.00116224 -0.00655666 0)
(-0.000699721 -0.00853334 0)
(-7.20844e-05 -0.00951154 0)
(0.000261887 -0.00980023 0)
(0.000294763 -0.00966291 0)
(6.6544e-05 -0.00928594 0)
(-0.000374119 -0.00878955 0)
(-0.000974781 -0.00824911 0)
(-0.00169159 -0.00771119 0)
(-0.00249038 -0.00720393 0)
(-0.00334417 -0.00674402 0)
(-0.00423261 -0.00634107 0)
(-0.00514104 -0.00600043 0)
(-0.00605973 -0.00572464 0)
(-0.00698335 -0.00551432 0)
(-0.00790916 -0.00536838 0)
(-0.00883256 -0.00528253 0)
(-0.00975551 -0.00524568 0)
(-0.0107457 -0.00525369 0)
(-0.0118945 -0.0053773 0)
(-0.000859147 -0.00469611 0)
(-0.00201091 -0.00817098 0)
(-0.00283883 -0.00934225 0)
(-0.00361141 -0.00946849 0)
(-0.00442279 -0.00910253 0)
(-0.00529761 -0.00852122 0)
(-0.00622962 -0.00786622 0)
(-0.00720061 -0.00721258 0)
(-0.0081918 -0.00660026 0)
(-0.00918763 -0.00604896 0)
(-0.0101764 -0.00556734 0)
(-0.0111503 -0.0051581 0)
(-0.0121053 -0.00482073 0)
(-0.0130404 -0.00455289 0)
(-0.0139577 -0.00435111 0)
(-0.0148602 -0.00421089 0)
(-0.015746 -0.00412561 0)
(-0.0166272 -0.00408573 0)
(-0.0175967 -0.00408915 0)
(-0.018643 -0.0041477 0)
(-0.000525174 -0.00340132 0)
(-0.00187194 -0.00660445 0)
(-0.00355028 -0.00785339 0)
(-0.00517286 -0.00805178 0)
(-0.0067189 -0.00772277 0)
(-0.00819633 -0.0071618 0)
(-0.00960581 -0.00652713 0)
(-0.0109464 -0.00590079 0)
(-0.012218 -0.00532332 0)
(-0.0134217 -0.0048126 0)
(-0.0145603 -0.00437454 0)
(-0.0156381 -0.00400895 0)
(-0.016661 -0.00371271 0)
(-0.0176365 -0.00348122 0)
(-0.0185732 -0.00330914 0)
(-0.0194789 -0.00319045 0)
(-0.0203559 -0.00311782 0)
(-0.021223 -0.00308293 0)
(-0.0221775 -0.003082 0)
(-0.0231679 -0.00310961 0)
(-0.000350531 -0.00218437 0)
(-0.00168062 -0.00459569 0)
(-0.00373947 -0.00565358 0)
(-0.00587264 -0.00588082 0)
(-0.00793883 -0.00565814 0)
(-0.00988474 -0.00522662 0)
(-0.0116873 -0.0047249 0)
(-0.0133437 -0.0042274 0)
(-0.0148611 -0.00377103 0)
(-0.0162513 -0.00337164 0)
(-0.0175275 -0.00303389 0)
(-0.0187041 -0.00275676 0)
(-0.0197953 -0.00253649 0)
(-0.0208152 -0.00236811 0)
(-0.0217784 -0.00224603 0)
(-0.0226966 -0.00216424 0)
(-0.0235753 -0.00211592 0)
(-0.0244384 -0.00209406 0)
(-0.0253832 -0.00209438 0)
(-0.0263369 -0.00210962 0)
(-0.000275166 -0.00114182 0)
(-0.00156906 -0.00250031 0)
(-0.00377326 -0.00312909 0)
(-0.00616336 -0.0032753 0)
(-0.00852873 -0.00314656 0)
(-0.0107655 -0.00288576 0)
(-0.0128242 -0.00257997 0)
(-0.0146927 -0.0022777 0)
(-0.0163786 -0.00200341 0)
(-0.0178983 -0.00176759 0)
(-0.0192716 -0.00157305 0)
(-0.0205187 -0.00141861 0)
(-0.0216593 -0.00130116 0)
(-0.0227126 -0.00121662 0)
(-0.0236965 -0.00116046 0)
(-0.0246256 -0.00112784 0)
(-0.0255076 -0.00111348 0)
(-0.0263693 -0.00111216 0)
(-0.0273072 -0.00111998 0)
(-0.0282383 -0.00113112 0)
(-0.00024872 -0.000174534 0)
(-0.0015165 -0.000389134 0)
(-0.00375192 -0.000472861 0)
(-0.00622555 -0.000465367 0)
(-0.00870114 -0.000406632 0)
(-0.0110519 -0.000326579 0)
(-0.0132142 -0.000244427 0)
(-0.0151699 -0.000171121 0)
(-0.0169254 -0.000112046 0)
(-0.0184983 -6.91443e-05 0)
(-0.0199109 -4.233e-05 0)
(-0.0211859 -3.03431e-05 0)
(-0.0223456 -3.12234e-05 0)
(-0.0234111 -4.25633e-05 0)
(-0.0244019 -6.16403e-05 0)
(-0.0253338 -8.54919e-05 0)
(-0.0262153 -0.000111002 0)
(-0.0270742 -0.000135084 0)
(-0.0280062 -0.000154673 0)
(-0.0289253 -0.000165849 0)
(-0.000250503 0.000770189 0)
(-0.00150214 0.00170407 0)
(-0.00369352 0.00218597 0)
(-0.0061116 0.00236511 0)
(-0.0085284 0.00236309 0)
(-0.0108228 0.00226381 0)
(-0.0129344 0.0021189 0)
(-0.014846 0.00195768 0)
(-0.0165641 0.00179564 0)
(-0.0181058 0.00164033 0)
(-0.0194927 0.00149508 0)
(-0.0207468 0.00136129 0)
(-0.0218898 0.00123962 0)
(-0.0229418 0.0011306 0)
(-0.0239221 0.00103495 0)
(-0.0248456 0.00095351 0)
(-0.0257205 0.000887111 0)
(-0.0265735 0.000836608 0)
(-0.0274998 0.000804175 0)
(-0.0284155 0.000791953 0)
(-0.000279813 0.0017251 0)
(-0.00151833 0.00374301 0)
(-0.00357878 0.00472895 0)
(-0.00579541 0.00504384 0)
(-0.00798176 0.00497117 0)
(-0.0100496 0.00470063 0)
(-0.0119572 0.00434618 0)
(-0.0136951 0.00397129 0)
(-0.0152705 0.00360876 0)
(-0.0166981 0.00327391 0)
(-0.0179954 0.00297271 0)
(-0.0191807 0.00270661 0)
(-0.0202717 0.00247516 0)
(-0.0212854 0.00227733 0)
(-0.0222379 0.00211211 0)
(-0.0231423 0.00197857 0)
(-0.0240047 0.00187548 0)
(-0.0248492 0.00180164 0)
(-0.0257697 0.00175869 0)
(-0.026691 0.00174754 0)
(-0.00034731 0.002739 0)
(-0.00155439 0.00567272 0)
(-0.00333305 0.00700768 0)
(-0.00515748 0.00737632 0)
(-0.0069205 0.00721593 0)
(-0.00858792 0.00679815 0)
(-0.0101454 0.00627792 0)
(-0.0115913 0.00573884 0)
(-0.012931 0.00522337 0)
(-0.0141729 0.00475113 0)
(-0.015327 0.00432966 0)
(-0.0164039 0.00396061 0)
(-0.0174148 0.00364307 0)
(-0.0183707 0.00337526 0)
(-0.0192832 0.00315527 0)
(-0.0201616 0.00298119 0)
(-0.0210089 0.00285038 0)
(-0.0218445 0.00275993 0)
(-0.0227605 0.00271169 0)
(-0.0236987 0.00270718 0)
(-0.000446605 0.00386741 0)
(-0.00153416 0.00735487 0)
(-0.0027367 0.00878885 0)
(-0.00390307 0.00911961 0)
(-0.00503156 0.0088829 0)
(-0.00613818 0.00838033 0)
(-0.00722626 0.00777491 0)
(-0.00829246 0.00715274 0)
(-0.00933223 0.00655782 0)
(-0.010342 0.00601122 0)
(-0.01132 0.00552178 0)
(-0.0122664 0.00509223 0)
(-0.0131832 0.00472254 0)
(-0.0140738 0.00441154 0)
(-0.0149435 0.00415774 0)
(-0.0157969 0.00395934 0)
(-0.0166332 0.00381326 0)
(-0.0174646 0.00371531 0)
(-0.0183797 0.00366868 0)
(-0.0193508 0.00368012 0)
(-0.000334059 0.00461614 0)