x,y,z,p
0,0,0,0.000432376
0,0.1,0,0.000694993
0,0.2,0,0.000957609
0,0.3,0,0.00122023
0,0.4,0,0.00148284
0,0.5,0,0.00175499
0,0.6,0,0.00210024
0,0.7,0,0.00244548
0,0.8,0,0.00279072
0,0.9,0,0.00313596
0,1,0,0.00347878
0,1.1,0,0.0038135
0,1.2,0,0.00414822
0,1.3,0,0.00448295
0,1.4,0,0.00481767
0,1.5,0,0.00514832
0,1.6,0,0.00547127
0,1.7,0,0.00579422
0,1.8,0,0.00611717
0,1.9,0,0.00644012
0,2,0,0.00675694
0,2.1,0,0.0070666
0,2.2,0,0.00737626
0,2.3,0,0.00768592
0,2.4,0,0.00799558
0,2.5,0,0.00829499
0,2.6,0,0.00858687
0,2.7,0,0.00887875
0,2.8,0,0.00917064
0,2.9,0,0.00946252
0,3,0,0.00973764
0,3.1,0,0.0100053
0,3.2,0,0.010273
0,3.3,0,0.0105407
0,3.4,0,0.0108083
0,3.5,0,0.0110522
0,3.6,0,0.0112904
0,3.7,0,0.0115286
0,3.8,0,0.0117669
0,3.9,0,0.0120051
0,4,0,0.0122116
0,4.1,0,0.0124155
0,4.2,0,0.0126194
0,4.3,0,0.0128233
0,4.4,0,0.0130256
0,4.5,0,0.0131905
0,4.6,0,0.0133553
0,4.7,0,0.0135202
0,4.8,0,0.013685
0,4.9,0,0.0138432
0,5,0,0.0139646
0,5.1,0,0.014086
0,5.2,0,0.0142074
0,5.3,0,0.0143288
0,5.4,0,0.0144375
0,5.5,0,0.014512
0,5.6,0,0.0145864
0,5.7,0,0.0146608
0,5.8,0,0.0147352
0,5.9,0,0.0147908
0,6,0,0.014816
0,6.1,0,0.0148413
0,6.2,0,0.0148665
0,6.3,0,0.0148918
0,6.4,0,0.0148921
0,6.5,0,0.0148675
0,6.6,0,0.0148429
0,6.7,0,0.0148182
0,6.8,0,0.0147936
0,6.9,0,0.0147388
0,7,0,0.0146651
0,7.1,0,0.0145914
0,7.2,0,0.0145177
0,7.3,0,0.014444
0,7.4,0,0.014336
0,7.5,0,0.0142153
0,7.6,0,0.0140946
0,7.7,0,0.013974
0,7.8,0,0.0138533
0,7.9,0,0.0136957
0,8,0,0.0135314
0,8.1,0,0.0133671
0,8.2,0,0.0132028
0,8.3,0,0.0130385
0,8.4,0,0.0128365
0,8.5,0,0.012633
0,8.6,0,0.0124295
0,8.7,0,0.012226
0,8.8,0,0.0120199
0,8.9,0,0.011782
0,9,0,0.0115442
0,9.1,0,0.0113064
0,9.2,0,0.0110686
0,9.3,0,0.0108252
0,9.4,0,0.0105581
0,9.5,0,0.010291
0,9.6,0,0.010024
0,9.7,0,0.0097569
0,9.8,0,0.00948239
0,9.9,0,0.00919117
0,10,0,0.00889994
0,10.1,0,0.00860872
0,10.2,0,0.00831749
0,10.3,0,0.00801816
0,10.4,0,0.00770778
0,10.5,0,0.0073974
0,10.6,0,0.00708702
0,10.7,0,0.00677664
0,10.8,0,0.00645845
0,10.9,0,0.00613356
0,11,0,0.00580868
0,11.1,0,0.00548379
0,11.2,0,0.00515891
0,11.3,0,0.00482676
0,11.4,0,0.00449076
0,11.5,0,0.00415476
0,11.6,0,0.00381876
0,11.7,0,0.00348276
0,11.8,0,0.00313933
0,11.9,0,0.00279367
0,12,0,0.00244802
0,12.1,0,0.00210236
0,12.2,0,0.0017567
0,12.3,0,0.00148433
0,12.4,0,0.00122152
0,12.5,0,0.000958704
0,12.6,0,0.000695891
0,12.7,0,0.000433078
0.1,0,0,0.000345901
0.1,0.1,0,0.000693525
0.1,0.2,0,0.000956142
0.1,0.3,0,0.00121876
0.1,0.4,0,0.00148137
0.1,0.5,0,0.00175263
0.1,0.6,0,0.00209888
0.1,0.7,0,0.00244412
0.1,0.8,0,0.00278936
0.1,0.9,0,0.00313461
0.1,1,0,0.00347837
0.1,1.1,0,0.00381592
0.1,1.2,0,0.00415064
0.1,1.3,0,0.00448536
0.1,1.4,0,0.00482008
0.1,1.5,0,0.00515221
0.1,1.6,0,0.00547776
0.1,1.7,0,0.00580071
0.1,1.8,0,0.00612366
0.1,1.9,0,0.00644661
0.1,2,0,0.00676462
0.1,2.1,0,0.00707561
0.1,2.2,0,0.00738527
0.1,2.3,0,0.00769494
0.1,2.4,0,0.0080046
0.1,2.5,0,0.00830548
0.1,2.6,0,0.00859839
0.1,2.7,0,0.00889027
0.1,2.8,0,0.00918215
0.1,2.9,0,0.00947404
0.1,3,0,0.00975087
0.1,3.1,0,0.0100192
0.1,3.2,0,0.0102869
0.1,3.3,0,0.0105546
0.1,3.4,0,0.0108223
0.1,3.5,0,0.0110682
0.1,3.6,0,0.0113069
0.1,3.7,0,0.0115451
0.1,3.8,0,0.0117833
0.1,3.9,0,0.0120215
0.1,4,0,0.0122304
0.1,4.1,0,0.0124344
0.1,4.2,0,0.0126383
0.1,4.3,0,0.0128422
0.1,4.4,0,0.0130446
0.1,4.5,0,0.0132115
0.1,4.6,0,0.0133763
0.1,4.7,0,0.0135412
0.1,4.8,0,0.013706
0.1,4.9,0,0.0138644
0.1,5,0,0.0139871
0.1,5.1,0,0.0141085
0.1,5.2,0,0.0142299
0.1,5.3,0,0.0143513
0.1,5.4,0,0.0144604
0.1,5.5,0,0.0145355
0.1,5.6,0,0.0146099
0.1,5.7,0,0.0146844
0.1,5.8,0,0.0147588
0.1,5.9,0,0.0148145
0.1,6,0,0.01484
0.1,6.1,0,0.0148652
0.1,6.2,0,0.0148905
0.1,6.3,0,0.0149157
0.1,6.4,0,0.0149159
0.1,6.5,0,0.0148911
0.1,6.6,0,0.0148664
0.1,6.7,0,0.0148418
0.1,6.8,0,0.0148172
0.1,6.9,0,0.0147617
0.1,7,0,0.0146876
0.1,7.1,0,0.0146139
0.1,7.2,0,0.0145402
0.1,7.3,0,0.0144665
0.1,7.4,0,0.0143572
0.1,7.5,0,0.0142361
0.1,7.6,0,0.0141155
0.1,7.7,0,0.0139948
0.1,7.8,0,0.0138741
0.1,7.9,0,0.0137148
0.1,8,0,0.0135502
0.1,8.1,0,0.0133859
0.1,8.2,0,0.0132216
0.1,8.3,0,0.0130573
0.1,8.4,0,0.0128531
0.1,8.5,0,0.0126496
0.1,8.6,0,0.0124461
0.1,8.7,0,0.0122426
0.1,8.8,0,0.0120363
0.1,8.9,0,0.0117962
0.1,9,0,0.0115583
0.1,9.1,0,0.0113205
0.1,9.2,0,0.0110827
0.1,9.3,0,0.0108388
0.1,9.4,0,0.0105697
0.1,9.5,0,0.0103026
0.1,9.6,0,0.0100355
0.1,9.7,0,0.00976845
0.1,9.8,0,0.00949316
0.1,9.9,0,0.00920023
0.1,10,0,0.008909
0.1,10.1,0,0.00861778
0.1,10.2,0,0.00832655
0.1,10.3,0,0.00802618
0.1,10.4,0,0.00771442
0.1,10.5,0,0.00740404
0.1,10.6,0,0.00709366
0.1,10.7,0,0.00678328
0.1,10.8,0,0.00646381
0.1,10.9,0,0.00613788
0.1,11,0,0.00581299
0.1,11.1,0,0.00548811
0.1,11.2,0,0.00516322
0.1,11.3,0,0.00482957
0.1,11.4,0,0.00449283
0.1,11.5,0,0.00415683
0.1,11.6,0,0.00382083
0.1,11.7,0,0.00348483
0.1,11.8,0,0.0031414
0.1,11.9,0,0.00279575
0.1,12,0,0.00245009
0.1,12.1,0,0.00210443
0.1,12.2,0,0.00175894
0.1,12.3,0,0.0014861
0.1,12.4,0,0.00122328
0.1,12.5,0,0.000960471
0.1,12.6,0,0.000697658
0.1,12.7,0,0.000346462
0.2,0,0,0.000259426
0.2,0.1,0,0.000607677
0.2,0.2,0,0.000954674
0.2,0.3,0,0.00121729
0.2,0.4,0,0.00147991
0.2,0.5,0,0.00175014
0.2,0.6,0,0.00209653
0.2,0.7,0,0.00244277
0.2,0.8,0,0.00278801
0.2,0.9,0,0.00313325
0.2,1,0,0.0034771
0.2,1.1,0,0.00381558
0.2,1.2,0,0.00415306
0.2,1.3,0,0.00448778
0.2,1.4,0,0.0048225
0.2,1.5,0,0.00515468
0.2,1.6,0,0.00548175
0.2,1.7,0,0.00580721
0.2,1.8,0,0.00613016
0.2,1.9,0,0.00645311
0.2,2,0,0.00677111
0.2,2.1,0,0.00708336
0.2,2.2,0,0.00739429
0.2,2.3,0,0.00770395
0.2,2.4,0,0.00801361
0.2,2.5,0,0.00831449
0.2,2.6,0,0.00860894
0.2,2.7,0,0.00890179
0.2,2.8,0,0.00919367
0.2,2.9,0,0.00948555
0.2,3,0,0.00976238
0.2,3.1,0,0.0100325
0.2,3.2,0,0.0103008
0.2,3.3,0,0.0105685
0.2,3.4,0,0.0108362
0.2,3.5,0,0.0110822
0.2,3.6,0,0.011323
0.2,3.7,0,0.0115616
0.2,3.8,0,0.0117998
0.2,3.9,0,0.012038
0.2,4,0,0.0122468
0.2,4.1,0,0.0124532
0.2,4.2,0,0.0126572
0.2,4.3,0,0.0128611
0.2,4.4,0,0.0130635
0.2,4.5,0,0.0132305
0.2,4.6,0,0.0133973
0.2,4.7,0,0.0135621
0.2,4.8,0,0.013727
0.2,4.9,0,0.0138854
0.2,5,0,0.0140084
0.2,5.1,0,0.0141311
0.2,5.2,0,0.0142525
0.2,5.3,0,0.0143739
0.2,5.4,0,0.0144829
0.2,5.5,0,0.0145584
0.2,5.6,0,0.0146335
0.2,5.7,0,0.0147079
0.2,5.8,0,0.0147824
0.2,5.9,0,0.014838
0.2,6,0,0.0148637
0.2,6.1,0,0.0148892
0.2,6.2,0,0.0149144
0.2,6.3,0,0.0149397
0.2,6.4,0,0.0149398
0.2,6.5,0,0.0149148
0.2,6.6,0,0.01489
0.2,6.7,0,0.0148654
0.2,6.8,0,0.0148408
0.2,6.9,0,0.0147853
0.2,7,0,0.0147104
0.2,7.1,0,0.0146364
0.2,7.2,0,0.0145627
0.2,7.3,0,0.014489
0.2,7.4,0,0.0143797
0.2,7.5,0,0.0142573
0.2,7.6,0,0.0141363
0.2,7.7,0,0.0140156
0.2,7.8,0,0.0138949
0.2,7.9,0,0.0137356
0.2,8,0,0.0135693
0.2,8.1,0,0.0134048
0.2,8.2,0,0.0132405
0.2,8.3,0,0.0130762
0.2,8.4,0,0.012872
0.2,8.5,0,0.0126662
0.2,8.6,0,0.0124627
0.2,8.7,0,0.0122592
0.2,8.8,0,0.0120529
0.2,8.9,0,0.0118125
0.2,9,0,0.0115725
0.2,9.1,0,0.0113346
0.2,9.2,0,0.0110968
0.2,9.3,0,0.0108529
0.2,9.4,0,0.0105832
0.2,9.5,0,0.0103141
0.2,9.6,0,0.0100471
0.2,9.7,0,0.00978
0.2,9.8,0,0.00950471
0.2,9.9,0,0.00921093
0.2,10,0,0.00891806
0.2,10.1,0,0.00862684
0.2,10.2,0,0.00833561
0.2,10.3,0,0.00803524
0.2,10.4,0,0.00772238
0.2,10.5,0,0.00741068
0.2,10.6,0,0.0071003
0.2,10.7,0,0.00678992
0.2,10.8,0,0.00647045
0.2,10.9,0,0.00614318
0.2,11,0,0.0058173
0.2,11.1,0,0.00549242
0.2,11.2,0,0.00516753
0.2,11.3,0,0.00483388
0.2,11.4,0,0.00449559
0.2,11.5,0,0.00415891
0.2,11.6,0,0.00382291
0.2,11.7,0,0.00348691
0.2,11.8,0,0.00314348
0.2,11.9,0,0.00279782
0.2,12,0,0.00245216
0.2,12.1,0,0.00210666
0.2,12.2,0,0.00176119
0.2,12.3,0,0.00148786
0.2,12.4,0,0.00122505
0.2,12.5,0,0.000962237
0.2,12.6,0,0.000613415
0.2,12.7,0,0.000259847
0.3,0,0,0.000172951
0.3,0.1,0,0.000521201
0.3,0.2,0,0.000869452
0.3,0.3,0,0.00121582
0.3,0.4,0,0.00147844
0.3,0.5,0,0.00174764
0.3,0.6,0,0.00209404
0.3,0.7,0,0.00244044
0.3,0.8,0,0.00278665
0.3,0.9,0,0.0031319
0.3,1,0,0.00347583
0.3,1.1,0,0.00381431
0.3,1.2,0,0.00415279
0.3,1.3,0,0.0044902
0.3,1.4,0,0.00482492
0.3,1.5,0,0.00515714
0.3,1.6,0,0.00548422
0.3,1.7,0,0.00581129
0.3,1.8,0,0.00613665
0.3,1.9,0,0.0064596
0.3,2,0,0.00677761
0.3,2.1,0,0.00708985
0.3,2.2,0,0.00740209
0.3,2.3,0,0.00771296
0.3,2.4,0,0.00802262
0.3,2.5,0,0.00832351
0.3,2.6,0,0.00861795
0.3,2.7,0,0.00891239
0.3,2.8,0,0.00920518
0.3,2.9,0,0.00949707
0.3,3,0,0.0097739
0.3,3.1,0,0.010044
0.3,3.2,0,0.0103142
0.3,3.3,0,0.0105824
0.3,3.4,0,0.0108501
0.3,3.5,0,0.0110961
0.3,3.6,0,0.0113369
0.3,3.7,0,0.0115777
0.3,3.8,0,0.0118162
0.3,3.9,0,0.0120545
0.3,4,0,0.0122633
0.3,4.1,0,0.0124697
0.3,4.2,0,0.0126761
0.3,4.3,0,0.01288
0.3,4.4,0,0.0130825
0.3,4.5,0,0.0132494
0.3,4.6,0,0.0134164
0.3,4.7,0,0.0135831
0.3,4.8,0,0.013748
0.3,4.9,0,0.0139064
0.3,5,0,0.0140294
0.3,5.1,0,0.0141524
0.3,5.2,0,0.014275
0.3,5.3,0,0.0143964
0.3,5.4,0,0.0145054
0.3,5.5,0,0.0145809
0.3,5.6,0,0.0146564
0.3,5.7,0,0.0147315
0.3,5.8,0,0.0148059
0.3,5.9,0,0.0148616
0.3,6,0,0.0148872
0.3,6.1,0,0.0149129
0.3,6.2,0,0.0149384
0.3,6.3,0,0.0149636
0.3,6.4,0,0.0149638
0.3,6.5,0,0.0149388
0.3,6.6,0,0.0149138
0.3,6.7,0,0.014889
0.3,6.8,0,0.0148644
0.3,6.9,0,0.0148089
0.3,7,0,0.014734
0.3,7.1,0,0.0146592
0.3,7.2,0,0.0145851
0.3,7.3,0,0.0145114
0.3,7.4,0,0.0144022
0.3,7.5,0,0.0142798
0.3,7.6,0,0.0141574
0.3,7.7,0,0.0140364
0.3,7.8,0,0.0139157
0.3,7.9,0,0.0137564
0.3,8,0,0.0135901
0.3,8.1,0,0.0134238
0.3,8.2,0,0.0132594
0.3,8.3,0,0.013095
0.3,8.4,0,0.0128908
0.3,8.5,0,0.012685
0.3,8.6,0,0.0124793
0.3,8.7,0,0.0122758
0.3,8.8,0,0.0120694
0.3,8.9,0,0.0118291
0.3,9,0,0.0115887
0.3,9.1,0,0.0113487
0.3,9.2,0,0.0111109
0.3,9.3,0,0.010867
0.3,9.4,0,0.0105973
0.3,9.5,0,0.0103276
0.3,9.6,0,0.0100586
0.3,9.7,0,0.00979155
0.3,9.8,0,0.00951626
0.3,9.9,0,0.00922249
0.3,10,0,0.00892871
0.3,10.1,0,0.0086359
0.3,10.2,0,0.00834467
0.3,10.3,0,0.00804429
0.3,10.4,0,0.00773144
0.3,10.5,0,0.00741858
0.3,10.6,0,0.00710694
0.3,10.7,0,0.00679656
0.3,10.8,0,0.00647709
0.3,10.9,0,0.00614982
0.3,11,0,0.00582255
0.3,11.1,0,0.00549673
0.3,11.2,0,0.00517185
0.3,11.3,0,0.0048382
0.3,11.4,0,0.00449991
0.3,11.5,0,0.00416162
0.3,11.6,0,0.00382498
0.3,11.7,0,0.00348898
0.3,11.8,0,0.00314555
0.3,11.9,0,0.0027999
0.3,12,0,0.00245439
0.3,12.1,0,0.00210892
0.3,12.2,0,0.00176344
0.3,12.3,0,0.00148963
0.3,12.4,0,0.00122682
0.3,12.5,0,0.000880368
0.3,12.6,0,0.000526799
0.3,12.7,0,0.000173231
0.4,0,0,8.64753e-05
0.4,0.1,0,0.000434726
0.4,0.2,0,0.000782977
0.4,0.3,0,0.00113123
0.4,0.4,0,0.00147697
0.4,0.5,0,0.00174515
0.4,0.6,0,0.00209155
0.4,0.7,0,0.00243794
0.4,0.8,0,0.00278434
0.4,0.9,0,0.00313054
0.4,1,0,0.00347456
0.4,1.1,0,0.00381304
0.4,1.2,0,0.00415152
0.4,1.3,0,0.00449
0.4,1.4,0,0.00482734
0.4,1.5,0,0.00515961
0.4,1.6,0,0.00548668
0.4,1.7,0,0.00581376
0.4,1.8,0,0.00614083
0.4,1.9,0,0.0064661
0.4,2,0,0.0067841
0.4,2.1,0,0.00709634
0.4,2.2,0,0.00740858
0.4,2.3,0,0.00772082
0.4,2.4,0,0.00803164
0.4,2.5,0,0.00833252
0.4,2.6,0,0.00862696
0.4,2.7,0,0.00892141
0.4,2.8,0,0.00921585
0.4,2.9,0,0.00950858
0.4,3,0,0.00978541
0.4,3.1,0,0.0100556
0.4,3.2,0,0.0103257
0.4,3.3,0,0.0105958
0.4,3.4,0,0.010864
0.4,3.5,0,0.01111
0.4,3.6,0,0.0113508
0.4,3.7,0,0.0115916
0.4,3.8,0,0.0118324
0.4,3.9,0,0.0120709
0.4,4,0,0.0122798
0.4,4.1,0,0.0124861
0.4,4.2,0,0.0126925
0.4,4.3,0,0.0128989
0.4,4.4,0,0.0131014
0.4,4.5,0,0.0132683
0.4,4.6,0,0.0134353
0.4,4.7,0,0.0136023
0.4,4.8,0,0.013769
0.4,4.9,0,0.0139274
0.4,5,0,0.0140504
0.4,5.1,0,0.0141733
0.4,5.2,0,0.0142963
0.4,5.3,0,0.0144189
0.4,5.4,0,0.014528
0.4,5.5,0,0.0146034
0.4,5.6,0,0.0146789
0.4,5.7,0,0.0147544
0.4,5.8,0,0.0148295
0.4,5.9,0,0.0148851
0.4,6,0,0.0149108
0.4,6.1,0,0.0149365
0.4,6.2,0,0.0149621
0.4,6.3,0,0.0149876
0.4,6.4,0,0.0149877
0.4,6.5,0,0.0149627
0.4,6.6,0,0.0149377
0.4,6.7,0,0.0149127
0.4,6.8,0,0.014888
0.4,6.9,0,0.0148325
0.4,7,0,0.0147576
0.4,7.1,0,0.0146828
0.4,7.2,0,0.0146079
0.4,7.3,0,0.0145339
0.4,7.4,0,0.0144246
0.4,7.5,0,0.0143023
0.4,7.6,0,0.0141799
0.4,7.7,0,0.0140575
0.4,7.8,0,0.0139366
0.4,7.9,0,0.0137773
0.4,8,0,0.013611
0.4,8.1,0,0.0134446
0.4,8.2,0,0.0132783
0.4,8.3,0,0.0131139
0.4,8.4,0,0.0129097
0.4,8.5,0,0.0127039
0.4,8.6,0,0.0124981
0.4,8.7,0,0.0122924
0.4,8.8,0,0.012086
0.4,8.9,0,0.0118457
0.4,9,0,0.0116053
0.4,9.1,0,0.011365
0.4,9.2,0,0.011125
0.4,9.3,0,0.0108811
0.4,9.4,0,0.0106114
0.4,9.5,0,0.0103417
0.4,9.6,0,0.010072
0.4,9.7,0,0.0098031
0.4,9.8,0,0.00952782
0.4,9.9,0,0.00923404
0.4,10,0,0.00894026
0.4,10.1,0,0.00864649
0.4,10.2,0,0.00835373
0.4,10.3,0,0.00805335
0.4,10.4,0,0.0077405
0.4,10.5,0,0.00742764
0.4,10.6,0,0.00711478
0.4,10.7,0,0.0068032
0.4,10.8,0,0.00648373
0.4,10.9,0,0.00615646
0.4,11,0,0.00582919
0.4,11.1,0,0.00550192
0.4,11.2,0,0.00517616
0.4,11.3,0,0.00484251
0.4,11.4,0,0.00450422
0.4,11.5,0,0.00416593
0.4,11.6,0,0.00382764
0.4,11.7,0,0.00349106
0.4,11.8,0,0.00314763
0.4,11.9,0,0.00280212
0.4,12,0,0.00245664
0.4,12.1,0,0.00211117
0.4,12.2,0,0.0017657
0.4,12.3,0,0.0014914
0.4,12.4,0,0.00114732
0.4,12.5,0,0.000793752
0.4,12.6,0,0.000440184
0.4,12.7,0,8.66156e-05
0.5,0,0,0
0.5,0.1,0,0.000348572
0.5,0.2,0,0.000697145
0.5,0.3,0,0.00104572
0.5,0.4,0,0.00139429
0.5,0.5,0,0.00174277
0.5,0.6,0,0.00208912
0.5,0.7,0,0.00243547
0.5,0.8,0,0.00278184
0.5,0.9,0,0.00312824
0.5,1,0,0.00347329
0.5,1.1,0,0.00381177
0.5,1.2,0,0.00415025
0.5,1.3,0,0.00448873
0.5,1.4,0,0.00482721
0.5,1.5,0,0.00516208
0.5,1.6,0,0.00548915
0.5,1.7,0,0.00581622
0.5,1.8,0,0.0061433
0.5,1.9,0,0.00647037
0.5,2,0,0.0067906
0.5,2.1,0,0.00710284
0.5,2.2,0,0.00741508
0.5,2.3,0,0.00772732
0.5,2.4,0,0.00803956
0.5,2.5,0,0.00834153
0.5,2.6,0,0.00863598
0.5,2.7,0,0.00893042
0.5,2.8,0,0.00922487
0.5,2.9,0,0.00951931
0.5,3,0,0.00979693
0.5,3.1,0,0.0100671
0.5,3.2,0,0.0103372
0.5,3.3,0,0.0106074
0.5,3.4,0,0.0108775
0.5,3.5,0,0.0111239
0.5,3.6,0,0.0113648
0.5,3.7,0,0.0116056
0.5,3.8,0,0.0118464
0.5,3.9,0,0.0120872
0.5,4,0,0.0122962
0.5,4.1,0,0.0125026
0.5,4.2,0,0.012709
0.5,4.3,0,0.0129154
0.5,4.4,0,0.0131203
0.5,4.5,0,0.0132872
0.5,4.6,0,0.0134542
0.5,4.7,0,0.0136212
0.5,4.8,0,0.0137881
0.5,4.9,0,0.0139483
0.5,5,0,0.0140713
0.5,5.1,0,0.0141943
0.5,5.2,0,0.0143173
0.5,5.3,0,0.0144403
0.5,5.4,0,0.0145505
0.5,5.5,0,0.014626
0.5,5.6,0,0.0147015
0.5,5.7,0,0.0147769
0.5,5.8,0,0.0148524
0.5,5.9,0,0.0149087
0.5,6,0,0.0149344
0.5,6.1,0,0.01496
0.5,6.2,0,0.0149857
0.5,6.3,0,0.0150113
0.5,6.4,0,0.0150117
0.5,6.5,0,0.0149867
0.5,6.6,0,0.0149617
0.5,6.7,0,0.0149367
0.5,6.8,0,0.0149117
0.5,6.9,0,0.014856
0.5,7,0,0.0147812
0.5,7.1,0,0.0147064
0.5,7.2,0,0.0146315
0.5,7.3,0,0.0145567
0.5,7.4,0,0.0144471
0.5,7.5,0,0.0143247
0.5,7.6,0,0.0142024
0.5,7.7,0,0.01408
0.5,7.8,0,0.0139577
0.5,7.9,0,0.0137981
0.5,8,0,0.0136318
0.5,8.1,0,0.0134655
0.5,8.2,0,0.0132992
0.5,8.3,0,0.0131328
0.5,8.4,0,0.0129286
0.5,8.5,0,0.0127227
0.5,8.6,0,0.0125169
0.5,8.7,0,0.0123111
0.5,8.8,0,0.0121026
0.5,8.9,0,0.0118623
0.5,9,0,0.0116219
0.5,9.1,0,0.0113816
0.5,9.2,0,0.0111412
0.5,9.3,0,0.0108952
0.5,9.4,0,0.0106255
0.5,9.5,0,0.0103558
0.5,9.6,0,0.0100862
0.5,9.7,0,0.00981647
0.5,9.8,0,0.00953937
0.5,9.9,0,0.00924559
0.5,10,0,0.00895181
0.5,10.1,0,0.00865804
0.5,10.2,0,0.00836426
0.5,10.3,0,0.00806241
0.5,10.4,0,0.00774956
0.5,10.5,0,0.0074367
0.5,10.6,0,0.00712384
0.5,10.7,0,0.00681099
0.5,10.8,0,0.00649037
0.5,10.9,0,0.0061631
0.5,11,0,0.00583583
0.5,11.1,0,0.00550857
0.5,11.2,0,0.0051813
0.5,11.3,0,0.00484682
0.5,11.4,0,0.00450853
0.5,11.5,0,0.00417024
0.5,11.6,0,0.00383195
0.5,11.7,0,0.00349366
0.5,11.8,0,0.00314985
0.5,11.9,0,0.00280439
0.5,12,0,0.00245892
0.5,12.1,0,0.00211346
0.5,12.2,0,0.001768
0.5,12.3,0,0.00141528
0.5,12.4,0,0.00106146
0.5,12.5,0,0.000707642
0.5,12.6,0,0.000353821
0.5,12.7,0,0
0.6,0,0,0
0.6,0.1,0,0.000351091
0.6,0.2,0,0.000699664
0.6,0.3,0,0.00104824
0.6,0.4,0,0.00139681
0.6,0.5,0,0.00174535
0.6,0.6,0,0.00209313
0.6,0.7,0,0.00243948
0.6,0.8,0,0.00278583
0.6,0.9,0,0.00313218
0.6,1,0,0.00347861
0.6,1.1,0,0.00382367
0.6,1.2,0,0.00416217
0.6,1.3,0,0.00450067
0.6,1.4,0,0.00483916
0.6,1.5,0,0.00517623
0.6,1.6,0,0.00550765
0.6,1.7,0,0.00583476
0.6,1.8,0,0.00616187
0.6,1.9,0,0.00648898
0.6,2,0,0.00681351
0.6,2.1,0,0.00713049
0.6,2.2,0,0.00744273
0.6,2.3,0,0.00775497
0.6,2.4,0,0.00806721
0.6,2.5,0,0.00837317
0.6,2.6,0,0.00867039
0.6,2.7,0,0.00896483
0.6,2.8,0,0.00925927
0.6,2.9,0,0.00955372
0.6,3,0,0.00983666
0.6,3.1,0,0.010109
0.6,3.2,0,0.0103791
0.6,3.3,0,0.0106493
0.6,3.4,0,0.0109194
0.6,3.5,0,0.0111722
0.6,3.6,0,0.0114143
0.6,3.7,0,0.0116551
0.6,3.8,0,0.0118959
0.6,3.9,0,0.0121368
0.6,4,0,0.0123527
0.6,4.1,0,0.0125595
0.6,4.2,0,0.0127659
0.6,4.3,0,0.0129723
0.6,4.4,0,0.0131774
0.6,4.5,0,0.0133506
0.6,4.6,0,0.0135176
0.6,4.7,0,0.0136846
0.6,4.8,0,0.0138516
0.6,4.9,0,0.0140126
0.6,5,0,0.0141399
0.6,5.1,0,0.0142629
0.6,5.2,0,0.0143859
0.6,5.3,0,0.0145089
0.6,5.4,0,0.01462
0.6,5.5,0,0.0146979
0.6,5.6,0,0.0147734
0.6,5.7,0,0.0148489
0.6,5.8,0,0.0149243
0.6,5.9,0,0.0149811
0.6,6,0,0.0150075
0.6,6.1,0,0.0150331
0.6,6.2,0,0.0150588
0.6,6.3,0,0.0150844
0.6,6.4,0,0.0150842
0.6,6.5,0,0.0150587
0.6,6.6,0,0.0150337
0.6,6.7,0,0.0150087
0.6,6.8,0,0.0149837
0.6,6.9,0,0.0149259
0.6,7,0,0.0148499
0.6,7.1,0,0.014775
0.6,7.2,0,0.0147002
0.6,7.3,0,0.0146253
0.6,7.4,0,0.0145119
0.6,7.5,0,0.0143883
0.6,7.6,0,0.0142659
0.6,7.7,0,0.0141435
0.6,7.8,0,0.0140212
0.6,7.9,0,0.013856
0.6,8,0,0.0136889
0.6,8.1,0,0.0135225
0.6,8.2,0,0.0133562
0.6,8.3,0,0.0131899
0.6,8.4,0,0.0129785
0.6,8.5,0,0.0127725
0.6,8.6,0,0.0125667
0.6,8.7,0,0.0123609
0.6,8.8,0,0.0121518
0.6,8.9,0,0.0119045
0.6,9,0,0.0116641
0.6,9.1,0,0.0114238
0.6,9.2,0,0.0111834
0.6,9.3,0,0.0109359
0.6,9.4,0,0.0106601
0.6,9.5,0,0.0103904
0.6,9.6,0,0.0101207
0.6,9.7,0,0.00985106
0.6,9.8,0,0.00957162
0.6,9.9,0,0.00927276
0.6,10,0,0.00897898
0.6,10.1,0,0.00868521
0.6,10.2,0,0.00839143
0.6,10.3,0,0.00808663
0.6,10.4,0,0.00776991
0.6,10.5,0,0.00745705
0.6,10.6,0,0.0071442
0.6,10.7,0,0.00683134
0.6,10.8,0,0.00650631
0.6,10.9,0,0.00617554
0.6,11,0,0.00584828
0.6,11.1,0,0.00552101
0.6,11.2,0,0.00519374
0.6,11.3,0,0.00485919
0.6,11.4,0,0.0045209
0.6,11.5,0,0.00418261
0.6,11.6,0,0.00384431
0.6,11.7,0,0.00350068
0.6,11.8,0,0.00315522
0.6,11.9,0,0.00280976
0.6,12,0,0.00246429
0.6,12.1,0,0.00211883
0.6,12.2,0,0.00176731
0.6,12.3,0,0.00141364
0.6,12.4,0,0.00105982
0.6,12.5,0,0.000706
0.6,12.6,0,0.000352179
0.6,12.7,0,0
0.7,0,0,0
0.7,0.1,0,0.000351109
0.7,0.2,0,0.000702182
0.7,0.3,0,0.00105075
0.7,0.4,0,0.00139933
0.7,0.5,0,0.00174787
0.7,0.6,0,0.00209573
0.7,0.7,0,0.00244348
0.7,0.8,0,0.00278983
0.7,0.9,0,0.00313619
0.7,1,0,0.0034826
0.7,1.1,0,0.00382947
0.7,1.2,0,0.00417428
0.7,1.3,0,0.00451278
0.7,1.4,0,0.00485127
0.7,1.5,0,0.00518837
0.7,1.6,0,0.00552219
0.7,1.7,0,0.00585339
0.7,1.8,0,0.0061805
0.7,1.9,0,0.00650761
0.7,2,0,0.00683219
0.7,2.1,0,0.00715362
0.7,2.2,0,0.00747038
0.7,2.3,0,0.00778262
0.7,2.4,0,0.00809486
0.7,2.5,0,0.00840082
0.7,2.6,0,0.00870219
0.7,2.7,0,0.00899924
0.7,2.8,0,0.00929368
0.7,2.9,0,0.00958813
0.7,3,0,0.00987107
0.7,3.1,0,0.0101489
0.7,3.2,0,0.010421
0.7,3.3,0,0.0106912
0.7,3.4,0,0.0109613
0.7,3.5,0,0.0112141
0.7,3.6,0,0.0114628
0.7,3.7,0,0.0117047
0.7,3.8,0,0.0119455
0.7,3.9,0,0.0121863
0.7,4,0,0.0124023
0.7,4.1,0,0.0126162
0.7,4.2,0,0.0128228
0.7,4.3,0,0.0130292
0.7,4.4,0,0.0132343
0.7,4.5,0,0.013408
0.7,4.6,0,0.013581
0.7,4.7,0,0.013748
0.7,4.8,0,0.013915
0.7,4.9,0,0.014076
0.7,5,0,0.0142043
0.7,5.1,0,0.0143315
0.7,5.2,0,0.0144545
0.7,5.3,0,0.0145775
0.7,5.4,0,0.0146886
0.7,5.5,0,0.0147675
0.7,5.6,0,0.0148453
0.7,5.7,0,0.0149208
0.7,5.8,0,0.0149963
0.7,5.9,0,0.015053
0.7,6,0,0.0150799
0.7,6.1,0,0.0151063
0.7,6.2,0,0.0151319
0.7,6.3,0,0.0151576
0.7,6.4,0,0.0151573
0.7,6.5,0,0.0151312
0.7,6.6,0,0.0151056
0.7,6.7,0,0.0150807
0.7,6.8,0,0.0150557
0.7,6.9,0,0.0149979
0.7,7,0,0.0149197
0.7,7.1,0,0.0148437
0.7,7.2,0,0.0147688
0.7,7.3,0,0.014694
0.7,7.4,0,0.0145806
0.7,7.5,0,0.014453
0.7,7.6,0,0.0143294
0.7,7.7,0,0.0142071
0.7,7.8,0,0.0140847
0.7,7.9,0,0.0139196
0.7,8,0,0.0137466
0.7,8.1,0,0.0135796
0.7,8.2,0,0.0134133
0.7,8.3,0,0.013247
0.7,8.4,0,0.0130355
0.7,8.5,0,0.0128223
0.7,8.6,0,0.0126165
0.7,8.7,0,0.0124107
0.7,8.8,0,0.0122016
0.7,8.9,0,0.0119535
0.7,9,0,0.0117063
0.7,9.1,0,0.011466
0.7,9.2,0,0.0112256
0.7,9.3,0,0.0109781
0.7,9.4,0,0.0107006
0.7,9.5,0,0.010425
0.7,9.6,0,0.0101553
0.7,9.7,0,0.00988566
0.7,9.8,0,0.00960622
0.7,9.9,0,0.00930484
0.7,10,0,0.00900615
0.7,10.1,0,0.00871237
0.7,10.2,0,0.0084186
0.7,10.3,0,0.0081138
0.7,10.4,0,0.00779397
0.7,10.5,0,0.00747741
0.7,10.6,0,0.00716455
0.7,10.7,0,0.0068517
0.7,10.8,0,0.00652667
0.7,10.9,0,0.00619121
0.7,11,0,0.00586072
0.7,11.1,0,0.00553345
0.7,11.2,0,0.00520618
0.7,11.3,0,0.00487155
0.7,11.4,0,0.00453326
0.7,11.5,0,0.00419497
0.7,11.6,0,0.00385148
0.7,11.7,0,0.00350605
0.7,11.8,0,0.00316059
0.7,11.9,0,0.00281513
0.7,12,0,0.00246967
0.7,12.1,0,0.00211829
0.7,12.2,0,0.00176568
0.7,12.3,0,0.001412
0.7,12.4,0,0.00105818
0.7,12.5,0,0.000704358
0.7,12.6,0,0.000352146
0.7,12.7,0,0
0.8,0,0,0
0.8,0.1,0,0.000351109
0.8,0.2,0,0.000702219
0.8,0.3,0,0.00105327
0.8,0.4,0,0.00140185
0.8,0.5,0,0.00175039
0.8,0.6,0,0.00209825
0.8,0.7,0,0.00244611
0.8,0.8,0,0.00279384
0.8,0.9,0,0.00314019
0.8,1,0,0.0034866
0.8,1.1,0,0.00383347
0.8,1.2,0,0.00418033
0.8,1.3,0,0.00452488
0.8,1.4,0,0.00486338
0.8,1.5,0,0.00520052
0.8,1.6,0,0.00553434
0.8,1.7,0,0.00586816
0.8,1.8,0,0.00619913
0.8,1.9,0,0.00652624
0.8,2,0,0.00685087
0.8,2.1,0,0.00717229
0.8,2.2,0,0.00749372
0.8,2.3,0,0.00781027
0.8,2.4,0,0.00812251
0.8,2.5,0,0.00842847
0.8,2.6,0,0.00872984
0.8,2.7,0,0.0090312
0.8,2.8,0,0.00932809
0.8,2.9,0,0.00962254
0.8,3,0,0.00990548
0.8,3.1,0,0.0101833
0.8,3.2,0,0.0104611
0.8,3.3,0,0.0107331
0.8,3.4,0,0.0110032
0.8,3.5,0,0.011256
0.8,3.6,0,0.0115047
0.8,3.7,0,0.0117533
0.8,3.8,0,0.0119951
0.8,3.9,0,0.0122359
0.8,4,0,0.0124519
0.8,4.1,0,0.0126657
0.8,4.2,0,0.0128796
0.8,4.3,0,0.0130861
0.8,4.4,0,0.0132912
0.8,4.5,0,0.0134649
0.8,4.6,0,0.0136385
0.8,4.7,0,0.0138114
0.8,4.8,0,0.0139784
0.8,4.9,0,0.0141394
0.8,5,0,0.0142677
0.8,5.1,0,0.0143959
0.8,5.2,0,0.014523
0.8,5.3,0,0.014646
0.8,5.4,0,0.0147572
0.8,5.5,0,0.0148361
0.8,5.6,0,0.014915
0.8,5.7,0,0.0149927
0.8,5.8,0,0.0150682
0.8,5.9,0,0.015125
0.8,6,0,0.0151518
0.8,6.1,0,0.0151787
0.8,6.2,0,0.015205
0.8,6.3,0,0.0152307
0.8,6.4,0,0.0152304
0.8,6.5,0,0.0152043
0.8,6.6,0,0.0151781
0.8,6.7,0,0.0151526
0.8,6.8,0,0.0151277
0.8,6.9,0,0.0150699
0.8,7,0,0.0149916
0.8,7.1,0,0.0149134
0.8,7.2,0,0.0148375
0.8,7.3,0,0.0147626
0.8,7.4,0,0.0146492
0.8,7.5,0,0.0145216
0.8,7.6,0,0.014394
0.8,7.7,0,0.0142706
0.8,7.8,0,0.0141482
0.8,7.9,0,0.0139831
0.8,8,0,0.0138102
0.8,8.1,0,0.0136373
0.8,8.2,0,0.0134704
0.8,8.3,0,0.0133041
0.8,8.4,0,0.0130926
0.8,8.5,0,0.0128794
0.8,8.6,0,0.0126663
0.8,8.7,0,0.0124605
0.8,8.8,0,0.0122515
0.8,8.9,0,0.0120033
0.8,9,0,0.0117552
0.8,9.1,0,0.0115082
0.8,9.2,0,0.0112678
0.8,9.3,0,0.0110203
0.8,9.4,0,0.0107428
0.8,9.5,0,0.0104654
0.8,9.6,0,0.0101899
0.8,9.7,0,0.00992025
0.8,9.8,0,0.00964081
0.8,9.9,0,0.00933943
0.8,10,0,0.00903805
0.8,10.1,0,0.00873954
0.8,10.2,0,0.00844576
0.8,10.3,0,0.00814096
0.8,10.4,0,0.00782113
0.8,10.5,0,0.0075013
0.8,10.6,0,0.00718491
0.8,10.7,0,0.00687205
0.8,10.8,0,0.00654702
0.8,10.9,0,0.00621156
0.8,11,0,0.0058761
0.8,11.1,0,0.00554589
0.8,11.2,0,0.00521862
0.8,11.3,0,0.00488392
0.8,11.4,0,0.00454563
0.8,11.5,0,0.00420228
0.8,11.6,0,0.00385685
0.8,11.7,0,0.00351142
0.8,11.8,0,0.00316596
0.8,11.9,0,0.0028205
0.8,12,0,0.00246928
0.8,12.1,0,0.00211667
0.8,12.2,0,0.00176406
0.8,12.3,0,0.00141036
0.8,12.4,0,0.00105654
0.8,12.5,0,0.000704291
0.8,12.6,0,0.000352146
0.8,12.7,0,0
0.9,0,0,0
0.9,0.1,0,0.000351109
0.9,0.2,0,0.000702219
0.9,0.3,0,0.00105333
0.9,0.4,0,0.00140436
0.9,0.5,0,0.00175291
0.9,0.6,0,0.00210077
0.9,0.7,0,0.00244863
0.9,0.8,0,0.00279649
0.9,0.9,0,0.0031442
0.9,1,0,0.0034906
0.9,1.1,0,0.00383747
0.9,1.2,0,0.00418433
0.9,1.3,0,0.0045312
0.9,1.4,0,0.00487549
0.9,1.5,0,0.00521266
0.9,1.6,0,0.00554648
0.9,1.7,0,0.0058803
0.9,1.8,0,0.00621412
0.9,1.9,0,0.00654487
0.9,2,0,0.00686954
0.9,2.1,0,0.00719097
0.9,2.2,0,0.0075124
0.9,2.3,0,0.00783382
0.9,2.4,0,0.00815016
0.9,2.5,0,0.00845612
0.9,2.6,0,0.00875749
0.9,2.7,0,0.00905885
0.9,2.8,0,0.00936021
0.9,2.9,0,0.00965695
0.9,3,0,0.00993989
0.9,3.1,0,0.0102177
0.9,3.2,0,0.0104955
0.9,3.3,0,0.0107734
0.9,3.4,0,0.0110452
0.9,3.5,0,0.0112979
0.9,3.6,0,0.0115466
0.9,3.7,0,0.0117952
0.9,3.8,0,0.0120439
0.9,3.9,0,0.0122855
0.9,4,0,0.0125014
0.9,4.1,0,0.0127153
0.9,4.2,0,0.0129292
0.9,4.3,0,0.013143
0.9,4.4,0,0.0133481
0.9,4.5,0,0.0135217
0.9,4.6,0,0.0136954
0.9,4.7,0,0.013869
0.9,4.8,0,0.0140418
0.9,4.9,0,0.0142028
0.9,5,0,0.0143311
0.9,5.1,0,0.0144594
0.9,5.2,0,0.0145876
0.9,5.3,0,0.0147146
0.9,5.4,0,0.0148257
0.9,5.5,0,0.0149046
0.9,5.6,0,0.0149835
0.9,5.7,0,0.0150625
0.9,5.8,0,0.0151401
0.9,5.9,0,0.0151969
0.9,6,0,0.0152238
0.9,6.1,0,0.0152507
0.9,6.2,0,0.0152775
0.9,6.3,0,0.0153038
0.9,6.4,0,0.0153036
0.9,6.5,0,0.0152774
0.9,6.6,0,0.0152513
0.9,6.7,0,0.0152251
0.9,6.8,0,0.0151996
0.9,6.9,0,0.0151419
0.9,7,0,0.0150636
0.9,7.1,0,0.0149854
0.9,7.2,0,0.0149071
0.9,7.3,0,0.0148313
0.9,7.4,0,0.0147179
0.9,7.5,0,0.0145903
0.9,7.6,0,0.0144627
0.9,7.7,0,0.0143351
0.9,7.8,0,0.0142118
0.9,7.9,0,0.0140466
0.9,8,0,0.0138737
0.9,8.1,0,0.0137008
0.9,8.2,0,0.0135279
0.9,8.3,0,0.0133611
0.9,8.4,0,0.0131497
0.9,8.5,0,0.0129364
0.9,8.6,0,0.0127232
0.9,8.7,0,0.0125103
0.9,8.8,0,0.0123013
0.9,8.9,0,0.0120531
0.9,9,0,0.011805
0.9,9.1,0,0.0115568
0.9,9.2,0,0.01131
0.9,9.3,0,0.0110625
0.9,9.4,0,0.010785
0.9,9.5,0,0.0105076
0.9,9.6,0,0.0102301
0.9,9.7,0,0.00995485
0.9,9.8,0,0.00967541
0.9,9.9,0,0.00937403
0.9,10,0,0.00907265
0.9,10.1,0,0.00877127
0.9,10.2,0,0.00847293
0.9,10.3,0,0.00816813
0.9,10.4,0,0.0078483
0.9,10.5,0,0.00752847
0.9,10.6,0,0.00720864
0.9,10.7,0,0.00689241
0.9,10.8,0,0.00656738
0.9,10.9,0,0.00623192
0.9,11,0,0.00589646
0.9,11.1,0,0.005561
0.9,11.2,0,0.00523106
0.9,11.3,0,0.00489628
0.9,11.4,0,0.00455308
0.9,11.5,0,0.00420765
0.9,11.6,0,0.00386222
0.9,11.7,0,0.00351679
0.9,11.8,0,0.00317134
0.9,11.9,0,0.00282027
0.9,12,0,0.00246766
0.9,12.1,0,0.00211505
0.9,12.2,0,0.00176244
0.9,12.3,0,0.00140872
0.9,12.4,0,0.00105644
0.9,12.5,0,0.000704291
0.9,12.6,0,0.000352146
0.9,12.7,0,0
1,0,0,0
1,0.1,0,0.000351109
1,0.2,0,0.000702219
1,0.3,0,0.00105333
1,0.4,0,0.00140444
1,0.5,0,0.00175544
1,0.6,0,0.00210329
1,0.7,0,0.00245115
1,0.8,0,0.00279901
1,0.9,0,0.00314687
1,1,0,0.0034946
1,1.1,0,0.00384146
1,1.2,0,0.00418833
1,1.3,0,0.00453519
1,1.4,0,0.00488206
1,1.5,0,0.00522481
1,1.6,0,0.00555862
1,1.7,0,0.00589244
1,1.8,0,0.00622626
1,1.9,0,0.00656008
1,2,0,0.00688822
1,2.1,0,0.00720965
1,2.2,0,0.00753107
1,2.3,0,0.0078525
1,2.4,0,0.00817392
1,2.5,0,0.00848377
1,2.6,0,0.00878514
1,2.7,0,0.0090865
1,2.8,0,0.00938786
1,2.9,0,0.00968923
1,3,0,0.0099743
1,3.1,0,0.0102521
1,3.2,0,0.0105299
1,3.3,0,0.0108078
1,3.4,0,0.0110856
1,3.5,0,0.0113399
1,3.6,0,0.0115885
1,3.7,0,0.0118372
1,3.8,0,0.0120858
1,3.9,0,0.0123344
1,4,0,0.012551
1,4.1,0,0.0127649
1,4.2,0,0.0129788
1,4.3,0,0.0131927
1,4.4,0,0.013405
1,4.5,0,0.0135786
1,4.6,0,0.0137523
1,4.7,0,0.0139259
1,4.8,0,0.0140996
1,4.9,0,0.0142662
1,5,0,0.0143945
1,5.1,0,0.0145228
1,5.2,0,0.014651
1,5.3,0,0.0147793
1,5.4,0,0.0148943
1,5.5,0,0.0149732
1,5.6,0,0.0150521
1,5.7,0,0.015131
1,5.8,0,0.0152099
1,5.9,0,0.0152688
1,6,0,0.0152957
1,6.1,0,0.0153226
1,6.2,0,0.0153495
1,6.3,0,0.0153763
1,6.4,0,0.0153767
1,6.5,0,0.0153505
1,6.6,0,0.0153244
1,6.7,0,0.0152982
1,6.8,0,0.0152721
1,6.9,0,0.0152138
1,7,0,0.0151356
1,7.1,0,0.0150573
1,7.2,0,0.0149791
1,7.3,0,0.0149008
1,7.4,0,0.0147865
1,7.5,0,0.0146589
1,7.6,0,0.0145313
1,7.7,0,0.0144037
1,7.8,0,0.0142761
1,7.9,0,0.0141102
1,8,0,0.0139372
1,8.1,0,0.0137643
1,8.2,0,0.0135914
1,8.3,0,0.0134185
1,8.4,0,0.0132068
1,8.5,0,0.0129935
1,8.6,0,0.0127803
1,8.7,0,0.012567
1,8.8,0,0.0123511
1,8.9,0,0.0121029
1,9,0,0.0118548
1,9.1,0,0.0116066
1,9.2,0,0.0113585
1,9.3,0,0.0111047
1,9.4,0,0.0108272
1,9.5,0,0.0105498
1,9.6,0,0.0102723
1,9.7,0,0.00999483
1,9.8,0,0.00971001
1,9.9,0,0.00940862
1,10,0,0.00910724
1,10.1,0,0.00880586
1,10.2,0,0.00850448
1,10.3,0,0.0081953
1,10.4,0,0.00787547
1,10.5,0,0.00755564
1,10.6,0,0.00723581
1,10.7,0,0.00691598
1,10.8,0,0.00658773
1,10.9,0,0.00625227
1,11,0,0.00591681
1,11.1,0,0.00558135
1,11.2,0,0.00524589
1,11.3,0,0.00490388
1,11.4,0,0.00455845
1,11.5,0,0.00421302
1,11.6,0,0.00386759
1,11.7,0,0.00352217
1,11.8,0,0.00317126
1,11.9,0,0.00281865
1,12,0,0.00246604
1,12.1,0,0.00211343
1,12.2,0,0.00176082
1,12.3,0,0.00140858
1,12.4,0,0.00105644
1,12.5,0,0.000704291
1,12.6,0,0.000352146
1,12.7,0,0
1.1,0,0,0
1.1,0.1,0,0.000351109
1.1,0.2,0,0.000702219
1.1,0.3,0,0.00105333
1.1,0.4,0,0.00140452
1.1,0.5,0,0.00176122
1.1,0.6,0,0.00211709
1.1,0.7,0,0.00246489
1.1,0.8,0,0.00281269
1.1,0.9,0,0.00316049
1.1,1,0,0.00350875
1.1,1.1,0,0.00386207
1.1,1.2,0,0.00420882
1.1,1.3,0,0.00455557
1.1,1.4,0,0.00490233
1.1,1.5,0,0.00524887
1.1,1.6,0,0.00559048
1.1,1.7,0,0.00592427
1.1,1.8,0,0.00625806
1.1,1.9,0,0.00659185
1.1,2,0,0.00692583
1.1,2.1,0,0.00725377
1.1,2.2,0,0.0075756
1.1,2.3,0,0.00789742
1.1,2.4,0,0.00821924
1.1,2.5,0,0.0085356
1.1,2.6,0,0.00884135
1.1,2.7,0,0.00914272
1.1,2.8,0,0.00944408
1.1,2.9,0,0.00974544
1.1,3,0,0.0100398
1.1,3.1,0,0.0103215
1.1,3.2,0,0.0105993
1.1,3.3,0,0.0108771
1.1,3.4,0,0.0111549
1.1,3.5,0,0.0114206
1.1,3.6,0,0.0116717
1.1,3.7,0,0.0119203
1.1,3.8,0,0.012169
1.1,3.9,0,0.0124176
1.1,4,0,0.0126467
1.1,4.1,0,0.0128613
1.1,4.2,0,0.0130752
1.1,4.3,0,0.0132891
1.1,4.4,0,0.0135019
1.1,4.5,0,0.0136866
1.1,4.6,0,0.0138603
1.1,4.7,0,0.0140339
1.1,4.8,0,0.0142076
1.1,4.9,0,0.0143757
1.1,5,0,0.0145117
1.1,5.1,0,0.01464
1.1,5.2,0,0.0147682
1.1,5.3,0,0.0148965
1.1,5.4,0,0.0150132
1.1,5.5,0,0.0150965
1.1,5.6,0,0.0151754
1.1,5.7,0,0.0152543
1.1,5.8,0,0.0153332
1.1,5.9,0,0.015393
1.1,6,0,0.0154212
1.1,6.1,0,0.0154481
1.1,6.2,0,0.0154749
1.1,6.3,0,0.0155018
1.1,6.4,0,0.0155011
1.1,6.5,0,0.0154739
1.1,6.6,0,0.0154478
1.1,6.7,0,0.0154216
1.1,6.8,0,0.0153955
1.1,6.9,0,0.0153335
1.1,7,0,0.015253
1.1,7.1,0,0.0151747
1.1,7.2,0,0.0150965
1.1,7.3,0,0.0150182
1.1,7.4,0,0.0148971
1.1,7.5,0,0.0147672
1.1,7.6,0,0.0146396
1.1,7.7,0,0.014512
1.1,7.8,0,0.0143844
1.1,7.9,0,0.0142085
1.1,8,0,0.014034
1.1,8.1,0,0.0138611
1.1,8.2,0,0.0136882
1.1,8.3,0,0.0135153
1.1,8.4,0,0.013291
1.1,8.5,0,0.0130775
1.1,8.6,0,0.0128643
1.1,8.7,0,0.012651
1.1,8.8,0,0.012434
1.1,8.9,0,0.0121737
1.1,9,0,0.0119256
1.1,9.1,0,0.0116774
1.1,9.2,0,0.0114293