/*--------------------------------*- C++ -*----------------------------------*\
| =========                 |                                                 |
| \\      /  F ield         | OpenFOAM: The Open Source CFD Toolbox           |
|  \\    /   O peration     | Version:  v1806                                 |
|   \\  /    A nd           | Web:      www.OpenFOAM.com                      |
|    \\/     M anipulation  |                                                 |
\*---------------------------------------------------------------------------*/
FoamFile
{
    version     2.0;
    format      ascii;
    class       volVectorField;
    location    "150";
    object      U;
}
// * * * * * * * * * * * * * * * * * * * * * * * * * * * * * * * * * * * * * //

dimensions      [0 1 -1 0 0 0 0];


internalField   nonuniform List<vector> 
2400
(
(0.3 -0.000405289 0)
(0.299996 -0.00122487 0)
(0.299988 -0.00206115 0)
(0.299973 -0.00292721 0)
(0.299953 -0.00383008 0)
(0.299927 -0.00478193 0)
(0.299894 -0.0057876 0)
(0.299855 -0.00685664 0)
(0.299811 -0.00798788 0)
(0.299762 -0.00918492 0)
(0.299712 -0.0104406 0)
(0.299663 -0.0117487 0)
(0.299619 -0.0130846 0)
(0.299585 -0.0144293 0)
(0.299567 -0.0157461 0)
(0.299571 -0.0170007 0)
(0.299603 -0.0181335 0)
(0.299668 -0.0191072 0)
(0.299769 -0.019864 0)
(0.29991 -0.0203811 0)
(0.3 -0.00040302 0)
(0.29999 -0.00121847 0)
(0.299969 -0.00204983 0)
(0.299939 -0.00291138 0)
(0.299899 -0.00380894 0)
(0.299849 -0.0047563 0)
(0.29979 -0.00575707 0)
(0.299724 -0.0068227 0)
(0.299654 -0.00795084 0)
(0.299582 -0.00914735 0)
(0.299514 -0.0104041 0)
(0.299454 -0.011717 0)
(0.299411 -0.013061 0)
(0.299394 -0.014419 0)
(0.299412 -0.0157535 0)
(0.299474 -0.017031 0)
(0.299589 -0.0181909 0)
(0.299761 -0.0191937 0)
(0.299991 -0.0199797 0)
(0.300273 -0.0205155 0)
(0.299999 -0.000398428 0)
(0.299983 -0.00120584 0)
(0.299949 -0.00202802 0)
(0.2999 -0.00288186 0)
(0.299834 -0.00377055 0)
(0.299754 -0.00471136 0)
(0.299662 -0.00570496 0)
(0.29956 -0.00676698 0)
(0.299452 -0.00789211 0)
(0.299345 -0.00909111 0)
(0.299246 -0.010353 0)
(0.299164 -0.0116786 0)
(0.299112 -0.0130405 0)
(0.299103 -0.0144258 0)
(0.299153 -0.0157939 0)
(0.299275 -0.0171135 0)
(0.299479 -0.0183182 0)
(0.299775 -0.0193698 0)
(0.300157 -0.0201953 0)
(0.300612 -0.020769 0)
(0.299999 -0.00039144 0)
(0.299975 -0.00118693 0)
(0.299929 -0.00199527 0)
(0.299859 -0.00283815 0)
(0.299767 -0.0037138 0)
(0.299655 -0.00464594 0)
(0.299526 -0.00562931 0)
(0.299383 -0.00668753 0)
(0.299233 -0.00780879 0)
(0.299084 -0.00901326 0)
(0.298947 -0.0102835 0)
(0.298834 -0.0116295 0)
(0.298763 -0.0130186 0)
(0.298754 -0.0144456 0)
(0.298827 -0.0158639 0)
(0.299002 -0.0172457 0)
(0.299295 -0.0185167 0)
(0.299715 -0.0196375 0)
(0.300257 -0.0205209 0)
(0.300903 -0.0211374 0)
(0.299999 -0.000381953 0)
(0.299968 -0.00116183 0)
(0.299907 -0.00195117 0)
(0.299817 -0.0027799 0)
(0.299698 -0.0036374 0)
(0.299552 -0.00455868 0)
(0.299384 -0.00552731 0)
(0.299198 -0.00658138 0)
(0.299002 -0.00769593 0)
(0.298805 -0.00890876 0)
(0.298622 -0.0101881 0)
(0.29847 -0.0115628 0)
(0.298372 -0.0129865 0)
(0.298351 -0.0144705 0)
(0.298439 -0.0159556 0)
(0.29866 -0.0174226 0)
(0.299036 -0.0187842 0)
(0.299585 -0.0199999 0)
(0.300296 -0.0209625 0)
(0.30115 -0.0216361 0)
(0.299998 -0.000369807 0)
(0.29996 -0.00113057 0)
(0.299885 -0.0018952 0)
(0.299774 -0.00270686 0)
(0.299627 -0.0035401 0)
(0.299446 -0.00444875 0)
(0.299236 -0.00539649 0)
(0.299003 -0.00644661 0)
(0.298756 -0.00754921 0)
(0.298505 -0.00877407 0)
(0.29827 -0.0100604 0)
(0.298068 -0.0114731 0)
(0.297932 -0.012936 0)
(0.297888 -0.0144947 0)
(0.297978 -0.016062 0)
(0.298235 -0.0176412 0)
(0.298692 -0.0191205 0)
(0.29937 -0.0204625 0)
(0.300264 -0.0215314 0)
(0.30135 -0.0222834 0)
(0.299998 -0.000354818 0)
(0.299953 -0.00109322 0)
(0.299863 -0.0018267 0)
(0.29973 -0.00261885 0)
(0.299553 -0.00342051 0)
(0.299335 -0.00431553 0)
(0.299081 -0.00523407 0)
(0.298797 -0.00628166 0)
(0.298494 -0.0073636 0)
(0.298182 -0.00860606 0)
(0.297886 -0.00989219 0)
(0.297622 -0.0113552 0)
(0.297435 -0.0128563 0)
(0.29735 -0.0145119 0)
(0.29743 -0.0161733 0)
(0.297708 -0.0178982 0)
(0.29824 -0.0195243 0)
(0.299051 -0.0210326 0)
(0.300144 -0.0222426 0)
(0.301493 -0.023101 0)
(0.299997 -0.000336811 0)
(0.299945 -0.00104987 0)
(0.299839 -0.00174498 0)
(0.299685 -0.00251577 0)
(0.299476 -0.00327705 0)
(0.29922 -0.00415851 0)
(0.298919 -0.00503678 0)
(0.29858 -0.0060851 0)
(0.298215 -0.00713284 0)
(0.297833 -0.00840166 0)
(0.297466 -0.00967282 0)
(0.297124 -0.0112039 0)
(0.296872 -0.0127321 0)
(0.296724 -0.0145156 0)
(0.296778 -0.0162734 0)
(0.297054 -0.0181903 0)
(0.297654 -0.0199908 0)
(0.298596 -0.0217196 0)
(0.29991 -0.0231151 0)
(0.301564 -0.0241179 0)
(0.299997 -0.000315669 0)
(0.299937 -0.00100059 0)
(0.299815 -0.0016494 0)
(0.299638 -0.00239752 0)
(0.299397 -0.00310808 0)
(0.299101 -0.00397723 0)
(0.29875 -0.00480097 0)
(0.298352 -0.00585566 0)
(0.297919 -0.00684952 0)
(0.297457 -0.00815812 0)
(0.297007 -0.00938878 0)
(0.29657 -0.0110145 0)
(0.296234 -0.0125419 0)
(0.295996 -0.0145001 0)
(0.296002 -0.0163371 0)
(0.296245 -0.0185162 0)
(0.296904 -0.0205068 0)
(0.297967 -0.0225376 0)
(0.299529 -0.0241718 0)
(0.301543 -0.0253734 0)
(0.299996 -0.000291401 0)
(0.299929 -0.000945341 0)
(0.299791 -0.00153948 0)
(0.299592 -0.00226389 0)
(0.299315 -0.00291222 0)
(0.29898 -0.00377118 0)
(0.298574 -0.00452303 0)
(0.298114 -0.00559205 0)
(0.297605 -0.00650556 0)
(0.297055 -0.00787292 0)
(0.296508 -0.00902393 0)
(0.295957 -0.0107832 0)
(0.295516 -0.0122576 0)
(0.29515 -0.0144619 0)
(0.295085 -0.016325 0)
(0.295245 -0.0188799 0)
(0.295954 -0.0210419 0)
(0.29711 -0.0235106 0)
(0.298961 -0.0254368 0)
(0.301396 -0.0269216 0)
(0.299995 -0.000264235 0)
(0.299922 -0.000883856 0)
(0.299766 -0.00141519 0)
(0.299545 -0.00211443 0)
(0.299232 -0.00268869 0)
(0.298856 -0.00353945 0)
(0.298392 -0.00420011 0)
(0.297868 -0.00529247 0)
(0.297274 -0.00609328 0)
(0.29663 -0.00754294 0)
(0.29597 -0.00856091 0)
(0.295283 -0.0105058 0)
(0.294713 -0.0118449 0)
(0.294177 -0.0143994 0)
(0.29401 -0.0161802 0)
(0.294016 -0.0192935 0)
(0.294765 -0.0215343 0)
(0.295947 -0.0246827 0)
(0.298157 -0.0269197 0)
(0.301075 -0.0288421 0)
(0.299994 -0.000234711 0)
(0.299916 -0.000815467 0)
(0.299742 -0.00127718 0)
(0.299499 -0.0019481 0)
(0.299148 -0.00243787 0)
(0.298733 -0.00328025 0)
(0.298206 -0.00383105 0)
(0.297618 -0.00495369 0)
(0.29693 -0.00560719 0)
(0.296185 -0.00716279 0)
(0.295394 -0.00798391 0)
(0.294555 -0.0101752 0)
(0.29382 -0.0112669 0)
(0.29307 -0.0143087 0)
(0.292757 -0.0158299 0)
(0.292516 -0.0197755 0)
(0.293293 -0.0218788 0)
(0.294374 -0.0261313 0)
(0.297056 -0.0285787 0)
(0.30049 -0.0312669 0)
(0.299994 -0.000203752 0)
(0.299911 -0.000738967 0)
(0.299718 -0.00112707 0)
(0.299455 -0.00176309 0)
(0.299065 -0.00216194 0)
(0.298612 -0.00299034 0)
(0.298019 -0.00341766 0)
(0.297369 -0.00456983 0)
(0.296575 -0.0050463 0)
(0.295731 -0.00672237 0)
(0.294781 -0.00728305 0)
(0.293783 -0.00977614 0)
(0.292835 -0.0104912 0)
(0.291836 -0.0141745 0)
(0.291303 -0.0151957 0)
(0.290719 -0.0203361 0)
(0.291475 -0.0219265 0)
(0.292262 -0.027965 0)
(0.295587 -0.0302829 0)
(0.299468 -0.0344247 0)
(0.299995 -0.000172651 0)
(0.299905 -0.000652568 0)
(0.299698 -0.000967609 0)
(0.299411 -0.00155658 0)
(0.298986 -0.0018653 0)
(0.298493 -0.00266443 0)
(0.297834 -0.00296592 0)
(0.297124 -0.0041311 0)
(0.296215 -0.00441686 0)
(0.295277 -0.00620387 0)
(0.294137 -0.0064598 0)
(0.292989 -0.00927864 0)
(0.291752 -0.00950091 0)
(0.290503 -0.0139562 0)
(0.289613 -0.01421 0)
(0.288627 -0.0209542 0)
(0.289219 -0.0215085 0)
(0.289485 -0.0302968 0)
(0.29364 -0.0317977 0)
(0.297683 -0.0386678 0)
(0.3 -0.000142871 0)
(0.299896 -0.000554091 0)
(0.299685 -0.000802578 0)
(0.299364 -0.00132496 0)
(0.298917 -0.00155472 0)
(0.298375 -0.00229519 0)
(0.297663 -0.00248682 0)
(0.296883 -0.0036229 0)
(0.295865 -0.00373501 0)
(0.294829 -0.00557906 0)
(0.293477 -0.00553314 0)
(0.292192 -0.00863067 0)
(0.290572 -0.00830616 0)
(0.289117 -0.0135701 0)
(0.287634 -0.0128401 0)
(0.286309 -0.0215439 0)
(0.28635 -0.0204713 0)
(0.286011 -0.0332036 0)
(0.290999 -0.0328247 0)
(0.294604 -0.0444157 0)
(0.300012 -0.000115587 0)
(0.29988 -0.000441631 0)
(0.299685 -0.000635985 0)
(0.299307 -0.00106479 0)
(0.29887 -0.00123825 0)
(0.298245 -0.0018743 0)
(0.297527 -0.00199564 0)
(0.29663 -0.00302653 0)
(0.295558 -0.00302821 0)
(0.29437 -0.00480773 0)
(0.292851 -0.0045463 0)
(0.291382 -0.0077497 0)
(0.289344 -0.0069599 0)
(0.287699 -0.0128634 0)
(0.285341 -0.0111167 0)
(0.283867 -0.0219019 0)
(0.282573 -0.0187098 0)
(0.282021 -0.0367214 0)
(0.28714 -0.0329555 0)
(0.289692 -0.0527373 0)
(0.300033 -9.10535e-05 0)
(0.29985 -0.000314775 0)
(0.299704 -0.00047061 0)
(0.29923 -0.000774987 0)
(0.298861 -0.00092228 0)
(0.298086 -0.00139663 0)
(0.297457 -0.0015066 0)
(0.296333 -0.00232583 0)
(0.295359 -0.00232837 0)
(0.293845 -0.00384494 0)
(0.292373 -0.003568 0)
(0.290472 -0.00652098 0)
(0.288253 -0.00558422 0)
(0.286126 -0.0115704 0)
(0.282917 -0.00918526 0)
(0.281221 -0.0215745 0)
(0.277644 -0.0162504 0)
(0.277844 -0.0406257 0)
(0.280474 -0.0313649 0)
(0.283316 -0.0664142 0)
(0.300066 -6.80474e-05 0)
(0.299802 -0.000176009 0)
(0.299748 -0.000306567 0)
(0.299127 -0.000459908 0)
(0.298903 -0.00060763 0)
(0.297884 -0.000867792 0)
(0.297485 -0.00102339 0)
(0.295959 -0.00152415 0)
(0.295342 -0.00164882 0)
(0.293174 -0.00267761 0)
(0.292219 -0.00264555 0)
(0.289285 -0.00486455 0)
(0.287677 -0.00433026 0)
(0.284036 -0.00937146 0)
(0.281057 -0.0074211 0)
(0.277631 -0.0195653 0)
(0.272271 -0.0136652 0)
(0.272867 -0.0433388 0)
(0.268131 -0.0275561 0)
(0.277707 -0.0862318 0)
(0.300106 -4.33947e-05 0)
(0.29974 -2.95058e-05 0)
(0.29981 -0.000141413 0)
(0.299003 -0.000128709 0)
(0.29899 -0.000289472 0)
(0.297648 -0.000305664 0)
(0.297611 -0.000537217 0)
(0.295514 -0.000652486 0)
(0.295527 -0.000969216 0)
(0.292344 -0.0013581 0)
(0.292485 -0.00174088 0)
(0.287718 -0.0028498 0)
(0.287982 -0.00317888 0)
(0.281 -0.00623395 0)
(0.280945 -0.00603193 0)
(0.271639 -0.0149354 0)
(0.269454 -0.0122945 0)
(0.262738 -0.0411221 0)
(0.253259 -0.0257277 0)
(0.273467 -0.112588 0)
(0.300146 -1.8136e-05 0)
(0.299674 0.000125333 0)
(0.299875 2.32306e-05 0)
(0.298882 0.000218735 0)
(0.299095 2.9362e-05 0)
(0.29742 0.000291744 0)
(0.297781 -4.95171e-05 0)
(0.295087 0.000285808 0)
(0.295808 -0.000290283 0)
(0.291528 8.82743e-05 0)
(0.292971 -0.000827524 0)
(0.286096 -0.00058672 0)
(0.288854 -0.00191479 0)
(0.277534 -0.00257434 0)
(0.282536 -0.00421233 0)
(0.263186 -0.0088464 0)
(0.271812 -0.00981895 0)
(0.239611 -0.0342981 0)
(0.25707 -0.0261871 0)
(0.263883 -0.184445 0)
(0.300026 -0.0205106 0)
(0.300062 -0.0205404 0)
(0.300094 -0.0205613 0)
(0.300125 -0.0205737 0)
(0.300157 -0.0205779 0)
(0.30019 -0.0205737 0)
(0.300223 -0.0205612 0)
(0.300257 -0.0205405 0)
(0.300291 -0.0205121 0)
(0.300322 -0.0204748 0)
(0.300462 -0.0206655 0)
(0.300519 -0.0207026 0)
(0.300576 -0.0207303 0)
(0.300632 -0.0207485 0)
(0.300689 -0.0207573 0)
(0.300747 -0.0207569 0)
(0.300804 -0.0207475 0)
(0.300861 -0.0207292 0)
(0.300919 -0.0207022 0)
(0.300972 -0.0206667 0)
(0.300915 -0.0209204 0)
(0.301008 -0.0209562 0)
(0.301099 -0.0209818 0)
(0.301188 -0.0209975 0)
(0.301277 -0.0210035 0)
(0.301366 -0.021 0)
(0.301454 -0.020987 0)
(0.301541 -0.0209648 0)
(0.301627 -0.0209336 0)
(0.301708 -0.0208936 0)
(0.301333 -0.0212936 0)
(0.301464 -0.0213299 0)
(0.301591 -0.0213552 0)
(0.301716 -0.0213699 0)
(0.30184 -0.021374 0)
(0.301963 -0.0213676 0)
(0.302086 -0.0213507 0)
(0.302206 -0.0213238 0)
(0.302325 -0.0212867 0)
(0.302438 -0.0212404 0)
(0.301721 -0.0217993 0)
(0.301894 -0.0218362 0)
(0.302062 -0.0218606 0)
(0.302227 -0.0218728 0)
(0.30239 -0.0218729 0)
(0.302553 -0.0218611 0)
(0.302714 -0.0218374 0)
(0.302872 -0.0218022 0)
(0.303027 -0.0217555 0)
(0.303176 -0.0216986 0)
(0.302082 -0.0224551 0)
(0.302304 -0.0224926 0)
(0.302518 -0.0225153 0)
(0.302728 -0.0225238 0)
(0.302937 -0.0225183 0)
(0.303145 -0.0224988 0)
(0.303349 -0.0224656 0)
(0.30355 -0.0224189 0)
(0.303748 -0.0223588 0)
(0.303937 -0.0222872 0)
(0.302413 -0.0232844 0)
(0.302693 -0.0233225 0)
(0.302962 -0.023343 0)
(0.303226 -0.0233465 0)
(0.303488 -0.0233333 0)
(0.303748 -0.0233034 0)
(0.304004 -0.023257 0)
(0.304256 -0.0231946 0)
(0.304502 -0.0231163 0)
(0.304738 -0.0230247 0)
(0.30271 -0.0243187 0)
(0.303058 -0.0243582 0)
(0.303394 -0.0243762 0)
(0.303722 -0.0243733 0)
(0.304048 -0.0243498 0)
(0.304371 -0.0243059 0)
(0.30469 -0.0242419 0)
(0.305002 -0.0241584 0)
(0.305307 -0.0240554 0)
(0.305599 -0.0239369 0)
(0.302963 -0.0256016 0)
(0.303396 -0.0256441 0)
(0.303813 -0.0256596 0)
(0.304222 -0.0256487 0)
(0.304627 -0.0256118 0)
(0.305028 -0.0255493 0)
(0.305424 -0.0254615 0)
(0.30581 -0.0253495 0)
(0.306186 -0.0252131 0)
(0.306546 -0.0250584 0)
(0.303158 -0.0271945 0)
(0.303697 -0.0272433 0)
(0.304219 -0.0272568 0)
(0.30473 -0.0272356 0)
(0.305236 -0.0271806 0)
(0.305737 -0.0270925 0)
(0.306229 -0.0269722 0)
(0.306708 -0.0268211 0)
(0.307173 -0.026639 0)
(0.307617 -0.0264352 0)
(0.303272 -0.0291885 0)
(0.303951 -0.029248 0)
(0.304612 -0.0292593 0)
(0.305259 -0.0292236 0)
(0.305898 -0.0291426 0)
(0.306527 -0.0290181 0)
(0.307143 -0.0288515 0)
(0.30774 -0.0286454 0)
(0.308318 -0.0283992 0)
(0.308867 -0.0281279 0)
(0.303276 -0.0317277 0)
(0.304148 -0.0318006 0)
(0.305002 -0.0318045 0)
(0.305834 -0.0317436 0)
(0.30665 -0.0316217 0)
(0.307449 -0.0314417 0)
(0.308227 -0.0312062 0)
(0.308977 -0.0309195 0)
(0.309698 -0.0305807 0)
(0.310377 -0.0302142 0)
(0.303141 -0.0350433 0)
(0.3043 -0.0351213 0)
(0.305428 -0.035097 0)
(0.306514 -0.0349849 0)
(0.307568 -0.0347925 0)
(0.308593 -0.0345237 0)
(0.309583 -0.0341821 0)
(0.310532 -0.0337743 0)
(0.311434 -0.0332986 0)
(0.312278 -0.0327958 0)
(0.302869 -0.0394798 0)
(0.30449 -0.039533 0)
(0.306009 -0.0394302 0)
(0.30743 -0.0392098 0)
(0.308796 -0.038887 0)
(0.310118 -0.0384668 0)
(0.311388 -0.0379537 0)
(0.312593 -0.0373588 0)
(0.313728 -0.036678 0)
(0.314775 -0.0359784 0)
(0.302532 -0.0454566 0)
(0.304935 -0.0454447 0)
(0.307035 -0.0451983 0)
(0.308908 -0.0447914 0)
(0.310679 -0.0442477 0)
(0.312387 -0.0435736 0)
(0.314014 -0.0427774 0)
(0.315536 -0.0418791 0)
(0.316949 -0.0408739 0)
(0.318236 -0.0398694 0)
(0.302404 -0.0536456 0)
(0.306067 -0.0534097 0)
(0.309033 -0.0528869 0)
(0.311553 -0.0521924 0)
(0.313903 -0.0513394 0)
(0.31614 -0.0503206 0)
(0.318222 -0.0491416 0)
(0.320107 -0.0478321 0)
(0.32179 -0.0463789 0)
(0.323243 -0.0449604 0)
(0.304201 -0.0656986 0)
(0.309502 -0.0645636 0)
(0.313251 -0.0630288 0)
(0.316239 -0.0613408 0)
(0.319012 -0.0595208 0)
(0.321623 -0.0575484 0)
(0.323955 -0.0554293 0)
(0.325934 -0.0532037 0)
(0.327556 -0.0508614 0)
(0.32884 -0.0486142 0)
(0.311614 -0.0846012 0)
(0.318936 -0.0828246 0)
(0.322602 -0.0804324 0)
(0.324569 -0.0776145 0)
(0.326056 -0.0743877 0)
(0.327213 -0.0708041 0)
(0.327877 -0.0669591 0)
(0.327954 -0.0629594 0)
(0.32752 -0.0588493 0)
(0.326517 -0.0548663 0)
(0.308994 -0.0884197 0)
(0.31379 -0.0807865 0)
(0.313424 -0.0746364 0)
(0.311235 -0.0692478 0)
(0.3085 -0.0640215 0)
(0.305147 -0.0588214 0)
(0.301012 -0.0536672 0)
(0.296149 -0.0485637 0)
(0.290832 -0.0434969 0)
(0.284811 -0.0384037 0)
(0.269051 -0.124024 0)
(0.246244 -0.105758 0)
(0.21719 -0.0897811 0)
(0.194023 -0.0755669 0)
(0.175841 -0.0626509 0)
(0.160191 -0.0509892 0)
(0.146339 -0.0406146 0)
(0.134364 -0.0314756 0)
(0.124033 -0.0234652 0)
(0.114857 -0.016545 0)
(0.300482 -0.0203255 0)
(0.300633 -0.0196585 0)
(0.300999 -0.0189487 0)
(0.30097 -0.0179136 0)
(0.301437 -0.0172376 0)
(0.301073 -0.0162659 0)
(0.301808 -0.0160248 0)
(0.300931 -0.0152831 0)
(0.302155 -0.0154662 0)
(0.300579 -0.0152699 0)
(0.302338 -0.0157498 0)
(0.300044 -0.0165653 0)
(0.302049 -0.0171804 0)
(0.299523 -0.0195883 0)
(0.30123 -0.0203551 0)
(0.299235 -0.0235781 0)
(0.300362 -0.0245969 0)
(0.299251 -0.0273589 0)
(0.299916 -0.0281143 0)
(0.299447 -0.029821 0)
(0.30122 -0.0205 0)
(0.301451 -0.0198184 0)
(0.301845 -0.019053 0)
(0.301785 -0.0180203 0)
(0.302182 -0.0172691 0)
(0.301728 -0.0163388 0)
(0.302355 -0.0159982 0)
(0.301396 -0.0153366 0)
(0.302503 -0.0153944 0)
(0.300861 -0.0152568 0)
(0.30246 -0.0156318 0)
(0.300065 -0.0164033 0)
(0.301909 -0.0170674 0)
(0.299238 -0.0192831 0)
(0.300939 -0.0203066 0)
(0.298812 -0.0232936 0)
(0.300162 -0.0246469 0)
(0.299076 -0.0272297 0)
(0.299996 -0.0282407 0)
(0.299791 -0.0296958 0)
(0.302058 -0.020708 0)
(0.302419 -0.0199909 0)
(0.302882 -0.0191504 0)
(0.302821 -0.0180858 0)
(0.303162 -0.0172554 0)
(0.302625 -0.0163426 0)
(0.303135 -0.0159196 0)
(0.302093 -0.0153167 0)
(0.303062 -0.0152667 0)
(0.301345 -0.0151575 0)
(0.302745 -0.0154278 0)
(0.300207 -0.0161483 0)
(0.301827 -0.0168536 0)
(0.298935 -0.0189317 0)
(0.300586 -0.0202297 0)
(0.298276 -0.0230388 0)
(0.299851 -0.0248029 0)
(0.298816 -0.0271839 0)
(0.300035 -0.0285112 0)
(0.300206 -0.0296646 0)
(0.302909 -0.0210178 0)
(0.30342 -0.0202198 0)
(0.303964 -0.0192665 0)
(0.303909 -0.0181301 0)
(0.304194 -0.0172075 0)
(0.303574 -0.0162879 0)
(0.30397 -0.015797 0)
(0.302852 -0.0152304 0)
(0.303697 -0.0150944 0)
(0.301906 -0.0149724 0)
(0.303113 -0.0151466 0)
(0.300399 -0.0157818 0)
(0.301779 -0.0165389 0)
(0.298606 -0.0184956 0)
(0.30018 -0.0201091 0)
(0.297652 -0.0227857 0)
(0.299437 -0.0250496 0)
(0.298482 -0.027225 0)
(0.300014 -0.0289851 0)
(0.300676 -0.0297618 0)
(0.303781 -0.0214242 0)
(0.304456 -0.0205049 0)
(0.305081 -0.0194005 0)
(0.305024 -0.0181557 0)
(0.305238 -0.0171251 0)
(0.304526 -0.0161822 0)
(0.304805 -0.0156327 0)
(0.303613 -0.0150937 0)
(0.304354 -0.014879 0)
(0.302492 -0.0147141 0)
(0.303526 -0.0147745 0)
(0.3006 -0.0152935 0)
(0.30173 -0.0160912 0)
(0.298207 -0.0179459 0)
(0.299688 -0.0199185 0)
(0.296893 -0.022514 0)
(0.298889 -0.0253852 0)
(0.298034 -0.0273707 0)
(0.299927 -0.0296902 0)
(0.301209 -0.0300027 0)
(0.304694 -0.0219413 0)
(0.305548 -0.0208509 0)
(0.306251 -0.0195488 0)
(0.306175 -0.0181558 0)
(0.306296 -0.0169994 0)
(0.305471 -0.0160214 0)
(0.305622 -0.0154248 0)
(0.304359 -0.0149141 0)
(0.305019 -0.0146243 0)
(0.303099 -0.0143889 0)
(0.303979 -0.0143011 0)
(0.300803 -0.0146714 0)
(0.301662 -0.0154819 0)
(0.297708 -0.0172633 0)
(0.299073 -0.0196352 0)
(0.295941 -0.0222159 0)
(0.298165 -0.0258172 0)
(0.297418 -0.0276403 0)
(0.299765 -0.030668 0)
(0.301783 -0.030419 0)
(0.305671 -0.0225816 0)
(0.306723 -0.021259 0)
(0.307497 -0.0197032 0)
(0.307378 -0.0181184 0)
(0.307371 -0.0168172 0)
(0.306405 -0.0157974 0)
(0.306414 -0.0151715 0)
(0.305085 -0.0146997 0)
(0.305693 -0.0143393 0)
(0.303738 -0.0140057 0)
(0.304482 -0.0137185 0)
(0.301019 -0.0138993 0)
(0.301565 -0.0146787 0)
(0.297087 -0.0164223 0)
(0.298293 -0.0192285 0)
(0.294728 -0.02188 0)
(0.297209 -0.0263524 0)
(0.296562 -0.028059 0)
(0.299498 -0.0319801 0)
(0.302314 -0.0310348 0)
(0.30674 -0.0233622 0)
(0.308012 -0.0217297 0)
(0.308842 -0.0198527 0)
(0.308645 -0.0180272 0)
(0.308466 -0.0165608 0)
(0.307321 -0.015499 0)
(0.307166 -0.0148714 0)
(0.305781 -0.0144628 0)
(0.306376 -0.0140398 0)
(0.304433 -0.0135767 0)
(0.305056 -0.0130189 0)
(0.301269 -0.0129543 0)
(0.301429 -0.0136397 0)
(0.296325 -0.0153859 0)
(0.297285 -0.0186523 0)
(0.293174 -0.0214914 0)
(0.295934 -0.0269936 0)
(0.295359 -0.0286611 0)
(0.299041 -0.0336796 0)
(0.302597 -0.0318417 0)
(0.307938 -0.0243037 0)
(0.309453 -0.0222614 0)
(0.310317 -0.0199821 0)
(0.309993 -0.0178597 0)
(0.309581 -0.0162066 0)
(0.308207 -0.0151105 0)
(0.307857 -0.0145237 0)
(0.306433 -0.0142204 0)
(0.30707 -0.013751 0)
(0.305209 -0.0131191 0)
(0.305725 -0.0121936 0)
(0.30158 -0.0118041 0)
(0.301237 -0.0123108 0)
(0.295393 -0.0141013 0)
(0.295945 -0.0178405 0)
(0.291172 -0.0210313 0)
(0.294189 -0.0277318 0)
(0.29363 -0.0294783 0)
(0.298164 -0.0357792 0)
(0.302197 -0.0327775 0)
(0.309318 -0.0254307 0)
(0.311094 -0.0228496 0)
(0.311955 -0.0200712 0)
(0.31144 -0.0175857 0)
(0.310717 -0.0157222 0)
(0.309044 -0.0146099 0)
(0.308457 -0.0141275 0)
(0.307019 -0.0139966 0)
(0.30777 -0.0135096 0)
(0.30609 -0.0126557 0)
(0.306506 -0.0112323 0)
(0.301963 -0.0104026 0)
(0.300941 -0.0106183 0)
(0.294222 -0.0124892 0)
(0.294096 -0.0167023 0)
(0.288564 -0.020472 0)
(0.291694 -0.0285263 0)
(0.29105 -0.0305133 0)
(0.296341 -0.0382071 0)
(0.300336 -0.033705 0)
(0.31095 -0.0267691 0)
(0.312999 -0.0234858 0)
(0.313801 -0.0200935 0)
(0.313012 -0.0171647 0)
(0.311872 -0.015063 0)
(0.309803 -0.0139659 0)
(0.308912 -0.0136812 0)
(0.307491 -0.0138237 0)
(0.308445 -0.0133646 0)
(0.307063 -0.0122132 0)
(0.307371 -0.0101215 0)
(0.30237 -0.00868412 0)
(0.300407 -0.00846018 0)
(0.292636 -0.0104263 0)
(0.29144 -0.0151132 0)
(0.285075 -0.0197528 0)
(0.28794 -0.0292652 0)
(0.287 -0.0316869 0)
(0.292585 -0.0407514 0)
(0.295833 -0.0344068 0)
(0.312937 -0.0283421 0)
(0.315247 -0.0241582 0)
(0.31591 -0.0200147 0)
(0.314742 -0.0165419 0)
(0.313038 -0.0141669 0)
(0.310422 -0.0131316 0)
(0.30912 -0.0131779 0)
(0.30773 -0.0137395 0)
(0.308962 -0.0133698 0)
(0.307977 -0.0118121 0)
(0.308131 -0.00883319 0)
(0.302569 -0.00655513 0)
(0.299312 -0.00570495 0)
(0.290256 -0.00774538 0)
(0.287494 -0.0129116 0)
(0.280183 -0.0187312 0)
(0.282039 -0.0297025 0)
(0.280419 -0.0327681 0)
(0.285392 -0.0430352 0)
(0.287246 -0.0346208 0)
(0.315425 -0.0301683 0)
(0.317943 -0.0248526 0)
(0.318358 -0.0197859 0)
(0.316654 -0.0156337 0)
(0.31415 -0.0129368 0)
(0.310734 -0.0120293 0)
(0.308816 -0.0125866 0)
(0.307387 -0.0137664 0)
(0.308875 -0.0135652 0)
(0.308294 -0.0114505 0)
(0.308187 -0.00730857 0)
(0.301904 -0.00388384 0)
(0.296957 -0.00221784 0)
(0.286363 -0.00426659 0)
(0.281506 -0.0099167 0)
(0.272945 -0.017142 0)
(0.272649 -0.0294228 0)
(0.269794 -0.0333573 0)
(0.273052 -0.0446108 0)
(0.273312 -0.0341472 0)
(0.318644 -0.032237 0)
(0.321225 -0.0255414 0)
(0.321184 -0.0193222 0)
(0.318637 -0.0142968 0)
(0.314897 -0.0111942 0)
(0.310225 -0.0105048 0)
(0.30728 -0.0118066 0)
(0.305501 -0.0138477 0)
(0.306969 -0.0139182 0)
(0.306632 -0.0110881 0)
(0.306112 -0.00547148 0)
(0.298951 -0.000508619 0)
(0.292053 0.00221724 0)
(0.279782 0.000197425 0)
(0.272338 -0.00590784 0)
(0.261873 -0.0145569 0)
(0.258138 -0.0279132 0)
(0.253585 -0.0330291 0)
(0.254425 -0.0452031 0)
(0.253648 -0.0329982 0)
(0.322942 -0.0345185 0)
(0.325085 -0.0261903 0)
(0.324037 -0.0184909 0)
(0.31995 -0.0123181 0)
(0.314164 -0.0086474 0)
(0.307439 -0.00825434 0)
(0.302678 -0.0105608 0)
(0.299767 -0.0137463 0)
(0.300542 -0.0142383 0)
(0.300147 -0.0106113 0)
(0.299214 -0.00323997 0)
(0.291332 0.00362709 0)
(0.282639 0.00766146 0)
(0.268803 0.00583738 0)
(0.258403 -0.000589244 0)
(0.245146 -0.0104482 0)
(0.237236 -0.0248006 0)
(0.231177 -0.0316537 0)
(0.229915 -0.0449692 0)
(0.229301 -0.0314702 0)
(0.328388 -0.03711 0)
(0.328374 -0.0265938 0)
(0.324869 -0.0168391 0)
(0.317883 -0.00923624 0)
(0.308846 -0.00484465 0)
(0.298904 -0.0048025 0)
(0.291037 -0.00827461 0)
(0.285695 -0.0129058 0)
(0.284921 -0.0141825 0)
(0.284405 -0.00992142 0)
(0.283609 -0.000723058 0)
(0.275922 0.00825604 0)
(0.266459 0.0138075 0)
(0.251521 0.012655 0)
(0.237936 0.00641715 0)
(0.221492 -0.00450238 0)
(0.210141 -0.0202474 0)
(0.203874 -0.0296828 0)
(0.201817 -0.0445174 0)
(0.202621 -0.0300379 0)
(0.332674 -0.0374335 0)
(0.325745 -0.0247908 0)
(0.316965 -0.0126049 0)
(0.305285 -0.00352992 0)
(0.292082 0.00133623 0)
(0.27798 0.000740467 0)
(0.265717 -0.00417223 0)
(0.256881 -0.0106694 0)
(0.254583 -0.0135016 0)
(0.254995 -0.00928055 0)
(0.255933 0.0014384 0)
(0.250387 0.0126373 0)
(0.24191 0.0200757 0)
(0.226575 0.0204229 0)
(0.210089 0.0150826 0)
(0.191591 0.00291279 0)
(0.179363 -0.0152071 0)
(0.174854 -0.028025 0)
(0.173425 -0.0445463 0)
(0.176368 -0.0291163 0)
(0.321916 -0.0370635 0)
(0.30038 -0.0214283 0)
(0.284909 -0.00654014 0)
(0.26874 0.00355427 0)
(0.252786 0.00926938 0)
(0.235451 0.00842286 0)
(0.219668 0.00196909 0)
(0.209105 -0.00732533 0)
(0.207867 -0.0129663 0)
(0.211799 -0.00978999 0)
(0.216798 0.00205002 0)
(0.215476 0.0156875 0)
(0.209343 0.0258501 0)
(0.194309 0.0287674 0)
(0.176572 0.0244957 0)
(0.159072 0.0103649 0)
(0.149121 -0.0111257 0)
(0.147766 -0.0274974 0)
(0.147644 -0.0454345 0)
(0.15282 -0.0289149 0)
(0.265501 -0.0207402 0)
(0.225332 -0.00680272 0)
(0.210418 0.00597591 0)
(0.196884 0.013105 0)
(0.184815 0.0186692 0)
(0.168845 0.0174192 0)
(0.155085 0.00881236 0)
(0.148808 -0.00495014 0)
(0.152843 -0.0147061 0)
(0.162315 -0.0129957 0)
(0.172286 4.45042e-05 0)
(0.175489 0.0167442 0)
(0.171715 0.0307911 0)
(0.158061 0.0369152 0)
(0.14226 0.0330401 0)
(0.129315 0.0161289 0)
(0.123553 -0.0089241 0)
(0.125403 -0.0283 0)
(0.12644 -0.04717 0)
(0.133518 -0.0294785 0)
(0.106361 0.00608785 0)
(0.0907112 0.00165439 0)
(0.10101 0.00998066 0)
(0.10225 0.0160136 0)
(0.102732 0.0238988 0)
(0.0957287 0.0226582 0)
(0.0915261 0.0113163 0)
(0.0936708 -0.00696475 0)
(0.103366 -0.0201796 0)
(0.116869 -0.0191583 0)
(0.130056 -0.00414899 0)
(0.13629 0.0165178 0)
(0.13455 0.0349278 0)
(0.124197 0.0436643 0)
(0.113562 0.0390538 0)
(0.107051 0.0191792 0)
(0.105447 -0.00861437 0)
(0.109517 -0.0300239 0)
(0.111145 -0.0494847 0)
(0.119424 -0.0308009 0)
(0.0429874 -0.00247321 0)
(0.0312956 -0.00238819 0)
(0.0510006 0.00546656 0)
(0.0567156 0.013534 0)
(0.0636291 0.0234952 0)
(0.0628171 0.0227854 0)
(0.0649168 0.0102765 0)
(0.0709039 -0.00974652 0)
(0.0816202 -0.0243918 0)
(0.0950986 -0.0237786 0)
(0.108541 -0.00759134 0)
(0.11588 0.0154964 0)
(0.115789 0.036373 0)
(0.108612 0.0462567 0)
(0.101982 0.0409749 0)
(0.0993308 0.0197923 0)
(0.0997044 -0.00916819 0)
(0.104275 -0.0311008 0)
(0.105759 -0.0510623 0)
(0.114079 -0.0321113 0)
(0.0218036 -0.00765559 0)
(0.0103907 -0.00313452 0)
(0.0321267 0.00357209 0)
(0.0392885 0.0123464 0)
(0.0487201 0.0228996 0)
(0.0506292 0.0224509 0)
(0.0554452 0.00951063 0)
(0.0629269 -0.011073 0)
(0.0737597 -0.0261972 0)
(0.0868145 -0.025758 0)
(0.100025 -0.00912832 0)
(0.107662 0.0149438 0)
(0.108285 0.0368359 0)
(0.102588 0.0471532 0)
(0.0977734 0.041539 0)
(0.0967769 0.0198622 0)
(0.0979655 -0.00954556 0)
(0.102655 -0.0315762 0)
(0.103999 -0.0517596 0)
(0.112208 -0.032719 0)
(0.00692138 -0.00859423 0)
(-0.00540648 -0.00396985 0)
(0.0169653 0.00149298 0)
(0.0250561 0.01095 0)
(0.0366532 0.0219199 0)
(0.0411781 0.0217295 0)
(0.0485162 0.00845695 0)
(0.0572046 -0.0124826 0)
(0.0677905 -0.0279407 0)
(0.0800191 -0.0276576 0)
(0.0926687 -0.0106534 0)
(0.10042 0.0143146 0)
(0.10173 0.0371274 0)
(0.0975508 0.0477974 0)
(0.0945519 0.0418356 0)
(0.0951207 0.0197517 0)
(0.0970528 -0.0100005 0)
(0.101747 -0.0320397 0)
(0.102873 -0.0524328 0)
(0.110842 -0.03333 0)
(-0.00260843 -0.00758324 0)
(-0.0163412 -0.00476999 0)
(0.00577664 -0.000707876 0)
(0.0143284 0.00934061 0)
(0.0277188 0.0206018 0)
(0.0346671 0.020642 0)
(0.0442423 0.00714961 0)
(0.0538081 -0.0139392 0)
(0.0637904 -0.029582 0)
(0.0748097 -0.0294342 0)
(0.0865801 -0.0121302 0)
(0.0942655 0.0136334 0)
(0.0962244 0.0372558 0)
(0.0935704 0.0481954 0)
(0.0923498 0.0418867 0)
(0.0943715 0.019481 0)
(0.0969698 -0.0105031 0)
(0.101553 -0.0324789 0)
(0.102388 -0.0530624 0)
(0.109979 -0.0339302 0)
(-0.00761887 -0.00550111 0)
(-0.0225597 -0.00546622 0)
(-0.00123904 -0.00289522 0)
(0.0073307 0.00759433 0)
(0.0221145 0.0189917 0)
(0.0312111 0.01923 0)
(0.0426706 0.00563933 0)
(0.0527723 -0.0153889 0)
(0.0618216 -0.031064 0)
(0.0712758 -0.031034 0)
(0.0818577 -0.0135207 0)
(0.0892967 0.0129172 0)
(0.0918514 0.0372252 0)
(0.0906982 0.0483529 0)
(0.0911844 0.0417065 0)
(0.0945289 0.0190657 0)
(0.0977132 -0.0110402 0)
(0.102073 -0.0328795 0)
(0.102551 -0.0536324 0)
(0.109614 -0.0345091 0)
(-0.00865032 -0.00293436 0)
(-0.0241291 -0.00603514 0)
(-0.0039311 -0.00499985 0)
(0.00421322 0.00578889 0)
(0.019949 0.0171427 0)
(0.0308448 0.0175463 0)
(0.0437901 0.00398105 0)
(0.0540956 -0.0167814 0)
(0.061924 -0.0323362 0)
(0.0694923 -0.0324079 0)
(0.0785868 -0.014789 0)
(0.0855961 0.0121829 0)
(0.0886765 0.0370422 0)
(0.0889674 0.0482789 0)
(0.0910588 0.0413104 0)
(0.095583 0.0185213 0)
(0.099273 -0.0115996 0)
(0.103305 -0.0332282 0)
(0.103364 -0.0541273 0)
(0.109742 -0.0350553 0)
(-0.00588803 -0.000480873 0)
(-0.0210427 -0.00649411 0)
(-0.00219891 -0.00696994 0)
(0.00506156 0.00397996 0)
(0.0212515 0.0151178 0)
(0.0335339 0.015651 0)
(0.0475393 0.00222996 0)
(0.0577376 -0.0180734 0)
(0.0641072 -0.0333564 0)
(0.0695138 -0.0335119 0)
(0.0768363 -0.0159 0)
(0.0832282 0.0114492 0)
(0.086746 0.0367176 0)
(0.0883936 0.0479872 0)
(0.0919632 0.0407177 0)
(0.0975158 0.0178646 0)
(0.101633 -0.0121681 0)
(0.10524 -0.0335129 0)
(0.104829 -0.0545316 0)
(0.110358 -0.0355554 0)
(0.00082499 0.00125222 0)
(-0.0132231 -0.00685479 0)
(0.00400091 -0.0087441 0)
(0.00989943 0.00222235 0)
(0.0259853 0.0129914 0)
(0.039186 0.0136111 0)
(0.0538098 0.000436193 0)
(0.0636164 -0.0192276 0)
(0.0683435 -0.0340908 0)
(0.0713682 -0.0343074 0)
(0.076656 -0.0168203 0)
(0.0822391 0.0107363 0)
(0.0860878 0.0362661 0)
(0.0889765 0.0474962 0)
(0.0938768 0.0399506 0)
(0.100302 0.0171124 0)
(0.10477 -0.0127322 0)
(0.107867 -0.0337224 0)
(0.106942 -0.0548299 0)
(0.111454 -0.0359933 0)
(0.0119306 0.0015959 0)
(-0.000537645 -0.00713564 0)
(0.0146452 -0.010253 0)
(0.0186914 0.000592976 0)
(0.0340565 0.0108471 0)
(0.0476596 0.0114987 0)
(0.0624506 -0.00134674 0)
(0.0716065 -0.0202134 0)
(0.0745625 -0.0345137 0)
(0.0750509 -0.0347606 0)
(0.0780739 -0.0175159 0)
(0.0826557 0.0100674 0)
(0.0867126 0.0357063 0)
(0.0907021 0.0468279 0)
(0.0967697 0.0390335 0)
(0.103908 0.0162818 0)
(0.108655 -0.0132804 0)
(0.111167 -0.0338484 0)
(0.109694 -0.0550074 0)
(0.113021 -0.0363554 0)
(0.0280273 -0.000605098 0)
(0.017194 -0.0074833 0)
(0.029635 -0.0114221 0)
(0.0313348 -0.000816593 0)
(0.0453193 0.00876192 0)
(0.058774 0.00937356 0)
(0.0732716 -0.00306328 0)
(0.081538 -0.0210054 0)
(0.0826483 -0.0346063 0)
(0.0805199 -0.0348413 0)
(0.0810932 -0.017949 0)
(0.0844855 0.00947525 0)
(0.0886156 0.0350617 0)
(0.0935464 0.0460045 0)
(0.100606 0.0379855 0)
(0.108298 0.0153898 0)
(0.113252 -0.0138104 0)
(0.115112 -0.0338916 0)
(0.113072 -0.0550461 0)
(0.115049 -0.0366519 0)
(0.064217 -0.007025 0)
(0.0557537 -0.00862469 0)
(0.0617137 -0.0127004 0)
(0.0586499 -0.0028113 0)
(0.0691953 0.00545629 0)
(0.0814552 0.00584551 0)