x,y,z,U_0,U_1,U_2
0,0,0,0.3,-0.000292036,0
0,0.1,0,0.3,-0.000175222,0
0,0.2,0,0.3,-5.84072e-05,0
0,0.3,0,0.3,0,0
0,0.4,0,0.3,0,0
0,0.5,0,0.3,-1.33575e-19,0
0,0.6,0,0.3,0,0
0,0.7,0,0.3,0,0
0,0.8,0,0.3,0,0
0,0.9,0,0.3,0,0
0,1,0,0.3,0,0
0,1.1,0,0.3,0,0
0,1.2,0,0.3,0,0
0,1.3,0,0.3,0,0
0,1.4,0,0.3,0,0
0,1.5,0,0.3,0,0
0,1.6,0,0.3,0,0
0,1.7,0,0.3,0,0
0,1.8,0,0.3,0,0
0,1.9,0,0.3,0,0
0,2,0,0.3,0,0
0,2.1,0,0.3,0,0
0,2.2,0,0.3,0,0
0,2.3,0,0.3,0,0
0,2.4,0,0.3,0,0
0,2.5,0,0.3,0,0
0,2.6,0,0.3,0,0
0,2.7,0,0.3,0,0
0,2.8,0,0.3,0,0
0,2.9,0,0.3,0,0
0,3,0,0.3,0,0
0,3.1,0,0.3,0,0
0,3.2,0,0.3,0,0
0,3.3,0,0.3,0,0
0,3.4,0,0.3,0,0
0,3.5,0,0.3,0,0
0,3.6,0,0.3,0,0
0,3.7,0,0.3,0,0
0,3.8,0,0.3,0,0
0,3.9,0,0.3,0,0
0,4,0,0.3,0,0
0,4.1,0,0.3,0,0
0,4.2,0,0.3,0,0
0,4.3,0,0.3,0,0
0,4.4,0,0.3,0,0
0,4.5,0,0.3,0,0
0,4.6,0,0.3,0,0
0,4.7,0,0.3,0,0
0,4.8,0,0.3,0,0
0,4.9,0,0.3,0,0
0,5,0,0.3,-3.64838e-20,0
0,5.1,0,0.3,0,0
0,5.2,0,0.3,-2.8209e-20,0
0,5.3,0,0.3,-2.47283e-20,0
0,5.4,0,0.3,0,0
0,5.5,0,0.3,-1.77415e-20,0
0,5.6,0,0.3,0,0
0,5.7,0,0.3,0,0
0,5.8,0,0.3,0,0
0,5.9,0,0.3,-3.80896e-21,0
0,6,0,0.3,0,0
0,6.1,0,0.3,0,0
0,6.2,0,0.3,0,0
0,6.3,0,0.3,0,0
0,6.4,0,0.3,0,0
0,6.5,0,0.3,0,0
0,6.6,0,0.3,0,0
0,6.7,0,0.3,0,0
0,6.8,0,0.3,0,0
0,6.9,0,0.3,0,0
0,7,0,0.3,0,0
0,7.1,0,0.3,0,0
0,7.2,0,0.3,0,0
0,7.3,0,0.3,0,0
0,7.4,0,0.3,0,0
0,7.5,0,0.3,0,0
0,7.6,0,0.3,0,0
0,7.7,0,0.3,0,0
0,7.8,0,0.3,0,0
0,7.9,0,0.3,0,0
0,8,0,0.3,0,0
0,8.1,0,0.3,0,0
0,8.2,0,0.3,0,0
0,8.3,0,0.3,0,0
0,8.4,0,0.3,0,0
0,8.5,0,0.3,0,0
0,8.6,0,0.3,0,0
0,8.7,0,0.3,0,0
0,8.8,0,0.3,0,0
0,8.9,0,0.3,0,0
0,9,0,0.3,0,0
0,9.1,0,0.3,0,0
0,9.2,0,0.3,0,0
0,9.3,0,0.3,0,0
0,9.4,0,0.3,0,0
0,9.5,0,0.3,0,0
0,9.6,0,0.3,0,0
0,9.7,0,0.3,0,0
0,9.8,0,0.3,0,0
0,9.9,0,0.3,0,0
0,10,0,0.3,0,0
0,10.1,0,0.3,0,0
0,10.2,0,0.3,0,0
0,10.3,0,0.3,0,0
0,10.4,0,0.3,0,0
0,10.5,0,0.3,0,0
0,10.6,0,0.3,0,0
0,10.7,0,0.3,0,0
0,10.8,0,0.3,0,0
0,10.9,0,0.3,0,0
0,11,0,0.3,0,0
0,11.1,0,0.3,0,0
0,11.2,0,0.3,0,0
0,11.3,0,0.3,0,0
0,11.4,0,0.3,0,0
0,11.5,0,0.3,0,0
0,11.6,0,0.3,0,0
0,11.7,0,0.3,0,0
0,11.8,0,0.3,0,0
0,11.9,0,0.3,0,0
0,12,0,0.3,0,0
0,12.1,0,0.3,0,0
0,12.2,0,0.3,0,0
0,12.3,0,0.3,0,0
0,12.4,0,0.3,2.56781e-05,0
0,12.5,0,0.3,9.90441e-05,0
0,12.6,0,0.3,0.00017241,0
0,12.7,0,0.3,0.000245776,0
0.1,0,0,0.299999,-0.000496517,0
0.1,0.1,0,0.3,-0.000378199,0
0.1,0.2,0,0.3,-0.000267974,0
0.1,0.3,0,0.299999,-0.000266971,0
0.1,0.4,0,0.3,-0.00026676,0
0.1,0.5,0,0.299998,-0.000267364,0
0.1,0.6,0,0.3,-0.000264531,0
0.1,0.7,0,0.299999,-0.000264565,0
0.1,0.8,0,0.299999,-0.00026155,0
0.1,0.9,0,0.299999,-0.000261181,0
0.1,1,0,0.299996,-0.000261389,0
0.1,1.1,0,0.299999,-0.00025672,0
0.1,1.2,0,0.299999,-0.00025674,0
0.1,1.3,0,0.299998,-0.000251724,0
0.1,1.4,0,0.299999,-0.000251147,0
0.1,1.5,0,0.299994,-0.00025146,0
0.1,1.6,0,0.299998,-0.000244471,0
0.1,1.7,0,0.299998,-0.000244523,0
0.1,1.8,0,0.299997,-0.00023755,0
0.1,1.9,0,0.299998,-0.000236723,0
0.1,2,0,0.299992,-0.000237505,0
0.1,2.1,0,0.299997,-0.000227959,0
0.1,2.2,0,0.299997,-0.000228062,0
0.1,2.3,0,0.299997,-0.000219342,0
0.1,2.4,0,0.299997,-0.00021827,0
0.1,2.5,0,0.29999,-0.000219425,0
0.1,2.6,0,0.299997,-0.000207777,0
0.1,2.7,0,0.299997,-0.000207879,0
0.1,2.8,0,0.299997,-0.000197838,0
0.1,2.9,0,0.299997,-0.00019662,0
0.1,3,0,0.299989,-0.00019711,0
0.1,3.1,0,0.299998,-0.000184933,0
0.1,3.2,0,0.299997,-0.000184875,0
0.1,3.3,0,0.299999,-0.000173965,0
0.1,3.4,0,0.3,-0.000172812,0
0.1,3.5,0,0.299987,-0.000170536,0
0.1,3.6,0,0.300004,-0.000160273,0
0.1,3.7,0,0.300002,-0.000159818,0
0.1,3.8,0,0.300006,-0.000148091,0
0.1,3.9,0,0.300008,-0.000147243,0
0.1,4,0,0.299985,-0.000139989,0
0.1,4.1,0,0.300014,-0.000133566,0
0.1,4.2,0,0.300011,-0.000132553,0
0.1,4.3,0,0.300016,-0.000119498,0
0.1,4.4,0,0.30002,-0.000119061,0
0.1,4.5,0,0.299982,-0.000106155,0
0.1,4.6,0,0.300026,-0.000103738,0
0.1,4.7,0,0.300022,-0.000102195,0
0.1,4.8,0,0.300026,-8.76639e-05,0
0.1,4.9,0,0.300032,-8.75924e-05,0
0.1,5,0,0.29998,-7.30259e-05,0
0.1,5.1,0,0.299979,-6.34263e-05,0
0.1,5.2,0,0.299979,-5.64632e-05,0
0.1,5.3,0,0.299979,-4.94962e-05,0
0.1,5.4,0,0.299979,-4.25091e-05,0
0.1,5.5,0,0.299979,-3.55113e-05,0
0.1,5.6,0,0.299979,-2.85144e-05,0
0.1,5.7,0,0.299979,-2.15302e-05,0
0.1,5.8,0,0.299979,-1.4572e-05,0
0.1,5.9,0,0.299979,-7.62401e-06,0
0.1,6,0,0.29998,3.39786e-06,0
0.1,6.1,0,0.300029,2.20944e-05,0
0.1,6.2,0,0.300029,2.20944e-05,0
0.1,6.3,0,0.300004,2.28324e-05,0
0.1,6.4,0,0.300016,3.9079e-05,0
0.1,6.5,0,0.300021,4.13445e-05,0
0.1,6.6,0,0.300019,4.16993e-05,0
0.1,6.7,0,0.299995,5.25184e-05,0
0.1,6.8,0,0.300013,6.0268e-05,0
0.1,6.9,0,0.300013,6.0268e-05,0
0.1,7,0,0.299986,6.90485e-05,0
0.1,7.1,0,0.300007,7.83689e-05,0
0.1,7.2,0,0.300007,7.83689e-05,0
0.1,7.3,0,0.299997,8.39892e-05,0
0.1,7.4,0,0.299999,9.49019e-05,0
0.1,7.5,0,0.300002,9.59578e-05,0
0.1,7.6,0,0.300002,9.59578e-05,0
0.1,7.7,0,0.299991,0.000110809,0
0.1,7.8,0,0.3,0.000113088,0
0.1,7.9,0,0.3,0.000113088,0
0.1,8,0,0.29999,0.000125164,0
0.1,8.1,0,0.299998,0.000129535,0
0.1,8.2,0,0.299998,0.000129535,0
0.1,8.3,0,0.299995,0.000134731,0
0.1,8.4,0,0.299996,0.000144358,0
0.1,8.5,0,0.299998,0.000144955,0
0.1,8.6,0,0.299998,0.000144955,0
0.1,8.7,0,0.299993,0.000157263,0
0.1,8.8,0,0.299998,0.000159026,0
0.1,8.9,0,0.299998,0.000159026,0
0.1,9,0,0.299993,0.000166942,0
0.1,9.1,0,0.299999,0.000171541,0
0.1,9.2,0,0.299999,0.000171541,0
0.1,9.3,0,0.299997,0.000174226,0
0.1,9.4,0,0.299997,0.000181534,0
0.1,9.5,0,0.299999,0.000182421,0
0.1,9.6,0,0.299999,0.000182421,0
0.1,9.7,0,0.299995,0.000189576,0
0.1,9.8,0,0.299999,0.0001917,0
0.1,9.9,0,0.299999,0.0001917,0
0.1,10,0,0.299996,0.000195572,0
0.1,10.1,0,0.299999,0.000199476,0
0.1,10.2,0,0.299999,0.000199476,0
0.1,10.3,0,0.299998,0.000200575,0
0.1,10.4,0,0.299998,0.000205016,0
0.1,10.5,0,0.3,0.000205888,0
0.1,10.6,0,0.3,0.000205888,0
0.1,10.7,0,0.299997,0.000209459,0
0.1,10.8,0,0.3,0.00021108,0
0.1,10.9,0,0.3,0.00021108,0
0.1,11,0,0.299998,0.000212804,0
0.1,11.1,0,0.3,0.000215188,0
0.1,11.2,0,0.3,0.000215188,0
0.1,11.3,0,0.299999,0.000215575,0
0.1,11.4,0,0.299999,0.000217802,0
0.1,11.5,0,0.3,0.000218333,0
0.1,11.6,0,0.3,0.000218333,0
0.1,11.7,0,0.299999,0.000219877,0
0.1,11.8,0,0.3,0.000220612,0
0.1,11.9,0,0.3,0.000220612,0
0.1,12,0,0.299999,0.000221236,0
0.1,12.1,0,0.3,0.000222064,0
0.1,12.2,0,0.3,0.00022209,0
0.1,12.3,0,0.3,0.000222173,0
0.1,12.4,0,0.3,0.000222775,0
0.1,12.5,0,0.3,0.000267241,0
0.1,12.6,0,0.3,0.000340607,0
0.1,12.7,0,0.3,0.000414257,0
0.2,0,0,0.299999,-0.000700997,0
0.2,0.1,0,0.3,-0.000581477,0
0.2,0.2,0,0.299999,-0.000536844,0
0.2,0.3,0,0.299998,-0.000535841,0
0.2,0.4,0,0.299999,-0.000533641,0
0.2,0.5,0,0.299996,-0.000534728,0
0.2,0.6,0,0.299999,-0.000529629,0
0.2,0.7,0,0.299996,-0.000529435,0
0.2,0.8,0,0.299996,-0.00052642,0
0.2,0.9,0,0.299998,-0.000522404,0
0.2,1,0,0.299992,-0.000522779,0
0.2,1.1,0,0.299998,-0.000514373,0
0.2,1.2,0,0.299994,-0.000513662,0
0.2,1.3,0,0.299993,-0.000508646,0
0.2,1.4,0,0.299996,-0.000502356,0
0.2,1.5,0,0.299988,-0.00050292,0
0.2,1.6,0,0.299996,-0.00049034,0
0.2,1.7,0,0.299991,-0.000489515,0
0.2,1.8,0,0.29999,-0.000482541,0
0.2,1.9,0,0.299994,-0.000473602,0
0.2,2,0,0.299984,-0.000475009,0
0.2,2.1,0,0.299994,-0.000457827,0
0.2,2.2,0,0.299988,-0.00045705,0
0.2,2.3,0,0.299988,-0.00044833,0
0.2,2.4,0,0.299993,-0.000436771,0
0.2,2.5,0,0.299981,-0.00043885,0
0.2,2.6,0,0.299993,-0.000417883,0
0.2,2.7,0,0.299986,-0.000416682,0
0.2,2.8,0,0.299986,-0.00040664,0
0.2,2.9,0,0.299993,-0.000393337,0
0.2,3,0,0.299978,-0.00039422,0
0.2,3.1,0,0.299995,-0.000372302,0
0.2,3.2,0,0.299985,-0.000369223,0
0.2,3.3,0,0.299987,-0.000358313,0
0.2,3.4,0,0.299998,-0.000345168,0
0.2,3.5,0,0.299974,-0.000341072,0
0.2,3.6,0,0.300004,-0.000322598,0
0.2,3.7,0,0.299988,-0.000315541,0
0.2,3.8,0,0.299992,-0.000303813,0
0.2,3.9,0,0.300011,-0.000293035,0
0.2,4,0,0.299969,-0.000279978,0
0.2,4.1,0,0.300022,-0.000268416,0
0.2,4.2,0,0.299994,-0.000255988,0
0.2,4.3,0,0.3,-0.000242934,0
0.2,4.4,0,0.300032,-0.000235541,0
0.2,4.5,0,0.299964,-0.00021231,0
0.2,4.6,0,0.300044,-0.00020796,0
0.2,4.7,0,0.300002,-0.000190503,0
0.2,4.8,0,0.300007,-0.000175971,0
0.2,4.9,0,0.300053,-0.000172272,0
0.2,5,0,0.299959,-0.000146052,0
0.2,5.1,0,0.299958,-0.000126853,0
0.2,5.2,0,0.299958,-0.000112926,0
0.2,5.3,0,0.299957,-9.89923e-05,0
0.2,5.4,0,0.299957,-8.50182e-05,0
0.2,5.5,0,0.299957,-7.10227e-05,0
0.2,5.6,0,0.299957,-5.70287e-05,0
0.2,5.7,0,0.299958,-4.30604e-05,0
0.2,5.8,0,0.299958,-2.91441e-05,0
0.2,5.9,0,0.299959,-1.5248e-05,0
0.2,6,0,0.29996,6.79573e-06,0
0.2,6.1,0,0.300026,3.19104e-05,0
0.2,6.2,0,0.30005,4.44486e-05,0
0.2,6.3,0,0.299985,4.63197e-05,0
0.2,6.4,0,0.299997,6.25663e-05,0
0.2,6.5,0,0.300043,8.2689e-05,0
0.2,6.6,0,0.300002,8.89866e-05,0
0.2,6.7,0,0.299978,9.98057e-05,0
0.2,6.8,0,0.300019,0.000117242,0
0.2,6.9,0,0.30001,0.000126085,0
0.2,7,0,0.299971,0.000138729,0
0.2,7.1,0,0.299997,0.000150449,0
0.2,7.2,0,0.300011,0.000158188,0
0.2,7.3,0,0.299983,0.000174505,0
0.2,7.4,0,0.299985,0.000185418,0
0.2,7.5,0,0.300004,0.000191916,0
0.2,7.6,0,0.29999,0.000205513,0
0.2,7.7,0,0.299979,0.000220467,0
0.2,7.8,0,0.299995,0.000225074,0
0.2,7.9,0,0.299993,0.000233462,0
0.2,8,0,0.299978,0.000252201,0
0.2,8.1,0,0.299989,0.000257094,0
0.2,8.2,0,0.299996,0.000259756,0
0.2,8.3,0,0.299984,0.000277403,0
0.2,8.4,0,0.299985,0.000287031,0
0.2,8.5,0,0.299996,0.000289909,0
0.2,8.6,0,0.299989,0.0003007,0
0.2,8.7,0,0.299983,0.000313879,0
0.2,8.8,0,0.299993,0.000317117,0
0.2,8.9,0,0.299993,0.000322565,0
0.2,9,0,0.299985,0.000335881,0
0.2,9.1,0,0.299991,0.000340849,0
0.2,9.2,0,0.299997,0.000343082,0
0.2,9.3,0,0.299989,0.000353945,0
0.2,9.4,0,0.299989,0.000361253,0
0.2,9.5,0,0.299997,0.000364843,0
0.2,9.6,0,0.299993,0.000370523,0
0.2,9.7,0,0.299989,0.000378616,0
0.2,9.8,0,0.299996,0.000382188,0
0.2,9.9,0,0.299997,0.000385454,0
0.2,10,0,0.299991,0.000392567,0
0.2,10.1,0,0.299994,0.000396656,0
0.2,10.2,0,0.299998,0.000398953,0
0.2,10.3,0,0.299994,0.000404257,0
0.2,10.4,0,0.299994,0.000408698,0
0.2,10.5,0,0.299999,0.000411661,0
0.2,10.6,0,0.299997,0.000414402,0
0.2,10.7,0,0.299993,0.000418667,0
0.2,10.8,0,0.299998,0.000421181,0
0.2,10.9,0,0.299998,0.000422992,0
0.2,11,0,0.299995,0.000426479,0
0.2,11.1,0,0.299997,0.000428874,0
0.2,11.2,0,0.299999,0.000430375,0
0.2,11.3,0,0.299997,0.00043276,0
0.2,11.4,0,0.299997,0.000434987,0
0.2,11.5,0,0.299999,0.000436529,0
0.2,11.6,0,0.299998,0.000437745,0
0.2,11.7,0,0.299997,0.0004397,0
0.2,11.8,0,0.299999,0.000440759,0
0.2,11.9,0,0.3,0.000441489,0
0.2,12,0,0.299998,0.000442895,0
0.2,12.1,0,0.299999,0.000443723,0
0.2,12.2,0,0.3,0.00044418,0
0.2,12.3,0,0.299999,0.000444912,0
0.2,12.4,0,0.299999,0.000445514,0
0.2,12.5,0,0.3,0.000445615,0
0.2,12.6,0,0.3,0.000508991,0
0.2,12.7,0,0.3,0.000582738,0
0.3,0,0,0.299998,-0.000905478,0
0.3,0.1,0,0.299999,-0.000805725,0
0.3,0.2,0,0.299998,-0.000805715,0
0.3,0.3,0,0.299997,-0.000804712,0
0.3,0.4,0,0.299997,-0.000801638,0
0.3,0.5,0,0.299994,-0.000802093,0
0.3,0.6,0,0.299996,-0.000797095,0
0.3,0.7,0,0.299993,-0.000794305,0
0.3,0.8,0,0.299993,-0.000791291,0
0.3,0.9,0,0.299993,-0.0007849,0
0.3,1,0,0.299988,-0.000784168,0
0.3,1.1,0,0.299993,-0.000775823,0
0.3,1.2,0,0.299989,-0.000770584,0
0.3,1.3,0,0.299989,-0.000765569,0
0.3,1.4,0,0.29999,-0.000755549,0
0.3,1.5,0,0.299982,-0.00075438,0
0.3,1.6,0,0.299988,-0.000741956,0
0.3,1.7,0,0.299984,-0.000734506,0
0.3,1.8,0,0.299984,-0.000727532,0
0.3,1.9,0,0.299985,-0.000713587,0
0.3,2,0,0.299976,-0.000712514,0
0.3,2.1,0,0.299984,-0.000695641,0
0.3,2.2,0,0.299979,-0.000686037,0
0.3,2.3,0,0.299979,-0.000677317,0
0.3,2.4,0,0.299982,-0.000659411,0
0.3,2.5,0,0.299972,-0.000658274,0
0.3,2.6,0,0.299982,-0.000637616,0
0.3,2.7,0,0.299976,-0.000625484,0
0.3,2.8,0,0.299976,-0.000615443,0
0.3,2.9,0,0.299979,-0.000594102,0
0.3,3,0,0.299966,-0.000591331,0
0.3,3.1,0,0.29998,-0.000569237,0
0.3,3.2,0,0.299973,-0.000553571,0
0.3,3.3,0,0.299975,-0.000542661,0
0.3,3.4,0,0.299982,-0.000519165,0
0.3,3.5,0,0.299961,-0.000511608,0
0.3,3.6,0,0.299986,-0.000491769,0
0.3,3.7,0,0.299974,-0.000471263,0
0.3,3.8,0,0.299978,-0.000459536,0
0.3,3.9,0,0.299989,-0.000435568,0
0.3,4,0,0.299954,-0.000419967,0
0.3,4.1,0,0.299997,-0.000405366,0
0.3,4.2,0,0.299978,-0.000379423,0
0.3,4.3,0,0.299983,-0.000366369,0
0.3,4.4,0,0.300003,-0.000343008,0
0.3,4.5,0,0.299946,-0.000318465,0
0.3,4.6,0,0.300012,-0.000309486,0
0.3,4.7,0,0.299983,-0.00027881,0
0.3,4.8,0,0.299988,-0.000264279,0
0.3,4.9,0,0.300017,-0.000245512,0
0.3,5,0,0.299939,-0.000219078,0
0.3,5.1,0,0.299938,-0.000190279,0
0.3,5.2,0,0.299937,-0.00016939,0
0.3,5.3,0,0.299936,-0.000148489,0
0.3,5.4,0,0.299936,-0.000127527,0
0.3,5.5,0,0.299936,-0.000106534,0
0.3,5.6,0,0.299936,-8.55431e-05,0
0.3,5.7,0,0.299936,-6.45906e-05,0
0.3,5.8,0,0.299937,-4.37161e-05,0
0.3,5.9,0,0.299938,-2.2872e-05,0
0.3,6,0,0.299939,1.01936e-05,0
0.3,6.1,0,0.300006,3.53083e-05,0
0.3,6.2,0,0.300015,6.20758e-05,0
0.3,6.3,0,0.299966,6.98069e-05,0
0.3,6.4,0,0.299978,8.60536e-05,0
0.3,6.5,0,0.300005,0.000114298,0
0.3,6.6,0,0.299985,0.000136274,0
0.3,6.7,0,0.299961,0.000147093,0
0.3,6.8,0,0.299995,0.000166848,0
0.3,6.9,0,0.299994,0.000195766,0
0.3,7,0,0.299956,0.00020841,0
0.3,7.1,0,0.299982,0.000220129,0
0.3,7.2,0,0.299988,0.000245398,0
0.3,7.3,0,0.299969,0.000265021,0
0.3,7.4,0,0.299971,0.000275934,0
0.3,7.5,0,0.299983,0.000292138,0
0.3,7.6,0,0.299977,0.00031517,0
0.3,7.7,0,0.299966,0.000330124,0
0.3,7.8,0,0.29998,0.00033723,0
0.3,7.9,0,0.299981,0.0003605,0
0.3,8,0,0.299966,0.000379238,0
0.3,8.1,0,0.299977,0.000384131,0
0.3,8.2,0,0.299981,0.00040131,0
0.3,8.3,0,0.299974,0.000420075,0
0.3,8.4,0,0.299975,0.000429703,0
0.3,8.5,0,0.299982,0.000439557,0
0.3,8.6,0,0.29998,0.000457316,0
0.3,8.7,0,0.299974,0.000470495,0
0.3,8.8,0,0.299983,0.000474843,0
0.3,8.9,0,0.299985,0.000491396,0
0.3,9,0,0.299976,0.00050482,0
0.3,9.1,0,0.299983,0.000509788,0
0.3,9.2,0,0.299987,0.000521339,0
0.3,9.3,0,0.299982,0.000533665,0
0.3,9.4,0,0.299982,0.000540972,0
0.3,9.5,0,0.299988,0.00054801,0
0.3,9.6,0,0.299987,0.000559563,0
0.3,9.7,0,0.299982,0.000567656,0
0.3,9.8,0,0.299989,0.000571466,0
0.3,9.9,0,0.299991,0.000582151,0
0.3,10,0,0.299985,0.000589562,0
0.3,10.1,0,0.299989,0.000593651,0
0.3,10.2,0,0.299992,0.000600845,0
0.3,10.3,0,0.29999,0.000607939,0
0.3,10.4,0,0.299989,0.00061238,0
0.3,10.5,0,0.299993,0.000616829,0
0.3,10.6,0,0.299993,0.00062361,0
0.3,10.7,0,0.29999,0.000627874,0
0.3,10.8,0,0.299994,0.000630389,0
0.3,10.9,0,0.299995,0.000636333,0
0.3,11,0,0.299992,0.000640155,0
0.3,11.1,0,0.299994,0.00064255,0
0.3,11.2,0,0.299996,0.00064628,0
0.3,11.3,0,0.299995,0.000649945,0
0.3,11.4,0,0.299994,0.000652172,0
0.3,11.5,0,0.299996,0.000654281,0
0.3,11.6,0,0.299997,0.000657568,0
0.3,11.7,0,0.299995,0.000659524,0
0.3,11.8,0,0.299998,0.000660582,0
0.3,11.9,0,0.299998,0.000662953,0
0.3,12,0,0.299997,0.000664553,0
0.3,12.1,0,0.299998,0.000665381,0
0.3,12.2,0,0.299999,0.00066647,0
0.3,12.3,0,0.299999,0.000667652,0
0.3,12.4,0,0.299999,0.000668254,0
0.3,12.5,0,0.299999,0.000668443,0
0.3,12.6,0,0.3,0.000677472,0
0.3,12.7,0,0.299999,0.000751219,0
0.4,0,0,0.299998,-0.00110996,0
0.4,0.1,0,0.299997,-0.0010761,0
0.4,0.2,0,0.299997,-0.00107519,0
0.4,0.3,0,0.299996,-0.00107382,0
0.4,0.4,0,0.299994,-0.00107111,0
0.4,0.5,0,0.299992,-0.00106946,0
0.4,0.6,0,0.299992,-0.0010648,0
0.4,0.7,0,0.29999,-0.00106031,0
0.4,0.8,0,0.299989,-0.00105624,0
0.4,0.9,0,0.299987,-0.00104998,0
0.4,1,0,0.299984,-0.00104556,0
0.4,1.1,0,0.299985,-0.00103742,0
0.4,1.2,0,0.299983,-0.00102937,0
0.4,1.3,0,0.299982,-0.00102262,0
0.4,1.4,0,0.29998,-0.00101278,0
0.4,1.5,0,0.299977,-0.00100584,0
0.4,1.6,0,0.299977,-0.000993936,0
0.4,1.7,0,0.299976,-0.000982293,0
0.4,1.8,0,0.299975,-0.000972837,0
0.4,1.9,0,0.299973,-0.00095936,0
0.4,2,0,0.299969,-0.000950019,0
0.4,2.1,0,0.29997,-0.000934174,0
0.4,2.2,0,0.299968,-0.000918843,0
0.4,2.3,0,0.299968,-0.000906766,0
0.4,2.4,0,0.299966,-0.000889553,0
0.4,2.5,0,0.299962,-0.000877699,0
0.4,2.6,0,0.299964,-0.000858066,0
0.4,2.7,0,0.299963,-0.000838946,0
0.4,2.8,0,0.299962,-0.000824441,0
0.4,2.9,0,0.299961,-0.000803395,0
0.4,3,0,0.299955,-0.000788441,0
0.4,3.1,0,0.299959,-0.000765762,0
0.4,3.2,0,0.299957,-0.00074279,0
0.4,3.3,0,0.299958,-0.000726099,0
0.4,3.4,0,0.299956,-0.000701238,0
0.4,3.5,0,0.299948,-0.000682144,0
0.4,3.6,0,0.299955,-0.000657755,0
0.4,3.7,0,0.299953,-0.000631091,0
0.4,3.8,0,0.299954,-0.000612358,0
0.4,3.9,0,0.299952,-0.000584037,0
0.4,4,0,0.299939,-0.000559957,0
0.4,4.1,0,0.299952,-0.000535225,0
0.4,4.2,0,0.299949,-0.000505428,0
0.4,4.3,0,0.299951,-0.000484642,0
0.4,4.4,0,0.299949,-0.000453537,0
0.4,4.5,0,0.299928,-0.00042462,0
0.4,4.6,0,0.299948,-0.00040021,0
0.4,4.7,0,0.299946,-0.000368084,0
0.4,4.8,0,0.299948,-0.000346759,0
0.4,4.9,0,0.299946,-0.000319253,0
0.4,5,0,0.299918,-0.000292104,0
0.4,5.1,0,0.299917,-0.000253705,0
0.4,5.2,0,0.299916,-0.000225853,0
0.4,5.3,0,0.299915,-0.000197985,0
0.4,5.4,0,0.299914,-0.000170036,0
0.4,5.5,0,0.299914,-0.000142045,0
0.4,5.6,0,0.299914,-0.000114057,0
0.4,5.7,0,0.299915,-8.61208e-05,0
0.4,5.8,0,0.299916,-5.82881e-05,0
0.4,5.9,0,0.299917,-3.0496e-05,0
0.4,6,0,0.299919,1.35915e-05,0
0.4,6.1,0,0.299945,3.98808e-05,0
0.4,6.2,0,0.299947,6.68665e-05,0
0.4,6.3,0,0.299947,9.32942e-05,0
0.4,6.4,0,0.299945,0.000111758,0
0.4,6.5,0,0.299948,0.000143729,0
0.4,6.6,0,0.29995,0.000175699,0
0.4,6.7,0,0.299944,0.00019438,0
0.4,6.8,0,0.299949,0.000223548,0
0.4,6.9,0,0.299951,0.000253628,0
0.4,7,0,0.29994,0.00027809,0
0.4,7.1,0,0.29995,0.000299238,0
0.4,7.2,0,0.299952,0.000327225,0
0.4,7.3,0,0.299954,0.000355213,0
0.4,7.4,0,0.299952,0.000370642,0
0.4,7.5,0,0.299954,0.000396354,0
0.4,7.6,0,0.299956,0.000422066,0
0.4,7.7,0,0.299953,0.000439781,0
0.4,7.8,0,0.299956,0.000460838,0
0.4,7.9,0,0.299958,0.000484184,0
0.4,8,0,0.299955,0.000506276,0
0.4,8.1,0,0.299959,0.000520483,0
0.4,8.2,0,0.29996,0.000541484,0
0.4,8.3,0,0.299962,0.000562486,0
0.4,8.4,0,0.299962,0.000575159,0
0.4,8.5,0,0.299964,0.00059389,0
0.4,8.6,0,0.299965,0.000612621,0
0.4,8.7,0,0.299964,0.000627111,0
0.4,8.8,0,0.299967,0.000641372,0
0.4,8.9,0,0.299969,0.000657925,0
0.4,9,0,0.299968,0.000673759,0
0.4,9.1,0,0.299971,0.000683976,0
0.4,9.2,0,0.299972,0.000698457,0
0.4,9.3,0,0.299974,0.000712937,0
0.4,9.4,0,0.299974,0.000721828,0
0.4,9.5,0,0.299975,0.000734348,0
0.4,9.6,0,0.299977,0.000746869,0
0.4,9.7,0,0.299976,0.000756696,0
0.4,9.8,0,0.299979,0.000765801,0
0.4,9.9,0,0.29998,0.000776486,0
0.4,10,0,0.29998,0.000786557,0
0.4,10.1,0,0.299982,0.000793063,0
0.4,10.2,0,0.299983,0.000802046,0
0.4,10.3,0,0.299984,0.000811029,0
0.4,10.4,0,0.299985,0.000816409,0
0.4,10.5,0,0.299986,0.000823831,0
0.4,10.6,0,0.299987,0.000831253,0
0.4,10.7,0,0.299986,0.000837082,0
0.4,10.8,0,0.299988,0.000842134,0
0.4,10.9,0,0.299989,0.000848136,0
0.4,11,0,0.29999,0.000853831,0
0.4,11.1,0,0.29999,0.000857239,0
0.4,11.2,0,0.299991,0.000861954,0
0.4,11.3,0,0.299992,0.000866668,0
0.4,11.4,0,0.299992,0.000869413,0
0.4,11.5,0,0.299993,0.000872957,0
0.4,11.6,0,0.299994,0.000876501,0
0.4,11.7,0,0.299994,0.000879347,0
0.4,11.8,0,0.299995,0.000881359,0
0.4,11.9,0,0.299996,0.000883823,0
0.4,12,0,0.299996,0.000886211,0
0.4,12.1,0,0.299997,0.000887325,0
0.4,12.2,0,0.299997,0.000888778,0
0.4,12.3,0,0.299998,0.000890231,0
0.4,12.4,0,0.299998,0.000890994,0
0.4,12.5,0,0.299999,0.000891467,0
0.4,12.6,0,0.299999,0.000891948,0
0.4,12.7,0,0.299999,0.0009197,0
0.5,0,0,0.299997,-0.00134836,0
0.5,0.1,0,0.299996,-0.00134698,0
0.5,0.2,0,0.299995,-0.00134607,0
0.5,0.3,0,0.299993,-0.00134379,0
0.5,0.4,0,0.299991,-0.00134108,0
0.5,0.5,0,0.299988,-0.00133821,0
0.5,0.6,0,0.299987,-0.001333,0
0.5,0.7,0,0.299985,-0.00132851,0
0.5,0.8,0,0.299983,-0.00132181,0
0.5,0.9,0,0.299981,-0.00131555,0
0.5,1,0,0.299977,-0.00130822,0
0.5,1.1,0,0.299977,-0.0012995,0
0.5,1.2,0,0.299975,-0.00129146,0
0.5,1.3,0,0.299973,-0.00128035,0
0.5,1.4,0,0.299971,-0.00127052,0
0.5,1.5,0,0.299966,-0.00125837,0
0.5,1.6,0,0.299967,-0.00124642,0
0.5,1.7,0,0.299965,-0.00123478,0
0.5,1.8,0,0.299962,-0.00121912,0
0.5,1.9,0,0.29996,-0.00120565,0
0.5,2,0,0.299954,-0.00118824,0
0.5,2.1,0,0.299956,-0.00117323,0
0.5,2.2,0,0.299954,-0.00115789,0
0.5,2.3,0,0.299952,-0.00113744,0
0.5,2.4,0,0.299951,-0.00112022,0
0.5,2.5,0,0.299943,-0.00109738,0
0.5,2.6,0,0.299947,-0.00107905,0
0.5,2.7,0,0.299946,-0.00105993,0
0.5,2.8,0,0.299943,-0.00103427,0
0.5,2.9,0,0.299942,-0.00101323,0
0.5,3,0,0.299933,-0.00098543,0
0.5,3.1,0,0.299937,-0.000962819,0
0.5,3.2,0,0.299936,-0.000939848,0
0.5,3.3,0,0.299932,-0.000908689,0
0.5,3.4,0,0.299931,-0.000883828,0
0.5,3.5,0,0.299923,-0.000852552,0
0.5,3.6,0,0.299925,-0.000824226,0
0.5,3.7,0,0.299923,-0.000797562,0
0.5,3.8,0,0.299917,-0.000761263,0
0.5,3.9,0,0.299915,-0.000732942,0
0.5,4,0,0.299911,-0.000700315,0
0.5,4.1,0,0.299906,-0.000665468,0
0.5,4.2,0,0.299904,-0.000635671,0
0.5,4.3,0,0.299897,-0.000595514,0
0.5,4.4,0,0.299894,-0.000564409,0
0.5,4.5,0,0.299899,-0.000532024,0
0.5,4.6,0,0.299885,-0.000491159,0
0.5,4.7,0,0.299882,-0.000459033,0
0.5,4.8,0,0.299876,-0.000417709,0
0.5,4.9,0,0.299874,-0.000390202,0
0.5,5,0,0.299888,-0.000367005,0
0.5,5.1,0,0.299886,-0.000318667,0
0.5,5.2,0,0.299885,-0.000283441,0
0.5,5.3,0,0.299884,-0.000248165,0
0.5,5.4,0,0.299884,-0.000212793,0
0.5,5.5,0,0.299884,-0.00017737,0
0.5,5.6,0,0.299884,-0.000141951,0
0.5,5.7,0,0.299885,-0.000106593,0
0.5,5.8,0,0.299885,-7.1355e-05,0
0.5,5.9,0,0.299887,-3.61922e-05,0
0.5,6,0,0.299889,1.92715e-05,0
0.5,6.1,0,0.299876,4.02953e-05,0
0.5,6.2,0,0.299878,6.7281e-05,0
0.5,6.3,0,0.299881,9.51962e-05,0
0.5,6.4,0,0.299888,0.000141854,0
0.5,6.5,0,0.29989,0.000173824,0
0.5,6.6,0,0.299893,0.000205795,0
0.5,6.7,0,0.299901,0.00025001,0
0.5,6.8,0,0.299903,0.000280989,0
0.5,6.9,0,0.299905,0.000311069,0
0.5,7,0,0.29991,0.000346271,0
0.5,7.1,0,0.299914,0.000381882,0
0.5,7.2,0,0.299916,0.00040987,0
0.5,7.3,0,0.299918,0.000437858,0
0.5,7.4,0,0.299924,0.000475735,0
0.5,7.5,0,0.299925,0.000501447,0
0.5,7.6,0,0.299927,0.000527159,0
0.5,7.7,0,0.299929,0.000559348,0
0.5,7.8,0,0.299932,0.000585329,0
0.5,7.9,0,0.299934,0.000608675,0
0.5,8,0,0.299932,0.000632641,0
0.5,8.1,0,0.299938,0.000661519,0
0.5,8.2,0,0.29994,0.000682521,0
0.5,8.3,0,0.299941,0.000703522,0
0.5,8.4,0,0.299944,0.000730322,0
0.5,8.5,0,0.299946,0.000749053,0
0.5,8.6,0,0.299947,0.000767783,0
0.5,8.7,0,0.299947,0.000789743,0
0.5,8.8,0,0.299951,0.000808692,0
0.5,8.9,0,0.299952,0.000825246,0
0.5,9,0,0.299952,0.000842516,0
0.5,9.1,0,0.299956,0.000861846,0
0.5,9.2,0,0.299958,0.000876326,0
0.5,9.3,0,0.299959,0.000890807,0
0.5,9.4,0,0.299962,0.000908873,0
0.5,9.5,0,0.299963,0.000921393,0
0.5,9.6,0,0.299965,0.000933914,0
0.5,9.7,0,0.299965,0.000948716,0
0.5,9.8,0,0.299968,0.000960796,0
0.5,9.9,0,0.29997,0.000971481,0
0.5,10,0,0.29997,0.000982922,0
0.5,10.1,0,0.299973,0.000994871,0
0.5,10.2,0,0.299974,0.00100385,0
0.5,10.3,0,0.299976,0.00101284,0
0.5,10.4,0,0.299977,0.00102397,0
0.5,10.5,0,0.299978,0.00103139,0
0.5,10.6,0,0.29998,0.00103881,0
0.5,10.7,0,0.29998,0.00104774,0
0.5,10.8,0,0.299982,0.00105444,0
0.5,10.9,0,0.299983,0.00106044,0
0.5,11,0,0.299984,0.00106684,0
0.5,11.1,0,0.299986,0.00107337,0
0.5,11.2,0,0.299987,0.00107808,0
0.5,11.3,0,0.299988,0.0010828,0
0.5,11.4,0,0.299989,0.0010885,0
0.5,11.5,0,0.29999,0.00109205,0
0.5,11.6,0,0.299991,0.00109559,0
0.5,11.7,0,0.299991,0.00109992,0
0.5,11.8,0,0.299993,0.00110262,0
0.5,11.9,0,0.299993,0.00110508,0
0.5,12,0,0.299994,0.00110766,0
0.5,12.1,0,0.299995,0.00111,0
0.5,12.2,0,0.299996,0.00111145,0
0.5,12.3,0,0.299997,0.0011129,0
0.5,12.4,0,0.299998,0.00111437,0
0.5,12.5,0,0.299998,0.00111485,0
0.5,12.6,0,0.299999,0.00111533,0
0.5,12.7,0,0.299999,0.00111607,0
0.6,0,0,0.299995,-0.00162069,0
0.6,0.1,0,0.299996,-0.00161837,0
0.6,0.2,0,0.299993,-0.00161768,0
0.6,0.3,0,0.29999,-0.00161503,0
0.6,0.4,0,0.299989,-0.00161154,0
0.6,0.5,0,0.299983,-0.00160835,0
0.6,0.6,0,0.299983,-0.00160169,0
0.6,0.7,0,0.299979,-0.00159651,0
0.6,0.8,0,0.299976,-0.00158877,0
0.6,0.9,0,0.299975,-0.00158161,0
0.6,1,0,0.299966,-0.00157217,0
0.6,1.1,0,0.299969,-0.00156208,0
0.6,1.2,0,0.299964,-0.00155207,0
0.6,1.3,0,0.299961,-0.00153923,0
0.6,1.4,0,0.299962,-0.00152876,0
0.6,1.5,0,0.299949,-0.00151196,0
0.6,1.6,0,0.299956,-0.00149942,0
0.6,1.7,0,0.299949,-0.00148406,0
0.6,1.8,0,0.299946,-0.00146592,0
0.6,1.9,0,0.299948,-0.00145244,0
0.6,2,0,0.299932,-0.00142716,0
0.6,2.1,0,0.299942,-0.0014128,0
0.6,2.2,0,0.299934,-0.0013917,0
0.6,2.3,0,0.299931,-0.00136789,0
0.6,2.4,0,0.299935,-0.00135142,0
0.6,2.5,0,0.299916,-0.00131731,0
0.6,2.6,0,0.29993,-0.00130056,0
0.6,2.7,0,0.299921,-0.00127386,0
0.6,2.8,0,0.299917,-0.00124375,0
0.6,2.9,0,0.299923,-0.00122359,0
0.6,3,0,0.2999,-0.0011823,0
0.6,3.1,0,0.299916,-0.00116041,0
0.6,3.2,0,0.299906,-0.00112927,0
0.6,3.3,0,0.299901,-0.00109232,0
0.6,3.4,0,0.299906,-0.00106693,0
0.6,3.5,0,0.299885,-0.00102283,0
0.6,3.6,0,0.299894,-0.00099118,0
0.6,3.7,0,0.299887,-0.000957853,0
0.6,3.8,0,0.299879,-0.000914509,0
0.6,3.9,0,0.299877,-0.000882284,0
0.6,4,0,0.299871,-0.000841043,0
0.6,4.1,0,0.299861,-0.000796095,0
0.6,4.2,0,0.299861,-0.0007629,0
0.6,4.3,0,0.299851,-0.000714978,0
0.6,4.4,0,0.299839,-0.000675623,0
0.6,4.5,0,0.299858,-0.000640676,0
0.6,4.6,0,0.299821,-0.000582334,0
0.6,4.7,0,0.299833,-0.000550615,0
0.6,4.8,0,0.299823,-0.000500084,0
0.6,4.9,0,0.299802,-0.000458361,0
0.6,5,0,0.299848,-0.000443782,0
0.6,5.1,0,0.299846,-0.000385164,0
0.6,5.2,0,0.299845,-0.000342153,0
0.6,5.3,0,0.299844,-0.000299029,0
0.6,5.4,0,0.299844,-0.000255797,0
0.6,5.5,0,0.299844,-0.000212509,0
0.6,5.6,0,0.299844,-0.000169224,0
0.6,5.7,0,0.299845,-0.000126006,0
0.6,5.8,0,0.299845,-8.29167e-05,0
0.6,5.9,0,0.299847,-3.99604e-05,0
0.6,6,0,0.299849,2.72336e-05,0
0.6,6.1,0,0.299811,3.82021e-05,0
0.6,6.2,0,0.299809,6.33192e-05,0
0.6,6.3,0,0.29984,0.00012237,0
0.6,6.4,0,0.299841,0.000170366,0
0.6,6.5,0,0.299833,0.000204586,0
0.6,6.6,0,0.299845,0.000246721,0
0.6,6.7,0,0.299861,0.000298933,0
0.6,6.8,0,0.299857,0.000339171,0
0.6,6.9,0,0.29986,0.000370311,0
0.6,7,0,0.29987,0.000416283,0
0.6,7.1,0,0.299878,0.000462333,0
0.6,7.2,0,0.29988,0.000493332,0
0.6,7.3,0,0.29988,0.00052784,0
0.6,7.4,0,0.299888,0.000570784,0
0.6,7.5,0,0.299896,0.000607417,0
0.6,7.6,0,0.299894,0.000634783,0
0.6,7.7,0,0.299893,0.000668675,0
0.6,7.8,0,0.299908,0.000710704,0
0.6,7.9,0,0.29991,0.000734089,0
0.6,8,0,0.299899,0.000759711,0
0.6,8.1,0,0.299914,0.000799101,0
0.6,8.2,0,0.299919,0.000824418,0
0.6,8.3,0,0.299912,0.000846641,0
0.6,8.4,0,0.299917,0.000876623,0
0.6,8.5,0,0.299927,0.000905045,0
0.6,8.6,0,0.299925,0.000924527,0
0.6,8.7,0,0.29992,0.000947503,0
0.6,8.8,0,0.299935,0.000976803,0
0.6,8.9,0,0.299936,0.000993357,0
0.6,9,0,0.299928,0.00101303,0
0.6,9.1,0,0.299939,0.00103756,0
0.6,9.2,0,0.299944,0.00105495,0
0.6,9.3,0,0.29994,0.00107186,0
0.6,9.4,0,0.299943,0.00109149,0
0.6,9.5,0,0.299951,0.00110915,0
0.6,9.6,0,0.299951,0.00112282,0
0.6,9.7,0,0.299948,0.0011397,0
0.6,9.8,0,0.299958,0.00115645,0
0.6,9.9,0,0.299959,0.00116714,0
0.6,10,0,0.299956,0.00118184,0
0.6,10.1,0,0.299962,0.0011958,0
0.6,10.2,0,0.299966,0.00120627,0
0.6,10.3,0,0.299964,0.00121761,0
0.6,10.4,0,0.299966,0.00122975,0
0.6,10.5,0,0.299971,0.0012395,0
0.6,10.6,0,0.299972,0.00124773,0
0.6,10.7,0,0.29997,0.00125864,0
0.6,10.8,0,0.299977,0.00126721,0
0.6,10.9,0,0.299978,0.00127325,0
0.6,11,0,0.299976,0.00128205,0
0.6,11.1,0,0.29998,0.00128928,0
0.6,11.2,0,0.299982,0.00129467,0
0.6,11.3,0,0.299982,0.00130076,0
0.6,11.4,0,0.299983,0.00130712,0
0.6,11.5,0,0.299986,0.00131156,0
0.6,11.6,0,0.299987,0.00131546,0
0.6,11.7,0,0.299987,0.00132101,0
0.6,11.8,0,0.29999,0.00132422,0
0.6,11.9,0,0.299991,0.00132673,0
0.6,12,0,0.299991,0.00133051,0
0.6,12.1,0,0.299993,0.00133293,0
0.6,12.2,0,0.299994,0.00133449,0
0.6,12.3,0,0.299995,0.00133648,0
0.6,12.4,0,0.299996,0.00133827,0
0.6,12.5,0,0.299998,0.00133859,0
0.6,12.6,0,0.299998,0.00133915,0
0.6,12.7,0,0.299998,0.00134032,0
0.7,0,0,0.299993,-0.00189301,0
0.7,0.1,0,0.299994,-0.00189041,0
0.7,0.2,0,0.29999,-0.00188943,0
0.7,0.3,0,0.299987,-0.00188679,0
0.7,0.4,0,0.299984,-0.00188177,0
0.7,0.5,0,0.299977,-0.00187849,0
0.7,0.6,0,0.299978,-0.0018714,0
0.7,0.7,0,0.299971,-0.00186406,0
0.7,0.8,0,0.299967,-0.00185631,0
0.7,0.9,0,0.299966,-0.00184619,0
0.7,1,0,0.299955,-0.00183611,0
0.7,1.1,0,0.299959,-0.00182562,0
0.7,1.2,0,0.29995,-0.00181137,0
0.7,1.3,0,0.299947,-0.00179853,0
0.7,1.4,0,0.299947,-0.00178374,0
0.7,1.5,0,0.299933,-0.00176555,0
0.7,1.6,0,0.299941,-0.00175283,0
0.7,1.7,0,0.29993,-0.00173087,0
0.7,1.8,0,0.299927,-0.00171273,0
0.7,1.9,0,0.299929,-0.00169373,0
0.7,2,0,0.29991,-0.00166609,0
0.7,2.1,0,0.299922,-0.00165192,0
0.7,2.2,0,0.299909,-0.00162166,0
0.7,2.3,0,0.299906,-0.00159786,0
0.7,2.4,0,0.299911,-0.00157473,0
0.7,2.5,0,0.299888,-0.00153725,0
0.7,2.6,0,0.299906,-0.00152097,0
0.7,2.7,0,0.29989,-0.00148274,0
0.7,2.8,0,0.299887,-0.00145263,0
0.7,2.9,0,0.299894,-0.00142451,0
0.7,3,0,0.299867,-0.00137917,0
0.7,3.1,0,0.299886,-0.00135749,0
0.7,3.2,0,0.29987,-0.00131324,0
0.7,3.3,0,0.299865,-0.00127629,0
0.7,3.4,0,0.299872,-0.00124106,0
0.7,3.5,0,0.299848,-0.00119311,0
0.7,3.6,0,0.299859,-0.00116046,0
0.7,3.7,0,0.299848,-0.0011137,0
0.7,3.8,0,0.29984,-0.00107036,0
0.7,3.9,0,0.299838,-0.0010256,0
0.7,4,0,0.299831,-0.000981771,0
0.7,4.1,0,0.299819,-0.000933793,0
0.7,4.2,0,0.299821,-0.000887864,0
0.7,4.3,0,0.29981,-0.000839942,0
0.7,4.4,0,0.299795,-0.000785044,0
0.7,4.5,0,0.299818,-0.000749329,0
0.7,4.6,0,0.299774,-0.000685743,0
0.7,4.7,0,0.299793,-0.000642469,0
0.7,4.8,0,0.299783,-0.000591938,0
0.7,4.9,0,0.299752,-0.000532552,0
0.7,5,0,0.299808,-0.000520559,0
0.7,5.1,0,0.299806,-0.000451662,0
0.7,5.2,0,0.299805,-0.000400866,0
0.7,5.3,0,0.299804,-0.000349892,0
0.7,5.4,0,0.299804,-0.000298801,0
0.7,5.5,0,0.299804,-0.000247647,0
0.7,5.6,0,0.299804,-0.000196497,0
0.7,5.7,0,0.299805,-0.000145419,0
0.7,5.8,0,0.299806,-9.44784e-05,0
0.7,5.9,0,0.299807,-4.37287e-05,0
0.7,6,0,0.299809,3.51958e-05,0
0.7,6.1,0,0.299771,4.61643e-05,0
0.7,6.2,0,0.299759,8.07339e-05,0
0.7,6.3,0,0.2998,0.000149543,0
0.7,6.4,0,0.299801,0.00019754,0
0.7,6.5,0,0.299784,0.00023826,0
0.7,6.6,0,0.299804,0.000295643,0
0.7,6.7,0,0.299821,0.000347855,0
0.7,6.8,0,0.299816,0.000390374,0
0.7,6.9,0,0.29982,0.000440324,0
0.7,7,0,0.29983,0.000486296,0
0.7,7.1,0,0.299838,0.000532345,0
0.7,7.2,0,0.299843,0.000580989,0
0.7,7.3,0,0.299841,0.000618075,0
0.7,7.4,0,0.29985,0.000661019,0
0.7,7.5,0,0.299863,0.000708369,0
0.7,7.6,0,0.299858,0.00074411,0