/*--------------------------------*- C++ -*----------------------------------*\
| =========                 |                                                 |
| \\      /  F ield         | OpenFOAM: The Open Source CFD Toolbox           |
|  \\    /   O peration     | Version:  v1806                                 |
|   \\  /    A nd           | Web:      www.OpenFOAM.com                      |
|    \\/     M anipulation  |                                                 |
\*---------------------------------------------------------------------------*/
FoamFile
{
    version     2.0;
    format      ascii;
    class       volVectorField;
    location    "290";
    object      U;
}
// * * * * * * * * * * * * * * * * * * * * * * * * * * * * * * * * * * * * * //

dimensions      [0 1 -1 0 0 0 0];


internalField   nonuniform List<vector> 
2400
(
(0.3 -0.00169335 0)
(0.299996 -0.00508702 0)
(0.299986 -0.00849308 0)
(0.29997 -0.0119258 0)
(0.299949 -0.0153853 0)
(0.299924 -0.0188822 0)
(0.299896 -0.0224048 0)
(0.29987 -0.0259557 0)
(0.29985 -0.0295077 0)
(0.299844 -0.0330497 0)
(0.299861 -0.0365367 0)
(0.299911 -0.0399372 0)
(0.300009 -0.0431909 0)
(0.300168 -0.0462424 0)
(0.300407 -0.0490233 0)
(0.300737 -0.0514604 0)
(0.301177 -0.0534901 0)
(0.301732 -0.055041 0)
(0.302413 -0.0560705 0)
(0.303209 -0.0565382 0)
(0.299999 -0.00169056 0)
(0.299989 -0.00507916 0)
(0.299967 -0.00847938 0)
(0.299936 -0.0119079 0)
(0.299896 -0.0153626 0)
(0.299853 -0.0188587 0)
(0.299812 -0.022381 0)
(0.299778 -0.0259391 0)
(0.299763 -0.0295002 0)
(0.299777 -0.0330636 0)
(0.299837 -0.0365768 0)
(0.299956 -0.0400206 0)
(0.300158 -0.0433262 0)
(0.300459 -0.0464486 0)
(0.300883 -0.0493126 0)
(0.301444 -0.0518476 0)
(0.302157 -0.0539863 0)
(0.303024 -0.0556499 0)
(0.304043 -0.0567934 0)
(0.305192 -0.0573657 0)
(0.299999 -0.00168485 0)
(0.299981 -0.00506335 0)
(0.299944 -0.00845292 0)
(0.299893 -0.0118747 0)
(0.299829 -0.0153228 0)
(0.299761 -0.0188204 0)
(0.299696 -0.0223448 0)
(0.299646 -0.0259195 0)
(0.299627 -0.0294986 0)
(0.299653 -0.033102 0)
(0.299749 -0.0366577 0)
(0.299934 -0.0401723 0)
(0.300242 -0.0435531 0)
(0.300689 -0.0467787 0)
(0.301313 -0.0497522 0)
(0.302121 -0.0524128 0)
(0.303136 -0.0546807 0)
(0.30435 -0.0564664 0)
(0.305753 -0.0577244 0)
(0.30731 -0.0583769 0)
(0.299999 -0.00167601 0)
(0.299972 -0.00503896 0)
(0.299919 -0.00841237 0)
(0.299845 -0.0118244 0)
(0.299751 -0.0152629 0)
(0.299652 -0.0187638 0)
(0.299556 -0.0222913 0)
(0.299481 -0.0258916 0)
(0.299445 -0.029495 0)
(0.299472 -0.0331574 0)
(0.299592 -0.0367689 0)
(0.299829 -0.0403849 0)
(0.30023 -0.0438622 0)
(0.300811 -0.0472313 0)
(0.301626 -0.0503434 0)
(0.302677 -0.0531711 0)
(0.303998 -0.0556003 0)
(0.305569 -0.0575384 0)
(0.307377 -0.0589324 0)
(0.309368 -0.0596736 0)
(0.299998 -0.00166375 0)
(0.299963 -0.00500505 0)
(0.299891 -0.00835586 0)
(0.299789 -0.0117543 0)
(0.299661 -0.0151784 0)
(0.299524 -0.0186832 0)
(0.299388 -0.0222124 0)
(0.299277 -0.0258468 0)
(0.299211 -0.0294776 0)
(0.299223 -0.0332196 0)
(0.299349 -0.0368957 0)
(0.299619 -0.0406495 0)
(0.300096 -0.0442398 0)
(0.300792 -0.047804 0)
(0.301789 -0.0510808 0)
(0.303072 -0.0541328 0)
(0.304705 -0.0567581 0)
(0.306642 -0.0588923 0)
(0.308879 -0.0604528 0)
(0.311337 -0.0612951 0)
(0.299998 -0.00164761 0)
(0.299951 -0.00496023 0)
(0.299858 -0.00828093 0)
(0.299725 -0.0116606 0)
(0.299556 -0.0150643 0)
(0.299372 -0.0185725 0)
(0.299185 -0.0220995 0)
(0.299024 -0.0257761 0)
(0.298913 -0.0294334 0)
(0.29889 -0.0332775 0)
(0.299002 -0.0370206 0)
(0.299281 -0.0409561 0)
(0.299812 -0.0446658 0)
(0.300599 -0.0484929 0)
(0.301766 -0.0519486 0)
(0.303265 -0.0553054 0)
(0.30522 -0.058154 0)
(0.307533 -0.0605484 0)
(0.310236 -0.0623076 0)
(0.313204 -0.0632691 0)
(0.299997 -0.00162707 0)
(0.299938 -0.00490281 0)
(0.29982 -0.00818473 0)
(0.29965 -0.0115393 0)
(0.299432 -0.0149148 0)
(0.299193 -0.0184243 0)
(0.298941 -0.0219428 0)
(0.298715 -0.0256686 0)
(0.298538 -0.0293471 0)
(0.298459 -0.0333177 0)
(0.298529 -0.0371218 0)
(0.298788 -0.0412924 0)
(0.299347 -0.0451127 0)
(0.300192 -0.0492948 0)
(0.301515 -0.0529205 0)
(0.303206 -0.0567037 0)
(0.305499 -0.0597804 0)
(0.308193 -0.0625404 0)
(0.311417 -0.0645223 0)
(0.314947 -0.0656378 0)
(0.299997 -0.00160157 0)
(0.299923 -0.00483076 0)
(0.299776 -0.00806404 0)
(0.299563 -0.0113852 0)
(0.299289 -0.0147234 0)
(0.298981 -0.0182298 0)
(0.298651 -0.0217311 0)
(0.298341 -0.0255108 0)
(0.298076 -0.0292011 0)
(0.297912 -0.0333228 0)
(0.297911 -0.0371734 0)
(0.298114 -0.0416424 0)
(0.298666 -0.045545 0)
(0.299527 -0.0502072 0)
(0.300988 -0.0539566 0)
(0.302833 -0.0583544 0)
(0.305493 -0.0616139 0)
(0.30856 -0.0649267 0)
(0.31239 -0.0671219 0)
(0.316541 -0.0684678 0)
(0.299996 -0.00157049 0)
(0.299906 -0.00474187 0)
(0.299727 -0.00791544 0)
(0.299463 -0.0111928 0)
(0.299125 -0.0144829 0)
(0.298734 -0.0179784 0)
(0.298313 -0.0214524 0)
(0.297894 -0.0252861 0)
(0.297519 -0.0289764 0)
(0.297235 -0.0332704 0)
(0.297129 -0.0371464 0)
(0.297229 -0.0419839 0)
(0.297735 -0.0459204 0)
(0.298557 -0.0512254 0)
(0.300134 -0.0550002 0)
(0.302073 -0.0602974 0)
(0.305141 -0.0636043 0)
(0.308549 -0.0678046 0)
(0.313119 -0.0701172 0)
(0.317942 -0.0718712 0)
(0.299996 -0.0015332 0)
(0.299886 -0.00463373 0)
(0.299672 -0.00773538 0)
(0.299348 -0.0109558 0)
(0.29894 -0.0141862 0)
(0.298449 -0.0176587 0)
(0.297923 -0.0210941 0)
(0.297367 -0.0249749 0)
(0.29686 -0.0286533 0)
(0.296412 -0.0331315 0)
(0.296167 -0.0370111 0)
(0.296105 -0.0422841 0)
(0.29652 -0.0461934 0)
(0.29723 -0.0523348 0)
(0.298891 -0.0559801 0)
(0.300836 -0.062581 0)
(0.304375 -0.0656643 0)
(0.308034 -0.0713229 0)
(0.313562 -0.0734834 0)
(0.319085 -0.0760432 0)
(0.299997 -0.00148902 0)
(0.299863 -0.00450393 0)
(0.299612 -0.00752023 0)
(0.299218 -0.0106679 0)
(0.298734 -0.0138258 0)
(0.298123 -0.017258 0)
(0.297483 -0.0206436 0)
(0.296754 -0.0245545 0)
(0.296098 -0.0282119 0)
(0.295429 -0.0328688 0)
(0.295016 -0.0367389 0)
(0.29471 -0.042493 0)
(0.29499 -0.0463218 0)
(0.29549 -0.0534991 0)
(0.297191 -0.0568212 0)
(0.299024 -0.0652482 0)
(0.303105 -0.0676685 0)
(0.306841 -0.0756799 0)
(0.313688 -0.0771369 0)
(0.319844 -0.0813048 0)
(0.299998 -0.00143728 0)
(0.299836 -0.0043502 0)
(0.299548 -0.00726642 0)
(0.299073 -0.0103229 0)
(0.29851 -0.0133941 0)
(0.297757 -0.0167634 0)
(0.296997 -0.0200878 0)
(0.296051 -0.0240002 0)
(0.295239 -0.0276326 0)
(0.294271 -0.0324366 0)
(0.293676 -0.0363037 0)
(0.29301 -0.0425369 0)
(0.29312 -0.0462733 0)
(0.293277 -0.0546405 0)
(0.294955 -0.0574651 0)
(0.296545 -0.0683119 0)
(0.301202 -0.0694709 0)
(0.304752 -0.0811073 0)
(0.313489 -0.0809244 0)
(0.319941 -0.0881143 0)
(0.3 -0.00137726 0)
(0.299807 -0.00417059 0)
(0.29948 -0.00697041 0)
(0.298914 -0.00991531 0)
(0.298269 -0.0128836 0)
(0.297351 -0.0161632 0)
(0.29647 -0.0194132 0)
(0.295258 -0.0232873 0)
(0.294291 -0.0268941 0)
(0.292927 -0.0317843 0)
(0.29216 -0.0356796 0)
(0.290963 -0.0423162 0)
(0.290912 -0.0460297 0)
(0.290504 -0.0556109 0)
(0.292111 -0.0578993 0)
(0.293315 -0.0717082 0)
(0.298445 -0.0709486 0)
(0.301613 -0.0878738 0)
(0.312919 -0.084615 0)
(0.318823 -0.0970177 0)
(0.300002 -0.00130832 0)
(0.299776 -0.0039636 0)
(0.299409 -0.00662896 0)
(0.298744 -0.00944076 0)
(0.298015 -0.0122868 0)
(0.296913 -0.0154474 0)
(0.295907 -0.0186049 0)
(0.294385 -0.0223946 0)
(0.293267 -0.0259715 0)
(0.291399 -0.0308636 0)
(0.29049 -0.0348347 0)
(0.28853 -0.0417163 0)
(0.288399 -0.0455792 0)
(0.287033 -0.0561681 0)
(0.288644 -0.058184 0)
(0.289164 -0.0751891 0)
(0.294521 -0.0721012 0)
(0.2975 -0.0962807 0)
(0.311594 -0.0878604 0)
(0.31575 -0.108725 0)
(0.300003 -0.00122993 0)
(0.299744 -0.00372823 0)
(0.299334 -0.00623936 0)
(0.298568 -0.00889608 0)
(0.297748 -0.011597 0)
(0.296453 -0.014609 0)
(0.295312 -0.017648 0)
(0.293449 -0.0213064 0)
(0.292172 -0.0248338 0)
(0.289711 -0.0296379 0)
(0.288683 -0.033718 0)
(0.285705 -0.0406375 0)
(0.285632 -0.0448847 0)
(0.282701 -0.0560107 0)
(0.284656 -0.0584406 0)
(0.283646 -0.0781519 0)
(0.289255 -0.0732532 0)
(0.292533 -0.10638 0)
(0.308247 -0.0902035 0)
(0.310805 -0.124716 0)
(0.300004 -0.00114183 0)
(0.299712 -0.00346394 0)
(0.299255 -0.00579994 0)
(0.298392 -0.00827943 0)
(0.297472 -0.010809 0)
(0.295987 -0.0136434 0)
(0.294689 -0.0165286 0)
(0.292486 -0.0200126 0)
(0.291007 -0.0234465 0)
(0.287925 -0.028086 0)
(0.286728 -0.0322515 0)
(0.282567 -0.0390254 0)
(0.282613 -0.0438214 0)
(0.277456 -0.0549123 0)
(0.280287 -0.0587182 0)
(0.276019 -0.0796341 0)
(0.283035 -0.0752487 0)
(0.285742 -0.117133 0)
(0.300978 -0.0916754 0)
(0.306619 -0.148118 0)
(0.300003 -0.00104409 0)
(0.299684 -0.00317064 0)
(0.299174 -0.00531039 0)
(0.298223 -0.00759013 0)
(0.297187 -0.00992076 0)
(0.295532 -0.0125479 0)
(0.294042 -0.015238 0)
(0.291537 -0.0185062 0)
(0.289772 -0.0217801 0)
(0.286133 -0.0261955 0)
(0.284589 -0.0303447 0)
(0.279304 -0.0368682 0)
(0.27921 -0.0421463 0)
(0.27155 -0.0528447 0)
(0.275417 -0.0586409 0)
(0.265857 -0.0789893 0)
(0.276505 -0.0789887 0)
(0.273872 -0.125538 0)
(0.289897 -0.0945868 0)
(0.306594 -0.182767 0)
(0.300001 -0.000937144 0)
(0.299659 -0.00284877 0)
(0.299092 -0.00477204 0)
(0.298065 -0.00682882 0)
(0.296903 -0.00893377 0)
(0.295105 -0.0113217 0)
(0.293386 -0.0137752 0)
(0.290638 -0.0167812 0)
(0.288484 -0.0198212 0)
(0.284427 -0.0239487 0)
(0.282253 -0.0279345 0)
(0.276162 -0.0341427 0)
(0.275225 -0.0396019 0)
(0.265617 -0.0498696 0)
(0.269295 -0.0573283 0)
(0.254037 -0.0764131 0)
(0.268906 -0.0836284 0)
(0.253521 -0.128153 0)
(0.27911 -0.106091 0)
(0.305124 -0.226916 0)
(0.299998 -0.000821775 0)
(0.299638 -0.00249962 0)
(0.299013 -0.00418783 0)
(0.297922 -0.0059982 0)
(0.296629 -0.0078533 0)
(0.294715 -0.00996747 0)
(0.292748 -0.0121471 0)
(0.289815 -0.0148352 0)
(0.287196 -0.0175761 0)
(0.282865 -0.0213242 0)
(0.279804 -0.0250121 0)
(0.273303 -0.030776 0)
(0.27067 -0.0360751 0)
(0.26027 -0.0458714 0)
(0.261151 -0.0539834 0)
(0.242779 -0.0723461 0)
(0.256728 -0.0853769 0)
(0.226328 -0.12528 0)
(0.26839 -0.132241 0)
(0.280785 -0.266456 0)
(0.299995 -0.000699034 0)
(0.29962 -0.00212594 0)
(0.29894 -0.00356252 0)
(0.297797 -0.00510447 0)
(0.29638 -0.00668807 0)
(0.29437 -0.00849464 0)
(0.292161 -0.0103675 0)
(0.289082 -0.0126789 0)
(0.285991 -0.0150649 0)
(0.281463 -0.0183222 0)
(0.277433 -0.021608 0)
(0.270739 -0.0267062 0)
(0.265962 -0.0316121 0)
(0.255598 -0.0405406 0)
(0.251444 -0.0485148 0)
(0.233582 -0.0660766 0)
(0.236758 -0.0809276 0)
(0.200473 -0.11912 0)
(0.238418 -0.158602 0)
(0.204166 -0.274231 0)
(0.304305 -0.0564198 0)
(0.305777 -0.0551661 0)
(0.307358 -0.0529096 0)
(0.308961 -0.0498802 0)
(0.31051 -0.0463031 0)
(0.311974 -0.0424293 0)
(0.313316 -0.0383602 0)
(0.314545 -0.034294 0)
(0.315638 -0.0301952 0)
(0.316624 -0.0262708 0)
(0.306714 -0.0573525 0)
(0.308634 -0.0561663 0)
(0.310564 -0.0539275 0)
(0.312381 -0.0508716 0)
(0.314017 -0.0472382 0)
(0.31546 -0.0432869 0)
(0.316707 -0.0391327 0)
(0.317788 -0.0349792 0)
(0.3187 -0.0307982 0)
(0.319488 -0.0268002 0)
(0.30933 -0.0584353 0)
(0.311797 -0.0572579 0)
(0.314181 -0.0549592 0)
(0.316318 -0.0518022 0)
(0.318145 -0.0480548 0)
(0.319666 -0.0439861 0)
(0.32091 -0.0397256 0)
(0.321922 -0.0354752 0)
(0.322725 -0.0312148 0)
(0.323372 -0.027144 0)
(0.311921 -0.0597998 0)
(0.314983 -0.0585863 0)
(0.317862 -0.0561641 0)
(0.320345 -0.0528406 0)
(0.322383 -0.0489219 0)
(0.324002 -0.0446878 0)
(0.325269 -0.0402846 0)
(0.326241 -0.0359105 0)
(0.326974 -0.0315522 0)
(0.327517 -0.0273977 0)
(0.31447 -0.0614903 0)
(0.318183 -0.0601918 0)
(0.321588 -0.0575776 0)
(0.324425 -0.0540202 0)
(0.326672 -0.0498721 0)
(0.32838 -0.0454255 0)
(0.329663 -0.0408467 0)
(0.330588 -0.0363251 0)
(0.331253 -0.0318547 0)
(0.331696 -0.0276073 0)
(0.316978 -0.0635374 0)
(0.321416 -0.062091 0)
(0.325382 -0.0592047 0)
(0.328574 -0.0553372 0)
(0.331019 -0.0508957 0)
(0.332795 -0.0461874 0)
(0.334076 -0.0414007 0)
(0.334937 -0.0367103 0)
(0.335522 -0.0321165 0)
(0.335849 -0.027769 0)
(0.319453 -0.0659839 0)
(0.324712 -0.0643045 0)
(0.32927 -0.0610523 0)
(0.332816 -0.0567886 0)
(0.335439 -0.051983 0)
(0.337261 -0.0469615 0)
(0.338515 -0.0419357 0)
(0.339286 -0.0370554 0)
(0.339767 -0.0323266 0)
(0.339946 -0.0278719 0)
(0.321909 -0.0688835 0)
(0.328105 -0.0668538 0)
(0.333286 -0.0631284 0)
(0.337181 -0.05837 0)
(0.339962 -0.0531233 0)
(0.341801 -0.0477356 0)
(0.342994 -0.0424393 0)
(0.343633 -0.0373449 0)
(0.343951 -0.0324669 0)
(0.343907 -0.0278932 0)
(0.324374 -0.0722995 0)
(0.331638 -0.0697597 0)
(0.337467 -0.0654427 0)
(0.341718 -0.0600767 0)
(0.344638 -0.0543045 0)
(0.346451 -0.0484935 0)
(0.34751 -0.0428887 0)
(0.347913 -0.0375453 0)
(0.347929 -0.0324937 0)
(0.347498 -0.0277782 0)
(0.326896 -0.0762973 0)
(0.335361 -0.0730488 0)
(0.341888 -0.0680148 0)
(0.346527 -0.0619063 0)
(0.349543 -0.0555086 0)
(0.351213 -0.0491992 0)
(0.351942 -0.0432253 0)
(0.351853 -0.0375719 0)
(0.351255 -0.0323047 0)
(0.350107 -0.0274085 0)
(0.329555 -0.080923 0)
(0.339376 -0.076787 0)
(0.346715 -0.0708897 0)
(0.351765 -0.0638499 0)
(0.354682 -0.0566809 0)
(0.355856 -0.0497474 0)
(0.355771 -0.043294 0)
(0.354639 -0.0372319 0)
(0.352839 -0.0316898 0)
(0.350411 -0.0265642 0)
(0.332521 -0.0861809 0)
(0.343934 -0.0811502 0)
(0.352243 -0.0741257 0)
(0.357474 -0.0658333 0)
(0.359631 -0.057636 0)
(0.359436 -0.0498548 0)
(0.357547 -0.0427467 0)
(0.354404 -0.036154 0)
(0.350502 -0.0302899 0)
(0.346032 -0.02491 0)
(0.336287 -0.0921386 0)
(0.349528 -0.0864634 0)
(0.358627 -0.0776385 0)
(0.36294 -0.0675223 0)
(0.362714 -0.057856 0)
(0.359468 -0.0489047 0)
(0.354188 -0.0409556 0)
(0.347729 -0.0337695 0)
(0.340685 -0.0276247 0)
(0.333455 -0.0220593 0)
(0.342153 -0.0991782 0)
(0.356526 -0.0929981 0)
(0.364813 -0.0807679 0)
(0.365333 -0.0679509 0)
(0.359812 -0.0562579 0)
(0.351095 -0.0458746 0)
(0.34059 -0.03707 0)
(0.329668 -0.0294479 0)
(0.318841 -0.0232688 0)
(0.308712 -0.0177638 0)
(0.352295 -0.107985 0)
(0.363313 -0.10022 0)
(0.366413 -0.0816519 0)
(0.358036 -0.0652611 0)
(0.343578 -0.0512318 0)
(0.327188 -0.039592 0)
(0.310478 -0.0303779 0)
(0.295129 -0.022879 0)
(0.28114 -0.0172111 0)
(0.26921 -0.0122159 0)
(0.36725 -0.118678 0)
(0.362567 -0.10552 0)
(0.353672 -0.076897 0)
(0.330306 -0.0570626 0)
(0.304806 -0.0412828 0)
(0.280846 -0.0294953 0)
(0.259548 -0.0210157 0)
(0.242139 -0.0146564 0)
(0.22755 -0.0102882 0)
(0.2163 -0.00632303 0)
(0.379519 -0.128177 0)
(0.338565 -0.103296 0)
(0.31254 -0.0626696 0)
(0.270976 -0.0419725 0)
(0.237966 -0.0264778 0)
(0.21127 -0.0168716 0)
(0.190692 -0.0108386 0)
(0.17582 -0.00673616 0)
(0.164372 -0.00425482 0)
(0.156438 -0.00150537 0)
(0.368863 -0.124275 0)
(0.270971 -0.0852803 0)
(0.232455 -0.0374558 0)
(0.179064 -0.0220088 0)
(0.150838 -0.0105226 0)
(0.130182 -0.00580699 0)
(0.116808 -0.00318507 0)
(0.108319 -0.00151103 0)
(0.102296 -0.000645694 0)
(0.0985272 0.0013605 0)
(0.307245 -0.0856081 0)
(0.14841 -0.0463895 0)
(0.122667 -0.00582718 0)
(0.0777947 -0.00469278 0)
(0.068025 -0.000364864 0)
(0.0583492 -0.00036059 0)
(0.0539264 0.000103091 0)
(0.0515623 0.000380181 0)
(0.0502206 0.000531011 0)
(0.0494537 0.00235892 0)
(0.167379 -0.0570037 0)
(-0.000338849 -0.0135599 0)
(0.0250669 0.00499327 0)
(0.00659767 0.000289458 0)
(0.0118732 0.00103549 0)
(0.0101053 0.000330267 0)
(0.0107736 0.000338723 0)
(0.0112947 0.000292198 0)
(0.0120782 0.000323458 0)
(0.0124848 0.00110242 0)
(0.317634 -0.0216637 0)
(0.318625 -0.0168012 0)
(0.319452 -0.0119963 0)
(0.320118 -0.00771017 0)
(0.320688 -0.00348858 0)
(0.321045 7.43603e-05 0)
(0.321335 0.00335118 0)
(0.321431 0.00577476 0)
(0.321555 0.00761743 0)
(0.321439 0.00859451 0)
(0.321483 0.00867327 0)
(0.321303 0.00832862 0)
(0.321426 0.00689095 0)
(0.321369 0.00605652 0)
(0.321708 0.00397448 0)
(0.321938 0.00394483 0)
(0.322478 0.00227881 0)
(0.323028 0.00410583 0)
(0.323508 0.00341466 0)
(0.324269 0.00721698 0)
(0.320261 -0.0221123 0)
(0.320981 -0.0171679 0)
(0.321541 -0.0122923 0)
(0.321955 -0.00794628 0)
(0.322251 -0.00366589 0)
(0.322362 -8.94721e-05 0)
(0.322414 0.00327869 0)
(0.322234 0.00575734 0)
(0.322113 0.00764038 0)
(0.321768 0.00863043 0)
(0.32165 0.00871589 0)
(0.321327 0.00835057 0)
(0.321414 0.00688157 0)
(0.321322 0.00599988 0)
(0.321757 0.00384622 0)
(0.322037 0.00377351 0)
(0.322749 0.00202266 0)
(0.32336 0.00387502 0)
(0.323963 0.00314414 0)
(0.324705 0.00705244 0)
(0.32396 -0.0223901 0)
(0.324444 -0.0173823 0)
(0.324758 -0.0124497 0)
(0.32491 -0.00804304 0)
(0.324925 -0.00369978 0)
(0.324713 -2.48081e-05 0)
(0.324418 0.00336978 0)
(0.32386 0.00587386 0)
(0.323376 0.00778495 0)
(0.322653 0.00876761 0)
(0.322252 0.00884088 0)
(0.321649 0.0084196 0)
(0.321632 0.0068907 0)
(0.321422 0.00592405 0)
(0.321968 0.00368023 0)
(0.322279 0.00355164 0)
(0.323245 0.00173119 0)
(0.323929 0.00361885 0)
(0.324743 0.00286906 0)
(0.325473 0.00690586 0)
(0.327976 -0.0225703 0)
(0.328283 -0.0174923 0)
(0.328417 -0.0124998 0)
(0.32836 -0.00802427 0)
(0.328139 -0.00360637 0)
(0.327629 0.000127652 0)
(0.326999 0.00359815 0)
(0.326035 0.0061438 0)
(0.325154 0.00808588 0)
(0.323982 0.00904538 0)
(0.323234 0.00908887 0)
(0.322258 0.00857392 0)
(0.32208 0.00695657 0)
(0.32167 0.00586271 0)
(0.322305 0.00350193 0)
(0.322601 0.00329309 0)
(0.323839 0.00138464 0)
(0.324596 0.0033252 0)
(0.325657 0.00256554 0)
(0.326399 0.00677574 0)
(0.332044 -0.0227009 0)
(0.332192 -0.0175465 0)
(0.332183 -0.0124894 0)
(0.331942 -0.00793157 0)
(0.331524 -0.00342482 0)
(0.330732 0.000401634 0)
(0.329794 0.00396059 0)
(0.32842 0.00656369 0)
(0.327138 0.00854877 0)
(0.325482 0.0094776 0)
(0.324354 0.00948214 0)
(0.322945 0.00883708 0)
(0.322555 0.00710412 0)
(0.321881 0.00583142 0)
(0.32256 0.00331961 0)
(0.322799 0.00299363 0)
(0.324281 0.000971727 0)
(0.325113 0.00297835 0)
(0.326413 0.00220707 0)
(0.327208 0.00664744 0)
(0.336077 -0.0227812 0)
(0.336047 -0.017549 0)
(0.335892 -0.0124247 0)
(0.33545 -0.00777137 0)
(0.334832 -0.00315948 0)
(0.333742 0.000783277 0)
(0.332489 0.00445566 0)
(0.330684 0.00713512 0)
(0.328988 0.00917895 0)
(0.326814 0.0100741 0)
(0.325271 0.0100356 0)
(0.32338 0.00922575 0)
(0.322719 0.00735326 0)
(0.321729 0.00584593 0)
(0.322374 0.00315023 0)
(0.322526 0.0026634 0)
(0.324181 0.000499634 0)
(0.325104 0.00257962 0)
(0.326599 0.00178594 0)
(0.327505 0.00651661 0)
(0.340016 -0.0227991 0)
(0.339743 -0.0174885 0)
(0.33939 -0.0122932 0)
(0.338679 -0.00753039 0)
(0.337811 -0.00279745 0)
(0.336356 0.00128458 0)
(0.334749 0.00509337 0)
(0.332459 0.00787002 0)
(0.33031 0.00998874 0)
(0.327569 0.0108504 0)
(0.325558 0.0107668 0)
(0.323133 0.00976058 0)
(0.322117 0.00772822 0)
(0.320763 0.00592968 0)
(0.321261 0.00302033 0)
(0.321301 0.00232174 0)
(0.323012 -1.4468e-05 0)
(0.324057 0.00213649 0)
(0.325675 0.0013001 0)
(0.326776 0.00637837 0)
(0.34372 -0.0227272 0)
(0.343067 -0.0173352 0)
(0.34239 -0.0120629 0)
(0.341274 -0.0071762 0)
(0.340049 -0.00230897 0)
(0.338122 0.00193251 0)
(0.336087 0.00589626 0)
(0.333235 0.00879044 0)
(0.330578 0.0109979 0)
(0.32721 0.0118292 0)
(0.324664 0.0116986 0)
(0.321649 0.0104693 0)
(0.320171 0.00825963 0)
(0.318401 0.00611443 0)
(0.318601 0.00296473 0)
(0.318507 0.00199367 0)
(0.320115 -0.00054854 0)
(0.321334 0.00165682 0)
(0.322978 0.000746141 0)
(0.324398 0.00622277 0)
(0.346836 -0.0225027 0)
(0.345541 -0.0170258 0)
(0.344308 -0.0116705 0)
(0.342571 -0.00665084 0)
(0.340827 -0.00164325 0)
(0.338289 0.00276774 0)
(0.335744 0.00689508 0)
(0.332257 0.00992285 0)
(0.329051 0.0122278 0)
(0.325008 0.0130352 0)
(0.321871 0.0128547 0)
(0.318216 0.0113835 0)
(0.316167 0.008981 0)
(0.313928 0.00643801 0)
(0.313655 0.00302484 0)
(0.31341 0.00170978 0)
(0.314728 -0.00107568 0)
(0.316202 0.00114517 0)
(0.317765 0.000116926 0)
(0.319687 0.00603209 0)
(0.348563 -0.0220027 0)
(0.346202 -0.0164459 0)
(0.344063 -0.0110124 0)
(0.341428 -0.00587206 0)
(0.338976 -0.000729662 0)
(0.335707 0.00383554 0)
(0.332609 0.00811661 0)
(0.328469 0.0112844 0)
(0.32473 0.0136885 0)
(0.320019 0.0144826 0)
(0.316288 0.0142495 0)
(0.311974 0.0125297 0)
(0.309275 0.00992149 0)
(0.306525 0.00693913 0)
(0.305612 0.00324177 0)
(0.305209 0.0015005 0)
(0.306052 -0.00156877 0)
(0.307908 0.000596788 0)
(0.309294 -0.000607451 0)
(0.311975 0.00577671 0)
(0.347366 -0.0210238 0)
(0.343375 -0.0154247 0)
(0.339917 -0.00995374 0)
(0.336128 -0.00474507 0)
(0.332839 0.00046808 0)
(0.328818 0.00515077 0)
(0.325242 0.00955727 0)
(0.320559 0.0128598 0)
(0.316425 0.0153589 0)
(0.311156 0.0161574 0)
(0.306924 0.0158733 0)
(0.301996 0.0139172 0)
(0.298637 0.0110959 0)
(0.295359 0.00764979 0)
(0.293691 0.0036472 0)
(0.293148 0.00138688 0)
(0.293388 -0.00201401 0)
(0.295804 -1.10423e-05 0)
(0.296966 -0.00146448 0)
(0.300735 0.00541161 0)
(0.340747 -0.019296 0)
(0.33458 -0.0137676 0)
(0.329507 -0.00836832 0)
(0.324487 -0.00321174 0)
(0.320439 0.00194677 0)
(0.315881 0.00667263 0)
(0.3121 0.0111542 0)
(0.307181 0.0145756 0)
(0.302952 0.0171663 0)
(0.297379 0.0179991 0)
(0.292864 0.0176789 0)
(0.287452 0.0155246 0)
(0.283525 0.0124939 0)
(0.279743 0.00858403 0)
(0.27731 0.00425142 0)
(0.276681 0.00137179 0)
(0.276308 -0.00242373 0)
(0.279516 -0.000730057 0)
(0.280496 -0.00251209 0)
(0.285718 0.00487712 0)
(0.325389 -0.0165694 0)
(0.316862 -0.0113464 0)
(0.310288 -0.0062277 0)
(0.304374 -0.00131717 0)
(0.300003 0.00362324 0)
(0.295444 0.00827231 0)
(0.291976 0.0127613 0)
(0.287341 0.0162846 0)
(0.283472 0.0189769 0)
(0.27799 0.0198937 0)
(0.273517 0.0195766 0)
(0.267841 0.0172934 0)
(0.26354 0.0140739 0)
(0.25933 0.00972656 0)
(0.256265 0.00502806 0)
(0.255662 0.00142673 0)
(0.254846 -0.00284731 0)
(0.259106 -0.00164217 0)
(0.260061 -0.00382871 0)
(0.26706 0.00410644 0)
(0.298038 -0.0127894 0)
(0.287777 -0.00824494 0)
(0.280535 -0.00370574 0)
(0.274634 0.000680766 0)
(0.270778 0.00523609 0)
(0.267047 0.00969943 0)
(0.264577 0.0141467 0)
(0.260866 0.0177766 0)
(0.257867 0.0206112 0)
(0.252934 0.0216892 0)
(0.248865 0.0214473 0)
(0.243198 0.0191336 0)
(0.238786 0.0157649 0)
(0.234298 0.0110236 0)
(0.230896 0.00590399 0)
(0.230505 0.00147837 0)
(0.229607 -0.003379 0)
(0.235159 -0.00285264 0)
(0.23635 -0.00549738 0)
(0.245309 0.00304127 0)
(0.257265 -0.00831711 0)
(0.246975 -0.00489483 0)
(0.240647 -0.00125818 0)
(0.236108 0.00236625 0)
(0.233818 0.00642601 0)
(0.231773 0.0106479 0)
(0.230912 0.0150551 0)
(0.228675 0.0188368 0)
(0.226939 0.0218928 0)
(0.222945 0.0232363 0)
(0.219575 0.0231716 0)
(0.214196 0.0209412 0)
(0.209968 0.0174734 0)
(0.205437 0.012378 0)
(0.202141 0.00675687 0)
(0.202221 0.00140858 0)
(0.201736 -0.00414597 0)
(0.208722 -0.00446778 0)
(0.210456 -0.00758102 0)
(0.221328 0.00165141 0)
(0.205405 -0.00405357 0)
(0.197503 -0.00209972 0)
(0.193927 0.000459674 0)
(0.191989 0.003281 0)
(0.192027 0.00685825 0)
(0.192167 0.0108761 0)
(0.193169 0.0153108 0)
(0.192642 0.0193289 0)
(0.192295 0.0227116 0)
(0.189453 0.0244345 0)
(0.186934 0.0246597 0)
(0.182099 0.022615 0)
(0.178349 0.0190883 0)
(0.174116 0.0136499 0)
(0.17145 0.0074273 0)
(0.172286 0.00107818 0)
(0.172712 -0.00527234 0)
(0.181113 -0.00655866 0)
(0.183651 -0.0100959 0)
(0.196131 -4.93128e-05 0)
(0.148821 -0.00109926 0)
(0.145414 -0.000665873 0)
(0.145742 0.000929718 0)
(0.146827 0.00312001 0)
(0.149224 0.00638381 0)
(0.151417 0.0103293 0)
(0.154051 0.0149015 0)
(0.155082 0.0192505 0)
(0.155963 0.023057 0)
(0.154284 0.0252529 0)
(0.152641 0.0258586 0)
(0.148588 0.024059 0)
(0.145605 0.0204817 0)
(0.142096 0.014672 0)
(0.140543 0.00775329 0)
(0.142368 0.000376696 0)
(0.14405 -0.00683778 0)
(0.153658 -0.00913367 0)
(0.157137 -0.012997 0)
(0.170718 -0.00201102 0)
(0.0954798 -9.22219e-05 0)
(0.0973311 -0.000956498 0)
(0.101311 8.61539e-05 0)
(0.10474 0.0019862 0)
(0.108777 0.00516414 0)
(0.112353 0.00917703 0)
(0.116037 0.0139775 0)
(0.118204 0.0187174 0)
(0.119985 0.0229993 0)
(0.119359 0.0257109 0)
(0.118564 0.0267327 0)
(0.115533 0.0251762 0)
(0.113589 0.0215172 0)
(0.111226 0.0152833 0)
(0.111106 0.00761523 0)
(0.114016 -0.000765982 0)
(0.117053 -0.00885083 0)
(0.127506 -0.01213 0)
(0.131902 -0.0161847 0)
(0.145992 -0.00415494 0)
(0.0518497 -0.00104758 0)
(0.0578349 -0.00278961 0)
(0.0638551 -0.00165873 0)
(0.0682114 0.000305903 0)
(0.0728177 0.00356191 0)
(0.0769232 0.00770995 0)
(0.0810097 0.0127606 0)
(0.0838303 0.0178898 0)
(0.0861826 0.0226341 0)
(0.0864788 0.0258377 0)
(0.086531 0.027243 0)
(0.0847461 0.0258723 0)
(0.0840566 0.0220767 0)
(0.0831511 0.0153759 0)
(0.0845399 0.0069671 0)
(0.0884868 -0.00235211 0)
(0.0927356 -0.0112465 0)
(0.103591 -0.0154248 0)
(0.108721 -0.019525 0)
(0.122762 -0.00639249 0)
(0.021757 -0.00408615 0)
(0.0284409 -0.00537181 0)
(0.0342955 -0.00360141 0)
(0.038111 -0.00140221 0)
(0.0423407 0.00194258 0)
(0.0462665 0.00619619 0)
(0.0502637 0.0114438 0)
(0.053364 0.0168971 0)
(0.0560702 0.0220306 0)
(0.0572054 0.0256444 0)
(0.0581481 0.0273471 0)
(0.057771 0.0260768 0)
(0.0584502 0.0220948 0)
(0.0591339 0.0149242 0)
(0.0619007 0.00584316 0)
(0.0667331 -0.004288 0)
(0.0718787 -0.0139031 0)
(0.0826829 -0.0188461 0)
(0.0882433 -0.022879 0)
(0.101798 -0.00865767 0)
(0.00840396 -0.00766878 0)
(0.010472 -0.00709283 0)
(0.0143268 -0.00489772 0)
(0.0167678 -0.00260421 0)
(0.020149 0.000690588 0)
(0.0235496 0.00494151 0)
(0.0272388 0.0102701 0)
(0.0304101 0.0159129 0)
(0.0333646 0.0212942 0)
(0.0352293 0.0251701 0)
(0.0370263 0.0270463 0)
(0.0379714 0.0257941 0)
(0.0398872 0.0216265 0)
(0.0419677 0.0140788 0)
(0.0457648 0.00448756 0)
(0.0512166 -0.00621162 0)
(0.0568233 -0.0163943 0)
(0.0672002 -0.0218572 0)
(0.0728112 -0.0258116 0)
(0.0856691 -0.0106892 0)
(0.00133444 -0.00924925 0)
(-0.000625127 -0.0075568 0)
(0.000704697 -0.00550751 0)
(0.00171555 -0.0033165 0)
(0.00421871 -0.000207355 0)
(0.00706418 0.00395876 0)
(0.0104327 0.00927835 0)
(0.0136178 0.0150025 0)
(0.0167913 0.0205163 0)
(0.0192973 0.0245339 0)
(0.0218802 0.0264881 0)
(0.0239932 0.0252017 0)
(0.0269801 0.0208629 0)
(0.0302351 0.0130289 0)
(0.0348133 0.00306811 0)
(0.0406982 -0.00800872 0)
(0.0464893 -0.0186086 0)
(0.0562402 -0.0244038 0)
(0.0616495 -0.0283028 0)
(0.0737636 -0.0124688 0)
(-0.00277247 -0.00826232 0)
(-0.00816899 -0.00700512 0)
(-0.00926921 -0.00552806 0)
(-0.00957304 -0.00368418 0)
(-0.007899 -0.000886599 0)
(-0.00557161 0.00310518 0)
(-0.00249113 0.00833375 0)
(0.000718074 0.0140526 0)
(0.00414004 0.0196114 0)
(0.00728686 0.0236809 0)
(0.0106683 0.0256408 0)
(0.0139111 0.0242805 0)
(0.0179225 0.0197734 0)
(0.022266 0.0117117 0)
(0.0275102 0.0014811 0)
(0.0337133 -0.00985264 0)
(0.0394933 -0.0207464 0)
(0.0483902 -0.0267651 0)
(0.0533732 -0.0306289 0)
(0.0646633 -0.0142131 0)
(-0.00506929 -0.00591207 0)
(-0.0129468 -0.00571059 0)
(-0.0158958 -0.00502822 0)
(-0.0172113 -0.00376999 0)
(-0.0161898 -0.00137606 0)
(-0.0142667 0.00235675 0)
(-0.0113891 0.00741889 0)
(-0.00810771 0.0130525 0)
(-0.00439497 0.0185702 0)
(-0.000607402 0.0226098 0)
(0.00357114 0.0245125 0)
(0.00789028 0.0230479 0)
(0.0128741 0.0183818 0)
(0.0182219 0.0101567 0)
(0.0240438 -0.000256901 0)
(0.0304663 -0.011702 0)
(0.0360843 -0.0227467 0)
(0.043935 -0.0288786 0)
(0.0482923 -0.0327492 0)
(0.0586845 -0.015928 0)
(-0.00614582 -0.00284323 0)
(-0.0153737 -0.00391608 0)
(-0.0193455 -0.00419065 0)
(-0.0212612 -0.00365703 0)
(-0.0206472 -0.00173764 0)
(-0.0189722 0.00167679 0)
(-0.0161884 0.00651006 0)
(-0.0127708 0.0119883 0)
(-0.00872427 0.0173846 0)
(-0.00429703 0.0213228 0)
(0.000665279 0.0231116 0)
(0.00600206 0.0215203 0)
(0.0119063 0.0167086 0)
(0.0181786 0.0083873 0)
(0.0245189 -0.0021145 0)
(0.031088 -0.0135227 0)
(0.036443 -0.024566 0)
(0.0431056 -0.030689 0)
(0.0466632 -0.0346279 0)
(0.0560578 -0.0175973 0)
(-0.0062275 0.000493419 0)
(-0.0156099 -0.00192023 0)
(-0.019679 -0.00321589 0)
(-0.0217426 -0.00344867 0)
(-0.0212718 -0.00203499 0)
(-0.0196787 0.00102398 0)
(-0.0168793 0.00558051 0)
(-0.0132621 0.0108434 0)
(-0.00884646 0.0160502 0)
(-0.00378658 0.0198248 0)
(0.00193493 0.0214483 0)
(0.00822918 0.019714 0)
(0.0149983 0.0147722 0)
(0.0221222 0.00642272 0)
(0.0289355 -0.00405947 0)
(0.0355952 -0.015291 0)
(0.0406476 -0.0261795 0)
(0.0460422 -0.0321538 0)
(0.0486655 -0.0362259 0)
(0.0569012 -0.0191806 0)
(-0.00526329 0.00365378 0)
(-0.0135959 -4.80206e-05 0)
(-0.0168559 -0.00230223 0)
(-0.0186354 -0.00325014 0)
(-0.0180655 -0.00233069 0)
(-0.0164081 0.000358112 0)
(-0.0135039 0.00460595 0)
(-0.00963879 0.00960404 0)
(-0.00483594 0.0145654 0)
(0.000837916 0.0181219 0)
(0.00727873 0.0195371 0)
(0.0144633 0.0176476 0)
(0.0220295 0.0125918 0)
(0.0299247 0.00428042 0)
(0.0371702 -0.00608748 0)
(0.0438736 -0.0169969 0)
(0.0486405 -0.0275809 0)
(0.0527583 -0.0332452 0)
(0.0543758 -0.0375009 0)
(0.0612161 -0.0206371 0)
(-0.00290988 0.00616828 0)
(-0.00904414 0.00139199 0)
(-0.0107263 -0.00163588 0)
(-0.0118689 -0.00314992 0)
(-0.0110193 -0.00267712 0)
(-0.00919822 -0.000348996 0)
(-0.00614048 0.00357029 0)
(-0.00201032 0.00826496 0)
(0.00316888 0.0129333 0)
(0.00941813 0.0162251 0)
(0.0165148 0.0173968 0)
(0.0245053 0.0153444 0)
(0.0327779 0.0101909 0)
(0.0413423 0.0019783 0)
(0.0489703 -0.0081872 0)
(0.0556655 -0.0186425 0)
(0.0602077 -0.0287807 0)
(0.0631097 -0.0339567 0)
(0.0637439 -0.0384129 0)
(0.0688994 -0.021921 0)
(0.00158225 0.00733443 0)
(-0.00139875 0.00217836 0)
(-0.00100991 -0.00138261 0)
(-0.00130454 -0.00320586 0)
(-9.62715e-05 -0.0031059 0)
(0.00191451 -0.00110266 0)
(0.00511281 0.00247212 0)
(0.00947855 0.00683138 0)
(0.0149804 0.0111661 0)
(0.0217357 0.0141543 0)
(0.029391 0.0150539 0)
(0.0380746 0.0128352 0)
(0.046931 0.00760229 0)
(0.0560272 -0.000466153 0)
(0.063966 -0.0103419 0)
(0.070579 -0.0202336 0)
(0.0749773 -0.029803 0)
(0.0767776 -0.0343128 0)
(0.0765699 -0.0389293 0)
(0.0797567 -0.0229828 0)
(0.00960516 0.00564108 0)
(0.0102701 0.00207321 0)
(0.0127049 -0.00157881 0)
(0.013279 -0.00345234 0)
(0.0147778 -0.00361499 0)
(0.0169103 -0.00190068 0)
(0.0201537 0.00132454 0)
(0.0246651 0.0053188 0)
(0.03038 0.00928459 0)
(0.0375297 0.0119366 0)
(0.0456031 0.0125409 0)
(0.0548279 0.010158 0)
(0.064106 0.00486883 0)
(0.0735529 -0.00300861 0)
(0.081702 -0.0125261 0)
(0.0881179 -0.0217647 0)
(0.0924413 -0.0306774 0)
(0.0932758 -0.0343608 0)
(0.0924848 -0.0390327 0)
(0.0935056 -0.0237943 0)
(0.0262308 0.00161653 0)
(0.0310817 0.000736935 0)
(0.034862 -0.00226998 0)
(0.0361526 -0.00397192 0)