/*--------------------------------*- C++ -*----------------------------------*\
| =========                 |                                                 |
| \\      /  F ield         | OpenFOAM: The Open Source CFD Toolbox           |
|  \\    /   O peration     | Version:  v1806                                 |
|   \\  /    A nd           | Web:      www.OpenFOAM.com                      |
|    \\/     M anipulation  |                                                 |
\*---------------------------------------------------------------------------*/
FoamFile
{
    version     2.0;
    format      ascii;
    class       volVectorField;
    location    "340";
    object      U;
}
// * * * * * * * * * * * * * * * * * * * * * * * * * * * * * * * * * * * * * //

dimensions      [0 1 -1 0 0 0 0];


internalField   nonuniform List<vector> 
2400
(
(0.3 -0.000969099 0)
(0.300003 -0.00290577 0)
(0.300008 -0.00483688 0)
(0.300017 -0.00675799 0)
(0.300032 -0.00866405 0)
(0.300053 -0.0105489 0)
(0.300082 -0.0124052 0)
(0.300121 -0.0142237 0)
(0.300174 -0.0159937 0)
(0.300241 -0.0177024 0)
(0.300327 -0.0193354 0)
(0.300435 -0.0208767 0)
(0.300568 -0.0223084 0)
(0.300729 -0.0236124 0)
(0.30092 -0.0247694 0)
(0.301143 -0.0257612 0)
(0.301401 -0.0265701 0)
(0.301693 -0.0271815 0)
(0.302019 -0.0275821 0)
(0.302376 -0.0277653 0)
(0.3 -0.000971074 0)
(0.300006 -0.00291192 0)
(0.300019 -0.00484797 0)
(0.300039 -0.00677532 0)
(0.300068 -0.00868933 0)
(0.300109 -0.0105844 0)
(0.300163 -0.0124534 0)
(0.300236 -0.0142879 0)
(0.300331 -0.0160773 0)
(0.300451 -0.0178095 0)
(0.300601 -0.01947 0)
(0.300786 -0.0210429 0)
(0.30101 -0.0225104 0)
(0.301275 -0.0238537 0)
(0.301585 -0.0250529 0)
(0.301941 -0.0260888 0)
(0.302343 -0.0269422 0)
(0.302788 -0.0275973 0)
(0.303273 -0.0280387 0)
(0.303791 -0.028259 0)
(0.300001 -0.000974808 0)
(0.30001 -0.00292341 0)
(0.300029 -0.00486829 0)
(0.300059 -0.00680629 0)
(0.300103 -0.00873356 0)
(0.300165 -0.0106452 0)
(0.300248 -0.0125348 0)
(0.300358 -0.0143943 0)
(0.300499 -0.0162139 0)
(0.30068 -0.0179814 0)
(0.300905 -0.0196827 0)
(0.30118 -0.0213014 0)
(0.301512 -0.0228191 0)
(0.301904 -0.0242159 0)
(0.302361 -0.0254705 0)
(0.302882 -0.0265617 0)
(0.303466 -0.027468 0)
(0.304108 -0.0281711 0)
(0.304801 -0.0286531 0)
(0.305535 -0.0289039 0)
(0.300001 -0.000979913 0)
(0.300012 -0.00293914 0)
(0.300036 -0.00489605 0)
(0.300075 -0.00684861 0)
(0.300131 -0.00879404 0)
(0.300209 -0.0107284 0)
(0.300316 -0.0126463 0)
(0.300459 -0.0145405 0)
(0.300644 -0.0164015 0)
(0.300881 -0.0182179 0)
(0.301177 -0.0199751 0)
(0.301542 -0.0216566 0)
(0.301982 -0.0232429 0)
(0.302505 -0.0247124 0)
(0.303113 -0.0260416 0)
(0.303808 -0.0272064 0)
(0.304587 -0.0281821 0)
(0.305444 -0.0289466 0)
(0.306366 -0.0294785 0)
(0.30734 -0.0297647 0)
(0.300001 -0.000985829 0)
(0.300014 -0.00295741 0)
(0.30004 -0.00492856 0)
(0.300083 -0.0068987 0)
(0.300146 -0.00886645 0)
(0.300236 -0.0108293 0)
(0.30036 -0.0127829 0)
(0.300528 -0.0147212 0)
(0.300748 -0.0166356 0)
(0.301033 -0.0185151 0)
(0.301394 -0.0203454 0)
(0.301841 -0.0221091 0)
(0.302385 -0.0237855 0)
(0.303034 -0.025351 0)
(0.303795 -0.0267789 0)
(0.304669 -0.0280413 0)
(0.305652 -0.0291086 0)
(0.306737 -0.029954 0)
(0.307906 -0.0305504 0)
(0.309141 -0.0308809 0)
(0.300001 -0.00099184 0)
(0.300013 -0.0029761 0)
(0.300039 -0.0049623 0)
(0.300081 -0.00695168 0)
(0.300145 -0.00894462 0)
(0.300239 -0.0109403 0)
(0.300371 -0.0129361 0)
(0.300554 -0.0149274 0)
(0.300799 -0.0169067 0)
(0.30112 -0.0188638 0)
(0.301534 -0.0207847 0)
(0.302053 -0.0226515 0)
(0.302693 -0.0244419 0)
(0.303465 -0.0261298 0)
(0.304377 -0.0276844 0)
(0.305433 -0.0290728 0)
(0.30663 -0.0302589 0)
(0.307957 -0.0312092 0)
(0.309395 -0.0318888 0)
(0.310917 -0.0322753 0)
(0.300001 -0.000997059 0)
(0.300011 -0.00299255 0)
(0.300032 -0.00499282 0)
(0.300068 -0.00700134 0)
(0.300125 -0.00902059 0)
(0.300212 -0.011052 0)
(0.300341 -0.0130949 0)
(0.300525 -0.0151468 0)
(0.300781 -0.0172016 0)
(0.301124 -0.0192508 0)
(0.301576 -0.0212804 0)
(0.302154 -0.0232729 0)
(0.302877 -0.0252037 0)
(0.303763 -0.0270444 0)
(0.304823 -0.0287588 0)
(0.306065 -0.0303078 0)
(0.307486 -0.0316468 0)
(0.309076 -0.0327325 0)
(0.31081 -0.0335201 0)
(0.312653 -0.0339783 0)
(0.3 -0.00100041 0)
(0.300006 -0.00300354 0)
(0.300018 -0.00501472 0)
(0.30004 -0.0070401 0)
(0.300081 -0.00908461 0)
(0.30015 -0.0111526 0)
(0.300262 -0.0132455 0)
(0.300432 -0.015364 0)
(0.300679 -0.0175036 0)
(0.301025 -0.0196589 0)
(0.301495 -0.0218156 0)
(0.302112 -0.0239582 0)
(0.302903 -0.0260589 0)
(0.30389 -0.028088 0)
(0.305092 -0.0300018 0)
(0.306522 -0.0317545 0)
(0.30818 -0.0332897 0)
(0.310056 -0.0345509 0)
(0.31212 -0.03548 0)
(0.314329 -0.0360315 0)
(0.3 -0.00100063 0)
(0.299998 -0.00300526 0)
(0.299995 -0.00502162 0)
(0.299997 -0.00705898 0)
(0.30001 -0.009125 0)
(0.300047 -0.0112276 0)
(0.300124 -0.0133708 0)
(0.300259 -0.0155597 0)
(0.300476 -0.0177914 0)
(0.300801 -0.0200657 0)
(0.301262 -0.0223675 0)
(0.301894 -0.0246867 0)
(0.302728 -0.0269894 0)
(0.303797 -0.0292493 0)
(0.305131 -0.0314098 0)
(0.306747 -0.0334209 0)
(0.308656 -0.0352081 0)
(0.310846 -0.0366985 0)
(0.313285 -0.0378156 0)
(0.315919 -0.0384898 0)
(0.299999 -0.000996282 0)
(0.299987 -0.00299341 0)
(0.299964 -0.00500628 0)
(0.299934 -0.00704766 0)
(0.299907 -0.0091282 0)
(0.299896 -0.0112602 0)
(0.299918 -0.0134505 0)
(0.299996 -0.0157104 0)
(0.300154 -0.0180382 0)
(0.300427 -0.0204429 0)
(0.300847 -0.0229059 0)
(0.301458 -0.0254301 0)
(0.302304 -0.0279689 0)
(0.303427 -0.0305109 0)
(0.304872 -0.0329729 0)
(0.306668 -0.0353145 0)
(0.30884 -0.0374247 0)
(0.311376 -0.0392183 0)
(0.314247 -0.0405888 0)
(0.317385 -0.0414265 0)
(0.299999 -0.000985811 0)
(0.299973 -0.00296325 0)
(0.299922 -0.00496064 0)
(0.299852 -0.0069946 0)
(0.29977 -0.00907884 0)
(0.299693 -0.0112311 0)
(0.299638 -0.0134608 0)
(0.29963 -0.0157879 0)
(0.299697 -0.018211 0)
(0.299879 -0.0207542 0)
(0.300216 -0.0233908 0)
(0.300762 -0.0261504 0)
(0.301572 -0.0289581 0)
(0.302707 -0.0318459 0)
(0.304232 -0.0346696 0)
(0.306188 -0.0374413 0)
(0.308634 -0.0399603 0)
(0.311549 -0.0421661 0)
(0.314929 -0.04388 0)
(0.318675 -0.0449406 0)
(0.299998 -0.00096756 0)
(0.299955 -0.00290978 0)
(0.299871 -0.00487614 0)
(0.299748 -0.00688734 0)
(0.299597 -0.00896013 0)
(0.299434 -0.0111185 0)
(0.299276 -0.0133743 0)
(0.29915 -0.0157591 0)
(0.299087 -0.01827 0)
(0.299133 -0.0209547 0)
(0.299333 -0.0237702 0)
(0.299755 -0.0267959 0)
(0.300468 -0.0298998 0)
(0.301554 -0.0332145 0)
(0.303108 -0.0364574 0)
(0.305186 -0.0398059 0)
(0.307909 -0.0428249 0)
(0.311229 -0.0456209 0)
(0.315224 -0.0477894 0)
(0.319709 -0.0491707 0)
(0.299997 -0.000939867 0)
(0.299934 -0.00282791 0)
(0.299808 -0.00474405 0)
(0.299624 -0.00671298 0)
(0.299389 -0.00875438 0)
(0.299118 -0.010899 0)
(0.29883 -0.013161 0)
(0.298552 -0.0155863 0)
(0.298316 -0.0181685 0)
(0.29817 -0.0209892 0)
(0.298167 -0.0239779 0)
(0.298391 -0.0272976 0)
(0.29892 -0.0307131 0)
(0.299869 -0.0345568 0)
(0.301369 -0.0382592 0)
(0.303502 -0.0424116 0)
(0.306492 -0.0459949 0)
(0.310221 -0.0497105 0)
(0.314989 -0.0524291 0)
(0.320364 -0.0543327 0)
(0.299995 -0.000901156 0)
(0.299909 -0.00271279 0)
(0.299737 -0.00455597 0)
(0.29948 -0.00645888 0)
(0.299146 -0.00844398 0)
(0.298748 -0.0105487 0)
(0.298303 -0.0127895 0)
(0.297835 -0.0152279 0)
(0.297378 -0.0178543 0)
(0.296978 -0.020791 0)
(0.296697 -0.0239334 0)
(0.296622 -0.027562 0)
(0.296859 -0.0312877 0)
(0.297546 -0.0357786 0)
(0.298865 -0.039948 0)
(0.300935 -0.0452513 0)
(0.304139 -0.0493699 0)
(0.30824 -0.0546587 0)
(0.314033 -0.0578787 0)
(0.32042 -0.0608364 0)
(0.299994 -0.000850072 0)
(0.299882 -0.00256024 0)
(0.299658 -0.00430452 0)
(0.299319 -0.00611368 0)
(0.298875 -0.00801268 0)
(0.29833 -0.0100443 0)
(0.297705 -0.0122285 0)
(0.297008 -0.0146406 0)
(0.296286 -0.0172709 0)
(0.295557 -0.020283 0)
(0.294918 -0.0235427 0)
(0.294415 -0.0274644 0)
(0.294232 -0.0314829 0)
(0.294463 -0.0367234 0)
(0.295426 -0.0413443 0)
(0.297234 -0.0482664 0)
(0.300501 -0.0527296 0)
(0.304887 -0.0608249 0)
(0.312035 -0.064043 0)
(0.319443 -0.0695735 0)
(0.299993 -0.000785624 0)
(0.299853 -0.00236717 0)
(0.299574 -0.00398412 0)
(0.299147 -0.00566847 0)
(0.298584 -0.00744716 0)
(0.297877 -0.0093662 0)
(0.297053 -0.0114498 0)
(0.296092 -0.0137828 0)
(0.295065 -0.016362 0)
(0.293929 -0.0193813 0)
(0.292856 -0.0227005 0)
(0.291758 -0.0268452 0)
(0.291023 -0.0311279 0)
(0.290494 -0.0371301 0)
(0.290912 -0.0422281 0)
(0.292061 -0.0512278 0)
(0.29513 -0.0557842 0)
(0.299639 -0.0686175 0)
(0.308227 -0.0704143 0)
(0.316715 -0.0823691 0)
(0.299991 -0.000707344 0)
(0.299823 -0.00213207 0)
(0.299488 -0.00359181 0)
(0.298972 -0.00511816 0)
(0.298286 -0.006739 0)
(0.297409 -0.00850072 0)
(0.296374 -0.0104319 0)
(0.295125 -0.0126205 0)
(0.293762 -0.0150763 0)
(0.292148 -0.0180046 0)
(0.290572 -0.0212951 0)
(0.288692 -0.0255191 0)
(0.287279 -0.0300141 0)
(0.285533 -0.0366088 0)
(0.285254 -0.0423289 0)
(0.284903 -0.0535101 0)
(0.287656 -0.0584047 0)
(0.29165 -0.0780526 0)
(0.301008 -0.0761474 0)
(0.311795 -0.102296 0)
(0.29999 -0.000615438 0)
(0.299795 -0.00185537 0)
(0.299405 -0.00312797 0)
(0.298802 -0.00446267 0)
(0.297996 -0.00588657 0)
(0.296952 -0.00744322 0)
(0.295705 -0.0091641 0)
(0.29416 -0.0111334 0)
(0.292444 -0.0133759 0)
(0.290311 -0.0160882 0)
(0.288169 -0.0192168 0)
(0.285353 -0.0233048 0)
(0.28311 -0.0278773 0)
(0.279632 -0.034682 0)
(0.278465 -0.0412108 0)
(0.275098 -0.053946 0)
(0.277962 -0.0606799 0)
(0.278812 -0.0877029 0)
(0.289256 -0.081767 0)
(0.305325 -0.133922 0)
(0.299989 -0.000511152 0)
(0.29977 -0.00154003 0)
(0.299331 -0.00259738 0)
(0.29865 -0.00370836 0)
(0.297733 -0.00489754 0)
(0.296536 -0.00620136 0)
(0.295088 -0.00765256 0)
(0.293267 -0.00932288 0)
(0.291198 -0.0112505 0)
(0.288562 -0.013603 0)
(0.285796 -0.016389 0)
(0.282018 -0.0200671 0)
(0.278698 -0.0244237 0)
(0.273221 -0.0308938 0)
(0.270517 -0.0380583 0)
(0.262622 -0.0511211 0)
(0.265292 -0.0618737 0)
(0.257213 -0.0935477 0)
(0.275435 -0.0941771 0)
(0.292763 -0.184443 0)
(0.299988 -0.000397537 0)
(0.29975 -0.00119289 0)
(0.299271 -0.00201135 0)
(0.298525 -0.00287107 0)
(0.297517 -0.00379274 0)
(0.296193 -0.00480055 0)
(0.294572 -0.00592876 0)
(0.29252 -0.00722443 0)
(0.290129 -0.00873992 0)
(0.287068 -0.0105862 0)
(0.283672 -0.0128335 0)
(0.279066 -0.0157961 0)
(0.274414 -0.0195071 0)
(0.267178 -0.0249816 0)
(0.261541 -0.0318728 0)
(0.249269 -0.0438446 0)
(0.24668 -0.0582806 0)
(0.225047 -0.0905841 0)
(0.249136 -0.121821 0)
(0.241623 -0.242497 0)
(0.302798 -0.0277215 0)
(0.303294 -0.0273608 0)
(0.303816 -0.0266884 0)
(0.304353 -0.0257391 0)
(0.304894 -0.0245244 0)
(0.305427 -0.0231094 0)
(0.305946 -0.0214932 0)
(0.306439 -0.0197756 0)
(0.30691 -0.0179086 0)
(0.307339 -0.016055 0)
(0.304389 -0.0282472 0)
(0.305064 -0.0279096 0)
(0.305746 -0.027249 0)
(0.306416 -0.0263015 0)
(0.307059 -0.0250766 0)
(0.30766 -0.0236437 0)
(0.308212 -0.0219988 0)
(0.308706 -0.0202511 0)
(0.309144 -0.0183436 0)
(0.309518 -0.0164608 0)
(0.30637 -0.028914 0)
(0.307299 -0.0285843 0)
(0.308217 -0.0279114 0)
(0.309098 -0.0269359 0)
(0.309917 -0.0256663 0)
(0.310657 -0.0241815 0)
(0.311306 -0.022474 0)
(0.31186 -0.0206657 0)
(0.312317 -0.0186902 0)
(0.312678 -0.0167468 0)
(0.308444 -0.0297946 0)
(0.309661 -0.0294612 0)
(0.310852 -0.0287558 0)
(0.311981 -0.0277262 0)
(0.313011 -0.0263803 0)
(0.313924 -0.0248115 0)
(0.314702 -0.0230068 0)
(0.315345 -0.0211082 0)
(0.315853 -0.0190307 0)
(0.316228 -0.017007 0)
(0.310539 -0.0309321 0)
(0.312075 -0.0305864 0)
(0.313568 -0.029829 0)
(0.314971 -0.0287191 0)
(0.316234 -0.0272639 0)
(0.317335 -0.0255784 0)
(0.318255 -0.0236403 0)
(0.318998 -0.021621 0)
(0.319564 -0.019407 0)
(0.319962 -0.0172801 0)
(0.312641 -0.0323508 0)
(0.314532 -0.0319836 0)
(0.316361 -0.0311513 0)
(0.318064 -0.0299298 0)
(0.319577 -0.0283266 0)
(0.320878 -0.0264872 0)
(0.321943 -0.0243758 0)
(0.322787 -0.0222035 0)
(0.323408 -0.019816 0)
(0.323826 -0.0175624 0)
(0.314744 -0.0340832 0)
(0.317038 -0.0336837 0)
(0.319244 -0.0327474 0)
(0.32128 -0.0313752 0)
(0.323062 -0.0295773 0)
(0.32457 -0.0275414 0)
(0.32578 -0.0252115 0)
(0.326722 -0.0228519 0)
(0.327389 -0.0202499 0)
(0.327818 -0.0178468 0)
(0.316843 -0.0361738 0)
(0.319602 -0.0357282 0)
(0.322241 -0.0346491 0)
(0.324649 -0.0330759 0)
(0.326718 -0.0310261 0)
(0.32844 -0.0287444 0)
(0.329789 -0.0261443 0)
(0.330821 -0.0235603 0)
(0.331519 -0.0206981 0)
(0.331945 -0.018124 0)
(0.31893 -0.0386823 0)
(0.322239 -0.0381711 0)
(0.325381 -0.0368952 0)
(0.328206 -0.0350544 0)
(0.33058 -0.0326821 0)
(0.332517 -0.0300968 0)
(0.333996 -0.0271673 0)
(0.335104 -0.0243193 0)
(0.335814 -0.021146 0)
(0.336218 -0.0183808 0)
(0.320994 -0.0416909 0)
(0.324969 -0.0410827 0)
(0.328709 -0.039531 0)
(0.332 -0.0373325 0)
(0.334692 -0.0345513 0)
(0.336836 -0.0315949 0)
(0.338427 -0.028269 0)
(0.33959 -0.0251144 0)
(0.340283 -0.0215738 0)
(0.340638 -0.0185993 0)
(0.323022 -0.0453163 0)
(0.327829 -0.0445552 0)
(0.332288 -0.0426081 0)
(0.336092 -0.0399295 0)
(0.339104 -0.0366348 0)
(0.341434 -0.033227 0)
(0.343108 -0.0294298 0)
(0.344288 -0.0259223 0)
(0.344919 -0.0219524 0)
(0.345175 -0.0187509 0)
(0.325 -0.0497267 0)
(0.330886 -0.0487056 0)
(0.336218 -0.046184 0)
(0.340568 -0.0428634 0)
(0.343883 -0.0389286 0)
(0.346346 -0.0349682 0)
(0.348043 -0.0306155 0)
(0.349151 -0.0266993 0)
(0.349633 -0.0222326 0)
(0.349677 -0.0187796 0)
(0.326925 -0.0551622 0)
(0.334267 -0.0536705 0)
(0.340655 -0.0503198 0)
(0.345541 -0.0461522 0)
(0.349094 -0.0414174 0)
(0.351538 -0.0367645 0)
(0.353104 -0.031756 0)
(0.353907 -0.027351 0)
(0.354036 -0.0223126 0)
(0.353597 -0.0185602 0)
(0.328851 -0.0619634 0)
(0.338226 -0.0595743 0)
(0.345828 -0.0550488 0)
(0.351096 -0.0497619 0)
(0.354623 -0.0439984 0)
(0.356605 -0.0384466 0)
(0.357594 -0.0326534 0)
(0.35751 -0.0276341 0)
(0.356842 -0.0219463 0)
(0.355332 -0.0178113 0)
(0.331124 -0.0706342 0)
(0.343268 -0.0664979 0)
(0.351873 -0.060278 0)
(0.35682 -0.0533964 0)
(0.359391 -0.0462177 0)
(0.359737 -0.0394602 0)
(0.35907 -0.0327286 0)
(0.356916 -0.0269432 0)
(0.354645 -0.0205843 0)
(0.351059 -0.0159852 0)
(0.33494 -0.0819584 0)
(0.349881 -0.0747051 0)
(0.357663 -0.0656773 0)
(0.359973 -0.0561313 0)
(0.359098 -0.0468202 0)
(0.355426 -0.0384652 0)
(0.351123 -0.0307192 0)
(0.345187 -0.0241462 0)
(0.340323 -0.0173365 0)
(0.333591 -0.0123041 0)
(0.341985 -0.0965468 0)
(0.355604 -0.0841786 0)
(0.356827 -0.0697698 0)
(0.351275 -0.0555546 0)
(0.342439 -0.0432196 0)
(0.33151 -0.0331705 0)
(0.321408 -0.0247764 0)
(0.310651 -0.0179219 0)
(0.303022 -0.0114104 0)
(0.293261 -0.00631929 0)
(0.348561 -0.110153 0)
(0.345691 -0.0889984 0)
(0.330288 -0.0657716 0)
(0.309994 -0.0461041 0)
(0.289127 -0.0316544 0)
(0.270013 -0.0214041 0)
(0.25497 -0.0139223 0)
(0.241918 -0.00832561 0)
(0.234163 -0.0035659 0)
(0.224474 0.00082316 0)
(0.330295 -0.0988711 0)
(0.279156 -0.0685912 0)
(0.241803 -0.0375448 0)
(0.207539 -0.0184813 0)
(0.181009 -0.00841 0)
(0.162917 -0.003549 0)
(0.151629 -0.00111918 0)
(0.143886 0.00036559 0)
(0.141093 0.00184713 0)
(0.135833 0.00546366 0)
(0.225728 -0.100302 0)
(0.0860305 -0.0383792 0)
(0.065891 -0.00630802 0)
(0.0501209 0.00160184 0)
(0.0444926 0.00264732 0)
(0.0429064 0.00210703 0)
(0.0428567 0.00147017 0)
(0.0432822 0.00113931 0)
(0.0453578 0.00147775 0)
(0.0445707 0.00372294 0)
(0.308126 -0.0121573 0)
(0.308969 -0.00665947 0)
(0.309486 -0.00205996 0)
(0.309871 0.00166219 0)
(0.310046 0.00452307 0)
(0.310203 0.00647527 0)
(0.310299 0.00795125 0)
(0.31034 0.00871936 0)
(0.310438 0.00930364 0)
(0.310441 0.00954519 0)
(0.310472 0.00940126 0)
(0.310533 0.00933795 0)
(0.310464 0.00879435 0)
(0.310643 0.0083839 0)
(0.310609 0.00802287 0)
(0.310853 0.00752612 0)
(0.310936 0.00771446 0)
(0.311097 0.0074552 0)
(0.311222 0.00791123 0)
(0.311226 0.00793351 0)
(0.310154 -0.012465 0)
(0.310612 -0.00685611 0)
(0.310751 -0.00219602 0)
(0.310816 0.00158162 0)
(0.310732 0.00448417 0)
(0.310701 0.00644975 0)
(0.310661 0.00793787 0)
(0.310621 0.00870496 0)
(0.310664 0.00929345 0)
(0.310623 0.00954035 0)
(0.310636 0.00939166 0)
(0.310676 0.00933843 0)
(0.310603 0.00878048 0)
(0.310798 0.00836365 0)
(0.310772 0.00799257 0)
(0.311049 0.00747828 0)
(0.311145 0.00767867 0)
(0.311312 0.00741363 0)
(0.311441 0.00789066 0)
(0.311413 0.00793385 0)
(0.313223 -0.0126218 0)
(0.313301 -0.00690242 0)
(0.313003 -0.00217691 0)
(0.312641 0.00163532 0)
(0.312174 0.00453708 0)
(0.311841 0.00648817 0)
(0.311558 0.00796846 0)
(0.31135 0.00871756 0)
(0.311275 0.00930601 0)
(0.311126 0.00954873 0)
(0.311082 0.00939185 0)
(0.311062 0.00934577 0)
(0.310956 0.00876138 0)
(0.311164 0.00833686 0)
(0.311133 0.00794834 0)
(0.311462 0.00741566 0)
(0.311575 0.00763616 0)
(0.311747 0.00736568 0)
(0.311886 0.0078769 0)
(0.311793 0.00794291 0)
(0.316738 -0.0126899 0)
(0.3165 -0.00682644 0)
(0.315815 -0.00202997 0)
(0.315046 0.00181475 0)
(0.314185 0.00469982 0)
(0.313526 0.0066185 0)
(0.312961 0.00806962 0)
(0.312542 0.00878173 0)
(0.312308 0.00936251 0)
(0.312002 0.00958673 0)
(0.311866 0.00941737 0)
(0.311745 0.00937056 0)
(0.311575 0.00874827 0)
(0.311779 0.00831337 0)
(0.311724 0.00789921 0)
(0.312106 0.00734707 0)
(0.312235 0.00759476 0)
(0.312404 0.00731912 0)
(0.312557 0.00787588 0)
(0.312364 0.00796479 0)
(0.320453 -0.0127051 0)
(0.31992 -0.00666575 0)
(0.31889 -0.00178199 0)
(0.317753 0.00210183 0)
(0.316531 0.00496103 0)
(0.315567 0.00683614 0)
(0.314732 0.00824262 0)
(0.314099 0.00890197 0)
(0.313701 0.00946998 0)
(0.313217 0.00966315 0)
(0.312969 0.00947735 0)
(0.31272 0.00942287 0)
(0.312459 0.00874891 0)
(0.312641 0.00829875 0)
(0.312542 0.00784765 0)
(0.312971 0.00727099 0)
(0.313112 0.00755423 0)
(0.313263 0.00727181 0)
(0.313435 0.00788967 0)
(0.313103 0.00800439 0)
(0.324286 -0.0126611 0)
(0.323435 -0.00642652 0)
(0.322073 -0.00143899 0)
(0.320587 0.00248834 0)
(0.319031 0.00531015 0)
(0.31779 0.00713175 0)
(0.316713 0.00848062 0)
(0.315886 0.00907421 0)
(0.315338 0.00962789 0)
(0.314676 0.00978 0)
(0.314313 0.00957627 0)
(0.31392 0.00950858 0)
(0.313552 0.00876814 0)
(0.313697 0.00829733 0)
(0.313539 0.00779582 0)
(0.314006 0.00718789 0)
(0.314157 0.00751629 0)
(0.314271 0.00722424 0)
(0.314467 0.00792314 0)
(0.313959 0.00806737 0)
(0.32822 -0.0125438 0)
(0.326998 -0.00610593 0)
(0.325291 -0.000998105 0)
(0.323448 0.00297178 0)
(0.321567 0.0057409 0)
(0.320063 0.00749831 0)
(0.318767 0.00877594 0)
(0.317766 0.00929242 0)
(0.317086 0.00983248 0)
(0.316255 0.00993548 0)
(0.315778 0.00971569 0)
(0.315235 0.00963014 0)
(0.314748 0.00880934 0)
(0.314844 0.00831282 0)
(0.314617 0.0077464 0)
(0.315106 0.00709994 0)
(0.315271 0.00748384 0)
(0.315324 0.00717848 0)
(0.315553 0.00798129 0)
(0.314835 0.00815884 0)
(0.33225 -0.0123334 0)
(0.330585 -0.00569843 0)
(0.328504 -0.000450391 0)
(0.326274 0.00355457 0)
(0.324056 0.00625226 0)
(0.32228 0.00793336 0)
(0.320773 0.0091236 0)
(0.319605 0.00955255 0)
(0.318801 0.0100804 0)
(0.317807 0.0101276 0)
(0.317212 0.00989681 0)
(0.316513 0.00978905 0)
(0.315894 0.00887597 0)
(0.315926 0.00834877 0)
(0.315619 0.00770242 0)
(0.31611 0.00700978 0)
(0.316293 0.00745956 0)
(0.316262 0.00713634 0)
(0.316535 0.00806799 0)
(0.31558 0.00828288 0)
(0.336374 -0.012004 0)
(0.334166 -0.00519617 0)
(0.331665 0.000221096 0)
(0.328989 0.00424468 0)
(0.326399 0.00684945 0)
(0.324318 0.00844037 0)
(0.322588 0.00952352 0)
(0.321239 0.00985521 0)
(0.320302 0.0103714 0)
(0.31914 0.0103571 0)
(0.31841 0.010123 0)
(0.317545 0.0099881 0)
(0.316771 0.00897326 0)
(0.316716 0.00840976 0)
(0.316316 0.00766813 0)
(0.31678 0.00692096 0)
(0.316986 0.00744584 0)
(0.316848 0.00709908 0)
(0.317179 0.00818546 0)
(0.315974 0.00844186 0)
(0.340574 -0.0115209 0)
(0.337676 -0.00458685 0)
(0.334671 0.00104374 0)
(0.33145 0.00505684 0)
(0.32842 0.00754575 0)
(0.325971 0.00903012 0)
(0.32398 0.00998199 0)
(0.322414 0.0102071 0)
(0.321319 0.01071 0)
(0.31997 0.0106291 0)
(0.319072 0.0104007 0)
(0.31803 0.0102325 0)
(0.317066 0.00910934 0)
(0.3169 0.00850236 0)
(0.316383 0.00765006 0)
(0.316782 0.00683842 0)
(0.317021 0.00744461 0)
(0.316756 0.00706683 0)
(0.317168 0.00833289 0)
(0.315727 0.00863506 0)
(0.344773 -0.0108342 0)
(0.340938 -0.00384541 0)
(0.337275 0.00206235 0)
(0.333344 0.00601627 0)
(0.329759 0.00836587 0)
(0.326844 0.00972201 0)
(0.324533 0.0105125 0)
(0.322691 0.010621 0)
(0.321406 0.0111042 0)
(0.319848 0.0109519 0)
(0.31875 0.0107379 0)
(0.317529 0.0105291 0)
(0.316331 0.00929452 0)
(0.316035 0.00863471 0)
(0.315371 0.00765683 0)
(0.31567 0.00676766 0)
(0.315956 0.00745592 0)
(0.315563 0.00703674 0)
(0.316095 0.00850365 0)
(0.314473 0.00885659 0)
(0.348713 -0.00986224 0)
(0.343488 -0.0029159 0)
(0.338903 0.00335087 0)
(0.33401 0.00716338 0)
(0.329714 0.0093486 0)
(0.326218 0.0105432 0)
(0.323519 0.0111339 0)
(0.321344 0.0111117 0)
(0.319862 0.0115609 0)
(0.318091 0.0113323 0)
(0.316789 0.0111388 0)
(0.315418 0.010882 0)
(0.313956 0.00953747 0)
(0.313537 0.00881347 0)
(0.3127 0.00769665 0)
(0.312881 0.00671172 0)
(0.313248 0.00747476 0)
(0.31276 0.00699955 0)
(0.313477 0.00868126 0)
(0.311789 0.00909279 0)
(0.351631 -0.00845775 0)
(0.344221 -0.00168323 0)
(0.338347 0.00502012 0)
(0.332183 0.00855213 0)
(0.327032 0.0105418 0)
(0.322882 0.0115196 0)
(0.31978 0.0118614 0)
(0.317276 0.0116859 0)
(0.315665 0.0120759 0)
(0.313744 0.0117651 0)
(0.312313 0.0115938 0)
(0.310889 0.011285 0)
(0.309177 0.00983768 0)
(0.308696 0.00903793 0)
(0.307683 0.00777195 0)
(0.307776 0.00666568 0)
(0.30829 0.00748625 0)
(0.307796 0.00693496 0)
(0.3088 0.00883501 0)
(0.307237 0.00931954 0)
(0.351627 -0.00634338 0)
(0.340837 2.38675e-05 0)
(0.333382 0.00719587 0)
(0.325723 0.0102264 0)
(0.319752 0.0119766 0)
(0.315062 0.0126504 0)
(0.311698 0.012684 0)
(0.309032 0.0123195 0)
(0.307521 0.0126147 0)
(0.305642 0.0122163 0)
(0.304298 0.0120642 0)
(0.303022 0.0117101 0)
(0.30116 0.0101748 0)
(0.300767 0.00929169 0)
(0.299621 0.00787139 0)
(0.299738 0.00660955 0)
(0.300508 0.0074603 0)
(0.300176 0.00680709 0)
(0.301607 0.00891706 0)
(0.300435 0.00950104 0)
(0.344775 -0.00307563 0)
(0.329311 0.00240413 0)
(0.320573 0.0099476 0)
(0.311605 0.0121602 0)
(0.305328 0.0136091 0)
(0.300597 0.0138606 0)
(0.297423 0.0135265 0)
(0.295046 0.0129271 0)
(0.294098 0.0130895 0)
(0.292642 0.0126038 0)
(0.291786 0.0124688 0)
(0.290982 0.0120965 0)
(0.289193 0.010498 0)
(0.289139 0.00953445 0)
(0.287978 0.00796129 0)
(0.288336 0.00650174 0)
(0.289515 0.00734812 0)
(0.289594 0.00656272 0)
(0.291618 0.00886379 0)
(0.291159 0.00959147 0)
(0.324678 0.00159879 0)
(0.304126 0.00550715 0)
(0.29585 0.01312 0)
(0.286607 0.0141477 0)
(0.28134 0.0152333 0)
(0.277607 0.0149417 0)
(0.275475 0.0142091 0)
(0.274183 0.0133346 0)
(0.274492 0.0133445 0)
(0.274033 0.0127872 0)
(0.274229 0.0126792 0)
(0.274319 0.0123475 0)
(0.272953 0.0107217 0)
(0.273582 0.00969813 0)
(0.27261 0.00798042 0)
(0.273529 0.00627736 0)
(0.275292 0.00708418 0)
(0.276094 0.00613571 0)
(0.278861 0.00860405 0)
(0.27944 0.00954057 0)
(0.284161 0.00744459 0)
(0.260583 0.00894683 0)
(0.256548 0.0161312 0)
(0.249051 0.015695 0)
(0.246896 0.0164194 0)
(0.245603 0.0155343 0)
(0.245662 0.0144436 0)
(0.246469 0.0132875 0)
(0.248817 0.0131704 0)
(0.250022 0.012584 0)
(0.251882 0.0125377 0)
(0.253305 0.0123407 0)
(0.252799 0.0107325 0)
(0.254487 0.00969122 0)
(0.253987 0.00784277 0)
(0.255843 0.00585593 0)
(0.25834 0.00659604 0)
(0.260187 0.00546029 0)
(0.263769 0.00807468 0)
(0.265658 0.00930244 0)
(0.22115 0.0131805 0)
(0.199401 0.011565 0)
(0.204467 0.0179206 0)
(0.200945 0.0160943 0)
(0.204064 0.0166031 0)
(0.206503 0.0152222 0)
(0.209823 0.0139068 0)
(0.213637 0.0125188 0)
(0.218625 0.0123604 0)
(0.222066 0.0118165 0)
(0.226052 0.0118978 0)
(0.229158 0.0119525 0)
(0.229951 0.0104101 0)
(0.233021 0.00941228 0)
(0.233316 0.00745031 0)
(0.236444 0.00516027 0)
(0.239739 0.00582192 0)
(0.242887 0.00449048 0)
(0.24721 0.0072408 0)
(0.250572 0.00884443 0)
(0.145352 0.0162221 0)
(0.129993 0.011776 0)
(0.147038 0.0173985 0)
(0.148469 0.0147932 0)
(0.157984 0.0153497 0)
(0.164682 0.0137081 0)
(0.17184 0.0123606 0)
(0.179079 0.0108479 0)
(0.186881 0.010782 0)
(0.192836 0.0103695 0)
(0.199083 0.0106703 0)
(0.204039 0.0110877 0)
(0.206465 0.00965547 0)
(0.211087 0.00877246 0)
(0.212473 0.00671531 0)
(0.217049 0.004141 0)
(0.221068 0.00473115 0)
(0.225627 0.00321664 0)
(0.230432 0.00611205 0)
(0.235287 0.00815205 0)
(0.0755205 0.014304 0)
(0.0665141 0.00901021 0)
(0.0941478 0.0142445 0)
(0.0998581 0.0117835 0)
(0.115353 0.0125591 0)
(0.125925 0.0109577 0)
(0.136799 0.00975953 0)
(0.147189 0.00826196 0)
(0.157457 0.00843435 0)
(0.165799 0.00823966 0)
(0.174022 0.00884701 0)
(0.180769 0.00971321 0)
(0.18495 0.00842182 0)
(0.191065 0.00772766 0)
(0.193735 0.00560223 0)
(0.199671 0.00280179 0)
(0.20419 0.00334642 0)
(0.210066 0.00168558 0)
(0.214923 0.00473327 0)
(0.221142 0.00723767 0)
(0.0444814 0.00762906 0)
(0.0342659 0.00625885 0)
(0.0661271 0.0106886 0)
(0.0738839 0.00900162 0)
(0.0924178 0.00968938 0)
(0.10499 0.00842546 0)
(0.117901 0.00736158 0)
(0.129856 0.00597555 0)
(0.141292 0.00638112 0)
(0.15092 0.00639312 0)
(0.160068 0.00721669 0)
(0.167854 0.00844389 0)
(0.173158 0.00725027 0)
(0.180097 0.00672989 0)
(0.183673 0.00460558 0)
(0.190303 0.00170051 0)
(0.194932 0.00224028 0)
(0.201507 0.000547604 0)
(0.206036 0.00362775 0)
(0.21302 0.00650752 0)
(0.0300858 0.00388561 0)
(0.0193816 0.00478166 0)
(0.0528624 0.00846398 0)
(0.0615617 0.00733341 0)
(0.081491 0.00788276 0)
(0.095001 0.0068868 0)
(0.108879 0.00589137 0)
(0.121534 0.00459762 0)
(0.133469 0.0051426 0)
(0.143699 0.00528389 0)
(0.153235 0.00622462 0)
(0.161532 0.00765934 0)
(0.167425 0.00652074 0)
(0.174758 0.00610423 0)
(0.178834 0.00399366 0)
(0.18578 0.00104761 0)
(0.190411 0.00158998 0)
(0.197311 -9.85193e-05 0)
(0.20157 0.00297739 0)
(0.208924 0.00608297 0)
(0.0193715 0.0017601 0)
(0.00818218 0.00332829 0)
(0.0426696 0.00610585 0)
(0.0520648 0.00556827 0)
(0.0730346 0.0059535 0)
(0.0872468 0.00525875 0)
(0.101869 0.00433931 0)
(0.115009 0.00316396 0)
(0.127253 0.00385162 0)
(0.137933 0.004129 0)
(0.147707 0.00518672 0)
(0.156413 0.00681825 0)
(0.162826 0.00573916 0)
(0.170463 0.00542966 0)
(0.175006 0.00334045 0)
(0.182177 0.000380095 0)
(0.186746 0.000926021 0)
(0.193887 -0.000740568 0)
(0.197798 0.00232299 0)
(0.205446 0.00564322 0)
(0.0123973 0.000783613 0)
(0.00076021 0.00187391 0)
(0.0358022 0.00366484 0)
(0.0456276 0.00371871 0)
(0.0672774 0.00394276 0)
(0.081932 0.00355965 0)
(0.0970538 0.00273022 0)
(0.110448 0.00169609 0)
(0.122803 0.0025266 0)
(0.133765 0.00294373 0)
(0.143619 0.00411872 0)
(0.152618 0.00592913 0)
(0.159468 0.0049156 0)
(0.167307 0.0047143 0)
(0.172271 0.00265201 0)
(0.179567 -0.000292747 0)
(0.18401 0.000255972 0)
(0.1913 -0.00137222 0)
(0.194792 0.00167605 0)
(0.20265 0.00518797 0)
(0.00912739 0.000390249 0)
(-0.00281698 0.000436188 0)
(0.0324315 0.00118098 0)
(0.0424089 0.00182215 0)
(0.0643761 0.0018867 0)
(0.0791971 0.00182011 0)
(0.09456 0.00109246 0)
(0.107972 0.000219342 0)
(0.120233 0.00118934 0)
(0.1313 0.00174758 0)
(0.141075 0.00303678 0)
(0.150238 0.00500443 0)
(0.15743 0.00406144 0)
(0.165359 0.0039673 0)
(0.170685 0.0019376 0)
(0.178002 -0.000961414 0)
(0.182257 -0.000410914 0)
(0.1896 -0.00198378 0)
(0.192612 0.00104513 0)
(0.200589 0.00472263 0)
(0.00953182 0.000152386 0)
(-0.00251409 -0.000985465 0)
(0.0326416 -0.00130863 0)
(0.0424885 -8.28021e-05 0)
(0.0644094 -0.000178419 0)
(0.0791144 7.2388e-05 0)
(0.094452 -0.00054513 0)
(0.107648 -0.0012407 0)
(0.119612 -0.000137909 0)
(0.130603 0.000560327 0)
(0.14014 0.00195753 0)
(0.149331 0.0040578 0)
(0.15676 0.00318893 0)
(0.164664 0.00319885 0)
(0.170282 0.00120724 0)
(0.177515 -0.00161638 0)
(0.181521 -0.00106532 0)
(0.188819 -0.00256606 0)
(0.191303 0.000438322 0)
(0.199303 0.00425317 0)
(0.0136341 -0.000317966 0)
(0.00167159 -0.00240503 0)
(0.0364283 -0.00376693 0)
(0.0458647 -0.00195919 0)
(0.067376 -0.00221584 0)
(0.0816854 -0.00165154 0)
(0.0967299 -0.00215414 0)
(0.109486 -0.00265921 0)
(0.120957 -0.00143327 0)
(0.131693 -0.000598725 0)
(0.140844 0.000897836 0)
(0.14992 0.00310343 0)
(0.157477 0.00231102 0)
(0.165236 0.00242003 0)
(0.171066 0.000471251 0)
(0.178113 -0.00224837 0)
(0.181815 -0.00169836 0)
(0.188972 -0.00311097 0)
(0.190891 -0.000136548 0)
(0.198818 0.00378535 0)
(0.0215048 -0.00145205 0)
(0.00970863 -0.00381346 0)
(0.0436987 -0.00615571 0)
(0.0524555 -0.00376757 0)
(0.0731946 -0.00418965 0)
(0.0868414 -0.00331896 0)
(0.10133 -0.00370709 0)
(0.113439 -0.00401239 0)
(0.124233 -0.00267557 0)
(0.134546 -0.00171132 0)
(0.143174 -0.000125427 0)
(0.151992 0.00215606 0)
(0.159565 0.00144118 0)
(0.167063 0.00164286 0)
(0.173018 -0.000260104 0)
(0.179782 -0.0028482 0)
(0.183133 -0.0023019 0)
(0.190056 -0.00361126 0)
(0.19139 -0.000672524 0)
(0.199146 0.00332533 0)
(0.033201 -0.00383576 0)
(0.0215307 -0.00517882 0)
(0.054272 -0.00843278 0)
(0.0620999 -0.00547007 0)
(0.0817066 -0.0060641 0)
(0.0944459 -0.00489898 0)
(0.108126 -0.00517775 0)
(0.119405 -0.00527855 0)
(0.129358 -0.0038451 0)
(0.139091 -0.00276073 0)
(0.147078 -0.00109619 0)
(0.155502 0.00123068 0)
(0.162979 0.000592823 0)
(0.170104 0.000879936 0)
(0.176094 -0.000976422 0)
(0.182488 -0.00340746 0)
(0.185445 -0.00286836 0)
(0.192051 -0.00406082 0)
(0.19279 -0.00116349 0)
(0.200284 0.00287899 0)
(0.0486483 -0.00793611 0)
(0.0370423 -0.00654636 0)
(0.0678838 -0.0105529 0)
(0.0745629 -0.00706407 0)
(0.0926818 -0.00779837 0)
(0.1043 -0.00637879 0)
(0.116937 -0.00654083 0)
(0.12723 -0.00644281 0)
(0.136201 -0.0049264 0)
(0.145218 -0.00373238 0)
(0.152465 -0.00200391 0)
(0.160368 0.00034021 0)
(0.167642 -0.000223559 0)
(0.174295 0.000139428 0)
(0.180224 -0.00166695 0)
(0.186174 -0.00392325 0)
(0.188702 -0.00338929 0)
(0.194917 -0.0044565 0)
(0.195068 -0.00160182 0)
(0.202213 0.00244656 0)
(0.0895034 -0.0168999 0)
(0.0784712 -0.00989538 0)
(0.103372 -0.0147417 0)
(0.107139 -0.0103874 0)
(0.121277 -0.0111754 0)
(0.130072 -0.00940458 0)
(0.139979 -0.00922508 0)
(0.147857 -0.00874171 0)
(0.154447 -0.0070667 0)
(0.161655 -0.00565212 0)
(0.167137 -0.00383732 0)
(0.173661 -0.0015037 0)
(0.18028 -0.00192152 0)
(0.185713 -0.00143093 0)
(0.191307 -0.00309062 0)