x,y,z,p
0,0,0,0.0377073
0,0.1,0,0.0646727
0,0.2,0,0.0916381
0,0.3,0,0.118603
0,0.4,0,0.150529
0,0.5,0,0.187414
0,0.6,0,0.224299
0,0.7,0,0.261184
0,0.8,0,0.297028
0,0.9,0,0.332872
0,1,0,0.368716
0,1.1,0,0.403887
0,1.2,0,0.438384
0,1.3,0,0.472881
0,1.4,0,0.507378
0,1.5,0,0.539778
0,1.6,0,0.572179
0,1.7,0,0.60458
0,1.8,0,0.636058
0,1.9,0,0.666615
0,2,0,0.697172
0,2.1,0,0.727729
0,2.2,0,0.756111
0,2.3,0,0.784494
0,2.4,0,0.812876
0,2.5,0,0.840127
0,2.6,0,0.866246
0,2.7,0,0.892366
0,2.8,0,0.918486
0,2.9,0,0.94237
0,3,0,0.966254
0,3.1,0,0.990138
0,3.2,0,1.0128
0,3.3,0,1.03422
0,3.4,0,1.05566
0,3.5,0,1.07708
0,3.6,0,1.09619
0,3.7,0,1.1153
0,3.8,0,1.13441
0,3.9,0,1.15225
0,4,0,1.16882
0,4.1,0,1.18539
0,4.2,0,1.20196
0,4.3,0,1.21611
0,4.4,0,1.23026
0,4.5,0,1.24442
0,4.6,0,1.25731
0,4.7,0,1.26894
0,4.8,0,1.28056
0,4.9,0,1.29219
0,5,0,1.30133
0,5.1,0,1.31047
0,5.2,0,1.31961
0,5.3,0,1.32747
0,5.4,0,1.33407
0,5.5,0,1.34068
0,5.6,0,1.34728
0,5.7,0,1.35135
0,5.8,0,1.35542
0,5.9,0,1.35949
0,6,0,1.36229
0,6.1,0,1.36381
0,6.2,0,1.36534
0,6.3,0,1.36686
0,6.4,0,1.36581
0,6.5,0,1.36476
0,6.6,0,1.36371
0,6.7,0,1.36179
0,6.8,0,1.359
0,6.9,0,1.35621
0,7,0,1.35342
0,7.1,0,1.34528
0,7.2,0,1.33933
0,7.3,0,1.33272
0,7.4,0,1.32543
0,7.5,0,1.31747
0,7.6,0,1.30886
0,7.7,0,1.29957
0,7.8,0,1.28961
0,7.9,0,1.27898
0,8,0,1.26383
0,8.1,0,1.25298
0,8.2,0,1.24214
0,8.3,0,1.22914
0,8.4,0,1.21498
0,8.5,0,1.20031
0,8.6,0,1.18446
0,8.7,0,1.16861
0,8.8,0,1.15115
0,8.9,0,1.13361
0,9,0,1.11508
0,9.1,0,1.0959
0,9.2,0,1.07629
0,9.3,0,1.05542
0,9.4,0,1.03455
0,9.5,0,1.01226
0,9.6,0,0.98982
0,9.7,0,0.966455
0,9.8,0,0.942337
0,9.9,0,0.917916
0,10,0,0.892281
0,10.1,0,0.866646
0,10.2,0,0.839665
0,10.3,0,0.812446
0,10.4,0,0.784486
0,10.5,0,0.755787
0,10.6,0,0.726874
0,10.7,0,0.69676
0,10.8,0,0.666646
0,10.9,0,0.635357
0,11,0,0.603774
0,11.1,0,0.571669
0,11.2,0,0.538926
0,11.3,0,0.506048
0,11.4,0,0.471949
0,11.5,0,0.437851
0,11.6,0,0.402929
0,11.7,0,0.367732
0,11.8,0,0.332214
0,11.9,0,0.296213
0,12,0,0.260172
0,12.1,0,0.223358
0,12.2,0,0.186545
0,12.3,0,0.149459
0,12.4,0,0.112256
0,12.5,0,0.078748
0,12.6,0,0.0521029
0,12.7,0,0.0254578
0.1,0,0,0.0337381
0.1,0.1,0,0.0608357
0.1,0.2,0,0.0878011
0.1,0.3,0,0.114766
0.1,0.4,0,0.150711
0.1,0.5,0,0.187596
0.1,0.6,0,0.224481
0.1,0.7,0,0.260917
0.1,0.8,0,0.297229
0.1,0.9,0,0.333073
0.1,1,0,0.368918
0.1,1.1,0,0.404182
0.1,1.2,0,0.438679
0.1,1.3,0,0.473176
0.1,1.4,0,0.507552
0.1,1.5,0,0.540255
0.1,1.6,0,0.572656
0.1,1.7,0,0.605057
0.1,1.8,0,0.636261
0.1,1.9,0,0.666817
0.1,2,0,0.697374
0.1,2.1,0,0.72819
0.1,2.2,0,0.75671
0.1,2.3,0,0.785093
0.1,2.4,0,0.813475
0.1,2.5,0,0.840361
0.1,2.6,0,0.866481
0.1,2.7,0,0.892601
0.1,2.8,0,0.919067
0.1,2.9,0,0.942959
0.1,3,0,0.966843
0.1,3.1,0,0.990727
0.1,3.2,0,1.01311
0.1,3.3,0,1.03454
0.1,3.4,0,1.05597
0.1,3.5,0,1.07768
0.1,3.6,0,1.09673
0.1,3.7,0,1.11584
0.1,3.8,0,1.13495
0.1,3.9,0,1.15265
0.1,4,0,1.16921
0.1,4.1,0,1.18578
0.1,4.2,0,1.20255
0.1,4.3,0,1.2166
0.1,4.4,0,1.23076
0.1,4.5,0,1.24491
0.1,4.6,0,1.25775
0.1,4.7,0,1.26937
0.1,4.8,0,1.281
0.1,4.9,0,1.29276
0.1,5,0,1.30181
0.1,5.1,0,1.31095
0.1,5.2,0,1.32009
0.1,5.3,0,1.32793
0.1,5.4,0,1.33453
0.1,5.5,0,1.34113
0.1,5.6,0,1.34783
0.1,5.7,0,1.35182
0.1,5.8,0,1.35589
0.1,5.9,0,1.35997
0.1,6,0,1.36275
0.1,6.1,0,1.36427
0.1,6.2,0,1.3658
0.1,6.3,0,1.36742
0.1,6.4,0,1.3663
0.1,6.5,0,1.36525
0.1,6.6,0,1.3642
0.1,6.7,0,1.36195
0.1,6.8,0,1.35916
0.1,6.9,0,1.35637
0.1,7,0,1.35404
0.1,7.1,0,1.34591
0.1,7.2,0,1.33997
0.1,7.3,0,1.33337
0.1,7.4,0,1.32609
0.1,7.5,0,1.31815
0.1,7.6,0,1.30953
0.1,7.7,0,1.30024
0.1,7.8,0,1.29028
0.1,7.9,0,1.27965
0.1,8,0,1.2645
0.1,8.1,0,1.25359
0.1,8.2,0,1.24274
0.1,8.3,0,1.22935
0.1,8.4,0,1.2152
0.1,8.5,0,1.20052
0.1,8.6,0,1.18466
0.1,8.7,0,1.16914
0.1,8.8,0,1.15137
0.1,8.9,0,1.13382
0.1,9,0,1.11528
0.1,9.1,0,1.09609
0.1,9.2,0,1.07651
0.1,9.3,0,1.05564
0.1,9.4,0,1.035
0.1,9.5,0,1.01243
0.1,9.6,0,0.989988
0.1,9.7,0,0.966701
0.1,9.8,0,0.942583
0.1,9.9,0,0.918132
0.1,10,0,0.89241
0.1,10.1,0,0.866939
0.1,10.2,0,0.839927
0.1,10.3,0,0.812708
0.1,10.4,0,0.78459
0.1,10.5,0,0.75589
0.1,10.6,0,0.727216
0.1,10.7,0,0.697006
0.1,10.8,0,0.666927
0.1,10.9,0,0.635474
0.1,11,0,0.603891
0.1,11.1,0,0.571839
0.1,11.2,0,0.539096
0.1,11.3,0,0.506241
0.1,11.4,0,0.472115
0.1,11.5,0,0.438017
0.1,11.6,0,0.403035
0.1,11.7,0,0.367838
0.1,11.8,0,0.332306
0.1,11.9,0,0.296306
0.1,12,0,0.259853
0.1,12.1,0,0.223467
0.1,12.2,0,0.186653
0.1,12.3,0,0.149447
0.1,12.4,0,0.112244
0.1,12.5,0,0.0761483
0.1,12.6,0,0.0495033
0.1,12.7,0,0.022778
0.2,0,0,0.0297689
0.2,0.1,0,0.0569988
0.2,0.2,0,0.0839642
0.2,0.3,0,0.112892
0.2,0.4,0,0.150272
0.2,0.5,0,0.187778
0.2,0.6,0,0.224663
0.2,0.7,0,0.260651
0.2,0.8,0,0.297431
0.2,0.9,0,0.333275
0.2,1,0,0.369024
0.2,1.1,0,0.404322
0.2,1.2,0,0.438974
0.2,1.3,0,0.473471
0.2,1.4,0,0.507726
0.2,1.5,0,0.540732
0.2,1.6,0,0.573133
0.2,1.7,0,0.605468
0.2,1.8,0,0.636573
0.2,1.9,0,0.66702
0.2,2,0,0.697577
0.2,2.1,0,0.728652
0.2,2.2,0,0.757309
0.2,2.3,0,0.785691
0.2,2.4,0,0.814016
0.2,2.5,0,0.840773
0.2,2.6,0,0.866716
0.2,2.7,0,0.892835
0.2,2.8,0,0.919649
0.2,2.9,0,0.943547
0.2,3,0,0.967432
0.2,3.1,0,0.991291
0.2,3.2,0,1.01358
0.2,3.3,0,1.03486
0.2,3.4,0,1.05629
0.2,3.5,0,1.07828
0.2,3.6,0,1.09727
0.2,3.7,0,1.11638
0.2,3.8,0,1.13551
0.2,3.9,0,1.15315
0.2,4,0,1.16961
0.2,4.1,0,1.18618
0.2,4.2,0,1.20314
0.2,4.3,0,1.2171
0.2,4.4,0,1.23125
0.2,4.5,0,1.24546
0.2,4.6,0,1.25827
0.2,4.7,0,1.26981
0.2,4.8,0,1.28144
0.2,4.9,0,1.29333
0.2,5,0,1.30229
0.2,5.1,0,1.31143
0.2,5.2,0,1.32062
0.2,5.3,0,1.32846
0.2,5.4,0,1.33499
0.2,5.5,0,1.34159
0.2,5.6,0,1.34839
0.2,5.7,0,1.3523
0.2,5.8,0,1.35637
0.2,5.9,0,1.36049
0.2,6,0,1.36327
0.2,6.1,0,1.36474
0.2,6.2,0,1.36626
0.2,6.3,0,1.36797
0.2,6.4,0,1.36678
0.2,6.5,0,1.36573
0.2,6.6,0,1.36474
0.2,6.7,0,1.36238
0.2,6.8,0,1.35932
0.2,6.9,0,1.35653
0.2,7,0,1.35465
0.2,7.1,0,1.34653
0.2,7.2,0,1.34061
0.2,7.3,0,1.33402
0.2,7.4,0,1.32676
0.2,7.5,0,1.31882
0.2,7.6,0,1.3102
0.2,7.7,0,1.30092
0.2,7.8,0,1.29096
0.2,7.9,0,1.28033
0.2,8,0,1.26516
0.2,8.1,0,1.25419
0.2,8.2,0,1.24337
0.2,8.3,0,1.22957
0.2,8.4,0,1.21541
0.2,8.5,0,1.20106
0.2,8.6,0,1.18487
0.2,8.7,0,1.16977
0.2,8.8,0,1.15158
0.2,8.9,0,1.13419
0.2,9,0,1.11547
0.2,9.1,0,1.09628
0.2,9.2,0,1.07711
0.2,9.3,0,1.05586
0.2,9.4,0,1.0356
0.2,9.5,0,1.0126
0.2,9.6,0,0.99023
0.2,9.7,0,0.966947
0.2,9.8,0,0.942829
0.2,9.9,0,0.918719
0.2,10,0,0.892539
0.2,10.1,0,0.867485
0.2,10.2,0,0.84019
0.2,10.3,0,0.812971
0.2,10.4,0,0.784694
0.2,10.5,0,0.755994
0.2,10.6,0,0.727704
0.2,10.7,0,0.697252
0.2,10.8,0,0.667354
0.2,10.9,0,0.635591
0.2,11,0,0.604008
0.2,11.1,0,0.572047
0.2,11.2,0,0.539266
0.2,11.3,0,0.506454
0.2,11.4,0,0.47228
0.2,11.5,0,0.438109
0.2,11.6,0,0.403141
0.2,11.7,0,0.367945
0.2,11.8,0,0.332327
0.2,11.9,0,0.296398
0.2,12,0,0.259427
0.2,12.1,0,0.223575
0.2,12.2,0,0.186076
0.2,12.3,0,0.149435
0.2,12.4,0,0.112232
0.2,12.5,0,0.0742069
0.2,12.6,0,0.0469036
0.2,12.7,0,0.0200983
0.3,0,0,0.0257998
0.3,0.1,0,0.0531241
0.3,0.2,0,0.0801272
0.3,0.3,0,0.112108
0.3,0.4,0,0.149488
0.3,0.5,0,0.187961
0.3,0.6,0,0.224718
0.3,0.7,0,0.260384
0.3,0.8,0,0.297498
0.3,0.9,0,0.333476
0.3,1,0,0.369078
0.3,1.1,0,0.404376
0.3,1.2,0,0.439269
0.3,1.3,0,0.473732
0.3,1.4,0,0.507899
0.3,1.5,0,0.541123
0.3,1.6,0,0.57361
0.3,1.7,0,0.605842
0.3,1.8,0,0.636947
0.3,1.9,0,0.667222
0.3,2,0,0.697853
0.3,2.1,0,0.729113
0.3,2.2,0,0.757869
0.3,2.3,0,0.78629
0.3,2.4,0,0.814526
0.3,2.5,0,0.841282
0.3,2.6,0,0.86695
0.3,2.7,0,0.893169
0.3,2.8,0,0.920231
0.3,2.9,0,0.944134
0.3,3,0,0.96802
0.3,3.1,0,0.99184
0.3,3.2,0,1.01413
0.3,3.3,0,1.03517
0.3,3.4,0,1.05668
0.3,3.5,0,1.07888
0.3,3.6,0,1.09783
0.3,3.7,0,1.11692
0.3,3.8,0,1.13608
0.3,3.9,0,1.15372
0.3,4,0,1.17001
0.3,4.1,0,1.18663
0.3,4.2,0,1.20373
0.3,4.3,0,1.21762
0.3,4.4,0,1.23174
0.3,4.5,0,1.24603
0.3,4.6,0,1.25884
0.3,4.7,0,1.27025
0.3,4.8,0,1.28191
0.3,4.9,0,1.29391
0.3,5,0,1.30279
0.3,5.1,0,1.31191
0.3,5.2,0,1.32118
0.3,5.3,0,1.32902
0.3,5.4,0,1.33544
0.3,5.5,0,1.34207
0.3,5.6,0,1.34894
0.3,5.7,0,1.3528
0.3,5.8,0,1.35685
0.3,5.9,0,1.36105
0.3,6,0,1.36383
0.3,6.1,0,1.3652
0.3,6.2,0,1.36675
0.3,6.3,0,1.36853
0.3,6.4,0,1.36729
0.3,6.5,0,1.36622
0.3,6.6,0,1.36532
0.3,6.7,0,1.36295
0.3,6.8,0,1.35947
0.3,6.9,0,1.35681
0.3,7,0,1.35527
0.3,7.1,0,1.34716
0.3,7.2,0,1.34125
0.3,7.3,0,1.33467
0.3,7.4,0,1.32742
0.3,7.5,0,1.31949
0.3,7.6,0,1.31088
0.3,7.7,0,1.30159
0.3,7.8,0,1.29163
0.3,7.9,0,1.281
0.3,8,0,1.26582
0.3,8.1,0,1.25479
0.3,8.2,0,1.24403
0.3,8.3,0,1.22995
0.3,8.4,0,1.2157
0.3,8.5,0,1.20169
0.3,8.6,0,1.18507
0.3,8.7,0,1.17039
0.3,8.8,0,1.15179
0.3,8.9,0,1.1348
0.3,9,0,1.1159
0.3,9.1,0,1.09648
0.3,9.2,0,1.07771
0.3,9.3,0,1.05609
0.3,9.4,0,1.0362
0.3,9.5,0,1.01277
0.3,9.6,0,0.990806
0.3,9.7,0,0.967449
0.3,9.8,0,0.943075
0.3,9.9,0,0.919306
0.3,10,0,0.892668
0.3,10.1,0,0.868031
0.3,10.2,0,0.840452
0.3,10.3,0,0.813506
0.3,10.4,0,0.785225
0.3,10.5,0,0.756098
0.3,10.6,0,0.728191
0.3,10.7,0,0.697498
0.3,10.8,0,0.667782
0.3,10.9,0,0.635708
0.3,11,0,0.604329
0.3,11.1,0,0.572426
0.3,11.2,0,0.539436
0.3,11.3,0,0.506667
0.3,11.4,0,0.472446
0.3,11.5,0,0.4382
0.3,11.6,0,0.403248
0.3,11.7,0,0.367935
0.3,11.8,0,0.332231
0.3,11.9,0,0.296491
0.3,12,0,0.259001
0.3,12.1,0,0.223684
0.3,12.2,0,0.185313
0.3,12.3,0,0.149295
0.3,12.4,0,0.111675
0.3,12.5,0,0.0727323
0.3,12.6,0,0.044304
0.3,12.7,0,0.0174185
0.4,0,0,0.0218306
0.4,0.1,0,0.0491549
0.4,0.2,0,0.0762903
0.4,0.3,0,0.111324
0.4,0.4,0,0.148704
0.4,0.5,0,0.188143
0.4,0.6,0,0.224451
0.4,0.7,0,0.260117
0.4,0.8,0,0.297231
0.4,0.9,0,0.333677
0.4,1,0,0.369132
0.4,1.1,0,0.40443
0.4,1.2,0,0.439564
0.4,1.3,0,0.473906
0.4,1.4,0,0.508074
0.4,1.5,0,0.541297
0.4,1.6,0,0.574087
0.4,1.7,0,0.606216
0.4,1.8,0,0.637321
0.4,1.9,0,0.667424
0.4,2,0,0.698314
0.4,2.1,0,0.729575
0.4,2.2,0,0.75833
0.4,2.3,0,0.786889
0.4,2.4,0,0.815035
0.4,2.5,0,0.841792
0.4,2.6,0,0.867185
0.4,2.7,0,0.893751
0.4,2.8,0,0.920813
0.4,2.9,0,0.944716
0.4,3,0,0.968609
0.4,3.1,0,0.99239
0.4,3.2,0,1.01468
0.4,3.3,0,1.03549
0.4,3.4,0,1.05728
0.4,3.5,0,1.07948
0.4,3.6,0,1.09843
0.4,3.7,0,1.11746
0.4,3.8,0,1.13664
0.4,3.9,0,1.15429
0.4,4,0,1.1704
0.4,4.1,0,1.18722
0.4,4.2,0,1.20432
0.4,4.3,0,1.21821
0.4,4.4,0,1.23224
0.4,4.5,0,1.2466
0.4,4.6,0,1.25942
0.4,4.7,0,1.27069
0.4,4.8,0,1.28249
0.4,4.9,0,1.29448
0.4,5,0,1.30337
0.4,5.1,0,1.31239
0.4,5.2,0,1.32174
0.4,5.3,0,1.32958
0.4,5.4,0,1.3359
0.4,5.5,0,1.34263
0.4,5.6,0,1.3495
0.4,5.7,0,1.35335
0.4,5.8,0,1.35732
0.4,5.9,0,1.3616
0.4,6,0,1.36438
0.4,6.1,0,1.36566
0.4,6.2,0,1.36731
0.4,6.3,0,1.36909
0.4,6.4,0,1.36784
0.4,6.5,0,1.3667
0.4,6.6,0,1.3659
0.4,6.7,0,1.36353
0.4,6.8,0,1.35963
0.4,6.9,0,1.35743
0.4,7,0,1.35588
0.4,7.1,0,1.34778
0.4,7.2,0,1.3419
0.4,7.3,0,1.33533
0.4,7.4,0,1.32808
0.4,7.5,0,1.32016
0.4,7.6,0,1.31155
0.4,7.7,0,1.30227
0.4,7.8,0,1.29231
0.4,7.9,0,1.28167
0.4,8,0,1.26649
0.4,8.1,0,1.2554
0.4,8.2,0,1.24468
0.4,8.3,0,1.2306
0.4,8.4,0,1.21633
0.4,8.5,0,1.20233
0.4,8.6,0,1.18528
0.4,8.7,0,1.17101
0.4,8.8,0,1.15207
0.4,8.9,0,1.13541
0.4,9,0,1.11651
0.4,9.1,0,1.09707
0.4,9.2,0,1.07831
0.4,9.3,0,1.05631
0.4,9.4,0,1.0368
0.4,9.5,0,1.01309
0.4,9.6,0,0.991382
0.4,9.7,0,0.968025
0.4,9.8,0,0.943582
0.4,9.9,0,0.919893
0.4,10,0,0.892797
0.4,10.1,0,0.868578
0.4,10.2,0,0.840875
0.4,10.3,0,0.814047
0.4,10.4,0,0.785766
0.4,10.5,0,0.756418
0.4,10.6,0,0.728679
0.4,10.7,0,0.697744
0.4,10.8,0,0.66821
0.4,10.9,0,0.636063
0.4,11,0,0.604708
0.4,11.1,0,0.572804
0.4,11.2,0,0.539621
0.4,11.3,0,0.50688
0.4,11.4,0,0.472611
0.4,11.5,0,0.438292
0.4,11.6,0,0.40334
0.4,11.7,0,0.367839
0.4,11.8,0,0.332134
0.4,11.9,0,0.296501
0.4,12,0,0.258574
0.4,12.1,0,0.223792
0.4,12.2,0,0.18455
0.4,12.3,0,0.148532
0.4,12.4,0,0.1102
0.4,12.5,0,0.0712577
0.4,12.6,0,0.0417043
0.4,12.7,0,0.0147387
0.5,0,0,0.0178614
0.5,0.1,0,0.0451857
0.5,0.2,0,0.0752883
0.5,0.3,0,0.11054
0.5,0.4,0,0.14792
0.5,0.5,0,0.187428
0.5,0.6,0,0.224184
0.5,0.7,0,0.259851
0.5,0.8,0,0.296965
0.5,0.9,0,0.333741
0.5,1,0,0.369185
0.5,1.1,0,0.404483
0.5,1.2,0,0.439635
0.5,1.3,0,0.474079
0.5,1.4,0,0.508248
0.5,1.5,0,0.541471
0.5,1.6,0,0.574469
0.5,1.7,0,0.60659
0.5,1.8,0,0.637695
0.5,1.9,0,0.667786
0.5,2,0,0.698776
0.5,2.1,0,0.730036
0.5,2.2,0,0.758792
0.5,2.3,0,0.787405
0.5,2.4,0,0.815545
0.5,2.5,0,0.842301
0.5,2.6,0,0.867675
0.5,2.7,0,0.894333
0.5,2.8,0,0.921395
0.5,2.9,0,0.945298
0.5,3,0,0.969162
0.5,3.1,0,0.99294
0.5,3.2,0,1.01523
0.5,3.3,0,1.03602
0.5,3.4,0,1.05788
0.5,3.5,0,1.08008
0.5,3.6,0,1.09903
0.5,3.7,0,1.11803
0.5,3.8,0,1.13721
0.5,3.9,0,1.15486
0.5,4,0,1.17096
0.5,4.1,0,1.18781
0.5,4.2,0,1.20492
0.5,4.3,0,1.2188
0.5,4.4,0,1.23281
0.5,4.5,0,1.24718
0.5,4.6,0,1.25999
0.5,4.7,0,1.27125
0.5,4.8,0,1.28306
0.5,4.9,0,1.29505
0.5,5,0,1.30394
0.5,5.1,0,1.31294
0.5,5.2,0,1.32231
0.5,5.3,0,1.33014
0.5,5.4,0,1.33645
0.5,5.5,0,1.34318
0.5,5.6,0,1.35006
0.5,5.7,0,1.35391
0.5,5.8,0,1.35787
0.5,5.9,0,1.36216
0.5,6,0,1.36494
0.5,6.1,0,1.36621
0.5,6.2,0,1.36786
0.5,6.3,0,1.36964
0.5,6.4,0,1.3684
0.5,6.5,0,1.36727
0.5,6.6,0,1.36647
0.5,6.7,0,1.36411
0.5,6.8,0,1.36018
0.5,6.9,0,1.35804
0.5,7,0,1.3565
0.5,7.1,0,1.34841
0.5,7.2,0,1.34254
0.5,7.3,0,1.33598
0.5,7.4,0,1.32875
0.5,7.5,0,1.32083
0.5,7.6,0,1.31223
0.5,7.7,0,1.30295
0.5,7.8,0,1.29298
0.5,7.9,0,1.28234
0.5,8,0,1.26715
0.5,8.1,0,1.25606
0.5,8.2,0,1.24534
0.5,8.3,0,1.23126
0.5,8.4,0,1.21696
0.5,8.5,0,1.20296
0.5,8.6,0,1.18579
0.5,8.7,0,1.17163
0.5,8.8,0,1.15269
0.5,8.9,0,1.13601
0.5,9,0,1.11712
0.5,9.1,0,1.09767
0.5,9.2,0,1.07891
0.5,9.3,0,1.05674
0.5,9.4,0,1.03739
0.5,9.5,0,1.01369
0.5,9.6,0,0.991958
0.5,9.7,0,0.968602
0.5,9.8,0,0.944169
0.5,9.9,0,0.92048
0.5,10,0,0.893141
0.5,10.1,0,0.869124
0.5,10.2,0,0.841421
0.5,10.3,0,0.814587
0.5,10.4,0,0.786307
0.5,10.5,0,0.756906
0.5,10.6,0,0.729167
0.5,10.7,0,0.698102
0.5,10.8,0,0.668638
0.5,10.9,0,0.636491
0.5,11,0,0.605087
0.5,11.1,0,0.573183
0.5,11.2,0,0.539834
0.5,11.3,0,0.507093
0.5,11.4,0,0.472803
0.5,11.5,0,0.438383
0.5,11.6,0,0.403431
0.5,11.7,0,0.367742
0.5,11.8,0,0.332038
0.5,11.9,0,0.296074
0.5,12,0,0.258148
0.5,12.1,0,0.223497
0.5,12.2,0,0.183787
0.5,12.3,0,0.147769
0.5,12.4,0,0.108726
0.5,12.5,0,0.069783
0.5,12.6,0,0.039028
0.5,12.7,0,0.012059
0.6,0,0,0.0138922
0.6,0.1,0,0.0412165
0.6,0.2,0,0.0744288
0.6,0.3,0,0.109756
0.6,0.4,0,0.147136
0.6,0.5,0,0.186388
0.6,0.6,0,0.223918
0.6,0.7,0,0.259584
0.6,0.8,0,0.296698
0.6,0.9,0,0.333528
0.6,1,0,0.369239
0.6,1.1,0,0.404537
0.6,1.2,0,0.43962
0.6,1.3,0,0.474253
0.6,1.4,0,0.508422
0.6,1.5,0,0.541645
0.6,1.6,0,0.57467
0.6,1.7,0,0.606964
0.6,1.8,0,0.638069
0.6,1.9,0,0.668308
0.6,2,0,0.699237
0.6,2.1,0,0.730497
0.6,2.2,0,0.759253
0.6,2.3,0,0.787836
0.6,2.4,0,0.816054
0.6,2.5,0,0.842811
0.6,2.6,0,0.868383
0.6,2.7,0,0.894915
0.6,2.8,0,0.921977
0.6,2.9,0,0.94588
0.6,3,0,0.969708
0.6,3.1,0,0.99349
0.6,3.2,0,1.01578
0.6,3.3,0,1.03673
0.6,3.4,0,1.05848
0.6,3.5,0,1.08068
0.6,3.6,0,1.09963
0.6,3.7,0,1.11863
0.6,3.8,0,1.13778
0.6,3.9,0,1.15542
0.6,4,0,1.17164
0.6,4.1,0,1.18841
0.6,4.2,0,1.20551
0.6,4.3,0,1.21939
0.6,4.4,0,1.23344
0.6,4.5,0,1.24775
0.6,4.6,0,1.26056
0.6,4.7,0,1.2719
0.6,4.8,0,1.28363
0.6,4.9,0,1.29562
0.6,5,0,1.30451
0.6,5.1,0,1.31356
0.6,5.2,0,1.32287
0.6,5.3,0,1.33071
0.6,5.4,0,1.33707
0.6,5.5,0,1.34374
0.6,5.6,0,1.35061
0.6,5.7,0,1.35447
0.6,5.8,0,1.35847
0.6,5.9,0,1.36271
0.6,6,0,1.36549
0.6,6.1,0,1.36682
0.6,6.2,0,1.36842
0.6,6.3,0,1.3702
0.6,6.4,0,1.36896
0.6,6.5,0,1.36789
0.6,6.6,0,1.36705
0.6,6.7,0,1.36469
0.6,6.8,0,1.36102
0.6,6.9,0,1.35866
0.6,7,0,1.35711
0.6,7.1,0,1.34903
0.6,7.2,0,1.34317
0.6,7.3,0,1.33663
0.6,7.4,0,1.32941
0.6,7.5,0,1.3215
0.6,7.6,0,1.3129
0.6,7.7,0,1.30362
0.6,7.8,0,1.29366
0.6,7.9,0,1.28302
0.6,8,0,1.26782
0.6,8.1,0,1.25675
0.6,8.2,0,1.24599
0.6,8.3,0,1.23191
0.6,8.4,0,1.2176
0.6,8.5,0,1.20359
0.6,8.6,0,1.18674
0.6,8.7,0,1.17225
0.6,8.8,0,1.15345
0.6,8.9,0,1.13662
0.6,9,0,1.11773
0.6,9.1,0,1.09827
0.6,9.2,0,1.07952
0.6,9.3,0,1.0577
0.6,9.4,0,1.03799
0.6,9.5,0,1.01435
0.6,9.6,0,0.992534
0.6,9.7,0,0.969178
0.6,9.8,0,0.944756
0.6,9.9,0,0.921067
0.6,10,0,0.894145
0.6,10.1,0,0.86967
0.6,10.2,0,0.841967
0.6,10.3,0,0.815128
0.6,10.4,0,0.786848
0.6,10.5,0,0.757394
0.6,10.6,0,0.729655
0.6,10.7,0,0.698772
0.6,10.8,0,0.669065
0.6,10.9,0,0.636919
0.6,11,0,0.605466
0.6,11.1,0,0.573562
0.6,11.2,0,0.540076
0.6,11.3,0,0.507306
0.6,11.4,0,0.472946
0.6,11.5,0,0.438475
0.6,11.6,0,0.403523
0.6,11.7,0,0.367646
0.6,11.8,0,0.331942
0.6,11.9,0,0.295583
0.6,12,0,0.257721
0.6,12.1,0,0.222421
0.6,12.2,0,0.183024
0.6,12.3,0,0.147006
0.6,12.4,0,0.107251
0.6,12.5,0,0.0683084
0.6,12.6,0,0.0369586
0.6,12.7,0,0.00937919
0.7,0,0,0.00992298
0.7,0.1,0,0.0379015
0.7,0.2,0,0.0735126
0.7,0.3,0,0.108973
0.7,0.4,0,0.146353
0.7,0.5,0,0.185155
0.7,0.6,0,0.223444
0.7,0.7,0,0.259318
0.7,0.8,0,0.2964
0.7,0.9,0,0.333114
0.7,1,0,0.369293
0.7,1.1,0,0.404591
0.7,1.2,0,0.439553
0.7,1.3,0,0.474376
0.7,1.4,0,0.508596
0.7,1.5,0,0.541797
0.7,1.6,0,0.57474
0.7,1.7,0,0.607338
0.7,1.8,0,0.638443
0.7,1.9,0,0.668941
0.7,2,0,0.699735
0.7,2.1,0,0.730959
0.7,2.2,0,0.759695
0.7,2.3,0,0.788208
0.7,2.4,0,0.816563
0.7,2.5,0,0.84332
0.7,2.6,0,0.869239
0.7,2.7,0,0.895556
0.7,2.8,0,0.922559
0.7,2.9,0,0.946454
0.7,3,0,0.970251
0.7,3.1,0,0.99404
0.7,3.2,0,1.01633
0.7,3.3,0,1.03757
0.7,3.4,0,1.05913
0.7,3.5,0,1.08128
0.7,3.6,0,1.10024
0.7,3.7,0,1.11926
0.7,3.8,0,1.13835
0.7,3.9,0,1.15599
0.7,4,0,1.1724
0.7,4.1,0,1.18904
0.7,4.2,0,1.2061
0.7,4.3,0,1.22
0.7,4.4,0,1.23411
0.7,4.5,0,1.24832
0.7,4.6,0,1.26114
0.7,4.7,0,1.27261
0.7,4.8,0,1.28423
0.7,4.9,0,1.29619
0.7,5,0,1.3051
0.7,5.1,0,1.31421
0.7,5.2,0,1.32343
0.7,5.3,0,1.33127
0.7,5.4,0,1.33774
0.7,5.5,0,1.34432
0.7,5.6,0,1.35117
0.7,5.7,0,1.35504
0.7,5.8,0,1.35911
0.7,5.9,0,1.36327
0.7,6,0,1.36605
0.7,6.1,0,1.36747
0.7,6.2,0,1.369
0.7,6.3,0,1.37076
0.7,6.4,0,1.36953
0.7,6.5,0,1.36854
0.7,6.6,0,1.36763
0.7,6.7,0,1.36526
0.7,6.8,0,1.36205
0.7,6.9,0,1.35936
0.7,7,0,1.35773
0.7,7.1,0,1.34966
0.7,7.2,0,1.34381
0.7,7.3,0,1.33729
0.7,7.4,0,1.33007
0.7,7.5,0,1.32217
0.7,7.6,0,1.31358
0.7,7.7,0,1.3043
0.7,7.8,0,1.29433
0.7,7.9,0,1.28369
0.7,8,0,1.26848
0.7,8.1,0,1.25747
0.7,8.2,0,1.24665
0.7,8.3,0,1.23262
0.7,8.4,0,1.21838
0.7,8.5,0,1.20422
0.7,8.6,0,1.18779
0.7,8.7,0,1.17287
0.7,8.8,0,1.15447
0.7,8.9,0,1.13723
0.7,9,0,1.11834
0.7,9.1,0,1.09909
0.7,9.2,0,1.08012
0.7,9.3,0,1.05868
0.7,9.4,0,1.03859
0.7,9.5,0,1.01535
0.7,9.6,0,0.99311
0.7,9.7,0,0.969754
0.7,9.8,0,0.945586
0.7,9.9,0,0.921654
0.7,10,0,0.895149
0.7,10.1,0,0.870216
0.7,10.2,0,0.842774
0.7,10.3,0,0.815669
0.7,10.4,0,0.787388
0.7,10.5,0,0.758291
0.7,10.6,0,0.730143
0.7,10.7,0,0.699441
0.7,10.8,0,0.669493
0.7,10.9,0,0.637539
0.7,11,0,0.605845
0.7,11.1,0,0.573941
0.7,11.2,0,0.540498
0.7,11.3,0,0.507519
0.7,11.4,0,0.473085
0.7,11.5,0,0.438566
0.7,11.6,0,0.403507
0.7,11.7,0,0.36755
0.7,11.8,0,0.331846
0.7,11.9,0,0.294968
0.7,12,0,0.257295
0.7,12.1,0,0.221123
0.7,12.2,0,0.182261
0.7,12.3,0,0.145761
0.7,12.4,0,0.105681
0.7,12.5,0,0.0668337
0.7,12.6,0,0.0354038
0.7,12.7,0,0.00669942
0.8,0,0,0.00595379
0.8,0.1,0,0.0369853
0.8,0.2,0,0.0725964
0.8,0.3,0,0.108189
0.8,0.4,0,0.145569
0.8,0.5,0,0.183922
0.8,0.6,0,0.222211
0.8,0.7,0,0.259051
0.8,0.8,0,0.295986
0.8,0.9,0,0.3327
0.8,1,0,0.369347
0.8,1.1,0,0.404645
0.8,1.2,0,0.439485
0.8,1.3,0,0.474308
0.8,1.4,0,0.50877
0.8,1.5,0,0.541868
0.8,1.6,0,0.574811
0.8,1.7,0,0.607712
0.8,1.8,0,0.638817
0.8,1.9,0,0.669574
0.8,2,0,0.700368
0.8,2.1,0,0.73142
0.8,2.2,0,0.760067
0.8,2.3,0,0.78858
0.8,2.4,0,0.817073
0.8,2.5,0,0.843829
0.8,2.6,0,0.870096
0.8,2.7,0,0.896412
0.8,2.8,0,0.923141
0.8,2.9,0,0.946996
0.8,3,0,0.970793
0.8,3.1,0,0.994589
0.8,3.2,0,1.01688
0.8,3.3,0,1.0384
0.8,3.4,0,1.05997
0.8,3.5,0,1.08188
0.8,3.6,0,1.10086
0.8,3.7,0,1.11989
0.8,3.8,0,1.13892
0.8,3.9,0,1.15656
0.8,4,0,1.17317
0.8,4.1,0,1.1898
0.8,4.2,0,1.20669
0.8,4.3,0,1.22068
0.8,4.4,0,1.23478
0.8,4.5,0,1.2489
0.8,4.6,0,1.26171
0.8,4.7,0,1.27331
0.8,4.8,0,1.28494
0.8,4.9,0,1.29676
0.8,5,0,1.30575
0.8,5.1,0,1.31487
0.8,5.2,0,1.324
0.8,5.3,0,1.33183
0.8,5.4,0,1.3384
0.8,5.5,0,1.34498
0.8,5.6,0,1.35173
0.8,5.7,0,1.35567
0.8,5.8,0,1.35974
0.8,5.9,0,1.36382
0.8,6,0,1.3666
0.8,6.1,0,1.36812
0.8,6.2,0,1.36965
0.8,6.3,0,1.37131
0.8,6.4,0,1.37018
0.8,6.5,0,1.36919
0.8,6.6,0,1.3682
0.8,6.7,0,1.36584
0.8,6.8,0,1.36309
0.8,6.9,0,1.3604
0.8,7,0,1.35834
0.8,7.1,0,1.35029
0.8,7.2,0,1.34445
0.8,7.3,0,1.33794
0.8,7.4,0,1.33074
0.8,7.5,0,1.32284
0.8,7.6,0,1.31425
0.8,7.7,0,1.30498
0.8,7.8,0,1.29501
0.8,7.9,0,1.28436
0.8,8,0,1.26914
0.8,8.1,0,1.25818
0.8,8.2,0,1.2473
0.8,8.3,0,1.2337
0.8,8.4,0,1.21945
0.8,8.5,0,1.20486
0.8,8.6,0,1.18884
0.8,8.7,0,1.1735
0.8,8.8,0,1.15548
0.8,8.9,0,1.13789
0.8,9,0,1.11932
0.8,9.1,0,1.10011
0.8,9.2,0,1.08072
0.8,9.3,0,1.05966
0.8,9.4,0,1.03919
0.8,9.5,0,1.01636
0.8,9.6,0,0.993823
0.8,9.7,0,0.970576
0.8,9.8,0,0.946503
0.8,9.9,0,0.922241
0.8,10,0,0.896153
0.8,10.1,0,0.870762
0.8,10.2,0,0.843598
0.8,10.3,0,0.816357
0.8,10.4,0,0.788129
0.8,10.5,0,0.759216
0.8,10.6,0,0.730631
0.8,10.7,0,0.700111
0.8,10.8,0,0.669921
0.8,10.9,0,0.638228
0.8,11,0,0.606448
0.8,11.1,0,0.574334
0.8,11.2,0,0.54092
0.8,11.3,0,0.507732
0.8,11.4,0,0.473224
0.8,11.5,0,0.438658
0.8,11.6,0,0.403396
0.8,11.7,0,0.367441
0.8,11.8,0,0.331689
0.8,11.9,0,0.294353
0.8,12,0,0.256868
0.8,12.1,0,0.219826
0.8,12.2,0,0.181498
0.8,12.3,0,0.143535
0.8,12.4,0,0.103455
0.8,12.5,0,0.0653591
0.8,12.6,0,0.033849
0.8,12.7,0,0.00401965
0.9,0,0,0.0019846
0.9,0.1,0,0.0360692
0.9,0.2,0,0.0716803
0.9,0.3,0,0.107291
0.9,0.4,0,0.1444
0.9,0.5,0,0.182689
0.9,0.6,0,0.220978
0.9,0.7,0,0.258784
0.9,0.8,0,0.295572
0.9,0.9,0,0.332286
0.9,1,0,0.369
0.9,1.1,0,0.404595
0.9,1.2,0,0.439418
0.9,1.3,0,0.474241
0.9,1.4,0,0.508943
0.9,1.5,0,0.541939
0.9,1.6,0,0.574882
0.9,1.7,0,0.607826
0.9,1.8,0,0.639413
0.9,1.9,0,0.670208
0.9,2,0,0.701002
0.9,2.1,0,0.731882
0.9,2.2,0,0.760439
0.9,2.3,0,0.788952
0.9,2.4,0,0.817464
0.9,2.5,0,0.844637
0.9,2.6,0,0.870953
0.9,2.7,0,0.897269
0.9,2.8,0,0.923723
0.9,2.9,0,0.947539
0.9,3,0,0.971336
0.9,3.1,0,0.995133
0.9,3.2,0,1.01767
0.9,3.3,0,1.03924
0.9,3.4,0,1.0608
0.9,3.5,0,1.08248
0.9,3.6,0,1.10149
0.9,3.7,0,1.12051
0.9,3.8,0,1.13954
0.9,3.9,0,1.1573
0.9,4,0,1.17393
0.9,4.1,0,1.19056
0.9,4.2,0,1.20728
0.9,4.3,0,1.22135
0.9,4.4,0,1.23545
0.9,4.5,0,1.24955
0.9,4.6,0,1.2624
0.9,4.7,0,1.27402
0.9,4.8,0,1.28565
0.9,4.9,0,1.29734
0.9,5,0,1.30641
0.9,5.1,0,1.31552
0.9,5.2,0,1.32464
0.9,5.3,0,1.33248
0.9,5.4,0,1.33906
0.9,5.5,0,1.34565
0.9,5.6,0,1.35228
0.9,5.7,0,1.35631
0.9,5.8,0,1.36038
0.9,5.9,0,1.36445
0.9,6,0,1.36724
0.9,6.1,0,1.36877
0.9,6.2,0,1.3703
0.9,6.3,0,1.37187
0.9,6.4,0,1.37083
0.9,6.5,0,1.36984
0.9,6.6,0,1.36884
0.9,6.7,0,1.36681
0.9,6.8,0,1.36412
0.9,6.9,0,1.36143
0.9,7,0,1.35896
0.9,7.1,0,1.35091
0.9,7.2,0,1.34509
0.9,7.3,0,1.33859
0.9,7.4,0,1.3314
0.9,7.5,0,1.32351
0.9,7.6,0,1.31493
0.9,7.7,0,1.30565
0.9,7.8,0,1.29568
0.9,7.9,0,1.28503
0.9,8,0,1.26981
0.9,8.1,0,1.2589
0.9,8.2,0,1.24802
0.9,8.3,0,1.23477
0.9,8.4,0,1.22052
0.9,8.5,0,1.20579
0.9,8.6,0,1.18989
0.9,8.7,0,1.17412
0.9,8.8,0,1.1565
0.9,8.9,0,1.1389
0.9,9,0,1.12034
0.9,9.1,0,1.10113
0.9,9.2,0,1.08152
0.9,9.3,0,1.06063
0.9,9.4,0,1.03979
0.9,9.5,0,1.01737
0.9,9.6,0,0.994831
0.9,9.7,0,0.971493
0.9,9.8,0,0.947419
0.9,9.9,0,0.922957
0.9,10,0,0.897157
0.9,10.1,0,0.871357
0.9,10.2,0,0.844422
0.9,10.3,0,0.817181
0.9,10.4,0,0.789054
0.9,10.5,0,0.76014
0.9,10.6,0,0.731138
0.9,10.7,0,0.700781
0.9,10.8,0,0.670423
0.9,10.9,0,0.638918
0.9,11,0,0.607138
0.9,11.1,0,0.574756
0.9,11.2,0,0.541342
0.9,11.3,0,0.507945
0.9,11.4,0,0.473363
0.9,11.5,0,0.438774
0.9,11.6,0,0.403285
0.9,11.7,0,0.36733
0.9,11.8,0,0.331074
0.9,11.9,0,0.293738
0.9,12,0,0.256442
0.9,12.1,0,0.218528
0.9,12.2,0,0.180354
0.9,12.3,0,0.14131
0.9,12.4,0,0.10123
0.9,12.5,0,0.0638112
0.9,12.6,0,0.0322943
0.9,12.7,0,0.00133988
1,0,0,0
1,0.1,0,0.03372
1,0.2,0,0.0693311
1,0.3,0,0.104942
1,0.4,0,0.143613
1,0.5,0,0.181903
1,0.6,0,0.220192
1,0.7,0,0.260228
1,0.8,0,0.295292
1,0.9,0,0.332006
1,1,0,0.36872
1,1.1,0,0.40509
1,1.2,0,0.439913
1,1.3,0,0.474736
1,1.4,0,0.511483
1,1.5,0,0.542139
1,1.6,0,0.575083
1,1.7,0,0.608027
1,1.8,0,0.640709
1,1.9,0,0.671503
1,2,0,0.702297
1,2.1,0,0.735122
1,2.2,0,0.760989
1,2.3,0,0.789502
1,2.4,0,0.818015
1,2.5,0,0.846124
1,2.6,0,0.87244
1,2.7,0,0.898756
1,2.8,0,0.92729
1,2.9,0,0.948379
1,3,0,0.972176
1,3.1,0,0.995973
1,3.2,0,1.01903
1,3.3,0,1.04059
1,3.4,0,1.06216
1,3.5,0,1.08618
1,3.6,0,1.10253
1,3.7,0,1.12155
1,3.8,0,1.14058
1,3.9,0,1.15853
1,4,0,1.17516
1,4.1,0,1.19179
1,4.2,0,1.21108
1,4.3,0,1.22248
1,4.4,0,1.23659
1,4.5,0,1.25069
1,4.6,0,1.26355
1,4.7,0,1.27518
1,4.8,0,1.2868
1,4.9,0,1.30118
1,5,0,1.30754
1,5.1,0,1.31666
1,5.2,0,1.32577
1,5.3,0,1.3336
1,5.4,0,1.34018
1,5.5,0,1.34677
1,5.6,0,1.35613
1,5.7,0,1.35742
1,5.8,0,1.36149
1,5.9,0,1.36555
1,6,0,1.36835
1,6.1,0,1.36988
1,6.2,0,1.37141
1,6.3,0,1.37577
1,6.4,0,1.37194
1,6.5,0,1.37095
1,6.6,0,1.36996
1,6.7,0,1.368
1,6.8,0,1.36532
1,6.9,0,1.36263
1,7,0,1.36294
1,7.1,0,1.35492
1,7.2,0,1.34911
1,7.3,0,1.34262
1,7.4,0,1.33543
1,7.5,0,1.32754
1,7.6,0,1.31896
1,7.7,0,1.30969
1,7.8,0,1.29971
1,7.9,0,1.28905
1,8,0,1.27381
1,8.1,0,1.26023
1,8.2,0,1.24935
1,8.3,0,1.23605
1,8.4,0,1.22181
1,8.5,0,1.20703
1,8.6,0,1.19113
1,8.7,0,1.17694
1,8.8,0,1.15774
1,8.9,0,1.14015
1,9,0,1.12153
1,9.1,0,1.10232
1,9.2,0,1.08273
1,9.3,0,1.06185
1,9.4,0,1.0415
1,9.5,0,1.01855
1,9.6,0,0.996011
1,9.7,0,0.972617
1,9.8,0,0.948544
1,9.9,0,0.924181
1,10,0,0.898381
1,10.1,0,0.872581
1,10.2,0,0.845383
1,10.3,0,0.818142
1,10.4,0,0.790256
1,10.5,0,0.761342
1,10.6,0,0.731888
1,10.7,0,0.70153
1,10.8,0,0.671173
1,10.9,0,0.639879
1,11,0,0.608099
1,11.1,0,0.575311
1,11.2,0,0.541897
1,11.3,0,0.508724
1,11.4,0,0.47366
1,11.5,0,0.439071
1,11.6,0,0.403354
1,11.7,0,0.367399
1,11.8,0,0.330621
1,11.9,0,0.293285
1,12,0,0.256936
1,12.1,0,0.217275
1,12.2,0,0.179101
1,12.3,0,0.13951
1,12.4,0,0.0994304
1,12.5,0,0.0597118
1,12.6,0,0.0281949
1,12.7,0,0
1.1,0,0,0
1.1,0.1,0,0.0299379
1.1,0.2,0,0.065549
1.1,0.3,0,0.101964
1.1,0.4,0,0.143585
1.1,0.5,0,0.181562
1.1,0.6,0,0.219852
1.1,0.7,0,0.263383
1.1,0.8,0,0.295146
1.1,0.9,0,0.33186
1.1,1,0,0.369193
1.1,1.1,0,0.406595
1.1,1.2,0,0.440971
1.1,1.3,0,0.475794
1.1,1.4,0,0.516389
1.1,1.5,0,0.54247
1.1,1.6,0,0.575414
1.1,1.7,0,0.609115
1.1,1.8,0,0.643191
1.1,1.9,0,0.67346
1.1,2,0,0.704254
1.1,2.1,0,0.741141
1.1,2.2,0,0.761718
1.1,2.3,0,0.790231
1.1,2.4,0,0.819547
1.1,2.5,0,0.848846
1.1,2.6,0,0.874558
1.1,2.7,0,0.900874
1.1,2.8,0,0.933844
1.1,2.9,0,0.949517
1.1,3,0,0.973314
1.1,3.1,0,0.997908
1.1,3.2,0,1.0216
1.1,3.3,0,1.04248
1.1,3.4,0,1.06404
1.1,3.5,0,1.09297
1.1,3.6,0,1.10399
1.1,3.7,0,1.12301
1.1,3.8,0,1.14281
1.1,3.9,0,1.16097
1.1,4,0,1.17686
1.1,4.1,0,1.19349
1.1,4.2,0,1.21809
1.1,4.3,0,1.22409
1.1,4.4,0,1.23819
1.1,4.5,0,1.25306
1.1,4.6,0,1.26592
1.1,4.7,0,1.27678
1.1,4.8,0,1.2884
1.1,4.9,0,1.3083
1.1,5,0,1.30915
1.1,5.1,0,1.31827
1.1,5.2,0,1.32816
1.1,5.3,0,1.33596
1.1,5.4,0,1.34176
1.1,5.5,0,1.34834
1.1,5.6,0,1.36328
1.1,5.7,0,1.35899
1.1,5.8,0,1.36306
1.1,5.9,0,1.36793
1.1,6,0,1.37074
1.1,6.1,0,1.37146
1.1,6.2,0,1.37299
1.1,6.3,0,1.38301
1.1,6.4,0,1.37352
1.1,6.5,0,1.37253
1.1,6.6,0,1.37235
1.1,6.7,0,1.37021
1.1,6.8,0,1.36667
1.1,6.9,0,1.36398
1.1,7,0,1.37029
1.1,7.1,0,1.3623
1.1,7.2,0,1.35651
1.1,7.3,0,1.35002
1.1,7.4,0,1.34284
1.1,7.5,0,1.33495
1.1,7.6,0,1.32636
1.1,7.7,0,1.31708
1.1,7.8,0,1.30709
1.1,7.9,0,1.29641
1.1,8,0,1.28114
1.1,8.1,0,1.26219
1.1,8.2,0,1.25176
1.1,8.3,0,1.23755
1.1,8.4,0,1.22331
1.1,8.5,0,1.21014
1.1,8.6,0,1.19257
1.1,8.7,0,1.18412
1.1,8.8,0,1.1592
1.1,8.9,0,1.14161
1.1,9,0,1.1229
1.1,9.1,0,1.10369
1.1,9.2,0,1.08691
1.1,9.3,0,1.0633
1.1,9.4,0,1.0485
1.1,9.5,0,1.0199
1.1,9.6,0,0.997363
1.1,9.7,0,0.973949
1.1,9.8,0,0.949875
1.1,9.9,0,0.929283
1.1,10,0,0.899825
1.1,10.1,0,0.878689
1.1,10.2,0,0.846481
1.1,10.3,0,0.81924
1.1,10.4,0,0.791735
1.1,10.5,0,0.762821
1.1,10.6,0,0.737585
1.1,10.7,0,0.70236
1.1,10.8,0,0.675533
1.1,10.9,0,0.641112
1.1,11,0,0.609332
1.1,11.1,0,0.575998
1.1,11.2,0,0.542584
1.1,11.3,0,0.51414
1.1,11.4,0,0.474115
1.1,11.5,0,0.441672
1.1,11.6,0,0.403603
1.1,11.7,0,0.367647
1.1,11.8,0,0.33033
1.1,11.9,0,0.292993
1.1,12,0,0.260724
1.1,12.1,0,0.216068
1.1,12.2,0,0.179094
1.1,12.3,0,0.138138
1.1,12.4,0,0.0980576
1.1,12.5,0,0.053795
1.1,12.6,0,0.0215508
1.1,12.7,0,0
1.2,0,0,0
1.2,0.1,0,0.0261557
1.2,0.2,0,0.0617668
1.2,0.3,0,0.103806
1.2,0.4,0,0.145427
1.2,0.5,0,0.181222
1.2,0.6,0,0.219511
1.2,0.7,0,0.266537
1.2,0.8,0,0.295
1.2,0.9,0,0.331714
1.2,1,0,0.373382
1.2,1.1,0,0.410784
1.2,1.2,0,0.442028
1.2,1.3,0,0.476852
1.2,1.4,0,0.521295
1.2,1.5,0,0.542801
1.2,1.6,0,0.575745
1.2,1.7,0,0.614747
1.2,1.8,0,0.648823
1.2,1.9,0,0.675417
1.2,2,0,0.706211
1.2,2.1,0,0.74716
1.2,2.2,0,0.762447
1.2,2.3,0,0.79096
1.2,2.4,0,0.825895
1.2,2.5,0,0.855195
1.2,2.6,0,0.876676
1.2,2.7,0,0.902992
1.2,2.8,0,0.940398
1.2,2.9,0,0.950655
1.2,3,0,0.974452
1.2,3.1,0,1.00463
1.2,3.2,0,1.02832
1.2,3.3,0,1.04436
1.2,3.4,0,1.06593
1.2,3.5,0,1.09976
1.2,3.6,0,1.10544
1.2,3.7,0,1.12446
1.2,3.8,0,1.14974
1.2,3.9,0,1.1679
1.2,4,0,1.17855
1.2,4.1,0,1.19519
1.2,4.2,0,1.22509
1.2,4.3,0,1.22569
1.2,4.4,0,1.2398
1.2,4.5,0,1.26003
1.2,4.6,0,1.27289
1.2,4.7,0,1.27838
1.2,4.8,0,1.29
1.2,4.9,0,1.31542
1.2,5,0,1.31076
1.2,5.1,0,1.31988
1.2,5.2,0,1.33525
1.2,5.3,0,1.34305
1.2,5.4,0,1.34333
1.2,5.5,0,1.34991
1.2,5.6,0,1.37043
1.2,5.7,0,1.36057
1.2,5.8,0,1.36464
1.2,5.9,0,1.37512
1.2,6,0,1.37792
1.2,6.1,0,1.37304
1.2,6.2,0,1.37457
1.2,6.3,0,1.39025
1.2,6.4,0,1.3751
1.2,6.5,0,1.3741
1.2,6.6,0,1.37964
1.2,6.7,0,1.3775
1.2,6.8,0,1.36802
1.2,6.9,0,1.36534
1.2,7,0,1.37765
1.2,7.1,0,1.36968
1.2,7.2,0,1.3639
1.2,7.3,0,1.35742
1.2,7.4,0,1.35024
1.2,7.5,0,1.34235
1.2,7.6,0,1.33376
1.2,7.7,0,1.32447
1.2,7.8,0,1.31447
1.2,7.9,0,1.30377
1.2,8,0,1.28848
1.2,8.1,0,1.26414
1.2,8.2,0,1.25905
1.2,8.3,0,1.23905
1.2,8.4,0,1.22481
1.2,8.5,0,1.21739
1.2,8.6,0,1.19401
1.2,8.7,0,1.1913
1.2,8.8,0,1.16067
1.2,8.9,0,1.14812
1.2,9,0,1.1247
1.2,9.1,0,1.10506
1.2,9.2,0,1.09393
1.2,9.3,0,1.06476
1.2,9.4,0,1.05551
1.2,9.5,0,1.02125
1.2,9.6,0,1.0025
1.2,9.7,0,0.976822
1.2,9.8,0,0.951206
1.2,9.9,0,0.936016
1.2,10,0,0.901269
1.2,10.1,0,0.885352
1.2,10.2,0,0.847578
1.2,10.3,0,0.822902
1.2,10.4,0,0.795596
1.2,10.5,0,0.7643
1.2,10.6,0,0.743861
1.2,10.7,0,0.70319
1.2,10.8,0,0.681468
1.2,10.9,0,0.642345
1.2,11,0,0.611798
1.2,11.1,0,0.580093
1.2,11.2,0,0.543271
1.2,11.3,0,0.519556
1.2,11.4,0,0.47457
1.2,11.5,0,0.446514
1.2,11.6,0,0.403851
1.2,11.7,0,0.3682
1.2,11.8,0,0.334115
1.2,11.9,0,0.292702