/*--------------------------------*- C++ -*----------------------------------*\
| =========                 |                                                 |
| \\      /  F ield         | OpenFOAM: The Open Source CFD Toolbox           |
|  \\    /   O peration     | Version:  v1806                                 |
|   \\  /    A nd           | Web:      www.OpenFOAM.com                      |
|    \\/     M anipulation  |                                                 |
\*---------------------------------------------------------------------------*/
FoamFile
{
    version     2.0;
    format      ascii;
    class       volVectorField;
    location    "470";
    object      U;
}
// * * * * * * * * * * * * * * * * * * * * * * * * * * * * * * * * * * * * * //

dimensions      [0 1 -1 0 0 0 0];


internalField   nonuniform List<vector> 
2400
(
(0.299999 -0.000968889 0)
(0.299989 -0.00317613 0)
(0.299963 -0.00512944 0)
(0.299915 -0.0075496 0)
(0.29985 -0.00964149 0)
(0.299745 -0.0124534 0)
(0.299631 -0.0148063 0)
(0.299447 -0.0181758 0)
(0.299275 -0.0209002 0)
(0.29899 -0.024947 0)
(0.298762 -0.0281274 0)
(0.298366 -0.0328416 0)
(0.298102 -0.0364913 0)
(0.297632 -0.041596 0)
(0.297388 -0.0455631 0)
(0.29698 -0.0503831 0)
(0.29687 -0.0541756 0)
(0.296788 -0.0577052 0)
(0.296997 -0.0603116 0)
(0.297486 -0.0616813 0)
(0.299997 -0.000963534 0)
(0.299974 -0.00316701 0)
(0.299918 -0.00510302 0)
(0.299837 -0.007522 0)
(0.299719 -0.0095855 0)
(0.299561 -0.0124029 0)
(0.299374 -0.0147087 0)
(0.299119 -0.018099 0)
(0.298859 -0.0207472 0)
(0.298486 -0.024846 0)
(0.298171 -0.0279098 0)
(0.297678 -0.0327288 0)
(0.297367 -0.0362208 0)
(0.296816 -0.0415022 0)
(0.296636 -0.0453068 0)
(0.296225 -0.0503619 0)
(0.296363 -0.0540855 0)
(0.296473 -0.0578361 0)
(0.297105 -0.0605553 0)
(0.298053 -0.0620678 0)
(0.299995 -0.000953445 0)
(0.299958 -0.00314832 0)
(0.299866 -0.00505562 0)
(0.299742 -0.00747284 0)
(0.299557 -0.00949281 0)
(0.299328 -0.012322 0)
(0.299045 -0.0145578 0)
(0.298693 -0.0179885 0)
(0.298317 -0.0205244 0)
(0.297824 -0.0247188 0)
(0.297394 -0.0276098 0)
(0.29677 -0.0326188 0)
(0.296395 -0.0358704 0)
(0.29573 -0.0414723 0)
(0.295621 -0.045008 0)
(0.295181 -0.0504945 0)
(0.295615 -0.0540514 0)
(0.295902 -0.0581939 0)
(0.29704 -0.0609999 0)
(0.298487 -0.0626741 0)
(0.299993 -0.000938883 0)
(0.299942 -0.0031196 0)
(0.299815 -0.00498765 0)
(0.299645 -0.00740117 0)
(0.299389 -0.00936421 0)
(0.299083 -0.0122093 0)
(0.298698 -0.0143551 0)
(0.298239 -0.0178422 0)
(0.297737 -0.0202335 0)
(0.297111 -0.0245629 0)
(0.296553 -0.0272274 0)
(0.295783 -0.0325086 0)
(0.295329 -0.035432 0)
(0.29453 -0.0415053 0)
(0.294486 -0.0446415 0)
(0.293975 -0.0507887 0)
(0.294735 -0.0540302 0)
(0.295135 -0.0588029 0)
(0.296858 -0.0616247 0)
(0.298784 -0.0635327 0)
(0.299992 -0.000920359 0)
(0.299926 -0.00308035 0)
(0.299765 -0.00489985 0)
(0.299547 -0.00730494 0)
(0.299222 -0.00919943 0)
(0.298836 -0.0120597 0)
(0.298348 -0.0140987 0)
(0.297778 -0.0176507 0)
(0.297144 -0.0198702 0)
(0.296381 -0.0243637 0)
(0.295683 -0.0267546 0)
(0.294757 -0.0323798 0)
(0.294206 -0.0348905 0)
(0.293252 -0.041586 0)
(0.293259 -0.0441773 0)
(0.29263 -0.0512503 0)
(0.293742 -0.0539725 0)
(0.294162 -0.059707 0)
(0.296584 -0.062395 0)
(0.298929 -0.0646918 0)
(0.299993 -0.000898421 0)
(0.299909 -0.00302974 0)
(0.299718 -0.00479339 0)
(0.299448 -0.00718241 0)
(0.299058 -0.00900008 0)
(0.298589 -0.0118695 0)
(0.298 -0.0137906 0)
(0.297315 -0.0174071 0)
(0.296547 -0.0194368 0)
(0.29564 -0.0241107 0)
(0.294791 -0.0261921 0)
(0.2937 -0.0322189 0)
(0.29303 -0.0342407 0)
(0.2919 -0.0417041 0)
(0.291935 -0.0435941 0)
(0.291135 -0.0518902 0)
(0.292621 -0.0538288 0)
(0.292949 -0.0609648 0)
(0.296221 -0.0632566 0)
(0.298874 -0.0662227 0)
(0.299996 -0.000873618 0)
(0.299891 -0.00296694 0)
(0.299674 -0.00466965 0)
(0.299348 -0.00703201 0)
(0.298899 -0.00876852 0)
(0.29834 -0.0116354 0)
(0.297655 -0.0134342 0)
(0.296849 -0.0171055 0)
(0.295946 -0.0189375 0)
(0.29489 -0.0237933 0)
(0.293876 -0.0255437 0)
(0.292614 -0.0320106 0)
(0.291794 -0.0334805 0)
(0.290471 -0.0418442 0)
(0.290498 -0.0428731 0)
(0.289473 -0.0527112 0)
(0.291347 -0.0535474 0)
(0.291453 -0.0626387 0)
(0.295759 -0.0641384 0)
(0.298552 -0.0682333 0)
(0.300002 -0.000846443 0)
(0.299869 -0.0028912 0)
(0.299635 -0.00453003 0)
(0.299243 -0.00685234 0)
(0.298746 -0.00850726 0)
(0.298087 -0.0113543 0)
(0.297318 -0.0130337 0)
(0.296377 -0.0167389 0)
(0.295346 -0.018378 0)
(0.294128 -0.0233984 0)
(0.292939 -0.0248149 0)
(0.291497 -0.0317338 0)
(0.290487 -0.0326111 0)
(0.288963 -0.0419812 0)
(0.28892 -0.0419997 0)
(0.287629 -0.0537044 0)
(0.289886 -0.0530794 0)
(0.289624 -0.0647863 0)
(0.295181 -0.0649599 0)
(0.297881 -0.0708728 0)
(0.300012 -0.000817255 0)
(0.299844 -0.00280203 0)
(0.299603 -0.00437574 0)
(0.299133 -0.00664225 0)
(0.298605 -0.00821865 0)
(0.297826 -0.0110231 0)
(0.296994 -0.0125931 0)
(0.295894 -0.0162997 0)
(0.294753 -0.0177645 0)
(0.293347 -0.0229098 0)
(0.291983 -0.0240144 0)
(0.290344 -0.0313602 0)
(0.289098 -0.0316401 0)
(0.287379 -0.042079 0)
(0.287166 -0.0409673 0)
(0.285602 -0.054848 0)
(0.288195 -0.0523798 0)
(0.287406 -0.0674527 0)
(0.294472 -0.0656397 0)
(0.296766 -0.0743275 0)
(0.300027 -0.000786179 0)
(0.299811 -0.00269929 0)
(0.299581 -0.00420762 0)
(0.299014 -0.00640118 0)
(0.298479 -0.00790456 0)
(0.297552 -0.0106393 0)
(0.296693 -0.0121161 0)
(0.295391 -0.0157804 0)
(0.294183 -0.0171042 0)
(0.292533 -0.0223088 0)
(0.291026 -0.0231546 0)
(0.28914 -0.0308523 0)
(0.28763 -0.0305842 0)
(0.285718 -0.0420836 0)
(0.285188 -0.0397838 0)
(0.28342 -0.0561055 0)
(0.286189 -0.051407 0)
(0.284756 -0.0706743 0)
(0.293637 -0.0660938 0)
(0.295062 -0.0788056 0)
(0.300047 -0.000753051 0)
(0.299771 -0.00258344 0)
(0.29957 -0.00402592 0)
(0.298882 -0.00612957 0)
(0.298375 -0.00756584 0)
(0.297259 -0.0102021 0)
(0.296426 -0.0116051 0)
(0.294854 -0.0151753 0)
(0.293658 -0.0164035 0)
(0.291662 -0.0215763 0)
(0.290101 -0.0222499 0)
(0.287848 -0.030163 0)
(0.286113 -0.0294712 0)
(0.28395 -0.0419141 0)
(0.282948 -0.0384823 0)
(0.281132 -0.0574122 0)
(0.283703 -0.0501315 0)
(0.281728 -0.0745016 0)
(0.292674 -0.0662149 0)
(0.292502 -0.0845008 0)
(0.300073 -0.000717415 0)
(0.299722 -0.0024555 0)
(0.299572 -0.00383022 0)
(0.298736 -0.00582912 0)
(0.298296 -0.00720188 0)
(0.296942 -0.00971299 0)
(0.296203 -0.0110596 0)
(0.294272 -0.0144829 0)
(0.293203 -0.0156647 0)
(0.290706 -0.0206979 0)
(0.289264 -0.0213136 0)
(0.286405 -0.0292401 0)
(0.284631 -0.028339 0)
(0.281979 -0.0414516 0)
(0.280483 -0.0371341 0)
(0.27873 -0.0586357 0)
(0.280497 -0.0485722 0)
(0.278566 -0.0790221 0)
(0.291398 -0.0658251 0)
(0.288675 -0.0915809 0)
(0.300104 -0.000678643 0)
(0.299666 -0.00231696 0)
(0.299585 -0.00361954 0)
(0.298579 -0.00550267 0)
(0.298242 -0.00681068 0)
(0.296602 -0.00917651 0)
(0.296031 -0.0104756 0)
(0.293642 -0.0137082 0)
(0.292838 -0.0148818 0)
(0.28964 -0.0196718 0)
(0.288572 -0.0203464 0)
(0.284738 -0.0280446 0)
(0.283318 -0.0272233 0)
(0.279627 -0.0405438 0)
(0.277977 -0.0358514 0)
(0.276003 -0.0595135 0)
(0.276407 -0.04687 0)
(0.275657 -0.0842993 0)
(0.289112 -0.064634 0)
(0.28337 -0.10041 0)
(0.300137 -0.000636138 0)
(0.299607 -0.00216949 0)
(0.299605 -0.00339279 0)
(0.298417 -0.0051537 0)
(0.298207 -0.00638956 0)
(0.296251 -0.00859907 0)
(0.295902 -0.00984637 0)
(0.292975 -0.0128622 0)
(0.292564 -0.0140399 0)
(0.28847 -0.0185133 0)
(0.288058 -0.0193245 0)
(0.282801 -0.0265765 0)
(0.282318 -0.0261247 0)
(0.276683 -0.0390645 0)
(0.275789 -0.0347637 0)
(0.272413 -0.0596019 0)
(0.271689 -0.0453696 0)
(0.27304 -0.0900974 0)
(0.284448 -0.0623537 0)
(0.277558 -0.112021 0)
(0.300168 -0.000589597 0)
(0.29955 -0.00201447 0)
(0.299626 -0.00314939 0)
(0.29826 -0.00478544 0)
(0.298179 -0.00593641 0)
(0.295906 -0.00798736 0)
(0.295796 -0.00916496 0)
(0.292306 -0.0119588 0)
(0.292349 -0.0131195 0)
(0.287246 -0.0172502 0)
(0.287695 -0.0182005 0)
(0.280634 -0.0248831 0)
(0.28168 -0.024965 0)
(0.273037 -0.0370122 0)
(0.274305 -0.0339183 0)
(0.267228 -0.0583864 0)
(0.267312 -0.0446009 0)
(0.269547 -0.0954977 0)
(0.276119 -0.0591867 0)
(0.274212 -0.128535 0)
(0.300193 -0.000539226 0)
(0.299501 -0.00185261 0)
(0.299639 -0.00288981 0)
(0.298122 -0.00439998 0)
(0.298144 -0.00545111 0)
(0.295595 -0.00734619 0)
(0.295683 -0.00842782 0)
(0.291685 -0.0110092 0)
(0.292136 -0.0121052 0)
(0.286066 -0.0159114 0)
(0.287373 -0.0169221 0)
(0.278409 -0.023038 0)
(0.281261 -0.0235959 0)
(0.268854 -0.0345365 0)
(0.273623 -0.0330848 0)
(0.260033 -0.0557476 0)
(0.264598 -0.0450154 0)
(0.262469 -0.0987489 0)
(0.264927 -0.0566076 0)
(0.276566 -0.152642 0)
(0.30021 -0.000485787 0)
(0.299468 -0.0016838 0)
(0.299638 -0.00261593 0)
(0.298013 -0.00399777 0)
(0.298087 -0.00493648 0)
(0.295341 -0.0066769 0)
(0.295534 -0.00763759 0)
(0.291167 -0.0100176 0)
(0.291857 -0.0109939 0)
(0.285054 -0.0145119 0)
(0.286941 -0.0154589 0)
(0.276402 -0.0210982 0)
(0.280718 -0.0218776 0)
(0.264687 -0.0318405 0)
(0.273189 -0.0317846 0)
(0.251352 -0.0520945 0)
(0.263965 -0.0463501 0)
(0.249027 -0.0980075 0)
(0.255319 -0.0577789 0)
(0.282613 -0.184308 0)
(0.300216 -0.000430497 0)
(0.299452 -0.00150712 0)
(0.299618 -0.00233095 0)
(0.297942 -0.00357762 0)
(0.298001 -0.00439834 0)
(0.29516 -0.00597713 0)
(0.295331 -0.00680385 0)
(0.290788 -0.00897924 0)
(0.291468 -0.00979957 0)
(0.284306 -0.0130439 0)
(0.286272 -0.013822 0)
(0.274877 -0.0190657 0)
(0.279678 -0.0197616 0)
(0.261285 -0.0290288 0)
(0.271933 -0.0295977 0)
(0.242892 -0.0480569 0)
(0.263583 -0.0470353 0)
(0.229388 -0.0935551 0)
(0.252407 -0.0661026 0)
(0.281207 -0.217308 0)
(0.300212 -0.000374881 0)
(0.299452 -0.00132123 0)
(0.299582 -0.00203884 0)
(0.297906 -0.00313762 0)
(0.297888 -0.00384436 0)
(0.295053 -0.0052426 0)
(0.295078 -0.00594092 0)
(0.290556 -0.00788372 0)
(0.290971 -0.00854916 0)
(0.283849 -0.0114828 0)
(0.285343 -0.0120617 0)
(0.273957 -0.0168842 0)
(0.277975 -0.0173244 0)
(0.259175 -0.0260137 0)
(0.268963 -0.0264522 0)
(0.23686 -0.043877 0)
(0.259721 -0.0452009 0)
(0.208794 -0.087159 0)
(0.252253 -0.0809775 0)
(0.255689 -0.241007 0)
(0.300201 -0.000319871 0)
(0.299465 -0.00112667 0)
(0.299535 -0.00174192 0)
(0.297899 -0.00267845 0)
(0.29776 -0.00327958 0)
(0.295005 -0.00447348 0)
(0.294798 -0.00505913 0)
(0.290442 -0.00672765 0)
(0.290413 -0.00726519 0)
(0.283633 -0.00981225 0)
(0.284253 -0.0102316 0)
(0.273554 -0.014494 0)
(0.275784 -0.014702 0)
(0.258301 -0.0225926 0)
(0.264345 -0.0226548 0)
(0.234168 -0.0390497 0)
(0.249979 -0.040471 0)
(0.194886 -0.0797162 0)
(0.236894 -0.0931463 0)
(0.191668 -0.237949 0)
(0.298182 -0.0618853 0)
(0.299062 -0.0610262 0)
(0.300084 -0.0591676 0)
(0.301133 -0.0566078 0)
(0.302158 -0.053631 0)
(0.303135 -0.050406 0)
(0.304046 -0.0470615 0)
(0.30487 -0.0437094 0)
(0.305611 -0.0404352 0)
(0.306266 -0.0372821 0)
(0.299202 -0.0624333 0)
(0.300531 -0.0616587 0)
(0.301908 -0.0598252 0)
(0.303162 -0.0572631 0)
(0.304277 -0.054259 0)
(0.305267 -0.050985 0)
(0.306129 -0.0475817 0)
(0.306858 -0.0441708 0)
(0.307477 -0.0408408 0)
(0.307999 -0.0376372 0)
(0.300163 -0.0632069 0)
(0.302039 -0.0624451 0)
(0.303852 -0.0605477 0)
(0.30538 -0.0579149 0)
(0.306652 -0.0548317 0)
(0.307717 -0.0514693 0)
(0.308584 -0.0479831 0)
(0.30926 -0.0445031 0)
(0.309793 -0.0411173 0)
(0.310211 -0.0378699 0)
(0.30104 -0.0642625 0)
(0.303537 -0.0634525 0)
(0.305814 -0.0614226 0)
(0.307626 -0.0586661 0)
(0.309069 -0.0554554 0)
(0.310219 -0.0519613 0)
(0.311098 -0.0483597 0)
(0.311733 -0.0447894 0)
(0.312195 -0.041335 0)
(0.312527 -0.0380375 0)
(0.301853 -0.0656458 0)
(0.305065 -0.0647062 0)
(0.307823 -0.062475 0)
(0.309914 -0.059541 0)
(0.311527 -0.0561492 0)
(0.312759 -0.0524781 0)
(0.313643 -0.0487309 0)
(0.314233 -0.0450522 0)
(0.314627 -0.0415189 0)
(0.314877 -0.0381661 0)
(0.302628 -0.0673948 0)
(0.306669 -0.0662134 0)
(0.30991 -0.0637125 0)
(0.312267 -0.0605415 0)
(0.314049 -0.0569069 0)
(0.315357 -0.0530115 0)
(0.31624 -0.0490917 0)
(0.316783 -0.0452886 0)
(0.317108 -0.0416674 0)
(0.317273 -0.0382545 0)
(0.303409 -0.0695468 0)
(0.308393 -0.0679775 0)
(0.312096 -0.0651438 0)
(0.314712 -0.0616688 0)
(0.316669 -0.0577229 0)
(0.318057 -0.053558 0)
(0.318939 -0.049442 0)
(0.319435 -0.0454984 0)
(0.319676 -0.041777 0)
(0.31972 -0.0382925 0)
(0.304268 -0.0721365 0)
(0.310276 -0.0700025 0)
(0.314397 -0.0667798 0)
(0.31729 -0.0629257 0)
(0.319458 -0.0585984 0)
(0.320946 -0.0541221 0)
(0.321826 -0.0497847 0)
(0.322245 -0.0456749 0)
(0.32233 -0.0418271 0)
(0.322134 -0.0382431 0)
(0.305287 -0.0751846 0)
(0.312338 -0.0723062 0)
(0.31685 -0.0686455 0)
(0.320113 -0.0643285 0)
(0.32257 -0.0595471 0)
(0.324164 -0.0547112 0)
(0.324977 -0.0501072 0)
(0.325172 -0.0457754 0)
(0.324876 -0.0417452 0)
(0.324152 -0.0380061 0)
(0.306526 -0.0786698 0)
(0.314616 -0.0749582 0)
(0.319613 -0.0708135 0)
(0.323442 -0.0659201 0)
(0.326234 -0.060584 0)
(0.327805 -0.0552988 0)
(0.328266 -0.0503272 0)
(0.327829 -0.0456627 0)
(0.32665 -0.0413522 0)
(0.324849 -0.0373731 0)
(0.308064 -0.0825526 0)
(0.31731 -0.0781443 0)
(0.323112 -0.0734297 0)
(0.327671 -0.067742 0)
(0.330561 -0.0616539 0)
(0.331571 -0.0557277 0)
(0.330942 -0.0501955 0)
(0.329038 -0.0450247 0)
(0.326113 -0.0403077 0)
(0.322416 -0.0359994 0)
(0.310257 -0.0869887 0)
(0.321036 -0.0822002 0)
(0.32801 -0.0766288 0)
(0.332938 -0.0696877 0)
(0.334928 -0.0624601 0)
(0.334092 -0.0555549 0)
(0.331006 -0.0491881 0)
(0.326346 -0.0433241 0)
(0.320536 -0.0381094 0)
(0.314029 -0.0334428 0)
(0.31425 -0.0925172 0)
(0.326819 -0.0874984 0)
(0.334487 -0.0802235 0)
(0.338081 -0.0711967 0)
(0.336949 -0.0622275 0)
(0.332116 -0.0539267 0)
(0.324712 -0.0464938 0)
(0.315868 -0.0398697 0)
(0.306153 -0.0342176 0)
(0.29625 -0.0293135 0)
(0.322081 -0.0998867 0)
(0.334886 -0.0939774 0)
(0.340543 -0.0831511 0)
(0.339161 -0.0709069 0)
(0.331564 -0.0595988 0)
(0.320213 -0.0496748 0)
(0.306845 -0.0412338 0)
(0.292995 -0.0340921 0)
(0.279183 -0.0283392 0)
(0.26623 -0.0235379 0)
(0.334982 -0.109298 0)
(0.341905 -0.100283 0)
(0.340085 -0.0829977 0)
(0.328648 -0.0667006 0)
(0.311315 -0.0529787 0)
(0.291922 -0.0418044 0)
(0.272443 -0.032976 0)
(0.254414 -0.0260115 0)
(0.237897 -0.0208118 0)
(0.223595 -0.0166383 0)
(0.349534 -0.119151 0)
(0.338441 -0.102905 0)
(0.322798 -0.0763217 0)
(0.296853 -0.0565407 0)
(0.269037 -0.041443 0)
(0.243048 -0.0303477 0)
(0.22016 -0.0224223 0)
(0.20108 -0.0167141 0)
(0.184938 -0.0128573 0)
(0.171967 -0.00978212 0)
(0.35471 -0.123859 0)
(0.309919 -0.0964629 0)
(0.277539 -0.0603647 0)
(0.236839 -0.040079 0)
(0.203385 -0.0260479 0)
(0.176555 -0.0172974 0)
(0.155773 -0.0118499 0)
(0.140106 -0.00832085 0)
(0.127743 -0.00620516 0)
(0.118348 -0.00427148 0)
(0.333208 -0.112993 0)
(0.242263 -0.0755022 0)
(0.2 -0.0353708 0)
(0.152788 -0.0204727 0)
(0.124959 -0.0108871 0)
(0.105143 -0.00652586 0)
(0.0916708 -0.00415105 0)
(0.0823377 -0.00273077 0)
(0.075322 -0.00198247 0)
(0.0700403 -0.000837761 0)
(0.26696 -0.0755757 0)
(0.13268 -0.0395652 0)
(0.103124 -0.00760208 0)
(0.0663816 -0.00478838 0)
(0.054573 -0.00133961 0)
(0.0452412 -0.00088988 0)
(0.0399415 -0.000455286 0)
(0.0364853 -0.000217644 0)
(0.0340098 -8.82103e-05 0)
(0.0319667 0.000841665 0)
(0.138294 -0.0437606 0)
(0.00904149 -0.0106576 0)
(0.0205927 0.00267391 0)
(0.00673468 0.000138301 0)
(0.00849792 0.000659682 0)
(0.00682947 0.000246467 0)
(0.00665094 0.000218029 0)
(0.00653752 0.000176553 0)
(0.00666875 0.000183742 0)
(0.00639437 0.000485781 0)
(0.30684 -0.034351 0)
(0.307334 -0.0316296 0)
(0.307784 -0.0290469 0)
(0.308179 -0.0265911 0)
(0.308545 -0.0242636 0)
(0.30886 -0.02205 0)
(0.309158 -0.01996 0)
(0.309401 -0.0179779 0)
(0.309642 -0.0161225 0)
(0.309818 -0.0143713 0)
(0.310009 -0.0127559 0)
(0.310121 -0.011242 0)
(0.310267 -0.00988124 0)
(0.310311 -0.00861966 0)
(0.310417 -0.00753962 0)
(0.31039 -0.00655486 0)
(0.31046 -0.00579322 0)
(0.310359 -0.00511499 0)
(0.310393 -0.00471607 0)
(0.310225 -0.00436767 0)
(0.308443 -0.034663 0)
(0.308815 -0.0319061 0)
(0.309154 -0.0292921 0)
(0.309443 -0.0268091 0)
(0.309713 -0.0244566 0)
(0.309933 -0.0222205 0)
(0.310145 -0.0201093 0)
(0.310298 -0.0181079 0)
(0.310457 -0.0162339 0)
(0.310544 -0.0144652 0)
(0.310656 -0.0128329 0)
(0.310675 -0.0113024 0)
(0.310746 -0.00992578 0)
(0.310691 -0.00864746 0)
(0.310728 -0.00755286 0)
(0.310592 -0.00655041 0)
(0.310602 -0.00577675 0)
(0.310376 -0.00507958 0)
(0.310375 -0.00467231 0)
(0.310054 -0.0043025 0)
(0.310548 -0.0348622 0)
(0.310814 -0.0320798 0)
(0.31105 -0.029445 0)
(0.311237 -0.0269438 0)
(0.311412 -0.0245736 0)
(0.31153 -0.0223206 0)
(0.311644 -0.0201924 0)
(0.311687 -0.0181744 0)
(0.311743 -0.0162838 0)
(0.311708 -0.0144987 0)
(0.311713 -0.0128502 0)
(0.311594 -0.0113027 0)
(0.311555 -0.00991043 0)
(0.311344 -0.00861383 0)
(0.311273 -0.00750476 0)
(0.310956 -0.00648231 0)
(0.310874 -0.00569705 0)
(0.310431 -0.00497816 0)
(0.310372 -0.00456405 0)
(0.309782 -0.00417294 0)
(0.312776 -0.0349942 0)
(0.312953 -0.0321869 0)
(0.313105 -0.0295326 0)
(0.313203 -0.0270141 0)
(0.31329 -0.024626 0)
(0.313308 -0.0223547 0)
(0.313321 -0.0202074 0)
(0.313244 -0.0181704 0)
(0.313182 -0.0162605 0)
(0.313002 -0.014456 0)
(0.312875 -0.0127886 0)
(0.312585 -0.0112214 0)
(0.312407 -0.0098111 0)
(0.311995 -0.00849382 0)
(0.311787 -0.00736847 0)
(0.311234 -0.00632407 0)
(0.311032 -0.00552647 0)
(0.310305 -0.00478481 0)
(0.310169 -0.00436511 0)
(0.309223 -0.00395203 0)
(0.315043 -0.0350856 0)
(0.315133 -0.032253 0)
(0.315197 -0.0295782 0)
(0.315198 -0.0270397 0)
(0.315181 -0.024629 0)
(0.315075 -0.0223337 0)
(0.314956 -0.0201606 0)
(0.314719 -0.018098 0)
(0.314498 -0.0161618 0)
(0.314125 -0.0143321 0)
(0.313819 -0.0126395 0)
(0.313307 -0.011048 0)
(0.312942 -0.00961409 0)
(0.312277 -0.0082727 0)
(0.311891 -0.00712628 0)
(0.311045 -0.00605761 0)
(0.31069 -0.00524394 0)
(0.309617 -0.00447843 0)
(0.309384 -0.00405112 0)
(0.308009 -0.00361534 0)
(0.31734 -0.0351332 0)
(0.31732 -0.0322723 0)
(0.317259 -0.0295722 0)
(0.317115 -0.0270064 0)
(0.316934 -0.0245635 0)
(0.316633 -0.0222341 0)
(0.316302 -0.0200248 0)
(0.315822 -0.0179274 0)
(0.315354 -0.015956 0)
(0.314703 -0.0140946 0)
(0.314134 -0.0123701 0)
(0.313319 -0.0107507 0)
(0.312694 -0.00928814 0)
(0.311704 -0.00792142 0)
(0.311077 -0.0067496 0)
(0.309879 -0.00565723 0)
(0.309325 -0.00482364 0)
(0.30785 -0.00403613 0)
(0.307494 -0.0035984 0)
(0.305627 -0.00314244 0)
(0.319631 -0.0351191 0)
(0.319421 -0.0322187 0)
(0.319137 -0.0294801 0)
(0.318734 -0.0268716 0)
(0.31826 -0.02438 0)
(0.317627 -0.0220016 0)
(0.316942 -0.0197424 0)
(0.31608 -0.0175999 0)
(0.315227 -0.0155847 0)
(0.314171 -0.0136872 0)
(0.313216 -0.011927 0)
(0.311994 -0.0102803 0)
(0.311009 -0.00878813 0)
(0.309617 -0.00740017 0)
(0.308674 -0.00620238 0)
(0.307068 -0.00509255 0)
(0.306264 -0.00423766 0)
(0.304346 -0.0034357 0)
(0.303839 -0.0029857 0)
(0.301444 -0.00251762 0)
(0.321731 -0.034991 0)
(0.32115 -0.032027 0)
(0.320442 -0.0292256 0)
(0.319568 -0.0265503 0)
(0.318579 -0.0239883 0)
(0.317399 -0.0215436 0)
(0.316148 -0.0192221 0)
(0.314711 -0.0170276 0)
(0.313292 -0.0149659 0)
(0.311678 -0.0130348 0)
(0.310198 -0.0112435 0)
(0.30846 -0.00957863 0)
(0.307016 -0.00806425 0)
(0.305157 -0.0066677 0)
(0.303833 -0.00545064 0)
(0.301792 -0.00433749 0)
(0.300697 -0.00346471 0)
(0.29834 -0.00266325 0)
(0.297659 -0.00220111 0)
(0.294753 -0.00173578 0)
(0.32311 -0.0346288 0)
(0.321824 -0.0315647 0)
(0.320355 -0.0286689 0)
(0.318682 -0.0258999 0)
(0.316868 -0.0232489 0)
(0.314857 -0.020728 0)
(0.312785 -0.0183423 0)
(0.310559 -0.0161014 0)
(0.308391 -0.0140048 0)
(0.306077 -0.0120572 0)
(0.303956 -0.010254 0)
(0.30163 -0.00859373 0)
(0.299664 -0.00707793 0)
(0.297324 -0.00569665 0)
(0.295595 -0.00447732 0)
(0.293152 -0.00338374 0)
(0.291762 -0.00250302 0)
(0.289034 -0.00172387 0)
(0.288182 -0.00125251 0)
(0.28486 -0.000810952 0)
(0.322627 -0.0338127 0)
(0.320133 -0.0306135 0)
(0.317444 -0.0275996 0)
(0.314568 -0.0247249 0)
(0.311579 -0.0219861 0)
(0.308451 -0.0194021 0)
(0.305332 -0.0169753 0)
(0.302151 -0.0147181 0)
(0.299115 -0.0126225 0)
(0.296041 -0.010697 0)
(0.293245 -0.00892196 0)
(0.290349 -0.00730561 0)
(0.287885 -0.005825 0)
(0.285139 -0.00449418 0)
(0.283058 -0.00330085 0)
(0.28033 -0.00225623 0)
(0.278702 -0.00138431 0)
(0.275755 -0.000651956 0)
(0.274768 -0.000177289 0)
(0.271217 0.000216569 0)
(0.318299 -0.0322208 0)
(0.31401 -0.0288855 0)
(0.309629 -0.0257681 0)
(0.305188 -0.0228173 0)
(0.300763 -0.0200359 0)
(0.296353 -0.0174436 0)
(0.292101 -0.0150371 0)
(0.287955 -0.0128281 0)
(0.284092 -0.0107994 0)
(0.280349 -0.00895922 0)
(0.276994 -0.00727284 0)
(0.273681 -0.0057547 0)
(0.270869 -0.00435903 0)
(0.267901 -0.00312072 0)
(0.265622 -0.00198933 0)
(0.262812 -0.00102384 0)
(0.261077 -0.000181467 0)
(0.258135 0.000479596 0)
(0.25709 0.000951982 0)
(0.253572 0.00127951 0)
(0.307341 -0.0294945 0)
(0.300801 -0.0261039 0)
(0.294466 -0.0229727 0)
(0.288349 -0.0200465 0)
(0.282503 -0.0173306 0)
(0.276927 -0.0148373 0)
(0.271733 -0.0125555 0)
(0.266862 -0.0104922 0)
(0.262445 -0.00862099 0)
(0.258325 -0.00694576 0)
(0.254703 -0.0054198 0)
(0.251268 -0.00405907 0)
(0.248385 -0.00280099 0)
(0.245475 -0.00169487 0)
(0.243235 -0.000659373 0)
(0.240606 0.000202785 0)
(0.238944 0.000996263 0)
(0.236266 0.00157281 0)
(0.235271 0.00203996 0)
(0.232075 0.00229339 0)
(0.286733 -0.0253978 0)
(0.277966 -0.0221559 0)
(0.269911 -0.0192002 0)
(0.262494 -0.0164812 0)
(0.255688 -0.0139992 0)
(0.249458 -0.0117535 0)
(0.243847 -0.00972596 0)
(0.238772 -0.00791802 0)
(0.234293 -0.0062972 0)
(0.230257 -0.00486182 0)
(0.226788 -0.00355885 0)
(0.223617 -0.00240248 0)
(0.221001 -0.00132201 0)
(0.218463 -0.00037266 0)
(0.216526 0.000542893 0)
(0.214333 0.00129479 0)
(0.212941 0.00202951 0)
(0.210757 0.00252677 0)
(0.209924 0.00298881 0)
(0.207305 0.00317289 0)
(0.254481 -0.0200454 0)
(0.244301 -0.0172772 0)
(0.235469 -0.0147689 0)
(0.227707 -0.0124889 0)
(0.220866 -0.0104264 0)
(0.214836 -0.00857099 0)
(0.209576 -0.00690698 0)
(0.204967 -0.00543557 0)
(0.201006 -0.00412525 0)
(0.197548 -0.00297146 0)
(0.194655 -0.00192203 0)
(0.192102 -0.000987967 0)
(0.190056 -9.83507e-05 0)
(0.188142 0.00069456 0)
(0.186724 0.0014862 0)
(0.185152 0.00214175 0)
(0.184178 0.00281955 0)
(0.182637 0.00325659 0)
(0.182052 0.00371893 0)
(0.180175 0.00384972 0)
(0.211213 -0.0140897 0)
(0.201246 -0.012161 0)
(0.193166 -0.0103665 0)
(0.186387 -0.0087122 0)
(0.180624 -0.00718244 0)
(0.175702 -0.00577983 0)
(0.171516 -0.00451027 0)
(0.167941 -0.00338582 0)
(0.164947 -0.00238466 0)
(0.162417 -0.00150313 0)
(0.160375 -0.000695586 0)
(0.158652 3.38339e-05 0)
(0.157346 0.000750439 0)
(0.15618 0.00140879 0)
(0.155385 0.00209331 0)
(0.1545 0.00267862 0)
(0.154015 0.00331035 0)
(0.153154 0.00371712 0)
(0.152863 0.00418833 0)
(0.151785 0.0042849 0)
(0.161057 -0.00863911 0)
(0.153246 -0.00779539 0)
(0.14748 -0.00683535 0)
(0.142826 -0.00582505 0)
(0.138953 -0.00478122 0)
(0.135687 -0.00376221 0)
(0.132942 -0.00281556 0)
(0.130639 -0.00197171 0)
(0.128769 -0.00122148 0)
(0.127258 -0.000561647 0)
(0.126123 4.84728e-05 0)
(0.125249 0.000614669 0)
(0.124688 0.00119229 0)
(0.124245 0.00174806 0)
(0.124057 0.00235168 0)
(0.123813 0.00289722 0)
(0.123806 0.00349891 0)
(0.123565 0.00390733 0)
(0.123578 0.00439393 0)
(0.12326 0.00446904 0)
(0.110562 -0.00476573 0)
(0.106374 -0.00502701 0)
(0.103785 -0.00477121 0)
(0.10165 -0.00419302 0)
(0.0997852 -0.00342344 0)
(0.0981407 -0.00261532 0)
(0.0967311 -0.00185809 0)
(0.0955673 -0.00119295 0)
(0.0946803 -0.000614997 0)
(0.0940469 -0.000114714 0)
(0.093685 0.000351364 0)
(0.0935215 0.000796296 0)
(0.0935808 0.00127001 0)
(0.0937327 0.00175555 0)
(0.0940493 0.00230543 0)
(0.094328 0.00283635 0)
(0.0947293 0.00342319 0)
(0.0949964 0.0038572 0)
(0.0952974 0.00435916 0)
(0.0956397 0.00441649 0)
(0.0661041 -0.00302468 0)
(0.065955 -0.00420421 0)
(0.0662809 -0.00424387 0)
(0.0661426 -0.00371148 0)
(0.0657326 -0.00293802 0)
(0.0652042 -0.00215795 0)
(0.0647012 -0.00146845 0)
(0.0643137 -0.000898107 0)
(0.0641043 -0.000430717 0)
(0.0640815 -4.17745e-05 0)
(0.0642606 0.000318209 0)
(0.0645959 0.00067349 0)
(0.0650941 0.00107263 0)
(0.0656688 0.00151139 0)
(0.0663505 0.0020274 0)
(0.0670107 0.00255758 0)
(0.0677299 0.00313939 0)
(0.0683801 0.00360833 0)
(0.0689445 0.00411982 0)
(0.0698165 0.00415866 0)
(0.032027 -0.00331889 0)
(0.0349388 -0.00504195 0)
(0.0368994 -0.00477475 0)
(0.0376294 -0.00390359 0)
(0.0377996 -0.00292629 0)
(0.0377219 -0.00207276 0)
(0.0376169 -0.00139431 0)
(0.0376028 -0.000882828 0)
(0.0377431 -0.000498621 0)
(0.0380519 -0.000197998 0)
(0.0385355 7.42391e-05 0)
(0.0391601 0.000357262 0)
(0.0399191 0.000697967 0)
(0.0407532 0.00110091 0)
(0.0416684 0.001592 0)
(0.0425832 0.00212336 0)
(0.0435329 0.00270225 0)
(0.0444616 0.00320009 0)
(0.0452553 0.00371587 0)
(0.0465195 0.00373785 0)
(0.0102421 -0.00553368 0)
(0.0137185 -0.00669339 0)
(0.015548 -0.00556295 0)
(0.0159276 -0.00417806 0)
(0.0158709 -0.00297233 0)
(0.0156853 -0.0020593 0)
(0.0155703 -0.00140878 0)
(0.0156111 -0.000967734 0)
(0.0158421 -0.000671364 0)
(0.016262 -0.000459233 0)
(0.0168623 -0.000270083 0)
(0.0176118 -5.6685e-05 0)
(0.0184921 0.000226549 0)
(0.0194591 0.000593977 0)
(0.0205056 0.00105928 0)
(0.0215783 0.00158447 0)
(0.0226869 0.0021552 0)
(0.0238172 0.00266691 0)
(0.0247912 0.00318606 0)
(0.0263206 0.00320634 0)
(0.00265671 -0.0072685 0)
(0.00247044 -0.0074383 0)
(0.00249856 -0.00573288 0)
(0.0017381 -0.00406199 0)
(0.00101276 -0.00279624 0)
(0.000432243 -0.00192615 0)
(9.24816e-05 -0.00136207 0)
(1.04008e-05 -0.0010218 0)
(0.000178655 -0.000826752 0)
(0.00057311 -0.000708078 0)
(0.00116929 -0.000600917 0)
(0.00193285 -0.000455845 0)
(0.00283979 -0.000228912 0)
(0.0038518 9.72304e-05 0)
(0.0049537 0.000531561 0)
(0.00610758 0.00103963 0)
(0.00730926 0.0015943 0)
(0.00856813 0.00210828 0)
(0.00964781 0.00262062 0)
(0.0113226 0.00269601 0)
(-0.000624768 -0.00738204 0)
(-0.00360452 -0.00694014 0)
(-0.00571616 -0.00519887 0)
(-0.007664 -0.00355646 0)
(-0.00909428 -0.00240083 0)
(-0.0100973 -0.00166326 0)
(-0.0106949 -0.00123219 0)
(-0.0109389 -0.00101517 0)
(-0.0108756 -0.000930613 0)
(-0.0105498 -0.00090823 0)
(-0.00999926 -0.000883344 0)
(-0.00926225 -0.000806023 0)
(-0.00836748 -0.000634228 0)
(-0.00734956 -0.00035243 0)
(-0.00622769 4.66588e-05 0)
(-0.00503298 0.000530584 0)
(-0.0037774 0.00106452 0)
(-0.00244202 0.00157838 0)
(-0.0013043 0.00206197 0)
(0.000442324 0.00227442 0)
(-0.00221049 -0.00576271 0)
(-0.00724971 -0.00541022 0)
(-0.0112717 -0.00398107 0)
(-0.0142864 -0.00265244 0)
(-0.0163632 -0.0017676 0)
(-0.0177596 -0.00125436 0)
(-0.0186061 -0.00100944 0)
(-0.0190162 -0.000947269 0)
(-0.0190695 -0.000992263 0)
(-0.0188288 -0.00107838 0)
(-0.0183422 -0.00114472 0)
(-0.0176514 -0.0011429 0)
(-0.0167885 -0.00103386 0)
(-0.0157861 -0.000802116 0)
(-0.0146654 -0.000444957 0)
(-0.0134545 7.0103e-06 0)
(-0.0121703 0.000515391 0)
(-0.0108016 0.00102513 0)
(-0.009621 0.00148746 0)
(-0.00786898 0.00184873 0)
(-0.00295991 -0.00336304 0)
(-0.00929402 -0.00314448 0)
(-0.0146472 -0.00223204 0)
(-0.0184284 -0.00142702 0)
(-0.0209764 -0.000939628 0)
(-0.0226651 -0.00072345 0)
(-0.0237034 -0.000706151 0)
(-0.0242487 -0.000822888 0)
(-0.024404 -0.00101202 0)
(-0.0242442 -0.00121634 0)
(-0.0238235 -0.00138111 0)
(-0.0231857 -0.00146113 0)
(-0.0223645 -0.00142093 0)
(-0.0213911 -0.00124541 0)
(-0.0202881 -0.00093543 0)
(-0.0190824 -0.000520783 0)
(-0.0177946 -4.09278e-05 0)
(-0.0164263 0.000459921 0)
(-0.0152309 0.000931777 0)
(-0.0135149 0.00138107 0)
(-0.00324877 -0.00061578 0)
(-0.010156 -0.000449981 0)
(-0.0161225 -0.00016379 0)
(-0.0202678 -3.41762e-06 0)
(-0.0230417 1.08316e-05 0)
(-0.024877 -0.000113092 0)
(-0.0260195 -0.000347239 0)
(-0.0266473 -0.000656358 0)
(-0.0268736 -0.000997483 0)
(-0.0267779 -0.00132536 0)
(-0.026416 -0.00159279 0)
(-0.0258312 -0.0017587 0)
(-0.0250568 -0.00179135 0)
(-0.0241226 -0.00167655 0)
(-0.0230519 -0.00141779 0)
(-0.0218715 -0.00104326 0)
(-0.0206052 -0.000592748 0)
(-0.019265 -0.00010166 0)
(-0.0180847 0.000391998 0)
(-0.0164276 0.000909046 0)
(-0.00321501 0.00221827 0)
(-0.0100041 0.0023454 0)
(-0.0158145 0.00198267 0)
(-0.0198789 0.00146959 0)
(-0.022602 0.000994074 0)
(-0.0244173 0.000522539 0)
(-0.0255622 3.48814e-05 0)
(-0.0262095 -0.000467438 0)
(-0.0264688 -0.000960362 0)
(-0.0264157 -0.00141171 0)
(-0.0261021 -0.0017822 0)
(-0.0255684 -0.0020351 0)
(-0.0248455 -0.00214223 0)
(-0.023961 -0.00209027 0)
(-0.0229376 -0.00188471 0)
(-0.021803 -0.00155139 0)
(-0.0205826 -0.00112942 0)
(-0.0192953 -0.000646867 0)
(-0.0181563 -0.000129266 0)
(-0.016573 0.000451386 0)
(-0.00283467 0.00489546 0)
(-0.00881252 0.00491088 0)
(-0.0137001 0.00395788 0)
(-0.0172433 0.00283613 0)
(-0.0196415 0.00191531 0)
(-0.0212714 0.00112557 0)
(-0.0223178 0.000403939 0)
(-0.0229229 -0.000277667 0)
(-0.0231779 -0.000913435 0)
(-0.0231473 -0.00148211 0)
(-0.022874 -0.00195172 0)
(-0.0223924 -0.0022894 0)
(-0.0217285 -0.00247004 0)
(-0.0209073 -0.00248073 0)
(-0.0199491 -0.0023283 0)
(-0.0188822 -0.00203559 0)
(-0.0177324 -0.00164089 0)
(-0.0165216 -0.00116521 0)
(-0.0154475 -0.000627056 0)
(-0.0139514 1.54751e-05 0)
(-0.00190469 0.00713805 0)
(-0.00635086 0.00692459 0)
(-0.00961209 0.00552463 0)
(-0.0122487 0.00395108 0)
(-0.0140865 0.00268684 0)
(-0.0153897 0.00164275 0)
(-0.0162524 0.000726967 0)
(-0.0167644 -0.000106388 0)
(-0.0169875 -0.000867605 0)
(-0.0169668 -0.0015413 0)
(-0.0167328 -0.00210165 0)
(-0.0163108 -0.00251856 0)
(-0.01572 -0.00276918 0)
(-0.0149811 -0.00284023 0)
(-0.0141108 -0.00273933 0)
(-0.0131374 -0.00248546 0)
(-0.0120842 -0.00211676 0)
(-0.0109751 -0.00164658 0)
(-0.00998868 -0.00109809 0)
(-0.0085979 -0.000387161 0)
(8.72578e-05 0.00843879 0)
(-0.00210557 0.00810691 0)
(-0.0032121 0.00647437 0)
(-0.00467602 0.00469994 0)
(-0.00579887 0.00324131 0)
(-0.0066839 0.00203406 0)
(-0.00731017 0.000981146 0)
(-0.00770152 3.24481e-05 0)
(-0.0078818 -0.000828563 0)
(-0.00787235 -0.00158964 0)
(-0.00768797 -0.00222845 0)
(-0.00734348 -0.00271603 0)
(-0.00684865 -0.00303086 0)
(-0.00621979 -0.00315833 0)
(-0.00546692 -0.00310629 0)
(-0.00461881 -0.00288906 0)
(-0.00369194 -0.00254543 0)
(-0.00271542 -0.00207964 0)
(-0.00183801 -0.00153935 0)