/*--------------------------------*- C++ -*----------------------------------*\
| =========                 |                                                 |
| \\      /  F ield         | OpenFOAM: The Open Source CFD Toolbox           |
|  \\    /   O peration     | Version:  v1806                                 |
|   \\  /    A nd           | Web:      www.OpenFOAM.com                      |
|    \\/     M anipulation  |                                                 |
\*---------------------------------------------------------------------------*/
FoamFile
{
    version     2.0;
    format      ascii;
    class       volScalarField;
    location    "210";
    object      p;
}
// * * * * * * * * * * * * * * * * * * * * * * * * * * * * * * * * * * * * * //

dimensions      [0 2 -2 0 0 0 0];


internalField   nonuniform List<scalar> 
4916
(
-0.00348196
-0.00347981
-0.00347981
-0.00348196
-0.00345275
-0.0034513
-0.0034513
-0.00345275
-0.00359084
-0.00358952
-0.00358952
-0.00359085
-0.00357833
-0.00357601
-0.00357601
-0.00357833
-0.00354364
-0.00354227
-0.00354227
-0.00354364
-0.00350406
-0.00350265
-0.00350265
-0.00350406
0.0386389
0.038639
0.038639
0.0386389
0.0421647
0.0421687
0.0421687
0.0421647
0.0366924
0.036695
0.036695
0.0366924
0.0403106
0.0403111
0.0403111
0.0403106
0.0322256
0.032229
0.032229
0.0322256
0.0331952
0.033199
0.033199
0.0331952
-0.00416717
-0.00416571
-0.00416571
-0.00416717
-0.00462773
-0.00462537
-0.00462537
-0.00462773
-0.00412044
-0.00411867
-0.00411867
-0.00412044
-0.00457059
-0.00456724
-0.00456724
-0.00457058
-0.0039831
-0.00398161
-0.00398161
-0.0039831
0.0407575
0.0407928
0.0407928
0.0407575
0.0421337
0.0421462
0.0421462
0.0421337
0.0515304
0.0515557
0.0515557
0.0515304
0.0508457
0.0508449
0.0508449
0.0508457
0.0297821
0.0297782
0.0297782
0.0297821
0.0309824
0.0309805
0.0309805
0.0309824
-0.00378833
-0.00378659
-0.00378659
-0.00378833
-0.00370875
-0.00370787
-0.00370787
-0.00370875
-0.00343745
-0.00343531
-0.00343531
-0.00343745
-0.00344798
-0.00344584
-0.00344584
-0.00344798
-0.00351316
-0.00351165
-0.00351165
-0.00351316
-0.00340473
-0.00340364
-0.00340364
-0.00340473
-0.00357305
-0.00357011
-0.00357011
-0.00357305
-0.00358779
-0.00358662
-0.00358662
-0.00358779
-0.0036724
-0.00367107
-0.00367107
-0.0036724
-0.00376734
-0.00376593
-0.00376593
-0.00376734
-0.00389291
-0.00389165
-0.00389165
-0.00389291
-0.00387124
-0.00386997
-0.00386997
-0.00387124
-0.00398253
-0.00398099
-0.00398099
-0.00398253
-0.004006
-0.00400454
-0.00400454
-0.004006
0.0518396
0.0518496
0.0518496
0.0518396
0.0478796
0.0478827
0.0478827
0.0478796
0.0526751
0.0526786
0.0526786
0.0526751
0.0492056
0.0492167
0.0492167
0.0492056
0.0441376
0.0441432
0.0441432
0.0441376
0.0446078
0.0446153
0.0446153
0.0446078
0.0406516
0.0406551
0.0406551
0.0406516
0.0370007
0.0370037
0.0370037
0.0370007
0.0334139
0.0334196
0.0334196
0.0334139
0.0299969
0.030002
0.030002
0.0299969
0.0298996
0.0299065
0.0299065
0.0298996
-0.00377826
-0.00377813
-0.00377813
-0.00377826
0.0354168
0.035418
0.035418
0.0354168
0.0290981
0.0291052
0.0291052
0.0290981
-0.00383335
-0.00383166
-0.00383166
-0.00383335
-0.00393961
-0.00393862
-0.00393862
-0.00393961
-0.00406092
-0.0040596
-0.0040596
-0.00406092
-0.00409953
-0.00409803
-0.00409803
-0.00409953
-0.00412234
-0.00412074
-0.00412074
-0.00412234
-0.00418724
-0.00418538
-0.00418538
-0.00418724
-0.00357986
-0.00357817
-0.00357817
-0.00357986
-0.00366746
-0.00366594
-0.00366594
-0.00366746
-0.00376852
-0.00376705
-0.00376705
-0.00376852
-0.00387725
-0.00387587
-0.00387587
-0.00387725
-0.00399276
-0.00399114
-0.00399114
-0.00399276
-0.00412037
-0.00411892
-0.00411892
-0.00412037
-0.00340615
-0.00340475
-0.00340475
-0.00340615
-0.00362015
-0.00362017
-0.00362017
-0.00362015
-0.00349929
-0.0034968
-0.0034968
-0.00349929
0.0550511
0.0550505
0.0550505
0.0550511
0.0547474
0.0547532
0.0547532
0.0547474
0.0459518
0.045959
0.045959
0.0459518
0.0493914
0.0493976
0.0493976
0.0493914
0.0467609
0.0467628
0.0467628
0.0467609
0.0430791
0.04309
0.04309
0.0430791
0.039556
0.0395555
0.0395555
0.039556
0.0363539
0.0363586
0.0363586
0.0363539
0.0329054
0.0329123
0.0329123
0.0329054
0.0295136
0.0295192
0.0295192
0.0295136
0.0264435
0.0264505
0.0264505
0.0264435
0.0268858
0.0268924
0.0268924
0.0268858
0.0268349
0.0268407
0.0268407
0.0268349
0.026263
0.02627
0.02627
0.026263
0.039324
0.0393198
0.0393198
0.039324
0.0362796
0.0362749
0.0362749
0.0362796
0.0334286
0.0334288
0.0334288
0.0334286
0.0306555
0.0306606
0.0306606
0.0306555
0.0279217
0.0279296
0.0279296
0.0279217
0.025259
0.0252679
0.0252679
0.025259
0.0422478
0.0422484
0.0422484
0.0422478
0.0448541
0.0448591
0.0448591
0.0448541
0.0518796
0.0518807
0.0518807
0.0518796
-0.00348058
-0.00348025
-0.00348025
-0.00348058
-0.00361188
-0.00361022
-0.00361022
-0.00361188
-0.00369945
-0.00369806
-0.00369806
-0.00369945
-0.00380017
-0.00379884
-0.00379884
-0.00380017
-0.00391603
-0.00391456
-0.00391456
-0.00391603
-0.00404233
-0.00404082
-0.00404082
-0.00404233
-0.00418469
-0.00418332
-0.00418332
-0.00418469
-0.00433348
-0.00433212
-0.00433212
-0.00433348
-0.00424334
-0.00424196
-0.00424196
-0.00424334
-0.00420821
-0.0042067
-0.0042067
-0.00420821
-0.0042309
-0.00422925
-0.00422925
-0.0042309
-0.00431606
-0.00431438
-0.00431438
-0.00431606
-0.00444458
-0.00444279
-0.00444279
-0.00444458
-0.00428633
-0.00428467
-0.00428467
-0.00428633
-0.00415047
-0.00414889
-0.00414889
-0.00415047
-0.00400915
-0.00400798
-0.00400798
-0.00400915
-0.00388121
-0.00387982
-0.00387982
-0.00388121
-0.00375015
-0.00374777
-0.00374777
-0.00375015
-0.00366151
-0.00365985
-0.00365985
-0.00366151
-0.00358941
-0.00358691
-0.00358691
-0.00358941
0.0438972
0.0438901
0.0438901
0.0438972
0.0410708
0.0410885
0.0410885
0.0410708
0.0374329
0.0374357
0.0374357
0.0374329
0.0344976
0.0345082
0.0345082
0.0344976
0.0314609
0.0314652
0.0314652
0.0314609
0.0283867
0.0283925
0.0283925
0.0283867
0.0254892
0.0254947
0.0254947
0.0254892
0.0229548
0.0229591
0.0229591
0.0229548
0.0237776
0.0237836
0.0237836
0.0237776
0.0241959
0.0242018
0.0242018
0.0241959
0.0241883
0.0241941
0.0241941
0.0241883
0.0237607
0.0237673
0.0237673
0.0237607
0.0228563
0.0228642
0.0228642
0.0228563
0.0355141
0.035512
0.035512
0.0355141
0.0333259
0.0333207
0.0333207
0.0333259
0.0309937
0.0309907
0.0309907
0.0309937
0.0285634
0.0285692
0.0285692
0.0285634
0.0261331
0.0261428
0.0261428
0.0261331
0.0239301
0.0239401
0.0239401
0.0239301
0.0217065
0.0217152
0.0217152
0.0217065
-0.00354175
-0.00353973
-0.00353973
-0.00354175
-0.00461461
-0.00461326
-0.00461326
-0.00461461
-0.00444249
-0.00444062
-0.00444062
-0.00444249
-0.00425672
-0.00425538
-0.00425538
-0.00425672
-0.00410052
-0.00409962
-0.00409962
-0.00410052
-0.0039641
-0.00396314
-0.00396314
-0.0039641
-0.00385961
-0.00385877
-0.00385877
-0.00385961
-0.00377965
-0.00377901
-0.00377901
-0.00377965
-0.00373551
-0.00373411
-0.00373411
-0.00373551
-0.00446462
-0.00446333
-0.00446333
-0.00446462
-0.00434237
-0.00434098
-0.00434098
-0.00434237
-0.00429014
-0.0042888
-0.0042888
-0.00429014
-0.00431415
-0.00431291
-0.00431291
-0.00431415
-0.00441882
-0.00441773
-0.00441773
-0.00441882
-0.00459947
-0.00459837
-0.00459837
-0.00459947
-0.00483694
-0.00483601
-0.00483601
-0.00483694
-0.00362306
-0.00362168
-0.00362168
-0.00362307
-0.00367814
-0.00367667
-0.00367667
-0.00367814
-0.00375419
-0.00375281
-0.00375281
-0.00375419
-0.00385749
-0.0038564
-0.0038564
-0.0038575
-0.00398119
-0.00397977
-0.00397977
-0.00398119
-0.00412532
-0.0041239
-0.0041239
-0.00412532
-0.00429129
-0.00429
-0.00429
-0.00429129
-0.0044717
-0.0044707
-0.0044707
-0.0044717
-0.00465312
-0.00465202
-0.00465202
-0.00465312
0.037527
0.0375319
0.0375319
0.037527
0.046006
0.0460141
0.0460141
0.046006
0.0385925
0.038591
0.038591
0.0385925
0.0364006
0.0363982
0.0363982
0.0364006
0.0411803
0.0411986
0.0411986
0.0411803
0.0372375
0.0372468
0.0372468
0.0372375
0.0341888
0.0341954
0.0341954
0.0341888
0.0316248
0.0316266
0.0316266
0.0316248
0.0291612
0.0291613
0.0291613
0.0291612
0.0266681
0.0266722
0.0266722
0.0266681
0.0240777
0.0240825
0.0240825
0.0240777
0.0217825
0.0217868
0.0217868
0.0217825
0.0197596
0.0197632
0.0197632
0.0197596
0.02081
0.020814
0.020814
0.02081
0.0215504
0.0215552
0.0215552
0.0215504
0.0219289
0.0219329
0.0219329
0.0219289
0.0219258
0.0219297
0.0219297
0.0219258
0.0215483
0.0215525
0.0215525
0.0215483
0.0207743
0.0207792
0.0207792
0.0207743
0.0196935
0.0196995
0.0196995
0.0196935
0.0280332
0.0280313
0.0280313
0.0280332
0.0259852
0.0259878
0.0259878
0.0259852
0.0239413
0.0239499
0.0239499
0.0239413
0.0219689
0.0219812
0.0219812
0.0219689
0.0201369
0.0201462
0.0201462
0.0201369
0.0183946
0.0184011
0.0184011
0.0183946
0.0314138
0.0314076
0.0314076
0.0314138
0.0287873
0.0287795
0.0287795
0.0287873
0.0203139
0.0202993
0.0202993
0.0203139
0.0179989
0.0180021
0.0180021
0.0179989
0.0189594
0.0189629
0.0189629
0.0189594
0.0196313
0.0196343
0.0196343
0.0196313
0.0199714
0.0199745
0.0199745
0.0199714
0.0199678
0.0199711
0.0199711
0.0199678
0.019632
0.0196354
0.0196354
0.019632
0.0189572
0.0189613
0.0189613
0.0189572
0.0179786
0.0179843
0.0179843
0.0179786
0.0167697
0.0167753
0.0167753
0.0167697
0.0235473
0.0235501
0.0235501
0.0235473
0.0303987
0.0304009
0.0304009
0.0303987
0.0322336
0.0322318
0.0322318
0.0322336
0.0316092
0.0316131
0.0316131
0.0316092
0.0300305
0.0300294
0.0300294
0.0300305
0.0283465
0.0283412
0.0283412
0.0283465
0.0264358
0.0264349
0.0264349
0.0264358
0.024347
0.0243532
0.0243532
0.024347
0.022221
0.0222262
0.0222262
0.022221
0.0202464
0.0202499
0.0202499
0.0202464
0.0184674
0.0184702
0.0184702
0.0184674
0.0168382
0.0168413
0.0168413
0.0168382
-0.00378007
-0.00377859
-0.00377859
-0.00378007
-0.00371074
-0.00370845
-0.00370845
-0.00371073
-0.00371955
-0.00371828
-0.00371828
-0.00371955
-0.00375318
-0.00375191
-0.00375191
-0.00375318
-0.00381769
-0.00381626
-0.00381626
-0.00381769
-0.00392338
-0.00392264
-0.00392264
-0.00392338
-0.00405922
-0.00405801
-0.00405801
-0.00405922
-0.00422966
-0.00422855
-0.00422855
-0.00422966
-0.00443005
-0.00442906
-0.00442906
-0.00443005
-0.00466117
-0.00466035
-0.00466035
-0.00466117
-0.00489355
-0.00489275
-0.00489275
-0.00489355
-0.00514593
-0.00514556
-0.00514556
-0.00514593
-0.00482039
-0.00481976
-0.00481976
-0.00482039
-0.00456332
-0.00456231
-0.00456231
-0.00456332
-0.00439489
-0.0043938
-0.0043938
-0.00439489
-0.00431934
-0.0043183
-0.0043183
-0.00431934
-0.00434091
-0.0043399
-0.0043399
-0.00434091
-0.00446179
-0.00446067
-0.00446067
-0.00446179
-0.00467965
-0.00467854
-0.00467854
-0.00467965
-0.00498738
-0.00498662
-0.00498662
-0.00498738
-0.00535907
-0.00535854
-0.00535854
-0.00535907
-0.00512317
-0.00512256
-0.00512256
-0.00512317
-0.00487319
-0.00487226
-0.00487226
-0.00487319
-0.00461891
-0.00461744
-0.00461744
-0.00461891
-0.00439708
-0.00439577
-0.00439577
-0.00439708
-0.00421298
-0.00421199
-0.00421199
-0.00421298
-0.00405891
-0.00405769
-0.00405769
-0.00405891
-0.0039457
-0.00394438
-0.00394438
-0.0039457
-0.00386858
-0.00386682
-0.00386682
-0.00386858
-0.00382147
-0.00381902
-0.00381902
-0.00382147
-0.00378884
-0.00378903
-0.00378903
-0.00378884
-0.00381427
-0.00381187
-0.00381187
-0.00381427
-0.00385259
-0.00385015
-0.00385015
-0.00385259
-0.00409663
-0.00409628
-0.00409628
-0.00409663
-0.00395095
-0.00394951
-0.00394951
-0.00395095
-0.00391886
-0.00391786
-0.00391786
-0.00391886
-0.00394785
-0.00394691
-0.00394691
-0.00394785
-0.00402347
-0.00402268
-0.00402268
-0.00402347
-0.00414563
-0.00414471
-0.00414471
-0.00414563
-0.00432248
-0.00432183
-0.00432183
-0.00432248
-0.00454288
-0.00454212
-0.00454212
-0.00454288
-0.00480627
-0.00480529
-0.00480529
-0.00480627
-0.0051236
-0.00512303
-0.00512303
-0.0051236
-0.00545082
-0.00545051
-0.00545051
-0.00545082
-0.00575353
-0.00575353
-0.00575353
-0.00575353
-0.00533189
-0.00533182
-0.00533182
-0.00533189
-0.00491242
-0.00491201
-0.00491201
-0.00491242
-0.00458303
-0.00458238
-0.00458238
-0.00458303
-0.0043662
-0.00436561
-0.00436561
-0.0043662
-0.00426688
-0.00426634
-0.00426634
-0.00426688
-0.0042856
-0.00428504
-0.00428504
-0.0042856
-0.00442358
-0.00442297
-0.00442297
-0.00442358
-0.00468274
-0.00468212
-0.00468212
-0.00468274
-0.00505687
-0.00505648
-0.00505648
-0.00505687
-0.00553084
-0.00553087
-0.00553087
-0.00553084
-0.00602902
-0.00602953
-0.00602953
-0.00602902
0.0229796
0.0229992
0.0229992
0.0229796
0.0250039
0.0250022
0.0250022
0.0250039
0.0260668
0.0260735
0.0260735
0.0260668
0.0253905
0.0253849
0.0253849
0.0253905
0.0245055
0.0245002
0.0245002
0.0245055
0.0232856
0.0232811
0.0232811
0.0232856
0.0217465
0.0217488
0.0217488
0.0217465
0.02002
0.0200228
0.0200228
0.02002
0.0184067
0.0184102
0.0184102
0.0184067
0.0168568
0.0168598
0.0168598
0.0168568
0.0154319
0.0154347
0.0154347
0.0154319
0.0141589
0.0141603
0.0141603
0.0141589
0.0154114
0.0154125
0.0154125
0.0154114
0.0165053
0.0165055
0.0165055
0.0165053
0.0173653
0.017366
0.017366
0.0173653
0.0179701
0.0179714
0.0179714
0.0179701
0.0182697
0.0182714
0.0182714
0.0182697
0.0182621
0.018264
0.018264
0.0182621
0.017954
0.017956
0.017956
0.017954
0.0173562
0.017359
0.017359
0.0173562
0.0164618
0.0164659
0.0164659
0.0164618
0.0153763
0.0153809
0.0153809
0.0153763
0.0141033
0.0141095
0.0141095
0.0141033
0.0154389
0.0154449
0.0154449
0.0154389
0.016803
0.0168087
0.0168087
0.016803
0.0182246
0.0182325
0.0182325
0.0182246
0.0197944
0.0198054
0.0198054
0.0197944
0.0214372
0.021446
0.021446
0.0214372
0.0230523
0.0230538
0.0230538
0.0230523
0.0245898
0.024588
0.024588
0.0245898
0.025596
0.0255896
0.0255896
0.025596
-0.00382781
-0.00382557
-0.00382557
-0.00382781
-0.00379197
-0.00379059
-0.00379059
-0.00379197
-0.00380651
-0.00380557
-0.00380557
-0.00380651
-0.00386003
-0.00385862
-0.00385862
-0.00386003
-0.0039781
-0.00397767
-0.00397767
-0.0039781
-0.00412892
-0.004128
-0.004128
-0.00412892
-0.00433165
-0.00433075
-0.00433075
-0.00433165
-0.00457991
-0.00457922
-0.00457922
-0.00457991
-0.00486245
-0.00486187
-0.00486187
-0.00486245
-0.00517452
-0.00517421
-0.00517421
-0.00517452
-0.00549668
-0.00549677
-0.00549677
-0.00549668
-0.00578168
-0.0057821
-0.0057821
-0.00578168
0.0261018
0.0260965
0.0260965
0.0261018
0.0248491
0.0248262
0.0248262
0.0248491
0.0219895
0.0219912
0.0219912
0.0219895
0.0110242
0.0109957
0.0109957
0.0110242
0.0136582
0.0136326
0.0136326
0.0136582
-0.00012199
-0.000124677
-0.000124677
-0.00012199
-0.000875466
-0.000836112
-0.000836112
-0.000875466
-0.011719
-0.0117102
-0.0117102
-0.011719
-0.0121799
-0.012165
-0.012165
-0.0121799
-0.0108883
-0.0108868
-0.0108868
-0.0108883
-0.00880167
-0.00879496
-0.00879496
-0.00880167
-0.00765234
-0.00765138
-0.00765138
-0.00765234
-0.0064669
-0.00646371
-0.00646371
-0.0064669
-0.00554804
-0.00554507
-0.00554507
-0.00554804
-0.00493089
-0.00492765
-0.00492765
-0.00493089
-0.00448109
-0.004478
-0.004478
-0.00448109
-0.00418757
-0.00418574
-0.00418574
-0.00418757
-0.00399102
-0.0039898
-0.0039898
-0.00399102
-0.00394195
-0.00394098
-0.00394098
-0.00394195
-0.00397295
-0.00397211
-0.00397211
-0.00397295
-0.00405903
-0.00405839
-0.00405839
-0.00405903
-0.0041944
-0.00419336
-0.00419336
-0.0041944
-0.00440161
-0.00440085
-0.00440085
-0.00440161
-0.00466068
-0.00465995
-0.00465995
-0.00466068
-0.00497081
-0.00496988
-0.00496988
-0.00497081
-0.00534531
-0.00534491
-0.00534491
-0.00534531
-0.00572717
-0.00572694
-0.00572694
-0.00572717
-0.00611254
-0.00611285
-0.00611285
-0.00611254
-0.00641856
-0.00641931
-0.00641931
-0.00641856
-0.00592787
-0.00592861
-0.00592861
-0.00592787
-0.00539154
-0.00539203
-0.00539203
-0.00539154
-0.00488529
-0.00488553
-0.00488553
-0.00488529
-0.00448566
-0.00448563
-0.00448563
-0.00448566
-0.00422413
-0.00422413
-0.00422413
-0.00422413
-0.00410239
-0.00410238
-0.00410238
-0.00410239
-0.00411618
-0.00411617
-0.00411617
-0.00411618
-0.00426699
-0.00426708
-0.00426708
-0.00426699
-0.00456151
-0.00456162
-0.00456162
-0.00456151
-0.00499423
-0.00499455
-0.00499455
-0.00499423
-0.00554935
-0.00554995
-0.00554995
-0.00554935
-0.0061218
-0.0061227
-0.0061227
-0.0061218
-0.00657808
-0.006579
-0.006579
-0.00657808
-0.00759336
-0.00761969
-0.00761969
-0.00759336
0.00102148
0.000990155
0.000990155
0.00102148
0.0104162
0.0104263
0.0104263
0.0104162
0.0166524
0.0166523
0.0166523
0.0166524
0.0195015
0.0195035
0.0195035
0.0195015
0.0210576
0.0210675
0.0210675
0.0210576
0.0211193
0.0211117
0.0211117
0.0211193
0.0208113
0.0208081
0.0208081
0.0208113
0.0199341
0.0199302
0.0199302
0.0199341
0.0188404
0.0188438
0.0188438
0.0188404
0.0175548
0.0175565
0.0175565
0.0175548
0.0162636
0.0162673
0.0162673
0.0162636
0.0149834
0.0149862
0.0149862
0.0149834
0.0137814
0.0137843
0.0137843
0.0137814
0.0126785
0.0126802
0.0126802
0.0126785
0.0117116
0.0117123
0.0117123
0.0117116
0.0130584
0.0130589
0.0130589
0.0130584
0.014241
0.014241
0.014241
0.014241
0.0152456
0.0152449
0.0152449
0.0152456
0.0160207
0.0160195
0.0160195
0.0160207
0.0165431
0.0165426
0.0165426
0.0165431
0.0168094
0.0168102
0.0168102
0.0168094
0.0168035
0.0168044
0.0168044
0.0168035
0.0165275
0.0165282
0.0165282
0.0165275
0.0159884
0.0159896
0.0159896
0.0159884
0.0151906
0.015193
0.015193
0.0151906
0.0141804
0.0141832
0.0141832
0.0141804
0.0129963
0.013
0.013
0.0129963
0.0116686
0.0116718
0.0116718
0.0116686
0.0126551
0.0126611
0.0126611
0.0126551
0.0137732
0.0137807
0.0137807
0.0137732
0.0149539
0.0149594
0.0149594
0.0149539
0.0161776
0.0161833
0.0161833
0.0161776
0.0174264
0.0174323
0.0174323
0.0174264
0.0186809
0.0186877
0.0186877
0.0186809
0.0198795
0.0198822
0.0198822
0.0198795
0.020933
0.0209327
0.0209327
0.020933
0.021419
0.0214119
0.0214119
0.021419
0.021152
0.0211437
0.0211437
0.021152
0.0194855
0.019476
0.019476
0.0194855
0.0162518
0.0162629
0.0162629
0.0162518
0.0107092
0.0107455
0.0107455
0.0107092
0.000403346
0.00037023
0.00037023
0.000403346
-0.012483
-0.0125154
-0.0125154
-0.012483
-0.00782758
-0.0078753
-0.0078753
-0.00782758
-0.0108561
-0.0108454
-0.0108454
-0.0108561
-0.0129811
-0.0129681
-0.0129681
-0.0129811
-0.010959
-0.0109557
-0.0109557
-0.010959
-0.00922115
-0.009215
-0.009215
-0.00922115
-0.00803856
-0.00803497
-0.00803497
-0.00803857
-0.00668922
-0.00668535
-0.00668536
-0.00668923
-0.00567948
-0.00567599
-0.00567599
-0.00567948
-0.00487671
-0.00487126
-0.00487128
-0.00487671
-0.00440111
-0.0043979
-0.0043979
-0.00440112
-0.00408657
-0.00408482
-0.00408482
-0.00408657
-0.00387575
-0.00387478
-0.00387478
-0.00387575
-0.00379802
-0.0037972
-0.0037972
-0.00379802
-0.0038142
-0.00381374
-0.00381374
-0.0038142
-0.00386697
-0.00386589
-0.00386589
-0.00386697
-0.00399786
-0.00399713
-0.00399713
-0.00399786
-0.00417136
-0.00417034
-0.00417034
-0.00417136
-0.00440701
-0.0044063
-0.0044063
-0.00440701
-0.00469832
-0.00469764
-0.00469764
-0.00469832
-0.00503917
-0.00503877
-0.00503877
-0.00503917
-0.0054126
-0.00541243
-0.00541243
-0.0054126
-0.00580424
-0.00580457
-0.00580457
-0.00580424
-0.00614206
-0.00614272
-0.00614272
-0.00614206
-0.00634319
-0.00634416
-0.00634416
-0.00634319
0.0108839
0.0108829
0.0108829
0.0108839
0.0121363
0.012135
0.012135
0.0121363
0.0132424
0.0132405
0.0132405
0.0132424
0.0141679
0.0141656
0.0141656
0.0141679
0.0148756
0.0148737
0.0148737
0.0148756
0.0153482
0.015347
0.015347
0.0153482
0.0155844
0.0155841
0.0155841
0.0155844
0.01558
0.0155799
0.0155799
0.01558
0.0153305
0.0153305
0.0153305
0.0153305
0.0148404
0.0148399
0.0148399
0.0148404
0.0141225
0.0141221
0.0141221
0.0141225
0.013201
0.0132011
0.0132011
0.013201
0.0120982
0.0120992
0.0120992
0.0120982
0.0108503
0.010851
0.010851
0.0108503
0.00946879
0.00946922
0.00946922
0.00946879
0.0101728
0.0101757
0.0101757
0.0101728
0.0109835
0.010988
0.010988
0.0109835
0.0119042
0.0119097
0.0119097
0.0119042
0.0128774
0.0128819
0.0128819
0.0128774
0.0138695
0.013874
0.013874
0.0138695
0.0148658
0.0148685
0.0148685
0.0148658
0.0158146
0.0158166
0.0158166
0.0158146
0.0166399
0.0166409
0.0166409
0.0166399
0.017285
0.017285
0.017285
0.017285
0.017364
0.0173573
0.0173573
0.017364
0.0167197
0.0167145
0.0167145
0.0167197
0.015062
0.0150631
0.0150631
0.015062
0.0123486
0.0123562
0.0123562
0.0123486
0.00835253
0.00835227
0.00835227
0.00835253
0.00199646
0.00196298
0.00196298
0.00199646
-0.00481332
-0.00483413
-0.00483413
-0.00481332
-0.00760422
-0.00758961
-0.00758961
-0.00760422
-0.00938405
-0.00938142
-0.00938142
-0.00938405
-0.00942343
-0.00942825
-0.00942825
-0.00942343
-0.00834068
-0.00833756
-0.00833756
-0.00834069
-0.00698637
-0.0069788
-0.0069788
-0.00698637
-0.00594957
-0.00594211
-0.00594211
-0.00594957
-0.00532459
-0.00532365
-0.00532365
-0.00532459
-0.00470066
-0.00469762
-0.00469762
-0.00470067
-0.0042183
-0.00421681
-0.00421681
-0.0042183
-0.0038228
-0.00381904
-0.00381904
-0.0038228
-0.00370905
-0.00370626
-0.00370626
-0.00370905
-0.00369993
-0.00369746
-0.00369746
-0.00369993
-0.00376269
-0.0037613
-0.0037613
-0.00376269
-0.00382784
-0.00382648
-0.00382648
-0.00382784
-0.00398382
-0.00398373
-0.00398373
-0.00398382
-0.00417259
-0.00417204
-0.00417204
-0.00417259
-0.00444247
-0.00444275
-0.00444275
-0.00444247
-0.00476299
-0.0047633
-0.0047633
-0.00476299
-0.00514856
-0.00514931
-0.00514931
-0.00514856
-0.00556398
-0.00556486
-0.00556486
-0.00556398
-0.00598315
-0.00598417
-0.00598417
-0.00598315
-0.00633477
-0.00633583
-0.00633583
-0.00633477
-0.00655132
-0.00655252
-0.00655252
-0.00655132
-0.00652478
-0.00652701
-0.00652701
-0.00652478
-0.00634271
-0.00634437
-0.00634436
-0.00634271
-0.00586926
-0.00587116
-0.00587116
-0.00586926
-0.00525804
-0.00525896
-0.00525896
-0.00525804
-0.00468111
-0.00468162
-0.00468162
-0.00468111
-0.00423329
-0.00423346
-0.00423346
-0.00423329
-0.00393891
-0.00393923
-0.00393923
-0.00393891
-0.00379787
-0.00379826
-0.00379826
-0.00379787
-0.00380484
-0.00380523
-0.00380523
-0.00380484
-0.00395997
-0.00396036
-0.00396036
-0.00395997
-0.00426943
-0.00426978
-0.00426978
-0.00426943
-0.00473962
-0.00474017
-0.00474017
-0.00473962
-0.00535128
-0.00535222
-0.00535222
-0.00535128
-0.00598771
-0.00598895
-0.00598895
-0.00598771
-0.00647765
-0.0064792
-0.0064792
-0.00647765
-0.00665405
-0.00665598
-0.00665598
-0.00665404
-0.00677328
-0.00677442
-0.00677442
-0.00677328
-0.00662808
-0.00662898
-0.00662898
-0.00662808
-0.00631105
-0.00631202
-0.00631202
-0.00631105
-0.0059051
-0.00590597
-0.00590597
-0.0059051
-0.00548098
-0.00548174
-0.00548174
-0.00548098
-0.00507396
-0.00507446
-0.00507446
-0.00507396
-0.0047256
-0.00472574
-0.00472574
-0.0047256
-0.00444289
-0.00444314
-0.00444314
-0.00444289
-0.00419974
-0.00419913
-0.00419913
-0.00419974
-0.00404879
-0.00404822
-0.00404822
-0.00404879
-0.00394428
-0.00394318
-0.00394318
-0.00394428
-0.00389273
-0.00389104
-0.00389104
-0.00389273
-0.00388605
-0.00388391
-0.00388391
-0.00388605
-0.00401391
-0.00401145
-0.00401145
-0.00401391
-0.00434949
-0.00434881
-0.00434881
-0.00434949
-0.00488358
-0.00488329
-0.00488329
-0.00488358
-0.0054244
-0.0054233
-0.0054233
-0.0054244
-0.00609219
-0.00609114
-0.00609114
-0.00609219
-0.006931
-0.00692854
-0.00692854
-0.006931
-0.0081915
-0.00818887
-0.00818887
-0.0081915
-0.00987274
-0.00987548
-0.00987548
-0.00987274
-0.0101596
-0.0101714
-0.0101714
-0.0101596
-0.00805351
-0.0080731
-0.0080731
-0.00805351
-0.00367198
-0.00366358
-0.00366358
-0.00367198
0.00183643
0.00180819
0.00180819
0.00183643
0.00895494
0.00898292
0.00898292
0.00895494
0.0122797
0.0122764
0.0122764
0.0122797
0.0151715
0.0151854
0.0151854
0.0151715
0.0166427
0.0166477
0.0166477
0.0166427
0.0171523
0.0171462
0.0171462
0.0171523
0.0172033
0.0171993
0.0171993
0.0172033
0.0166615
0.0166574
0.0166574
0.0166615
0.0158685
0.015872
0.015872
0.0158685
0.0149009
0.0149025
0.0149025
0.0149009
0.0139156
0.0139184
0.0139184
0.0139156
0.0129042
0.0129055
0.0129055
0.0129042
0.0119519
0.0119549
0.0119549
0.0119519
0.0110147
0.011017
0.011017
0.0110147
0.0101989
0.0102002
0.0102002
0.0101989
0.00948421
0.00948343
0.00948343
0.00948421
0.00796085
0.00796121
0.00796121
0.00796085
0.00852664
0.00852864
0.00852864
0.00852664
0.00917738
0.00917984
0.00917984
0.00917738
0.00989322
0.00989601
0.00989601
0.00989322
0.0106515
0.0106534
0.0106534
0.0106515
0.0114269
0.0114286
0.0114286
0.0114269
0.012198
0.0121992
0.0121992
0.012198
0.0128918
0.0128923
0.0128923
0.0128918
0.0134205
0.0134209
0.0134209
0.0134205
0.0137401
0.0137418
0.0137418
0.0137401
0.0136189
0.0136181
0.0136181
0.0136189
0.0129651
0.0129641
0.0129641
0.0129651
0.0115158
0.0115169
0.0115169
0.0115158
0.00936103
0.00936481
0.00936481
0.00936103
0.00633081
0.0063209
0.0063209
0.00633081
0.00217013
0.00214812
0.00214812
0.00217013
-0.0024039
-0.00242007
-0.00242007
-0.0024039
-0.00497363
-0.0049631
-0.00496311
-0.00497363
-0.0065109
-0.00650393
-0.00650393
-0.0065109
-0.00699296
-0.00698617
-0.00698617
-0.00699296
-0.00662535
-0.00661606
-0.00661606
-0.00662535
-0.00599912
-0.00599415
-0.00599415
-0.00599912
-0.00533262
-0.00532818
-0.00532818
-0.00533262
-0.00472732
-0.00472306
-0.00472306
-0.00472732
-0.00413023
-0.00412278
-0.00412278
-0.00413023
-0.0038368
-0.00383385
-0.00383385
-0.0038368
-0.00371589
-0.00371429
-0.00371429
-0.00371589
-0.00370369
-0.00370405
-0.00370405
-0.00370369
-0.00366849
-0.00366738
-0.00366738
-0.00366849
-0.00369616
-0.00369514
-0.00369514
-0.00369616
-0.00377034
-0.00376821
-0.00376821
-0.00377034
-0.00392167
-0.00391991
-0.00391991
-0.00392167
-0.0041247
-0.0041223
-0.0041223
-0.0041247
-0.00439874
-0.00439664
-0.00439664
-0.00439874
-0.00473111
-0.00472907
-0.00472907
-0.00473111
-0.00511631
-0.00511467
-0.00511467
-0.00511631
-0.0055307
-0.00552963
-0.00552963
-0.0055307
-0.00593327
-0.00593326
-0.00593326
-0.00593327
-0.00625176
-0.00625205
-0.00625205
-0.00625176
-0.00644384
-0.00644532
-0.00644532
-0.00644384
-0.00636678
-0.00636776
-0.00636776
-0.00636678
-0.00597815
-0.00597806
-0.00597806
-0.00597815
-0.00616746
-0.00616828
-0.00616828
-0.00616746
-0.00600041
-0.00600032
-0.00600032
-0.00600041
-0.00552137
-0.00552123
-0.00552123
-0.00552137
-0.00489048
-0.00489071
-0.00489071
-0.00489048
-0.00427804
-0.00427839
-0.00427839
-0.00427804
-0.00380108
-0.00380178
-0.00380178
-0.00380108
-0.00348886
-0.00349038
-0.00349038
-0.00348886
-0.00333541
-0.00333707
-0.00333707
-0.00333541
-0.00333416
-0.00333581
-0.00333581
-0.00333416
-0.00348476
-0.00348621
-0.00348621
-0.00348476
-0.0037963
-0.00379706
-0.00379706
-0.0037963
-0.00427448
-0.00427491
-0.00427491
-0.00427448
-0.00489758
-0.00489804
-0.00489804
-0.00489758
-0.00555321
-0.00555393
-0.00555393
-0.00555321
-0.00603081
-0.00603227
-0.00603227
-0.00603081
-0.00617613
-0.00617771
-0.00617771
-0.00617613
-0.00596426
-0.00596522
-0.00596522
-0.00596426
-0.00648238
-0.00648436
-0.00648436
-0.00648238
-0.00664851
-0.00664998
-0.00664998
-0.00664851
-0.00653616
-0.00653671
-0.00653671
-0.00653616
-0.00625169
-0.00625168
-0.00625168
-0.00625169
-0.00586605
-0.00586502
-0.00586502
-0.00586605
-0.00544455
-0.00544278
-0.00544278
-0.00544455
-0.00504678
-0.00504457
-0.00504457
-0.00504678
-0.00469431
-0.00469176
-0.00469176
-0.00469431
-0.00440322
-0.00440115
-0.00440115
-0.00440322
-0.00415762
-0.004155
-0.004155
-0.00415762
-0.00399301
-0.00399095
-0.00399095
-0.00399301
-0.00388294
-0.00388117
-0.00388117
-0.00388294
-0.0038217
-0.00382019
-0.00382019
-0.0038217
-0.00381885
-0.00381801
-0.00381801
-0.00381885
-0.00385462
-0.00385202
-0.00385202
-0.00385462
-0.00398896
-0.00398764
-0.00398764
-0.00398896
-0.00416784
-0.00416229
-0.00416229
-0.00416784
-0.00458307
-0.00457678
-0.00457678
-0.00458307
-0.00523309
-0.00523076
-0.00523076
-0.00523309
-0.00586191
-0.00585728
-0.00585728
-0.00586191
-0.00649061
-0.00647579
-0.00647579
-0.00649061
-0.00714181
-0.0071238
-0.0071238
-0.00714181
-0.0068586
-0.00685352
-0.00685352
-0.0068586
-0.00496997
-0.00498541
-0.00498541
-0.00496997
-0.00151429
-0.00151178
-0.00151178
-0.00151429
0.00203655
0.00200612
0.00200612
0.00203655
0.00688729
0.00689743
0.00689743
0.00688729
0.00934024
0.00933278
0.00933278
0.00934024
0.0116968
0.0117126
0.0117126
0.0116968
0.0128635
0.0128658
0.0128658
0.0128635
0.0135806
0.0135809
0.0135809
0.0135806
0.0137477
0.013745
0.013745
0.0137477
0.0134576
0.0134566
0.0134566
0.0134576
0.0129084
0.0129111
0.0129111
0.0129084
0.0122119
0.0122124
0.0122124
0.0122119
0.0114758
0.0114766
0.0114766
0.0114758
0.0107022
0.0107023
0.0107023
0.0107022
0.0099425
0.00994562
0.00994562
0.0099425
0.00920708
0.00920986
0.00920986
0.00920708
0.00854462
0.00854645
0.00854645
0.00854462
0.0079673
0.00796635
0.00796635
0.0079673
0.00748387
0.00748161
0.00748161
0.00748387
0.00890316
0.00890029
0.00890029
0.00890316
0.0102188
0.0102154
0.0102154
0.0102188
0.0114062
0.0114026
0.0114026
0.0114062
0.0124324
0.0124288
0.0124288
0.0124324
0.0132797
0.0132765
0.0132765
0.0132797
0.0139284
0.0139259
0.0139259
0.0139284
0.014366
0.0143643
0.0143643
0.014366
0.0145844
0.0145834
0.0145834
0.0145844
0.0145799
0.0145792
0.0145792
0.0145799
0.014351
0.01435
0.01435
0.014351
0.013905
0.0139035
0.0139035
0.013905
0.0132529
0.0132508
0.0132508
0.0132529
0.0124008
0.0123989
0.0123989
0.0124008
0.0113694
0.0113678
0.0113678
0.0113694
0.0101932
0.0101915
0.0101915
0.0101932
0.00888193
0.00888032
0.00888032
0.00888193
0.0074754
0.00747427
0.00747427
0.0074754
-0.00536578
-0.00536562
-0.00536562
-0.00536578
-0.0059212
-0.00592255
-0.00592255
-0.0059212
-0.00616604
-0.00616854
-0.00616854
-0.00616604
-0.00615322
-0.00615453
-0.00615453
-0.00615322
-0.00599241
-0.00599458
-0.00599458
-0.00599241
-0.00570682
-0.00570869
-0.00570869
-0.00570682
-0.00537139
-0.00537396
-0.00537396
-0.00537139
-0.00501279
-0.00501509
-0.00501509
-0.00501279
-0.00468048
-0.00468279
-0.00468279
-0.00468048
-0.0043901
-0.00439217
-0.00439217
-0.0043901
-0.00415234
-0.00415384
-0.00415384
-0.00415234
-0.00397138
-0.00397254
-0.00397254
-0.00397138
-0.00383191
-0.00383276
-0.00383276
-0.00383191
-0.00370451
-0.00370461
-0.00370461
-0.00370451
-0.00361014
-0.00360943
-0.00360943
-0.00361014
-0.00358504
-0.00358087
-0.00358087
-0.00358504
-0.00374214
-0.00373996
-0.00373996
-0.00374214
-0.00396899
-0.00397131
-0.00397131
-0.00396899
-0.0041707
-0.00417469
-0.00417469
-0.0041707
-0.00438652