x,y,z,U_0,U_1,U_2
0,0,0,0.3,-0.00038442,0
0,0.1,0,0.3,-0.000230652,0
0,0.2,0,0.3,-7.6884e-05,0
0,0.3,0,0.3,0,0
0,0.4,0,0.3,0,0
0,0.5,0,0.3,0,0
0,0.6,0,0.3,0,0
0,0.7,0,0.3,0,0
0,0.8,0,0.3,0,0
0,0.9,0,0.3,0,0
0,1,0,0.3,0,0
0,1.1,0,0.3,0,0
0,1.2,0,0.3,0,0
0,1.3,0,0.3,0,0
0,1.4,0,0.3,0,0
0,1.5,0,0.3,0,0
0,1.6,0,0.3,0,0
0,1.7,0,0.3,0,0
0,1.8,0,0.3,0,0
0,1.9,0,0.3,0,0
0,2,0,0.3,0,0
0,2.1,0,0.3,0,0
0,2.2,0,0.3,0,0
0,2.3,0,0.3,0,0
0,2.4,0,0.3,0,0
0,2.5,0,0.3,0,0
0,2.6,0,0.3,0,0
0,2.7,0,0.3,0,0
0,2.8,0,0.3,0,0
0,2.9,0,0.3,0,0
0,3,0,0.3,0,0
0,3.1,0,0.3,0,0
0,3.2,0,0.3,0,0
0,3.3,0,0.3,0,0
0,3.4,0,0.3,0,0
0,3.5,0,0.3,2.38219e-19,0
0,3.6,0,0.3,0,0
0,3.7,0,0.3,0,0
0,3.8,0,0.3,0,0
0,3.9,0,0.3,0,0
0,4,0,0.3,1.96444e-19,0
0,4.1,0,0.3,0,0
0,4.2,0,0.3,0,0
0,4.3,0,0.3,0,0
0,4.4,0,0.3,0,0
0,4.5,0,0.3,0,0
0,4.6,0,0.3,0,0
0,4.7,0,0.3,0,0
0,4.8,0,0.3,0,0
0,4.9,0,0.3,0,0
0,5,0,0.3,0,0
0,5.1,0,0.3,8.23798e-20,0
0,5.2,0,0.3,0,0
0,5.3,0,0.3,5.97012e-20,0
0,5.4,0,0.3,4.82966e-20,0
0,5.5,0,0.3,0,0
0,5.6,0,0.3,2.54527e-20,0
0,5.7,0,0.3,1.40607e-20,0
0,5.8,0,0.3,2.71078e-21,0
0,5.9,0,0.3,-8.57752e-21,0
0,6,0,0.3,0,0
0,6.1,0,0.3,0,0
0,6.2,0,0.3,0,0
0,6.3,0,0.3,0,0
0,6.4,0,0.3,0,0
0,6.5,0,0.3,0,0
0,6.6,0,0.3,0,0
0,6.7,0,0.3,0,0
0,6.8,0,0.3,0,0
0,6.9,0,0.3,0,0
0,7,0,0.3,0,0
0,7.1,0,0.3,0,0
0,7.2,0,0.3,0,0
0,7.3,0,0.3,0,0
0,7.4,0,0.3,0,0
0,7.5,0,0.3,0,0
0,7.6,0,0.3,0,0
0,7.7,0,0.3,0,0
0,7.8,0,0.3,0,0
0,7.9,0,0.3,0,0
0,8,0,0.3,0,0
0,8.1,0,0.3,0,0
0,8.2,0,0.3,0,0
0,8.3,0,0.3,0,0
0,8.4,0,0.3,0,0
0,8.5,0,0.3,0,0
0,8.6,0,0.3,0,0
0,8.7,0,0.3,0,0
0,8.8,0,0.3,0,0
0,8.9,0,0.3,0,0
0,9,0,0.3,0,0
0,9.1,0,0.3,0,0
0,9.2,0,0.3,0,0
0,9.3,0,0.3,0,0
0,9.4,0,0.3,0,0
0,9.5,0,0.3,0,0
0,9.6,0,0.3,0,0
0,9.7,0,0.3,0,0
0,9.8,0,0.3,0,0
0,9.9,0,0.3,0,0
0,10,0,0.3,0,0
0,10.1,0,0.3,0,0
0,10.2,0,0.3,0,0
0,10.3,0,0.3,0,0
0,10.4,0,0.3,0,0
0,10.5,0,0.3,0,0
0,10.6,0,0.3,0,0
0,10.7,0,0.3,0,0
0,10.8,0,0.3,0,0
0,10.9,0,0.3,0,0
0,11,0,0.3,0,0
0,11.1,0,0.3,0,0
0,11.2,0,0.3,0,0
0,11.3,0,0.3,0,0
0,11.4,0,0.3,0,0
0,11.5,0,0.3,0,0
0,11.6,0,0.3,0,0
0,11.7,0,0.3,0,0
0,11.8,0,0.3,0,0
0,11.9,0,0.3,0,0
0,12,0,0.3,0,0
0,12.1,0,0.3,0,0
0,12.2,0,0.3,0,0
0,12.3,0,0.3,0,0
0,12.4,0,0.3,3.0263e-05,0
0,12.5,0,0.3,0.000116729,0
0,12.6,0,0.3,0.000203195,0
0,12.7,0,0.3,0.000289661,0
0.1,0,0,0.3,-0.000720465,0
0.1,0.1,0,0.3,-0.000566272,0
0.1,0.2,0,0.3,-0.00044543,0
0.1,0.3,0,0.3,-0.000444721,0
0.1,0.4,0,0.3,-0.000444441,0
0.1,0.5,0,0.299999,-0.000443855,0
0.1,0.6,0,0.299999,-0.000442378,0
0.1,0.7,0,0.299999,-0.000442049,0
0.1,0.8,0,0.299999,-0.000439826,0
0.1,0.9,0,0.299999,-0.000439201,0
0.1,1,0,0.299997,-0.000437582,0
0.1,1.1,0,0.299999,-0.000434825,0
0.1,1.2,0,0.299998,-0.000434171,0
0.1,1.3,0,0.299998,-0.000430177,0
0.1,1.4,0,0.299999,-0.000429118,0
0.1,1.5,0,0.299995,-0.00042634,0
0.1,1.6,0,0.299999,-0.000421924,0
0.1,1.7,0,0.299997,-0.000420897,0
0.1,1.8,0,0.299997,-0.000414702,0
0.1,1.9,0,0.299999,-0.000413074,0
0.1,2,0,0.299992,-0.000408952,0
0.1,2.1,0,0.299998,-0.000402395,0
0.1,2.2,0,0.299996,-0.000400933,0
0.1,2.3,0,0.299996,-0.000392062,0
0.1,2.4,0,0.299998,-0.000389722,0
0.1,2.5,0,0.299989,-0.000384028,0
0.1,2.6,0,0.299998,-0.000374911,0
0.1,2.7,0,0.299995,-0.00037293,0
0.1,2.8,0,0.299995,-0.000360991,0
0.1,2.9,0,0.299998,-0.000357855,0
0.1,3,0,0.299986,-0.000350214,0
0.1,3.1,0,0.299998,-0.000338486,0
0.1,3.2,0,0.299994,-0.000335832,0
0.1,3.3,0,0.299994,-0.000320633,0
0.1,3.4,0,0.299998,-0.000316772,0
0.1,3.5,0,0.299982,-0.000306527,0
0.1,3.6,0,0.299998,-0.000292719,0
0.1,3.7,0,0.299993,-0.000289167,0
0.1,3.8,0,0.299994,-0.000270718,0
0.1,3.9,0,0.299999,-0.000266365,0
0.1,4,0,0.299978,-0.000252773,0
0.1,4.1,0,0.300001,-0.000237788,0
0.1,4.2,0,0.299993,-0.000233163,0
0.1,4.3,0,0.299994,-0.000211714,0
0.1,4.4,0,0.300002,-0.000207146,0
0.1,4.5,0,0.299975,-0.000189909,0
0.1,4.6,0,0.300003,-0.000174813,0
0.1,4.7,0,0.299994,-0.000169096,0
0.1,4.8,0,0.299995,-0.000145699,0
0.1,4.9,0,0.300005,-0.000141389,0
0.1,5,0,0.299972,-0.000125643,0
0.1,5.1,0,0.299972,-0.000106002,0
0.1,5.2,0,0.299972,-9.14467e-05,0
0.1,5.3,0,0.299972,-7.68201e-05,0
0.1,5.4,0,0.299972,-6.21453e-05,0
0.1,5.5,0,0.299972,-4.74453e-05,0
0.1,5.6,0,0.299972,-3.2751e-05,0
0.1,5.7,0,0.299972,-1.80925e-05,0
0.1,5.8,0,0.299972,-3.48808e-06,0
0.1,5.9,0,0.299972,1.10371e-05,0
0.1,6,0,0.299973,3.3382e-05,0
0.1,6.1,0,0.300004,5.22234e-05,0
0.1,6.2,0,0.300004,5.22234e-05,0
0.1,6.3,0,0.299985,6.47788e-05,0
0.1,6.4,0,0.299993,8.79367e-05,0
0.1,6.5,0,0.300002,9.54594e-05,0
0.1,6.6,0,0.299995,0.000101005,0
0.1,6.7,0,0.299983,0.000122504,0
0.1,6.8,0,0.3,0.000136527,0
0.1,6.9,0,0.3,0.000136527,0
0.1,7,0,0.299979,0.00015545,0
0.1,7.1,0,0.299999,0.000173856,0
0.1,7.2,0,0.299999,0.000173986,0
0.1,7.3,0,0.299988,0.000184787,0
0.1,7.4,0,0.299992,0.000201825,0
0.1,7.5,0,0.299998,0.000207351,0
0.1,7.6,0,0.299995,0.000210939,0
0.1,7.7,0,0.299987,0.000227171,0
0.1,7.8,0,0.299998,0.000236342,0
0.1,7.9,0,0.299998,0.000236342,0
0.1,8,0,0.299988,0.000249081,0
0.1,8.1,0,0.299998,0.000260238,0
0.1,8.2,0,0.299998,0.000260852,0
0.1,8.3,0,0.299993,0.00026707,0
0.1,8.4,0,0.299994,0.0002774,0
0.1,8.5,0,0.299998,0.000280962,0
0.1,8.6,0,0.299997,0.000282491,0
0.1,8.7,0,0.299993,0.000291668,0
0.1,8.8,0,0.299999,0.000296931,0
0.1,8.9,0,0.299999,0.000296931,0
0.1,9,0,0.299994,0.00030293,0
0.1,9.1,0,0.299998,0.000308593,0
0.1,9.2,0,0.299999,0.000309166,0
0.1,9.3,0,0.299997,0.000311652,0
0.1,9.4,0,0.299997,0.00031635,0
0.1,9.5,0,0.299999,0.00031816,0
0.1,9.6,0,0.299999,0.000318565,0
0.1,9.7,0,0.299997,0.000322194,0
0.1,9.8,0,0.299999,0.00032445,0
0.1,9.9,0,0.299999,0.00032445,0
0.1,10,0,0.299998,0.000326296,0
0.1,10.1,0,0.3,0.000328274,0
0.1,10.2,0,0.3,0.000328566,0
0.1,10.3,0,0.3,0.000329136,0
0.1,10.4,0,0.299999,0.000330427,0
0.1,10.5,0,0.3,0.000331014,0
0.1,10.6,0,0.3,0.00033105,0
0.1,10.7,0,0.3,0.000331682,0
0.1,10.8,0,0.3,0.000332246,0
0.1,10.9,0,0.3,0.000332246,0
0.1,11,0,0.3,0.000332309,0
0.1,11.1,0,0.3,0.000332589,0
0.1,11.2,0,0.3,0.000332659,0
0.1,11.3,0,0.3,0.000332569,0
0.1,11.4,0,0.3,0.000332487,0
0.1,11.5,0,0.3,0.000332586,0
0.1,11.6,0,0.3,0.000332583,0
0.1,11.7,0,0.3,0.000332175,0
0.1,11.8,0,0.3,0.000332295,0
0.1,11.9,0,0.3,0.000332295,0
0.1,12,0,0.3,0.00033197,0
0.1,12.1,0,0.3,0.000331943,0
0.1,12.2,0,0.3,0.000331988,0
0.1,12.3,0,0.3,0.000331846,0
0.1,12.4,0,0.3,0.000331641,0
0.1,12.5,0,0.3,0.000365772,0
0.1,12.6,0,0.3,0.000452238,0
0.1,12.7,0,0.3,0.000538346,0
0.2,0,0,0.299999,-0.00105651,0
0.2,0.1,0,0.3,-0.000902147,0
0.2,0.2,0,0.299999,-0.000890804,0
0.2,0.3,0,0.299999,-0.000890095,0
0.2,0.4,0,0.299999,-0.00088853,0
0.2,0.5,0,0.299997,-0.000887709,0
0.2,0.6,0,0.299998,-0.000885642,0
0.2,0.7,0,0.299997,-0.000883331,0
0.2,0.8,0,0.299997,-0.000881108,0
0.2,0.9,0,0.299997,-0.000877431,0
0.2,1,0,0.299994,-0.000875164,0
0.2,1.1,0,0.299997,-0.000871303,0
0.2,1.2,0,0.299994,-0.000866818,0
0.2,1.3,0,0.299994,-0.000862824,0
0.2,1.4,0,0.299996,-0.000856569,0
0.2,1.5,0,0.29999,-0.000852679,0
0.2,1.6,0,0.299995,-0.000846497,0
0.2,1.7,0,0.299991,-0.000839396,0
0.2,1.8,0,0.299991,-0.000833201,0
0.2,1.9,0,0.299994,-0.000823675,0
0.2,2,0,0.299985,-0.000817904,0
0.2,2.1,0,0.299993,-0.000808724,0
0.2,2.2,0,0.299987,-0.000798454,0
0.2,2.3,0,0.299987,-0.000789582,0
0.2,2.4,0,0.299991,-0.000776027,0
0.2,2.5,0,0.299978,-0.000768055,0
0.2,2.6,0,0.29999,-0.000755293,0
0.2,2.7,0,0.299982,-0.000741237,0
0.2,2.8,0,0.299982,-0.000729297,0
0.2,2.9,0,0.299988,-0.000711126,0
0.2,3,0,0.299971,-0.000700428,0
0.2,3.1,0,0.299988,-0.000684008,0
0.2,3.2,0,0.299977,-0.000665473,0
0.2,3.3,0,0.299977,-0.000650273,0
0.2,3.4,0,0.299986,-0.000627397,0
0.2,3.5,0,0.299964,-0.000613054,0
0.2,3.6,0,0.299987,-0.000593723,0
0.2,3.7,0,0.299973,-0.000570045,0
0.2,3.8,0,0.299974,-0.000551596,0
0.2,3.9,0,0.299986,-0.000524574,0
0.2,4,0,0.299956,-0.000505547,0
0.2,4.1,0,0.299988,-0.000484567,0
0.2,4.2,0,0.299969,-0.000455535,0
0.2,4.3,0,0.29997,-0.000434085,0
0.2,4.4,0,0.299987,-0.000403949,0
0.2,4.5,0,0.299949,-0.000379818,0
0.2,4.6,0,0.29999,-0.000358684,0
0.2,4.7,0,0.299968,-0.00032485,0
0.2,4.8,0,0.299968,-0.000301454,0
0.2,4.9,0,0.29999,-0.000273331,0
0.2,5,0,0.299945,-0.000251286,0
0.2,5.1,0,0.299944,-0.000212003,0
0.2,5.2,0,0.299944,-0.000182893,0
0.2,5.3,0,0.299944,-0.00015364,0
0.2,5.4,0,0.299944,-0.000124291,0
0.2,5.5,0,0.299944,-9.48906e-05,0
0.2,5.6,0,0.299944,-6.55021e-05,0
0.2,5.7,0,0.299944,-3.61851e-05,0
0.2,5.8,0,0.299944,-6.97616e-06,0
0.2,5.9,0,0.299944,2.20741e-05,0
0.2,6,0,0.299945,6.6764e-05,0
0.2,6.1,0,0.299978,8.6449e-05,0
0.2,6.2,0,0.29999,0.000116116,0
0.2,6.3,0,0.299959,0.000136795,0
0.2,6.4,0,0.299967,0.000159953,0
0.2,6.5,0,0.299991,0.000189067,0
0.2,6.6,0,0.299971,0.000217108,0
0.2,6.7,0,0.299959,0.000238607,0
0.2,6.8,0,0.299985,0.000259946,0
0.2,6.9,0,0.29998,0.000291083,0
0.2,7,0,0.299958,0.000311942,0
0.2,7.1,0,0.299977,0.000330348,0
0.2,7.2,0,0.299988,0.000357943,0
0.2,7.3,0,0.299969,0.000377329,0
0.2,7.4,0,0.299973,0.000394367,0
0.2,7.5,0,0.299988,0.000412685,0
0.2,7.6,0,0.299979,0.000434868,0
0.2,7.7,0,0.299971,0.0004511,0
0.2,7.8,0,0.299986,0.000464068,0
0.2,7.9,0,0.299986,0.000484786,0
0.2,8,0,0.299974,0.000499649,0
0.2,8.1,0,0.299984,0.000510806,0
0.2,8.2,0,0.299992,0.000527243,0
0.2,8.3,0,0.299982,0.000539657,0
0.2,8.4,0,0.299983,0.000549987,0
0.2,8.5,0,0.299992,0.000559849,0
0.2,8.6,0,0.299988,0.000572769,0
0.2,8.7,0,0.299984,0.000581946,0
0.2,8.8,0,0.299992,0.000588898,0
0.2,8.9,0,0.299993,0.000599543,0
0.2,9,0,0.299988,0.000606975,0
0.2,9.1,0,0.299992,0.000612638,0
0.2,9.2,0,0.299996,0.00062024,0
0.2,9.3,0,0.299992,0.000626022,0
0.2,9.4,0,0.299993,0.000630721,0
0.2,9.5,0,0.299997,0.000634923,0
0.2,9.6,0,0.299996,0.000640339,0
0.2,9.7,0,0.299994,0.000643969,0
0.2,9.8,0,0.299997,0.000646763,0
0.2,9.9,0,0.299998,0.000650641,0
0.2,10,0,0.299996,0.000653079,0
0.2,10.1,0,0.299998,0.000655057,0
0.2,10.2,0,0.299999,0.00065743,0
0.2,10.3,0,0.299998,0.000659043,0
0.2,10.4,0,0.299998,0.000660334,0
0.2,10.5,0,0.299999,0.000661499,0
0.2,10.6,0,0.299999,0.000662666,0
0.2,10.7,0,0.299999,0.000663298,0
0.2,10.8,0,0.3,0.000663956,0
0.2,10.9,0,0.3,0.000664552,0
0.2,11,0,0.3,0.000664641,0
0.2,11.1,0,0.3,0.00066492,0
0.2,11.2,0,0.3,0.000665183,0
0.2,11.3,0,0.3,0.000664985,0
0.2,11.4,0,0.3,0.000664904,0
0.2,11.5,0,0.3,0.000665081,0
0.2,11.6,0,0.3,0.000664751,0
0.2,11.7,0,0.300001,0.000664343,0
0.2,11.8,0,0.3,0.000664475,0
0.2,11.9,0,0.3,0.000664286,0
0.2,12,0,0.3,0.000663791,0
0.2,12.1,0,0.3,0.000663764,0
0.2,12.2,0,0.3,0.000663817,0
0.2,12.3,0,0.3,0.000663393,0
0.2,12.4,0,0.3,0.000663187,0
0.2,12.5,0,0.3,0.000663456,0
0.2,12.6,0,0.3,0.000700939,0
0.2,12.7,0,0.3,0.000787031,0
0.3,0,0,0.299999,-0.00139255,0
0.3,0.1,0,0.299999,-0.00133697,0
0.3,0.2,0,0.299998,-0.00133626,0
0.3,0.3,0,0.299998,-0.00133535,0
0.3,0.4,0,0.299997,-0.00133322,0
0.3,0.5,0,0.299995,-0.00133156,0
0.3,0.6,0,0.299995,-0.00132851,0
0.3,0.7,0,0.299994,-0.00132491,0
0.3,0.8,0,0.299994,-0.00132207,0
0.3,0.9,0,0.299993,-0.00131689,0
0.3,1,0,0.299991,-0.00131275,0
0.3,1.1,0,0.299991,-0.00130693,0
0.3,1.2,0,0.29999,-0.00130002,0
0.3,1.3,0,0.299989,-0.00129492,0
0.3,1.4,0,0.299988,-0.00128608,0
0.3,1.5,0,0.299984,-0.00127902,0
0.3,1.6,0,0.299985,-0.00126975,0
0.3,1.7,0,0.299984,-0.00125878,0
0.3,1.8,0,0.299983,-0.00125088,0
0.3,1.9,0,0.299981,-0.00123751,0
0.3,2,0,0.299977,-0.00122686,0
0.3,2.1,0,0.299979,-0.00121329,0
0.3,2.2,0,0.299976,-0.00119729,0
0.3,2.3,0,0.299976,-0.00118596,0
0.3,2.4,0,0.299973,-0.00116707,0
0.3,2.5,0,0.299967,-0.00115208,0
0.3,2.6,0,0.29997,-0.00113338,0
0.3,2.7,0,0.299968,-0.00111137,0
0.3,2.8,0,0.299967,-0.00109608,0
0.3,2.9,0,0.299965,-0.00107075,0
0.3,3,0,0.299957,-0.00105064,0
0.3,3.1,0,0.299961,-0.00102626,0
0.3,3.2,0,0.299959,-0.000997459,0
0.3,3.3,0,0.299958,-0.000977865,0
0.3,3.4,0,0.299955,-0.000945506,0
0.3,3.5,0,0.299946,-0.000919581,0
0.3,3.6,0,0.299952,-0.000889593,0
0.3,3.7,0,0.299949,-0.000853684,0
0.3,3.8,0,0.299949,-0.000829756,0
0.3,3.9,0,0.299946,-0.00079041,0
0.3,4,0,0.299934,-0.00075832,0
0.3,4.1,0,0.299944,-0.000723466,0
0.3,4.2,0,0.299941,-0.000680904,0
0.3,4.3,0,0.299941,-0.00065301,0
0.3,4.4,0,0.299939,-0.000607562,0
0.3,4.5,0,0.299924,-0.000569727,0
0.3,4.6,0,0.299937,-0.00053144,0
0.3,4.7,0,0.299935,-0.000483624,0
0.3,4.8,0,0.299935,-0.000454059,0
0.3,4.9,0,0.299934,-0.000411903,0
0.3,5,0,0.299917,-0.000376929,0
0.3,5.1,0,0.299916,-0.000318005,0
0.3,5.2,0,0.299916,-0.00027434,0
0.3,5.3,0,0.299916,-0.00023046,0
0.3,5.4,0,0.299915,-0.000186436,0
0.3,5.5,0,0.299915,-0.000142336,0
0.3,5.6,0,0.299915,-9.82531e-05,0
0.3,5.7,0,0.299916,-5.42776e-05,0
0.3,5.8,0,0.299916,-1.04642e-05,0
0.3,5.9,0,0.299916,3.31112e-05,0
0.3,6,0,0.299918,0.000100146,0
0.3,6.1,0,0.299934,0.000130614,0
0.3,6.2,0,0.299935,0.000170978,0
0.3,6.3,0,0.299932,0.000208812,0
0.3,6.4,0,0.299936,0.000235667,0
0.3,6.5,0,0.299938,0.000281727,0
0.3,6.6,0,0.29994,0.000327787,0
0.3,6.7,0,0.299935,0.000354709,0
0.3,6.8,0,0.299942,0.000393183,0
0.3,6.9,0,0.299944,0.000435382,0
0.3,7,0,0.299936,0.000468435,0
0.3,7.1,0,0.299946,0.00049598,0
0.3,7.2,0,0.299949,0.000533643,0
0.3,7.3,0,0.29995,0.000569871,0
0.3,7.4,0,0.299952,0.000589012,0
0.3,7.5,0,0.299955,0.000621804,0
0.3,7.6,0,0.299958,0.000654597,0
0.3,7.7,0,0.299955,0.000675029,0
0.3,7.8,0,0.29996,0.000699463,0
0.3,7.9,0,0.299963,0.000727295,0
0.3,8,0,0.29996,0.000750217,0
0.3,8.1,0,0.299966,0.000766541,0
0.3,8.2,0,0.299969,0.000789546,0
0.3,8.3,0,0.299971,0.000812245,0
0.3,8.4,0,0.299972,0.00082327,0
0.3,8.5,0,0.299974,0.000841752,0
0.3,8.6,0,0.299977,0.000860235,0
0.3,8.7,0,0.299975,0.000872224,0
0.3,8.8,0,0.299979,0.000884537,0
0.3,8.9,0,0.299981,0.000898921,0
0.3,9,0,0.299981,0.00091102,0
0.3,9.1,0,0.299984,0.000918702,0
0.3,9.2,0,0.299985,0.00092949,0
0.3,9.3,0,0.299987,0.000940278,0
0.3,9.4,0,0.299988,0.000945173,0
0.3,9.5,0,0.299989,0.000952908,0
0.3,9.6,0,0.299991,0.000960644,0
0.3,9.7,0,0.29999,0.000965744,0
0.3,9.8,0,0.299992,0.000970175,0
0.3,9.9,0,0.299993,0.000975408,0
0.3,10,0,0.299994,0.000979863,0
0.3,10.1,0,0.299995,0.000982291,0
0.3,10.2,0,0.299996,0.000985554,0
0.3,10.3,0,0.299997,0.000988817,0
0.3,10.4,0,0.299997,0.000990241,0
0.3,10.5,0,0.299998,0.000992009,0
0.3,10.6,0,0.299998,0.000993794,0
0.3,10.7,0,0.299999,0.000994914,0
0.3,10.8,0,0.299999,0.000995628,0
0.3,10.9,0,0.299999,0.000996376,0
0.3,11,0,0.3,0.000996973,0
0.3,11.1,0,0.3,0.000997183,0
0.3,11.2,0,0.3,0.000997272,0
0.3,11.3,0,0.3,0.00099736,0
0.3,11.4,0,0.3,0.00099732,0
0.3,11.5,0,0.3,0.000997095,0
0.3,11.6,0,0.300001,0.000996836,0
0.3,11.7,0,0.300001,0.000996511,0
0.3,11.8,0,0.300001,0.00099636,0
0.3,11.9,0,0.300001,0.000995998,0
0.3,12,0,0.300001,0.000995612,0
0.3,12.1,0,0.300001,0.000995483,0
0.3,12.2,0,0.3,0.000995197,0
0.3,12.3,0,0.3,0.00099491,0
0.3,12.4,0,0.3,0.000994734,0
0.3,12.5,0,0.3,0.000994676,0
0.3,12.6,0,0.3,0.00099457,0
0.3,12.7,0,0.3,0.00103572,0
0.4,0,0,0.299998,-0.0017844,0
0.4,0.1,0,0.299998,-0.00178327,0
0.4,0.2,0,0.299997,-0.00178257,0
0.4,0.3,0,0.299996,-0.00178065,0
0.4,0.4,0,0.299995,-0.00177852,0
0.4,0.5,0,0.299993,-0.00177631,0
0.4,0.6,0,0.299992,-0.00177181,0
0.4,0.7,0,0.299991,-0.00176821,0
0.4,0.8,0,0.299989,-0.00176231,0
0.4,0.9,0,0.299988,-0.00175713,0
0.4,1,0,0.299985,-0.00175136,0
0.4,1.1,0,0.299984,-0.00174298,0
0.4,1.2,0,0.299983,-0.00173607,0
0.4,1.3,0,0.299981,-0.00172551,0
0.4,1.4,0,0.299979,-0.00171668,0
0.4,1.5,0,0.299975,-0.0017066,0
0.4,1.6,0,0.299975,-0.00169348,0
0.4,1.7,0,0.299973,-0.0016825,0
0.4,1.8,0,0.29997,-0.00166615,0
0.4,1.9,0,0.299968,-0.00165278,0
0.4,2,0,0.299962,-0.00163726,0
0.4,2.1,0,0.299963,-0.00161836,0
0.4,2.2,0,0.299961,-0.00160235,0
0.4,2.3,0,0.299957,-0.00157887,0
0.4,2.4,0,0.299955,-0.00155998,0
0.4,2.5,0,0.299947,-0.00153769,0
0.4,2.6,0,0.299949,-0.00151195,0
0.4,2.7,0,0.299947,-0.00148994,0
0.4,2.8,0,0.299943,-0.00145796,0
0.4,2.9,0,0.29994,-0.00143263,0
0.4,3,0,0.29993,-0.00140246,0
0.4,3.1,0,0.299933,-0.00136889,0
0.4,3.2,0,0.299931,-0.00134009,0
0.4,3.3,0,0.299926,-0.00129854,0
0.4,3.4,0,0.299923,-0.00126618,0
0.4,3.5,0,0.299911,-0.00122765,0
0.4,3.6,0,0.299915,-0.00118554,0
0.4,3.7,0,0.299913,-0.00114963,0
0.4,3.8,0,0.299908,-0.00109824,0
0.4,3.9,0,0.299905,-0.00105889,0
0.4,4,0,0.299893,-0.00101255,0
0.4,4.1,0,0.299897,-0.000961923,0
0.4,4.2,0,0.299894,-0.000919361,0
0.4,4.3,0,0.29989,-0.000859105,0
0.4,4.4,0,0.299888,-0.000813657,0
0.4,4.5,0,0.299877,-0.000760943,0
0.4,4.6,0,0.299881,-0.000703021,0
0.4,4.7,0,0.299879,-0.000655205,0
0.4,4.8,0,0.299876,-0.000589295,0
0.4,4.9,0,0.299875,-0.000547138,0
0.4,5,0,0.299868,-0.00050354,0
0.4,5.1,0,0.299866,-0.000424709,0
0.4,5.2,0,0.299865,-0.000366261,0
0.4,5.3,0,0.299865,-0.000307505,0
0.4,5.4,0,0.299864,-0.00024855,0
0.4,5.5,0,0.299864,-0.000189495,0
0.4,5.6,0,0.299864,-0.000130465,0
0.4,5.7,0,0.299865,-7.15804e-05,0
0.4,5.8,0,0.299865,-1.29241e-05,0
0.4,5.9,0,0.299866,4.53857e-05,0
0.4,6,0,0.299868,0.000135054,0
0.4,6.1,0,0.299876,0.000176703,0
0.4,6.2,0,0.299877,0.000217068,0
0.4,6.3,0,0.299877,0.000262337,0
0.4,6.4,0,0.299883,0.000329962,0
0.4,6.5,0,0.299885,0.000376022,0
0.4,6.6,0,0.299887,0.000422081,0
0.4,6.7,0,0.29989,0.000485291,0
0.4,6.8,0,0.299896,0.000531313,0
0.4,6.9,0,0.299898,0.000573511,0
0.4,7,0,0.299895,0.000624678,0
0.4,7.1,0,0.299907,0.000673308,0
0.4,7.2,0,0.29991,0.000710971,0
0.4,7.3,0,0.299911,0.000750014,0
0.4,7.4,0,0.299919,0.000800513,0
0.4,7.5,0,0.299921,0.000833306,0
0.4,7.6,0,0.299924,0.000866098,0
0.4,7.7,0,0.299926,0.000908569,0
0.4,7.8,0,0.299933,0.000939984,0
0.4,7.9,0,0.299935,0.000967815,0
0.4,8,0,0.299935,0.00100024,0
0.4,8.1,0,0.299944,0.0010311,0
0.4,8.2,0,0.299946,0.0010541,0
0.4,8.3,0,0.299949,0.00107739,0
0.4,8.4,0,0.299954,0.00110725,0
0.4,8.5,0,0.299956,0.00112573,0
0.4,8.6,0,0.299959,0.00114421,0
0.4,8.7,0,0.29996,0.00116725,0
0.4,8.8,0,0.299965,0.00118378,0
0.4,8.9,0,0.299967,0.00119816,0
0.4,9,0,0.299968,0.0012146,0
0.4,9.1,0,0.299973,0.00122955,0
0.4,9.2,0,0.299975,0.00124033,0
0.4,9.3,0,0.299977,0.00125112,0
0.4,9.4,0,0.29998,0.00126449,0
0.4,9.5,0,0.299982,0.00127222,0
0.4,9.6,0,0.299983,0.00127996,0
0.4,9.7,0,0.299985,0.00128926,0
0.4,9.8,0,0.299987,0.00129535,0
0.4,9.9,0,0.299989,0.00130058,0
0.4,10,0,0.29999,0.00130639,0
0.4,10.1,0,0.299992,0.00131123,0
0.4,10.2,0,0.299993,0.0013145,0
0.4,10.3,0,0.299994,0.00131776,0
0.4,10.4,0,0.299996,0.0013213,0
0.4,10.5,0,0.299996,0.00132311,0
0.4,10.6,0,0.299997,0.0013249,0
0.4,10.7,0,0.299998,0.00132681,0
0.4,10.8,0,0.299998,0.00132773,0
0.4,10.9,0,0.299999,0.00132848,0
0.4,11,0,0.299999,0.0013292,0
0.4,11.1,0,0.3,0.0013295,0
0.4,11.2,0,0.3,0.00132959,0
0.4,11.3,0,0.3,0.00132968,0
0.4,11.4,0,0.300001,0.00132945,0
0.4,11.5,0,0.300001,0.00132919,0
0.4,11.6,0,0.300001,0.00132893,0
0.4,11.7,0,0.300001,0.0013284,0
0.4,11.8,0,0.300001,0.00132805,0
0.4,11.9,0,0.300001,0.00132769,0
0.4,12,0,0.300001,0.00132722,0
0.4,12.1,0,0.300001,0.00132679,0
0.4,12.2,0,0.300001,0.00132651,0
0.4,12.3,0,0.300001,0.00132622,0
0.4,12.4,0,0.300001,0.00132584,0
0.4,12.5,0,0.300001,0.00132576,0
0.4,12.6,0,0.300001,0.00132566,0
0.4,12.7,0,0.300001,0.00132536,0
0.5,0,0,0.299997,-0.00223205,0
0.5,0.1,0,0.299997,-0.00223017,0
0.5,0.2,0,0.299996,-0.00222964,0
0.5,0.3,0,0.299994,-0.00222752,0
0.5,0.4,0,0.299993,-0.00222431,0
0.5,0.5,0,0.299989,-0.00222196,0
0.5,0.6,0,0.299988,-0.00221584,0
0.5,0.7,0,0.299985,-0.00221153,0
0.5,0.8,0,0.299983,-0.00220503,0
0.5,0.9,0,0.299983,-0.00219785,0
0.5,1,0,0.299976,-0.00219101,0
0.5,1.1,0,0.299978,-0.00217998,0
0.5,1.2,0,0.299973,-0.00217134,0
0.5,1.3,0,0.29997,-0.0021597,0
0.5,1.4,0,0.29997,-0.00214774,0
0.5,1.5,0,0.29996,-0.00213542,0
0.5,1.6,0,0.299964,-0.00211844,0
0.5,1.7,0,0.299957,-0.00210437,0
0.5,1.8,0,0.299954,-0.00208634,0
0.5,1.9,0,0.299955,-0.00206852,0
0.5,2,0,0.299941,-0.00204911,0
0.5,2.1,0,0.299948,-0.00202499,0
0.5,2.2,0,0.299938,-0.00200402,0
0.5,2.3,0,0.299933,-0.00197812,0
0.5,2.4,0,0.299936,-0.00195327,0
0.5,2.5,0,0.299917,-0.00192488,0
0.5,2.6,0,0.299927,-0.00189243,0
0.5,2.7,0,0.299914,-0.0018631,0
0.5,2.8,0,0.29991,-0.00182779,0
0.5,2.9,0,0.299914,-0.00179476,0
0.5,3,0,0.29989,-0.00175587,0
0.5,3.1,0,0.299904,-0.00171374,0
0.5,3.2,0,0.299889,-0.00167511,0
0.5,3.3,0,0.299884,-0.00162917,0
0.5,3.4,0,0.299889,-0.0015869,0
0.5,3.5,0,0.299861,-0.00153726,0
0.5,3.6,0,0.299877,-0.00148398,0
0.5,3.7,0,0.299861,-0.00143617,0
0.5,3.8,0,0.299855,-0.00137928,0
0.5,3.9,0,0.299862,-0.00132717,0
0.5,4,0,0.299833,-0.00126823,0
0.5,4.1,0,0.299849,-0.00120309,0
0.5,4.2,0,0.299834,-0.00114739,0
0.5,4.3,0,0.299828,-0.00108063,0
0.5,4.4,0,0.299835,-0.00101926,0
0.5,4.5,0,0.29981,-0.000953466,0
0.5,4.6,0,0.299824,-0.000877353,0
0.5,4.7,0,0.299812,-0.000816188,0
0.5,4.8,0,0.299808,-0.000741908,0
0.5,4.9,0,0.299814,-0.000677313,0
0.5,5,0,0.299796,-0.000631119,0
0.5,5.1,0,0.299793,-0.000532116,0
0.5,5.2,0,0.299792,-0.000458656,0
0.5,5.3,0,0.299791,-0.000384774,0
0.5,5.4,0,0.29979,-0.000310634,0
0.5,5.5,0,0.29979,-0.000236369,0
0.5,5.6,0,0.299791,-0.000162137,0
0.5,5.7,0,0.299791,-8.80935e-05,0
0.5,5.8,0,0.299792,-1.43556e-05,0
0.5,5.9,0,0.299794,5.88976e-05,0
0.5,6,0,0.299797,0.000171489,0
0.5,6.1,0,0.299811,0.000214537,0
0.5,6.2,0,0.299817,0.000259342,0
0.5,6.3,0,0.299808,0.000337856,0
0.5,6.4,0,0.299817,0.000409136,0
0.5,6.5,0,0.299832,0.00047195,0
0.5,6.6,0,0.299826,0.000536282,0
0.5,6.7,0,0.299825,0.000604992,0
0.5,6.8,0,0.299847,0.000668598,0
0.5,6.9,0,0.299847,0.000721774,0
0.5,7,0,0.299837,0.000784898,0
0.5,7.1,0,0.299857,0.000843077,0
0.5,7.2,0,0.299869,0.000891205,0
0.5,7.3,0,0.299859,0.000946422,0
0.5,7.4,0,0.299869,0.000999139,0
0.5,7.5,0,0.299888,0.00104719,0
0.5,7.6,0,0.299883,0.00109001,0
0.5,7.7,0,0.299881,0.00113645,0
0.5,7.8,0,0.299901,0.00117996,0
0.5,7.9,0,0.299904,0.00121478,0
0.5,8,0,0.299897,0.00125474,0
0.5,8.1,0,0.299913,0.00129102,0
0.5,8.2,0,0.299924,0.00132091,0
0.5,8.3,0,0.299919,0.00135375,0
0.5,8.4,0,0.299924,0.00138433,0
0.5,8.5,0,0.299938,0.00141179,0
0.5,8.6,0,0.299937,0.00143537,0
0.5,8.7,0,0.299936,0.00146099,0
0.5,8.8,0,0.299949,0.00148306,0
0.5,8.9,0,0.299952,0.00150103,0
0.5,9,0,0.29995,0.00152166,0
0.5,9.1,0,0.299958,0.00153869,0
0.5,9.2,0,0.299965,0.00155277,0
0.5,9.3,0,0.299964,0.0015679,0
0.5,9.4,0,0.299967,0.00158145,0
0.5,9.5,0,0.299975,0.00159287,0
0.5,9.6,0,0.299975,0.00160249,0
0.5,9.7,0,0.299976,0.00161299,0
0.5,9.8,0,0.299981,0.00162084,0
0.5,9.9,0,0.299984,0.00162731,0
0.5,10,0,0.299984,0.00163459,0
0.5,10.1,0,0.299987,0.00163996,0
0.5,10.2,0,0.29999,0.00164426,0
0.5,10.3,0,0.299991,0.0016485,0
0.5,10.4,0,0.299992,0.00165212,0
0.5,10.5,0,0.299995,0.00165481,0
0.5,10.6,0,0.299996,0.00165681,0
0.5,10.7,0,0.299996,0.00165889,0
0.5,10.8,0,0.299998,0.00166008,0
0.5,10.9,0,0.299998,0.00166095,0
0.5,11,0,0.299999,0.0016616,0
0.5,11.1,0,0.3,0.00166195,0
0.5,11.2,0,0.3,0.00166215,0
0.5,11.3,0,0.300001,0.00166189,0
0.5,11.4,0,0.300001,0.00166161,0
0.5,11.5,0,0.300002,0.00166139,0
0.5,11.6,0,0.300002,0.00166086,0
0.5,11.7,0,0.300002,0.00166006,0
0.5,11.8,0,0.300002,0.00165973,0
0.5,11.9,0,0.300002,0.0016593,0
0.5,12,0,0.300002,0.00165835,0
0.5,12.1,0,0.300001,0.00165795,0
0.5,12.2,0,0.300001,0.00165774,0
0.5,12.3,0,0.300001,0.00165705,0
0.5,12.4,0,0.300001,0.00165658,0
0.5,12.5,0,0.300001,0.00165673,0
0.5,12.6,0,0.300001,0.00165647,0
0.5,12.7,0,0.300001,0.00165596,0
0.6,0,0,0.299995,-0.00267969,0
0.6,0.1,0,0.299995,-0.00267794,0
0.6,0.2,0,0.299993,-0.00267677,0
0.6,0.3,0,0.299992,-0.00267465,0
0.6,0.4,0,0.299989,-0.00267049,0
0.6,0.5,0,0.299984,-0.00266761,0
0.6,0.6,0,0.299983,-0.00266122,0
0.6,0.7,0,0.299979,-0.00265471,0
0.6,0.8,0,0.299977,-0.00264821,0
0.6,0.9,0,0.299973,-0.00263844,0
0.6,1,0,0.299967,-0.00263066,0
0.6,1.1,0,0.299967,-0.00261891,0
0.6,1.2,0,0.299962,-0.00260626,0
0.6,1.3,0,0.299959,-0.00259462,0
0.6,1.4,0,0.299955,-0.00257801,0
0.6,1.5,0,0.299946,-0.00256425,0
0.6,1.6,0,0.299947,-0.00254593,0
0.6,1.7,0,0.299939,-0.00252556,0
0.6,1.8,0,0.299936,-0.00250754,0
0.6,1.9,0,0.299932,-0.00248238,0
0.6,2,0,0.29992,-0.00246095,0
0.6,2.1,0,0.299922,-0.00243465,0
0.6,2.2,0,0.299912,-0.0024046,0
0.6,2.3,0,0.299908,-0.0023787,0
0.6,2.4,0,0.299903,-0.0023431,0
0.6,2.5,0,0.299887,-0.00231207,0
0.6,2.6,0,0.299891,-0.00227633,0
0.6,2.7,0,0.29988,-0.00223462,0
0.6,2.8,0,0.299875,-0.00219931,0
0.6,2.9,0,0.29987,-0.00215154,0
0.6,3,0,0.29985,-0.00210929,0
0.6,3.1,0,0.299857,-0.00206272,0
0.6,3.2,0,0.299844,-0.0020079,0
0.6,3.3,0,0.299838,-0.00196196,0
0.6,3.4,0,0.299834,-0.00190085,0
0.6,3.5,0,0.299811,-0.00184688,0
0.6,3.6,0,0.29982,-0.00178826,0
0.6,3.7,0,0.299806,-0.00172006,0
0.6,3.8,0,0.2998,-0.00166317,0
0.6,3.9,0,0.299796,-0.00158854,0
0.6,4,0,0.299773,-0.00152391,0
0.6,4.1,0,0.299782,-0.00145301,0
0.6,4.2,0,0.29977,-0.00137254,0
0.6,4.3,0,0.299765,-0.00130578,0
0.6,4.4,0,0.299762,-0.00121902,0
0.6,4.5,0,0.299743,-0.00114599,0
0.6,4.6,0,0.299751,-0.00106421,0
0.6,4.7,0,0.299742,-0.000974338,0
0.6,4.8,0,0.299738,-0.000900058,0
0.6,4.9,0,0.299738,-0.000815967,0
0.6,5,0,0.299724,-0.000758699,0
0.6,5.1,0,0.29972,-0.000639523,0
0.6,5.2,0,0.299719,-0.000551051,0
0.6,5.3,0,0.299717,-0.000462044,0
0.6,5.4,0,0.299717,-0.000372718,0
0.6,5.5,0,0.299717,-0.000283243,0
0.6,5.6,0,0.299717,-0.000193809,0
0.6,5.7,0,0.299718,-0.000104607,0
0.6,5.8,0,0.299719,-1.57872e-05,0
0.6,5.9,0,0.299721,7.24095e-05,0
0.6,6,0,0.299725,0.000207923,0
0.6,6.1,0,0.299739,0.000252607,0
0.6,6.2,0,0.299743,0.000333805,0
0.6,6.3,0,0.299739,0.000413374,0
0.6,6.4,0,0.299748,0.000484654,0
0.6,6.5,0,0.299759,0.000569246,0
0.6,6.6,0,0.299761,0.000655983,0
0.6,6.7,0,0.299761,0.000724692,0
0.6,6.8,0,0.299778,0.000795473,0
0.6,6.9,0,0.299787,0.000880006,0
0.6,7,0,0.299778,0.000945118,0
0.6,7.1,0,0.299799,0.0010033,0
0.6,7.2,0,0.299809,0.00107864,0
0.6,7.3,0,0.299807,0.00114283,0
0.6,7.4,0,0.299817,0.00119555,0
0.6,7.5,0,0.299832,0.001256,0
0.6,7.6,0,0.299838,0.00131789,0
0.6,7.7,0,0.299836,0.00136433,0
0.6,7.8,0,0.299854,0.00141139,0
0.6,7.9,0,0.299864,0.00146704,0
0.6,8,0,0.29986,0.00150925,0
0.6,8.1,0,0.299876,0.00154552,0
0.6,8.2,0,0.299886,0.00159079,0
0.6,8.3,0,0.299888,0.00163011,0
0.6,8.4,0,0.299894,0.00166069,0
0.6,8.5,0,0.299906,0.00169406,0
0.6,8.6,0,0.299913,0.00172911,0
0.6,8.7,0,0.299913,0.00175473,0
0.6,8.8,0,0.299924,0.00177831,0
0.6,8.9,0,0.299932,0.00180662,0
0.6,9,0,0.299932,0.00182873,0
0.6,9.1,0,0.29994,0.00184576,0
0.6,9.2,0,0.299948,0.0018663,0
0.6,9.3,0,0.299951,0.00188478,0
0.6,9.4,0,0.299954,0.00189833,0
0.6,9.5,0,0.299961,0.00191175,0
0.6,9.6,0,0.299966,0.00192623,0
0.6,9.7,0,0.299967,0.00193673,0
0.6,9.8,0,0.299972,0.00194497,0
0.6,9.9,0,0.299977,0.00195488,0
0.6,10,0,0.299978,0.00196279,0
0.6,10.1,0,0.299981,0.00196816,0
0.6,10.2,0,0.299985,0.00197399,0
0.6,10.3,0,0.299988,0.00197932,0
0.6,10.4,0,0.299989,0.00198294,0
0.6,10.5,0,0.299992,0.00198584,0
0.6,10.6,0,0.299994,0.00198889,0
0.6,10.7,0,0.299995,0.00199097,0
0.6,10.8,0,0.299996,0.00199214,0
0.6,10.9,0,0.299998,0.00199323,0
0.6,11,0,0.299999,0.00199401,0
0.6,11.1,0,0.299999,0.00199435,0
0.6,11.2,0,0.3,0.00199428,0
0.6,11.3,0,0.300001,0.00199406,0
0.6,11.4,0,0.300002,0.00199378,0
0.6,11.5,0,0.300002,0.00199331,0
0.6,11.6,0,0.300003,0.00199252,0
0.6,11.7,0,0.300003,0.00199172,0
0.6,11.8,0,0.300003,0.00199134,0
0.6,11.9,0,0.300003,0.00199042,0
0.6,12,0,0.300003,0.00198948,0
0.6,12.1,0,0.300002,0.00198908,0
0.6,12.2,0,0.300002,0.00198852,0
0.6,12.3,0,0.300001,0.00198779,0
0.6,12.4,0,0.300002,0.00198732,0
0.6,12.5,0,0.300001,0.00198731,0
0.6,12.6,0,0.300001,0.00198705,0
0.6,12.7,0,0.300001,0.00198656,0
0.7,0,0,0.299994,-0.00312734,0
0.7,0.1,0,0.299992,-0.00312592,0
0.7,0.2,0,0.299991,-0.00312449,0
0.7,0.3,0,0.299988,-0.00312168,0
0.7,0.4,0,0.299984,-0.00311747,0
0.7,0.5,0,0.29998,-0.00311325,0
0.7,0.6,0,0.299976,-0.00310621,0
0.7,0.7,0,0.299972,-0.00309916,0
0.7,0.8,0,0.299968,-0.00309057,0
0.7,0.9,0,0.299963,-0.00308044,0
0.7,1,0,0.299959,-0.00307031,0
0.7,1.1,0,0.299954,-0.00305677,0
0.7,1.2,0,0.299949,-0.00304324,0
0.7,1.3,0,0.299943,-0.00302779,0
0.7,1.4,0,0.299938,-0.00301043,0
0.7,1.5,0,0.299932,-0.00299307,0
0.7,1.6,0,0.299925,-0.00297142,0
0.7,1.7,0,0.299919,-0.00294977,0
0.7,1.8,0,0.299912,-0.00292571,0
0.7,1.9,0,0.299905,-0.00289926,0
0.7,2,0,0.299898,-0.0028728,0
0.7,2.1,0,0.29989,-0.00284102,0
0.7,2.2,0,0.299882,-0.00280923,0
0.7,2.3,0,0.299874,-0.00277453,0
0.7,2.4,0,0.299865,-0.00273689,0
0.7,2.5,0,0.299857,-0.00269926,0
0.7,2.6,0,0.299848,-0.00265531,0
0.7,2.7,0,0.299838,-0.00261136,0
0.7,2.8,0,0.299829,-0.00256405,0
0.7,2.9,0,0.29982,-0.00251337,0
0.7,3,0,0.29981,-0.0024627,0
0.7,3.1,0,0.2998,-0.00240503,0
0.7,3.2,0,0.29979,-0.00234736,0
0.7,3.3,0,0.299781,-0.00228612,0
0.7,3.4,0,0.29977,-0.0022213,0
0.7,3.5,0,0.29976,-0.00215649,0
0.7,3.6,0,0.299751,-0.00208456,0
0.7,3.7,0,0.299741,-0.00201263,0
0.7,3.8,0,0.299732,-0.00193725,0
0.7,3.9,0,0.299723,-0.00185842,0
0.7,4,0,0.299714,-0.0017796,0
0.7,4.1,0,0.299705,-0.00169428,0
0.7,4.2,0,0.299697,-0.00160897,0
0.7,4.3,0,0.299689,-0.00152076,0
0.7,4.4,0,0.299682,-0.00142963,0
0.7,4.5,0,0.299675,-0.00133851,0
0.7,4.6,0,0.29967,-0.00124257,0
0.7,4.7,0,0.299664,-0.00114664,0
0.7,4.8,0,0.299659,-0.00105619,0
0.7,4.9,0,0.299655,-0.000971234,0
0.7,5,0,0.299652,-0.000886278,0
0.7,5.1,0,0.299647,-0.00074693,0
0.7,5.2,0,0.299645,-0.000643446,0
0.7,5.3,0,0.299644,-0.000539313,0
0.7,5.4,0,0.299643,-0.000434802,0
0.7,5.5,0,0.299643,-0.000330116,0
0.7,5.6,0,0.299643,-0.000225481,0
0.7,5.7,0,0.299644,-0.00012112,0
0.7,5.8,0,0.299646,-1.72187e-05,0
0.7,5.9,0,0.299648,8.59215e-05,0
0.7,6,0,0.299653,0.000244357,0
0.7,6.1,0,0.299657,0.000325556,0
0.7,6.2,0,0.299662,0.000406754,0
0.7,6.3,0,0.299666,0.000487953,0
0.7,6.4,0,0.299672,0.000576316,0
0.7,6.5,0,0.299678,0.000668536,0
0.7,6.6,0,0.299685,0.000760756,0
0.7,6.7,0,0.299693,0.00085067,0
0.7,6.8,0,0.299701,0.000935203,0
0.7,6.9,0,0.29971,0.00101974,0
0.7,7,0,0.299719,0.00110427,0
0.7,7.1,0,0.299728,0.00118019,0
0.7,7.2,0,0.299738,0.00125567,0
0.7,7.3,0,0.299748,0.00133114,0
0.7,7.4,0,0.299758,0.00140073,0
0.7,7.5,0,0.299768,0.0014664,0
0.7,7.6,0,0.299778,0.00153208,0
0.7,7.7,0,0.299789,0.00159525,0
0.7,7.8,0,0.299799,0.00165089,0
0.7,7.9,0,0.29981,0.00170654,0
0.7,8,0,0.29982,0.00176218,0
0.7,8.1,0,0.299831,0.001809,0
0.7,8.2,0,0.299841,0.00185484,0
0.7,8.3,0,0.299851,0.00190068,0
0.7,8.4,0,0.29986,0.00194146,0
0.7,8.5,0,0.29987,0.0019781,0
0.7,8.6,0,0.299879,0.00201474,0
0.7,8.7,0,0.299888,0.00204971,0