x,y,z,p
0,0,0,2.95622e-05
0,0.1,0,6.08161e-05
0,0.2,0,9.207e-05
0,0.3,0,0.000129137
0,0.4,0,0.000172018
0,0.5,0,0.0002149
0,0.6,0,0.000257461
0,0.7,0,0.000300023
0,0.8,0,0.000342351
0,0.9,0,0.000384446
0,1,0,0.00042654
0,1.1,0,0.000468016
0,1.2,0,0.00050949
0,1.3,0,0.00055058
0,1.4,0,0.000591284
0,1.5,0,0.000631988
0,1.6,0,0.00067177
0,1.7,0,0.000711552
0,1.8,0,0.000750798
0,1.9,0,0.000789506
0,2,0,0.000828215
0,2.1,0,0.0008657
0,2.2,0,0.000903185
0,2.3,0,0.000939982
0,2.4,0,0.000976091
0,2.5,0,0.0010122
0,2.6,0,0.00104679
0,2.7,0,0.00108137
0,2.8,0,0.00111512
0,2.9,0,0.00114804
0,3,0,0.00118096
0,3.1,0,0.00121206
0,3.2,0,0.00124316
0,3.3,0,0.00127328
0,3.4,0,0.00130242
0,3.5,0,0.00133157
0,3.6,0,0.00135862
0,3.7,0,0.00138568
0,3.8,0,0.00141163
0,3.9,0,0.00143647
0,4,0,0.00146131
0,4.1,0,0.00148383
0,4.2,0,0.00150635
0,4.3,0,0.00152765
0,4.4,0,0.00154773
0,4.5,0,0.0015678
0,4.6,0,0.00158536
0,4.7,0,0.00160291
0,4.8,0,0.00161887
0,4.9,0,0.00163325
0,5,0,0.00164763
0,5.1,0,0.00166117
0,5.2,0,0.00167471
0,5.3,0,0.00168531
0,5.4,0,0.00169592
0,5.5,0,0.00170446
0,5.6,0,0.001713
0,5.7,0,0.00171946
0,5.8,0,0.00172593
0,5.9,0,0.0017303
0,6,0,0.00173467
0,6.1,0,0.00173693
0,6.2,0,0.0017392
0,6.3,0,0.00173936
0,6.4,0,0.00173952
0,6.5,0,0.0017376
0,6.6,0,0.00173567
0,6.7,0,0.00173167
0,6.8,0,0.00172766
0,6.9,0,0.00172073
0,7,0,0.00171381
0,7.1,0,0.00170556
0,7.2,0,0.00169731
0,7.3,0,0.00168853
0,7.4,0,0.00167678
0,7.5,0,0.00166503
0,7.6,0,0.00165238
0,7.7,0,0.00163759
0,7.8,0,0.00162281
0,7.9,0,0.00160672
0,8,0,0.00158903
0,8.1,0,0.00157134
0,8.2,0,0.00155199
0,8.3,0,0.00153154
0,8.4,0,0.00151109
0,8.5,0,0.00148867
0,8.6,0,0.00146559
0,8.7,0,0.00144251
0,8.8,0,0.00141721
0,8.9,0,0.00139165
0,9,0,0.00136598
0,9.1,0,0.00133811
0,9.2,0,0.00131023
0,9.3,0,0.00128193
0,9.4,0,0.00125191
0,9.5,0,0.00122188
0,9.6,0,0.00119116
0,9.7,0,0.00115916
0,9.8,0,0.00112715
0,9.9,0,0.00109424
0,10,0,0.00106043
0,10.1,0,0.00102662
0,10.2,0,0.000991749
0,10.3,0,0.000956308
0,10.4,0,0.000920867
0,10.5,0,0.000884266
0,10.6,0,0.000847374
0,10.7,0,0.000810483
0,10.8,0,0.000772384
0,10.9,0,0.000734222
0,11,0,0.000695951
0,11.1,0,0.000656699
0,11.2,0,0.000617447
0,11.3,0,0.000577967
0,11.4,0,0.000537805
0,11.5,0,0.000497643
0,11.6,0,0.000457189
0,11.7,0,0.000416297
0,11.8,0,0.000375405
0,11.9,0,0.000334212
0,12,0,0.000292771
0,12.1,0,0.00025133
0,12.2,0,0.000209634
0,12.3,0,0.000167828
0,12.4,0,0.000126023
0,12.5,0,9.38024e-05
0,12.6,0,6.32738e-05
0,12.7,0,3.27452e-05
0.1,0,0,2.56206e-05
0.1,0.1,0,5.68988e-05
0.1,0.2,0,8.81527e-05
0.1,0.3,0,0.000129179
0.1,0.4,0,0.00017206
0.1,0.5,0,0.000215176
0.1,0.6,0,0.000257526
0.1,0.7,0,0.000300088
0.1,0.8,0,0.000342442
0.1,0.9,0,0.000384536
0.1,1,0,0.000427051
0.1,1.1,0,0.000468131
0.1,1.2,0,0.000509606
0.1,1.3,0,0.000550721
0.1,1.4,0,0.000591425
0.1,1.5,0,0.000632644
0.1,1.6,0,0.000671936
0.1,1.7,0,0.000711718
0.1,1.8,0,0.000750989
0.1,1.9,0,0.000789698
0.1,2,0,0.000828912
0.1,2.1,0,0.000865917
0.1,2.2,0,0.000903402
0.1,2.3,0,0.000940224
0.1,2.4,0,0.000976333
0.1,2.5,0,0.00101284
0.1,2.6,0,0.00104705
0.1,2.7,0,0.00108164
0.1,2.8,0,0.00111541
0.1,2.9,0,0.00114833
0.1,3,0,0.00118147
0.1,3.1,0,0.00121237
0.1,3.2,0,0.00124347
0.1,3.3,0,0.00127361
0.1,3.4,0,0.00130276
0.1,3.5,0,0.00133193
0.1,3.6,0,0.00135898
0.1,3.7,0,0.00138604
0.1,3.8,0,0.00141201
0.1,3.9,0,0.00143685
0.1,4,0,0.00146157
0.1,4.1,0,0.00148423
0.1,4.2,0,0.00150675
0.1,4.3,0,0.00152807
0.1,4.4,0,0.00154814
0.1,4.5,0,0.00156802
0.1,4.6,0,0.00158578
0.1,4.7,0,0.00160333
0.1,4.8,0,0.00161951
0.1,4.9,0,0.00163389
0.1,5,0,0.00164789
0.1,5.1,0,0.00166168
0.1,5.2,0,0.00167499
0.1,5.3,0,0.00168559
0.1,5.4,0,0.00169624
0.1,5.5,0,0.00170473
0.1,5.6,0,0.00171335
0.1,5.7,0,0.00171974
0.1,5.8,0,0.00172631
0.1,5.9,0,0.00173058
0.1,6,0,0.00173508
0.1,6.1,0,0.00173722
0.1,6.2,0,0.00173962
0.1,6.3,0,0.00173964
0.1,6.4,0,0.00173995
0.1,6.5,0,0.00173787
0.1,6.6,0,0.00173609
0.1,6.7,0,0.00173195
0.1,6.8,0,0.00172806
0.1,6.9,0,0.00172123
0.1,7,0,0.00171424
0.1,7.1,0,0.0017063
0.1,7.2,0,0.00169805
0.1,7.3,0,0.00168905
0.1,7.4,0,0.00167737
0.1,7.5,0,0.00166562
0.1,7.6,0,0.00165293
0.1,7.7,0,0.00163816
0.1,7.8,0,0.00162338
0.1,7.9,0,0.00160726
0.1,8,0,0.00158957
0.1,8.1,0,0.00157188
0.1,8.2,0,0.00155251
0.1,8.3,0,0.00153205
0.1,8.4,0,0.00151172
0.1,8.5,0,0.00148915
0.1,8.6,0,0.00146608
0.1,8.7,0,0.00144339
0.1,8.8,0,0.00141766
0.1,8.9,0,0.00139211
0.1,9,0,0.00136706
0.1,9.1,0,0.00133853
0.1,9.2,0,0.00131066
0.1,9.3,0,0.00128276
0.1,9.4,0,0.0012523
0.1,9.5,0,0.00122227
0.1,9.6,0,0.00119161
0.1,9.7,0,0.00115952
0.1,9.8,0,0.00112751
0.1,9.9,0,0.00109457
0.1,10,0,0.00106076
0.1,10.1,0,0.00102705
0.1,10.2,0,0.000992041
0.1,10.3,0,0.000956601
0.1,10.4,0,0.000921788
0.1,10.5,0,0.000884524
0.1,10.6,0,0.000847633
0.1,10.7,0,0.000811885
0.1,10.8,0,0.000772608
0.1,10.9,0,0.000734446
0.1,11,0,0.000697092
0.1,11.1,0,0.000656889
0.1,11.2,0,0.000617637
0.1,11.3,0,0.000578525
0.1,11.4,0,0.000537961
0.1,11.5,0,0.000497799
0.1,11.6,0,0.000457311
0.1,11.7,0,0.000416419
0.1,11.8,0,0.000375527
0.1,11.9,0,0.000334299
0.1,12,0,0.000292858
0.1,12.1,0,0.000251529
0.1,12.2,0,0.000209686
0.1,12.3,0,0.00016788
0.1,12.4,0,0.000126233
0.1,12.5,0,8.94653e-05
0.1,12.6,0,5.89367e-05
0.1,12.7,0,2.83791e-05
0.2,0,0,2.16789e-05
0.2,0.1,0,5.29815e-05
0.2,0.2,0,8.62631e-05
0.2,0.3,0,0.000129269
0.2,0.4,0,0.000172102
0.2,0.5,0,0.000215452
0.2,0.6,0,0.000257591
0.2,0.7,0,0.000300321
0.2,0.8,0,0.000342688
0.2,0.9,0,0.000384627
0.2,1,0,0.000427561
0.2,1.1,0,0.000468247
0.2,1.2,0,0.000509962
0.2,1.3,0,0.00055109
0.2,1.4,0,0.000591566
0.2,1.5,0,0.0006333
0.2,1.6,0,0.000672103
0.2,1.7,0,0.000712146
0.2,1.8,0,0.000751429
0.2,1.9,0,0.000789889
0.2,2,0,0.000829608
0.2,2.1,0,0.000866134
0.2,2.2,0,0.000903849
0.2,2.3,0,0.000940684
0.2,2.4,0,0.000976575
0.2,2.5,0,0.00101348
0.2,2.6,0,0.00104732
0.2,2.7,0,0.00108206
0.2,2.8,0,0.00111585
0.2,2.9,0,0.00114862
0.2,3,0,0.00118198
0.2,3.1,0,0.00121268
0.2,3.2,0,0.00124385
0.2,3.3,0,0.001274
0.2,3.4,0,0.0013031
0.2,3.5,0,0.0013323
0.2,3.6,0,0.00135934
0.2,3.7,0,0.00138637
0.2,3.8,0,0.00141235
0.2,3.9,0,0.00143723
0.2,4,0,0.00146182
0.2,4.1,0,0.00148463
0.2,4.2,0,0.00150706
0.2,4.3,0,0.00152838
0.2,4.4,0,0.00154856
0.2,4.5,0,0.00156824
0.2,4.6,0,0.00158621
0.2,4.7,0,0.00160367
0.2,4.8,0,0.00161994
0.2,4.9,0,0.00163452
0.2,5,0,0.00164814
0.2,5.1,0,0.00166218
0.2,5.2,0,0.00167526
0.2,5.3,0,0.00168587
0.2,5.4,0,0.00169656
0.2,5.5,0,0.00170501
0.2,5.6,0,0.00171371
0.2,5.7,0,0.00172001
0.2,5.8,0,0.0017267
0.2,5.9,0,0.00173086
0.2,6,0,0.00173548
0.2,6.1,0,0.0017375
0.2,6.2,0,0.00174004
0.2,6.3,0,0.00173992
0.2,6.4,0,0.00174038
0.2,6.5,0,0.00173815
0.2,6.6,0,0.00173651
0.2,6.7,0,0.00173223
0.2,6.8,0,0.00172847
0.2,6.9,0,0.00172173
0.2,7,0,0.00171467
0.2,7.1,0,0.00170704
0.2,7.2,0,0.00169879
0.2,7.3,0,0.00168952
0.2,7.4,0,0.00167796
0.2,7.5,0,0.00166619
0.2,7.6,0,0.00165342
0.2,7.7,0,0.00163873
0.2,7.8,0,0.00162395
0.2,7.9,0,0.00160783
0.2,8,0,0.00159011
0.2,8.1,0,0.00157258
0.2,8.2,0,0.0015531
0.2,8.3,0,0.00153256
0.2,8.4,0,0.00151257
0.2,8.5,0,0.00148965
0.2,8.6,0,0.00146656
0.2,8.7,0,0.0014444
0.2,8.8,0,0.00141812
0.2,8.9,0,0.00139256
0.2,9,0,0.00136823
0.2,9.1,0,0.00133896
0.2,9.2,0,0.00131108
0.2,9.3,0,0.00128409
0.2,9.4,0,0.00125269
0.2,9.5,0,0.00122297
0.2,9.6,0,0.00119306
0.2,9.7,0,0.00115988
0.2,9.8,0,0.00112869
0.2,9.9,0,0.00109573
0.2,10,0,0.00106108
0.2,10.1,0,0.00102865
0.2,10.2,0,0.000992715
0.2,10.3,0,0.000956893
0.2,10.4,0,0.000923405
0.2,10.5,0,0.000884783
0.2,10.6,0,0.000847891
0.2,10.7,0,0.000813461
0.2,10.8,0,0.000772833
0.2,10.9,0,0.000734671
0.2,11,0,0.000698572
0.2,11.1,0,0.000657079
0.2,11.2,0,0.000617857
0.2,11.3,0,0.000579857
0.2,11.4,0,0.000538117
0.2,11.5,0,0.000498367
0.2,11.6,0,0.000458392
0.2,11.7,0,0.00041654
0.2,11.8,0,0.000376279
0.2,11.9,0,0.000334831
0.2,12,0,0.000292945
0.2,12.1,0,0.000252147
0.2,12.2,0,0.000209827
0.2,12.3,0,0.000167932
0.2,12.4,0,0.000126547
0.2,12.5,0,8.51282e-05
0.2,12.6,0,5.45996e-05
0.2,12.7,0,2.40131e-05
0.3,0,0,1.77373e-05
0.3,0.1,0,4.90643e-05
0.3,0.2,0,8.64011e-05
0.3,0.3,0,0.000129407
0.3,0.4,0,0.000172143
0.3,0.5,0,0.000215728
0.3,0.6,0,0.000257656
0.3,0.7,0,0.000300724
0.3,0.8,0,0.000343091
0.3,0.9,0,0.000384718
0.3,1,0,0.000428072
0.3,1.1,0,0.000468363
0.3,1.2,0,0.000510558
0.3,1.3,0,0.000551685
0.3,1.4,0,0.000591707
0.3,1.5,0,0.000633956
0.3,1.6,0,0.000672269
0.3,1.7,0,0.000712836
0.3,1.8,0,0.000752119
0.3,1.9,0,0.000790081
0.3,2,0,0.000830305
0.3,2.1,0,0.00086635
0.3,2.2,0,0.000904528
0.3,2.3,0,0.000941362
0.3,2.4,0,0.000976817
0.3,2.5,0,0.00101412
0.3,2.6,0,0.00104758
0.3,2.7,0,0.00108265
0.3,2.8,0,0.00111643
0.3,2.9,0,0.00114891
0.3,3,0,0.0011825
0.3,3.1,0,0.001213
0.3,3.2,0,0.00124429
0.3,3.3,0,0.00127445
0.3,3.4,0,0.00130343
0.3,3.5,0,0.00133267
0.3,3.6,0,0.0013597
0.3,3.7,0,0.00138667
0.3,3.8,0,0.00141265
0.3,3.9,0,0.00143761
0.3,4,0,0.00146207
0.3,4.1,0,0.00148502
0.3,4.2,0,0.00150728
0.3,4.3,0,0.0015286
0.3,4.4,0,0.00154898
0.3,4.5,0,0.00156845
0.3,4.6,0,0.00158663
0.3,4.7,0,0.00160391
0.3,4.8,0,0.00162018
0.3,4.9,0,0.00163515
0.3,5,0,0.00164839
0.3,5.1,0,0.00166269
0.3,5.2,0,0.00167554
0.3,5.3,0,0.00168614
0.3,5.4,0,0.00169687
0.3,5.5,0,0.00170528
0.3,5.6,0,0.00171407
0.3,5.7,0,0.00172029
0.3,5.8,0,0.00172708
0.3,5.9,0,0.00173114
0.3,6,0,0.00173589
0.3,6.1,0,0.00173778
0.3,6.2,0,0.00174047
0.3,6.3,0,0.0017402
0.3,6.4,0,0.00174081
0.3,6.5,0,0.00173842
0.3,6.6,0,0.00173693
0.3,6.7,0,0.00173251
0.3,6.8,0,0.00172887
0.3,6.9,0,0.00172223
0.3,7,0,0.0017151
0.3,7.1,0,0.00170767
0.3,7.2,0,0.00169933
0.3,7.3,0,0.00168999
0.3,7.4,0,0.00167854
0.3,7.5,0,0.00166669
0.3,7.6,0,0.00165392
0.3,7.7,0,0.00163929
0.3,7.8,0,0.00162453
0.3,7.9,0,0.00160841
0.3,8,0,0.00159064
0.3,8.1,0,0.00157328
0.3,8.2,0,0.0015538
0.3,8.3,0,0.00153308
0.3,8.4,0,0.00151343
0.3,8.5,0,0.0014905
0.3,8.6,0,0.0014671
0.3,8.7,0,0.00144542
0.3,8.8,0,0.00141893
0.3,8.9,0,0.00139338
0.3,9,0,0.00136941
0.3,9.1,0,0.00133956
0.3,9.2,0,0.00131232
0.3,9.3,0,0.00128541
0.3,9.4,0,0.00125308
0.3,9.5,0,0.00122443
0.3,9.6,0,0.00119452
0.3,9.7,0,0.00116024
0.3,9.8,0,0.00113024
0.3,9.9,0,0.00109729
0.3,10,0,0.00106141
0.3,10.1,0,0.00103026
0.3,10.2,0,0.000994323
0.3,10.3,0,0.000957186
0.3,10.4,0,0.000925023
0.3,10.5,0,0.000886257
0.3,10.6,0,0.000848462
0.3,10.7,0,0.000815036
0.3,10.8,0,0.000773732
0.3,10.9,0,0.000735688
0.3,11,0,0.000700052
0.3,11.1,0,0.000657405
0.3,11.2,0,0.000619189
0.3,11.3,0,0.000581189
0.3,11.4,0,0.000538273
0.3,11.5,0,0.000499501
0.3,11.6,0,0.000459526
0.3,11.7,0,0.000416662
0.3,11.8,0,0.000377173
0.3,11.9,0,0.000335725
0.3,12,0,0.000293032
0.3,12.1,0,0.000252765
0.3,12.2,0,0.000210445
0.3,12.3,0,0.000167984
0.3,12.4,0,0.000126861
0.3,12.5,0,8.43407e-05
0.3,12.6,0,5.02519e-05
0.3,12.7,0,1.96471e-05
0.4,0,0,1.37957e-05
0.4,0.1,0,4.51227e-05
0.4,0.2,0,8.65392e-05
0.4,0.3,0,0.000129545
0.4,0.4,0,0.000172419
0.4,0.5,0,0.000216004
0.4,0.6,0,0.000257932
0.4,0.7,0,0.000301126
0.4,0.8,0,0.000343493
0.4,0.9,0,0.000385228
0.4,1,0,0.000428582
0.4,1.1,0,0.000468874
0.4,1.2,0,0.000511154
0.4,1.3,0,0.000552281
0.4,1.4,0,0.000592363
0.4,1.5,0,0.000634612
0.4,1.6,0,0.000672925
0.4,1.7,0,0.000713525
0.4,1.8,0,0.000752809
0.4,1.9,0,0.000790777
0.4,2,0,0.000831001
0.4,2.1,0,0.000867047
0.4,2.2,0,0.000905206
0.4,2.3,0,0.000942041
0.4,2.4,0,0.000977456
0.4,2.5,0,0.00101476
0.4,2.6,0,0.00104822
0.4,2.7,0,0.00108323
0.4,2.8,0,0.00111702
0.4,2.9,0,0.00114943
0.4,3,0,0.00118302
0.4,3.1,0,0.00121351
0.4,3.2,0,0.00124473
0.4,3.3,0,0.00127489
0.4,3.4,0,0.0013038
0.4,3.5,0,0.00133304
0.4,3.6,0,0.00136007
0.4,3.7,0,0.00138698
0.4,3.8,0,0.00141296
0.4,3.9,0,0.00143786
0.4,4,0,0.00146232
0.4,4.1,0,0.00148528
0.4,4.2,0,0.0015075
0.4,4.3,0,0.00152882
0.4,4.4,0,0.00154919
0.4,4.5,0,0.00156867
0.4,4.6,0,0.00158685
0.4,4.7,0,0.00160415
0.4,4.8,0,0.00162042
0.4,4.9,0,0.0016354
0.4,5,0,0.00164865
0.4,5.1,0,0.00166308
0.4,5.2,0,0.00167581
0.4,5.3,0,0.00168643
0.4,5.4,0,0.00169719
0.4,5.5,0,0.00170559
0.4,5.6,0,0.00171442
0.4,5.7,0,0.00172062
0.4,5.8,0,0.00172747
0.4,5.9,0,0.00173148
0.4,6,0,0.0017363
0.4,6.1,0,0.00173813
0.4,6.2,0,0.00174089
0.4,6.3,0,0.00174055
0.4,6.4,0,0.00174123
0.4,6.5,0,0.00173877
0.4,6.6,0,0.00173735
0.4,6.7,0,0.00173286
0.4,6.8,0,0.00172928
0.4,6.9,0,0.00172268
0.4,7,0,0.00171553
0.4,7.1,0,0.0017081
0.4,7.2,0,0.0016998
0.4,7.3,0,0.00169045
0.4,7.4,0,0.00167901
0.4,7.5,0,0.00166718
0.4,7.6,0,0.00165442
0.4,7.7,0,0.00163982
0.4,7.8,0,0.00162511
0.4,7.9,0,0.00160899
0.4,8,0,0.00159124
0.4,8.1,0,0.00157399
0.4,8.2,0,0.00155451
0.4,8.3,0,0.00153383
0.4,8.4,0,0.00151428
0.4,8.5,0,0.00149136
0.4,8.6,0,0.00146812
0.4,8.7,0,0.00144643
0.4,8.8,0,0.00141994
0.4,8.9,0,0.00139455
0.4,9,0,0.00137058
0.4,9.1,0,0.00134074
0.4,9.2,0,0.00131364
0.4,9.3,0,0.00128674
0.4,9.4,0,0.00125426
0.4,9.5,0,0.00122588
0.4,9.6,0,0.00119597
0.4,9.7,0,0.00116115
0.4,9.8,0,0.00113179
0.4,9.9,0,0.00109884
0.4,10,0,0.00106237
0.4,10.1,0,0.00103187
0.4,10.2,0,0.000995931
0.4,10.3,0,0.000958595
0.4,10.4,0,0.000926641
0.4,10.5,0,0.000887875
0.4,10.6,0,0.000850037
0.4,10.7,0,0.000816612
0.4,10.8,0,0.000775308
0.4,10.9,0,0.000737168
0.4,11,0,0.000701532
0.4,11.1,0,0.000658885
0.4,11.2,0,0.00062052
0.4,11.3,0,0.00058252
0.4,11.4,0,0.000539264
0.4,11.5,0,0.000500635
0.4,11.6,0,0.00046066
0.4,11.7,0,0.000417246
0.4,11.8,0,0.000378066
0.4,11.9,0,0.000336619
0.4,12,0,0.000293426
0.4,12.1,0,0.000253383
0.4,12.2,0,0.000211063
0.4,12.3,0,0.000168291
0.4,12.4,0,0.000127175
0.4,12.5,0,8.46547e-05
0.4,12.6,0,4.58859e-05
0.4,12.7,0,1.52811e-05
0.5,0,0,9.85406e-06
0.5,0.1,0,4.32087e-05
0.5,0.2,0,8.66772e-05
0.5,0.3,0,0.000129683
0.5,0.4,0,0.000172743
0.5,0.5,0,0.00021628
0.5,0.6,0,0.000258377
0.5,0.7,0,0.000301529
0.5,0.8,0,0.000343896
0.5,0.9,0,0.000385894
0.5,1,0,0.000429092
0.5,1.1,0,0.000469624
0.5,1.2,0,0.00051175
0.5,1.3,0,0.000552877
0.5,1.4,0,0.000593247
0.5,1.5,0,0.000635268
0.5,1.6,0,0.000673843
0.5,1.7,0,0.000714215
0.5,1.8,0,0.000753498
0.5,1.9,0,0.000791723
0.5,2,0,0.000831697
0.5,2.1,0,0.000867974
0.5,2.2,0,0.000905884
0.5,2.3,0,0.000942719
0.5,2.4,0,0.000978313
0.5,2.5,0,0.0010154
0.5,2.6,0,0.00104902
0.5,2.7,0,0.00108381
0.5,2.8,0,0.0011176
0.5,2.9,0,0.00115009
0.5,3,0,0.00118353
0.5,3.1,0,0.00121409
0.5,3.2,0,0.00124517
0.5,3.3,0,0.00127533
0.5,3.4,0,0.00130422
0.5,3.5,0,0.00133341
0.5,3.6,0,0.00136041
0.5,3.7,0,0.00138728
0.5,3.8,0,0.00141326
0.5,3.9,0,0.00143807
0.5,4,0,0.00146258
0.5,4.1,0,0.00148544
0.5,4.2,0,0.00150771
0.5,4.3,0,0.00152904
0.5,4.4,0,0.00154931
0.5,4.5,0,0.00156888
0.5,4.6,0,0.00158697
0.5,4.7,0,0.00160439
0.5,4.8,0,0.00162066
0.5,4.9,0,0.00163546
0.5,5,0,0.0016489
0.5,5.1,0,0.0016631
0.5,5.2,0,0.00167609
0.5,5.3,0,0.00168675
0.5,5.4,0,0.00169751
0.5,5.5,0,0.00170599
0.5,5.6,0,0.00171478
0.5,5.7,0,0.00172108
0.5,5.8,0,0.00172786
0.5,5.9,0,0.00173199
0.5,6,0,0.00173671
0.5,6.1,0,0.00173868
0.5,6.2,0,0.00174131
0.5,6.3,0,0.00174112
0.5,6.4,0,0.00174166
0.5,6.5,0,0.00173935
0.5,6.6,0,0.00173777
0.5,6.7,0,0.0017334
0.5,6.8,0,0.00172968
0.5,6.9,0,0.00172302
0.5,7,0,0.00171596
0.5,7.1,0,0.0017085
0.5,7.2,0,0.00170027
0.5,7.3,0,0.00169092
0.5,7.4,0,0.00167944
0.5,7.5,0,0.00166768
0.5,7.6,0,0.00165491
0.5,7.7,0,0.00164033
0.5,7.8,0,0.00162569
0.5,7.9,0,0.00160957
0.5,8,0,0.00159199
0.5,8.1,0,0.00157469
0.5,8.2,0,0.00155521
0.5,8.3,0,0.00153484
0.5,8.4,0,0.00151513
0.5,8.5,0,0.00149221
0.5,8.6,0,0.00146928
0.5,8.7,0,0.00144745
0.5,8.8,0,0.00142096
0.5,8.9,0,0.00139573
0.5,9,0,0.00137176
0.5,9.1,0,0.00134215
0.5,9.2,0,0.00131497
0.5,9.3,0,0.00128807
0.5,9.4,0,0.00125628
0.5,9.5,0,0.00122733
0.5,9.6,0,0.00119743
0.5,9.7,0,0.0011638
0.5,9.8,0,0.00113334
0.5,9.9,0,0.00110039
0.5,10,0,0.00106521
0.5,10.1,0,0.00103348
0.5,10.2,0,0.000997539
0.5,10.3,0,0.000961078
0.5,10.4,0,0.000928258
0.5,10.5,0,0.000889493
0.5,10.6,0,0.000851971
0.5,10.7,0,0.000818187
0.5,10.8,0,0.000776884
0.5,10.9,0,0.000738648
0.5,11,0,0.000703012
0.5,11.1,0,0.000660816
0.5,11.2,0,0.000621852
0.5,11.3,0,0.000583852
0.5,11.4,0,0.000541368
0.5,11.5,0,0.000501769
0.5,11.6,0,0.000461794
0.5,11.7,0,0.000419152
0.5,11.8,0,0.00037896
0.5,11.9,0,0.000337513
0.5,12,0,0.000294787
0.5,12.1,0,0.000254
0.5,12.2,0,0.000211681
0.5,12.3,0,0.000168903
0.5,12.4,0,0.000127489
0.5,12.5,0,8.49687e-05
0.5,12.6,0,4.21318e-05
0.5,12.7,0,1.09151e-05
0.6,0,0,5.91244e-06
0.6,0.1,0,4.33224e-05
0.6,0.2,0,8.68153e-05
0.6,0.3,0,0.000129821
0.6,0.4,0,0.000173116
0.6,0.5,0,0.000216556
0.6,0.6,0,0.00025899
0.6,0.7,0,0.000301932
0.6,0.8,0,0.000344298
0.6,0.9,0,0.000386717
0.6,1,0,0.000429603
0.6,1.1,0,0.000470614
0.6,1.2,0,0.000512346
0.6,1.3,0,0.000553473
0.6,1.4,0,0.000594358
0.6,1.5,0,0.000635925
0.6,1.6,0,0.000675022
0.6,1.7,0,0.000714904
0.6,1.8,0,0.000754188
0.6,1.9,0,0.000792917
0.6,2,0,0.000832394
0.6,2.1,0,0.000869132
0.6,2.2,0,0.000906563
0.6,2.3,0,0.000943398
0.6,2.4,0,0.000979389
0.6,2.5,0,0.00101604
0.6,2.6,0,0.00104998
0.6,2.7,0,0.00108439
0.6,2.8,0,0.00111818
0.6,2.9,0,0.00115089
0.6,3,0,0.00118405
0.6,3.1,0,0.00121473
0.6,3.2,0,0.00124561
0.6,3.3,0,0.00127577
0.6,3.4,0,0.0013047
0.6,3.5,0,0.00133378
0.6,3.6,0,0.00136072
0.6,3.7,0,0.00138759
0.6,3.8,0,0.00141357
0.6,3.9,0,0.00143825
0.6,4,0,0.00146283
0.6,4.1,0,0.00148551
0.6,4.2,0,0.00150793
0.6,4.3,0,0.00152926
0.6,4.4,0,0.00154933
0.6,4.5,0,0.0015691
0.6,4.6,0,0.001587
0.6,4.7,0,0.00160463
0.6,4.8,0,0.0016209
0.6,4.9,0,0.00163532
0.6,5,0,0.00164915
0.6,5.1,0,0.00166312
0.6,5.2,0,0.00167636
0.6,5.3,0,0.00168706
0.6,5.4,0,0.00169783
0.6,5.5,0,0.00170639
0.6,5.6,0,0.00171514
0.6,5.7,0,0.00172155
0.6,5.8,0,0.00172824
0.6,5.9,0,0.0017325
0.6,6,0,0.00173711
0.6,6.1,0,0.00173922
0.6,6.2,0,0.00174173
0.6,6.3,0,0.00174169
0.6,6.4,0,0.00174209
0.6,6.5,0,0.00173992
0.6,6.6,0,0.0017382
0.6,6.7,0,0.00173394
0.6,6.8,0,0.00173009
0.6,6.9,0,0.00172336
0.6,7,0,0.00171639
0.6,7.1,0,0.00170865
0.6,7.2,0,0.0017005
0.6,7.3,0,0.00169139
0.6,7.4,0,0.00167981
0.6,7.5,0,0.00166814
0.6,7.6,0,0.00165541
0.6,7.7,0,0.00164084
0.6,7.8,0,0.00162627
0.6,7.9,0,0.00161015
0.6,8,0,0.00159274
0.6,8.1,0,0.0015754
0.6,8.2,0,0.00155595
0.6,8.3,0,0.00153589
0.6,8.4,0,0.00151599
0.6,8.5,0,0.00149331
0.6,8.6,0,0.00147066
0.6,8.7,0,0.00144846
0.6,8.8,0,0.00142259
0.6,8.9,0,0.00139746
0.6,9,0,0.00137293
0.6,9.1,0,0.00134422
0.6,9.2,0,0.00131674
0.6,9.3,0,0.00128939
0.6,9.4,0,0.00125867
0.6,9.5,0,0.00122898
0.6,9.6,0,0.00119888
0.6,9.7,0,0.00116644
0.6,9.8,0,0.00113489
0.6,9.9,0,0.00110194
0.6,10,0,0.00106804
0.6,10.1,0,0.00103509
0.6,10.2,0,0.000999426
0.6,10.3,0,0.000964011
0.6,10.4,0,0.000929876
0.6,10.5,0,0.000891908
0.6,10.6,0,0.000854905
0.6,10.7,0,0.000819763
0.6,10.8,0,0.000779715
0.6,10.9,0,0.000741301
0.6,11,0,0.000704491
0.6,11.1,0,0.000663437
0.6,11.2,0,0.000623795
0.6,11.3,0,0.000585183
0.6,11.4,0,0.000543678
0.6,11.5,0,0.000502996
0.6,11.6,0,0.000462929
0.6,11.7,0,0.000421059
0.6,11.8,0,0.000379854
0.6,11.9,0,0.000338407
0.6,12,0,0.000296212
0.6,12.1,0,0.000254618
0.6,12.2,0,0.000212388
0.6,12.3,0,0.000169783
0.6,12.4,0,0.000127803
0.6,12.5,0,8.52614e-05
0.6,12.6,0,4.24169e-05
0.6,12.7,0,6.54903e-06
0.7,0,0,1.97081e-06
0.7,0.1,0,4.3436e-05
0.7,0.2,0,8.69289e-05
0.7,0.3,0,0.000130193
0.7,0.4,0,0.000173489
0.7,0.5,0,0.000216832
0.7,0.6,0,0.000259604
0.7,0.7,0,0.000302545
0.7,0.8,0,0.000345121
0.7,0.9,0,0.000387539
0.7,1,0,0.000430113
0.7,1.1,0,0.000471605
0.7,1.2,0,0.000513336
0.7,1.3,0,0.000554584
0.7,1.4,0,0.000595469
0.7,1.5,0,0.000636581
0.7,1.6,0,0.000676201
0.7,1.7,0,0.000716084
0.7,1.8,0,0.000755382
0.7,1.9,0,0.000794112
0.7,2,0,0.00083309
0.7,2.1,0,0.00087029
0.7,2.2,0,0.000907721
0.7,2.3,0,0.000944473
0.7,2.4,0,0.000980465
0.7,2.5,0,0.00101667
0.7,2.6,0,0.00105093
0.7,2.7,0,0.00108535
0.7,2.8,0,0.00111899
0.7,2.9,0,0.0011517
0.7,3,0,0.00118456
0.7,3.1,0,0.00121538
0.7,3.2,0,0.00124626
0.7,3.3,0,0.00127624
0.7,3.4,0,0.00130517
0.7,3.5,0,0.00133415
0.7,3.6,0,0.00136104
0.7,3.7,0,0.0013879
0.7,3.8,0,0.00141374
0.7,3.9,0,0.00143843
0.7,4,0,0.00146308
0.7,4.1,0,0.00148559
0.7,4.2,0,0.00150801
0.7,4.3,0,0.00152928
0.7,4.4,0,0.00154935
0.7,4.5,0,0.00156932
0.7,4.6,0,0.00158703
0.7,4.7,0,0.00160466
0.7,4.8,0,0.00162077
0.7,4.9,0,0.00163518
0.7,5,0,0.00164941
0.7,5.1,0,0.00166314
0.7,5.2,0,0.00167664
0.7,5.3,0,0.00168738
0.7,5.4,0,0.00169814
0.7,5.5,0,0.00170679
0.7,5.6,0,0.00171549
0.7,5.7,0,0.00172201
0.7,5.8,0,0.00172863
0.7,5.9,0,0.00173302
0.7,6,0,0.00173752
0.7,6.1,0,0.00173977
0.7,6.2,0,0.00174216
0.7,6.3,0,0.00174227
0.7,6.4,0,0.00174252
0.7,6.5,0,0.00174049
0.7,6.6,0,0.00173861
0.7,6.7,0,0.00173449
0.7,6.8,0,0.00173049
0.7,6.9,0,0.0017237
0.7,7,0,0.00171682
0.7,7.1,0,0.00170881
0.7,7.2,0,0.00170066
0.7,7.3,0,0.00169186
0.7,7.4,0,0.00168019
0.7,7.5,0,0.00166852
0.7,7.6,0,0.00165591
0.7,7.7,0,0.00164134
0.7,7.8,0,0.00162678
0.7,7.9,0,0.00161084
0.7,8,0,0.00159348
0.7,8.1,0,0.00157612
0.7,8.2,0,0.00155699
0.7,8.3,0,0.00153693
0.7,8.4,0,0.00151687
0.7,8.5,0,0.0014947
0.7,8.6,0,0.00147204
0.7,8.7,0,0.00144947
0.7,8.8,0,0.00142433
0.7,8.9,0,0.0013992
0.7,9,0,0.00137411
0.7,9.1,0,0.0013463
0.7,9.2,0,0.00131882
0.7,9.3,0,0.00129074
0.7,9.4,0,0.00126106
0.7,9.5,0,0.00123137
0.7,9.6,0,0.00120084
0.7,9.7,0,0.00116909
0.7,9.8,0,0.00113734
0.7,9.9,0,0.00110453
0.7,10,0,0.00107087
0.7,10.1,0,0.00103721
0.7,10.2,0,0.00100236
0.7,10.3,0,0.000966944
0.7,10.4,0,0.000931528
0.7,10.5,0,0.000894843
0.7,10.6,0,0.00085784
0.7,10.7,0,0.000821339
0.7,10.8,0,0.000782546
0.7,10.9,0,0.000744133
0.7,11,0,0.000705971
0.7,11.1,0,0.000666058
0.7,11.2,0,0.000626416
0.7,11.3,0,0.000586669
0.7,11.4,0,0.000545988
0.7,11.5,0,0.000505307
0.7,11.6,0,0.00046449
0.7,11.7,0,0.000422965
0.7,11.8,0,0.000381441
0.7,11.9,0,0.000339804
0.7,12,0,0.000297637
0.7,12.1,0,0.00025547
0.7,12.2,0,0.000213268
0.7,12.3,0,0.000170663
0.7,12.4,0,0.000128117
0.7,12.5,0,8.55465e-05
0.7,12.6,0,4.2702e-05
0.7,12.7,0,2.18301e-06
0.8,0,0,0
0.8,0.1,0,4.35709e-05
0.8,0.2,0,8.70638e-05
0.8,0.3,0,0.000130611
0.8,0.4,0,0.000173906
0.8,0.5,0,0.000217666
0.8,0.6,0,0.000260291
0.8,0.7,0,0.000303232
0.8,0.8,0,0.000346044
0.8,0.9,0,0.000388462
0.8,1,0,0.000431738
0.8,1.1,0,0.000472723
0.8,1.2,0,0.000514454
0.8,1.3,0,0.000555849
0.8,1.4,0,0.000596734
0.8,1.5,0,0.000638936
0.8,1.6,0,0.000677561
0.8,1.7,0,0.000717443
0.8,1.8,0,0.000756781
0.8,1.9,0,0.000795511
0.8,2,0,0.000836096
0.8,2.1,0,0.000871676
0.8,2.2,0,0.000909107
0.8,2.3,0,0.0009458
0.8,2.4,0,0.000981792
0.8,2.5,0,0.00102024
0.8,2.6,0,0.00105216
0.8,2.7,0,0.00108658
0.8,2.8,0,0.00112009
0.8,2.9,0,0.0011528
0.8,3,0,0.0011886
0.8,3.1,0,0.00121633
0.8,3.2,0,0.00124721
0.8,3.3,0,0.00127705
0.8,3.4,0,0.00130598
0.8,3.5,0,0.0013386
0.8,3.6,0,0.00136171
0.8,3.7,0,0.00138857
0.8,3.8,0,0.00141429
0.8,3.9,0,0.00143898
0.8,4,0,0.00146788
0.8,4.1,0,0.00148605
0.8,4.2,0,0.00150847
0.8,4.3,0,0.0015297
0.8,4.4,0,0.00154977
0.8,4.5,0,0.00157446
0.8,4.6,0,0.00158748
0.8,4.7,0,0.0016051
0.8,4.8,0,0.00162128
0.8,4.9,0,0.0016357
0.8,5,0,0.00165488
0.8,5.1,0,0.00166366
0.8,5.2,0,0.00168225
0.8,5.3,0,0.00168797
0.8,5.4,0,0.00170386
0.8,5.5,0,0.00170747
0.8,5.6,0,0.00172129
0.8,5.7,0,0.00172276
0.8,5.8,0,0.00173448
0.8,5.9,0,0.00173381
0.8,6,0,0.00174341
0.8,6.1,0,0.00174061
0.8,6.2,0,0.00174805
0.8,6.3,0,0.00174312
0.8,6.4,0,0.0017484
0.8,6.5,0,0.00174135
0.8,6.6,0,0.00174445
0.8,6.7,0,0.00173531
0.8,6.8,0,0.00173625
0.8,6.9,0,0.00172449
0.8,7,0,0.00172246
0.8,7.1,0,0.00170975
0.8,7.2,0,0.0017016
0.8,7.3,0,0.00169376
0.8,7.4,0,0.00168113
0.8,7.5,0,0.00166945
0.8,7.6,0,0.00165696
0.8,7.7,0,0.00164239
0.8,7.8,0,0.00162783
0.8,7.9,0,0.00161211
0.8,8,0,0.00159475
0.8,8.1,0,0.00157739
0.8,8.2,0,0.00155854
0.8,8.3,0,0.00153848
0.8,8.4,0,0.00151842
0.8,8.5,0,0.00149656
0.8,8.6,0,0.00147391
0.8,8.7,0,0.00145279
0.8,8.8,0,0.00142652
0.8,8.9,0,0.00140139
0.8,9,0,0.00137829
0.8,9.1,0,0.00134881
0.8,9.2,0,0.00132133
0.8,9.3,0,0.00129354
0.8,9.4,0,0.00126385
0.8,9.5,0,0.00123417
0.8,9.6,0,0.00120386
0.8,9.7,0,0.00117211
0.8,9.8,0,0.00114036
0.8,9.9,0,0.00110772
0.8,10,0,0.00107405
0.8,10.1,0,0.00104039
0.8,10.2,0,0.00100561
0.8,10.3,0,0.000970194
0.8,10.4,0,0.000934779
0.8,10.5,0,0.000898063
0.8,10.6,0,0.00086106
0.8,10.7,0,0.000824621
0.8,10.8,0,0.000785629
0.8,10.9,0,0.000747215
0.8,11,0,0.00070885
0.8,11.1,0,0.000668896
0.8,11.2,0,0.000629253
0.8,11.3,0,0.000589158
0.8,11.4,0,0.000548477
0.8,11.5,0,0.000507796
0.8,11.6,0,0.000466538
0.8,11.7,0,0.000425013
0.8,11.8,0,0.000383489
0.8,11.9,0,0.000341332
0.8,12,0,0.000299165
0.8,12.1,0,0.000256998
0.8,12.2,0,0.000214212
0.8,12.3,0,0.000171607
0.8,12.4,0,0.000128976
0.8,12.5,0,8.5859e-05
0.8,12.6,0,4.30145e-05
0.8,12.7,0,0
0.9,0,0,0
0.9,0.1,0,4.37269e-05
0.9,0.2,0,8.72198e-05
0.9,0.3,0,0.000131073
0.9,0.4,0,0.000174368
0.9,0.5,0,0.000219058
0.9,0.6,0,0.000261051
0.9,0.7,0,0.000303992
0.9,0.8,0,0.000347068
0.9,0.9,0,0.000389486
0.9,1,0,0.000434478
0.9,1.1,0,0.000473969
0.9,1.2,0,0.000515701
0.9,1.3,0,0.000557269
0.9,1.4,0,0.000598153
0.9,1.5,0,0.000642992
0.9,1.6,0,0.0006791
0.9,1.7,0,0.000718982
0.9,1.8,0,0.000758385
0.9,1.9,0,0.000797114
0.9,2,0,0.000841411
0.9,2.1,0,0.000873291
0.9,2.2,0,0.000910722
0.9,2.3,0,0.000947379
0.9,2.4,0,0.00098337
0.9,2.5,0,0.00102674
0.9,2.6,0,0.00105367
0.9,2.7,0,0.00108808
0.9,2.8,0,0.00112149
0.9,2.9,0,0.0011542
0.9,3,0,0.00119617
0.9,3.1,0,0.00121761
0.9,3.2,0,0.00124849
0.9,3.3,0,0.0012782
0.9,3.4,0,0.00130713
0.9,3.5,0,0.00134712
0.9,3.6,0,0.00136273
0.9,3.7,0,0.00138959
0.9,3.8,0,0.00141521
0.9,3.9,0,0.0014399
0.9,4,0,0.00147723
0.9,4.1,0,0.00148689
0.9,4.2,0,0.00150931
0.9,4.3,0,0.00153052
0.9,4.4,0,0.00155059
0.9,4.5,0,0.00158452
0.9,4.6,0,0.00158834
0.9,4.7,0,0.00160596
0.9,4.8,0,0.00162245
0.9,4.9,0,0.00163687
0.9,5,0,0.00166558
0.9,5.1,0,0.00166466
0.9,5.2,0,0.0016932
0.9,5.3,0,0.00168884
0.9,5.4,0,0.00171498
0.9,5.5,0,0.00170843
0.9,5.6,0,0.00173254
0.9,5.7,0,0.00172379
0.9,5.8,0,0.00174581
0.9,5.9,0,0.00173489
0.9,6,0,0.00175478
0.9,6.1,0,0.00174172
0.9,6.2,0,0.00175942
0.9,6.3,0,0.00174426
0.9,6.4,0,0.00175972
0.9,6.5,0,0.0017425
0.9,6.6,0,0.00175569
0.9,6.7,0,0.00173641
0.9,6.8,0,0.00174735
0.9,6.9,0,0.00172575
0.9,7,0,0.00173333
0.9,7.1,0,0.00171147
0.9,7.2,0,0.00170332
0.9,7.3,0,0.00170431
0.9,7.4,0,0.00168263
0.9,7.5,0,0.00167095
0.9,7.6,0,0.0016647
0.9,7.7,0,0.00164398
0.9,7.8,0,0.00162986
0.9,7.9,0,0.00161647
0.9,8,0,0.00159654
0.9,8.1,0,0.00158268
0.9,8.2,0,0.0015606
0.9,8.3,0,0.00154054
0.9,8.4,0,0.00152652
0.9,8.5,0,0.00149891
0.9,8.6,0,0.00147625
0.9,8.7,0,0.00146162
0.9,8.8,0,0.00142917
0.9,8.9,0,0.00140404
0.9,9,0,0.00138669
0.9,9.1,0,0.00135175
0.9,9.2,0,0.00132427
0.9,9.3,0,0.00130133
0.9,9.4,0,0.00126705
0.9,9.5,0,0.00123736
0.9,9.6,0,0.00120958
0.9,9.7,0,0.00117551
0.9,9.8,0,0.0011444
0.9,9.9,0,0.00111186
0.9,10,0,0.00107758
0.9,10.1,0,0.00104552
0.9,10.2,0,0.00100918
0.9,10.3,0,0.000973763
0.9,10.4,0,0.000940397
0.9,10.5,0,0.000901568
0.9,10.6,0,0.000864565
0.9,10.7,0,0.000829655
0.9,10.8,0,0.000788963
0.9,10.9,0,0.000750549
0.9,11,0,0.000713219
0.9,11.1,0,0.000671949
0.9,11.2,0,0.000632306
0.9,11.3,0,0.000592679
0.9,11.4,0,0.000551145
0.9,11.5,0,0.000510464
0.9,11.6,0,0.000469078
0.9,11.7,0,0.000427202
0.9,11.8,0,0.000385697
0.9,11.9,0,0.000342995
0.9,12,0,0.000300796
0.9,12.1,0,0.000258547
0.9,12.2,0,0.000215219
0.9,12.3,0,0.000172614
0.9,12.4,0,0.000129745
0.9,12.5,0,8.61989e-05
0.9,12.6,0,4.33544e-05
0.9,12.7,0,0
1,0,0,0
1,0.1,0,4.38829e-05
1,0.2,0,8.79246e-05
1,0.3,0,0.000131778
1,0.4,0,0.00017483
1,0.5,0,0.00022045
1,0.6,0,0.000261811
1,0.7,0,0.000306061
1,0.8,0,0.000349137
1,0.9,0,0.00039051
1,1,0,0.000437219
1,1.1,0,0.000475215
1,1.2,0,0.000519104
1,1.3,0,0.000560672
1,1.4,0,0.000599573
1,1.5,0,0.000647047
1,1.6,0,0.000680639
1,1.7,0,0.000723676
1,1.8,0,0.000763079
1,1.9,0,0.000798718
1,2,0,0.000846727
1,2.1,0,0.000874906
1,2.2,0,0.000916639
1,2.3,0,0.000953295
1,2.4,0,0.000984949
1,2.5,0,0.00103323
1,2.6,0,0.00105517
1,2.7,0,0.00109513
1,2.8,0,0.00112854
1,2.9,0,0.0011556
1,3,0,0.00120374
1,3.1,0,0.00121888
1,3.2,0,0.00125655
1,3.3,0,0.00128626
1,3.4,0,0.00130827
1,3.5,0,0.00135564
1,3.6,0,0.00136376
1,3.7,0,0.00139854
1,3.8,0,0.00142416
1,3.9,0,0.00144082
1,4,0,0.00148658
1,4.1,0,0.00148774
1,4.2,0,0.00151904
1,4.3,0,0.00154024
1,4.4,0,0.0015514
1,4.5,0,0.00159459
1,4.6,0,0.0015892
1,4.7,0,0.00161636
1,4.8,0,0.00163285
1,4.9,0,0.00163804
1,5,0,0.00167629
1,5.1,0,0.00166566
1,5.2,0,0.00170415
1,5.3,0,0.0016897
1,5.4,0,0.0017261
1,5.5,0,0.00170939
1,5.6,0,0.00174378
1,5.7,0,0.00172482
1,5.8,0,0.00175714
1,5.9,0,0.00173597
1,6,0,0.00176614
1,6.1,0,0.00174284
1,6.2,0,0.00177078
1,6.3,0,0.0017454
1,6.4,0,0.00177105
1,6.5,0,0.00174364
1,6.6,0,0.00176692
1,6.7,0,0.00173751
1,6.8,0,0.00175845
1,6.9,0,0.00172701
1,7,0,0.00174419
1,7.1,0,0.00171319
1,7.2,0,0.00170737
1,7.3,0,0.00171487
1,7.4,0,0.00168412
1,7.5,0,0.0016782
1,7.6,0,0.00167494
1,7.7,0,0.00164557
1,7.8,0,0.00163979
1,7.9,0,0.00162641
1,8,0,0.00159834
1,8.1,0,0.00159227
1,8.2,0,0.0015696
1,8.3,0,0.00154259
1,8.4,0,0.00153575
1,8.5,0,0.00150488
1,8.6,0,0.0014786
1,8.7,0,0.00147045
1,8.8,0,0.00143263
1,8.9,0,0.00140669
1,9,0,0.00139508
1,9.1,0,0.00135469
1,9.2,0,0.00132918
1,9.3,0,0.00130926
1,9.4,0,0.00127025
1,9.5,0,0.00124389
1,9.6,0,0.00121699
1,9.7,0,0.00117891
1,9.8,0,0.00115126
1,9.9,0,0.00111872
1,10,0,0.00108111
1,10.1,0,0.0010518
1,10.2,0,0.00101489
1,10.3,0,0.000977332
1,10.4,0,0.00094607
1,10.5,0,0.000905929
1,10.6,0,0.000868071
1,10.7,0,0.000834689
1,10.8,0,0.000792296
1,10.9,0,0.000754019
1,11,0,0.000717587
1,11.1,0,0.000675002
1,11.2,0,0.000635689
1,11.3,0,0.00059636
1,11.4,0,0.000553813
1,11.5,0,0.000513413
1,11.6,0,0.000472051
1,11.7,0,0.000429392
1,11.8,0,0.000387948
1,11.9,0,0.000345246
1,12,0,0.000302427
1,12.1,0,0.000260062
1,12.2,0,0.000216561
1,12.3,0,0.000173621
1,12.4,0,0.000130514
1,12.5,0,8.66517e-05
1,12.6,0,4.36943e-05
1,12.7,0,0
1.1,0,0,0
1.1,0.1,0,4.39609e-05
1.1,0.2,0,8.86293e-05
1.1,0.3,0,0.000132482
1.1,0.4,0,0.000175757
1.1,0.5,0,0.000221842
1.1,0.6,0,0.000262888
1.1,0.7,0,0.000308131
1.1,0.8,0,0.000351206
1.1,0.9,0,0.000392393
1.1,1,0,0.000439959
1.1,1.1,0,0.000477209
1.1,1.2,0,0.000522507
1.1,1.3,0,0.000564075
1.1,1.4,0,0.00060231
1.1,1.5,0,0.000651103
1.1,1.6,0,0.000683436
1.1,1.7,0,0.00072837
1.1,1.8,0,0.000767773
1.1,1.9,0,0.000802177
1.1,2,0,0.000852042
1.1,2.1,0,0.000878371
1.1,2.2,0,0.000922555
1.1,2.3,0,0.000959212
1.1,2.4,0,0.000988985