/*--------------------------------*- C++ -*----------------------------------*\
| =========                 |                                                 |
| \\      /  F ield         | OpenFOAM: The Open Source CFD Toolbox           |
|  \\    /   O peration     | Version:  v1806                                 |
|   \\  /    A nd           | Web:      www.OpenFOAM.com                      |
|    \\/     M anipulation  |                                                 |
\*---------------------------------------------------------------------------*/
FoamFile
{
    version     2.0;
    format      ascii;
    class       volScalarField;
    location    "50";
    object      p;
}
// * * * * * * * * * * * * * * * * * * * * * * * * * * * * * * * * * * * * * //

dimensions      [0 2 -2 0 0 0 0];


internalField   nonuniform List<scalar> 
2400
(
0.000450822
0.000449893
0.000447821
0.00044459
0.000440242
0.000434821
0.000428363
0.000420898
0.000412463
0.000403106
0.000392887
0.000381876
0.000370161
0.000357835
0.000345018
0.000331827
0.000318385
0.00030492
0.000291227
0.000278862
0.00135661
0.00135413
0.00134852
0.00133963
0.00132753
0.00131235
0.00129415
0.00127303
0.00124909
0.00122244
0.00119326
0.00116174
0.00112811
0.00109266
0.00105569
0.00101759
0.000978702
0.000939733
0.000900483
0.000863696
0.00227337
0.00226934
0.00226019
0.00224563
0.00222575
0.0022007
0.00217062
0.00213562
0.00209583
0.00205144
0.00200271
0.00194994
0.00189351
0.00183385
0.00177149
0.00170704
0.00164108
0.00157468
0.00150769
0.00144381
0.00320799
0.00320237
0.00318962
0.00316931
0.00314152
0.00310645
0.00306425
0.00301503
0.00295894
0.00289622
0.00282716
0.00275216
0.00267171
0.00258642
0.00249698
0.00240426
0.00230911
0.00221291
0.0021159
0.0020225
0.00416746
0.00416025
0.00414387
0.00411776
0.00408199
0.00403676
0.0039822
0.00391839
0.00384546
0.00376361
0.00367317
0.00357457
0.0034684
0.00335538
0.0032364
0.00311254
0.002985
0.00285544
0.00272475
0.00259765
0.00515882
0.00515002
0.00513005
0.00509818
0.00505445
0.00499902
0.00493194
0.0048532
0.00476283
0.00466097
0.00454787
0.00442396
0.00428986
0.00414635
0.00399451
0.0038356
0.00367124
0.00350333
0.00333371
0.0031671
0.00618903
0.00617872
0.00615528
0.00611787
0.00606641
0.00600098
0.00592148
0.00582771
0.00571951
0.00559683
0.0054598
0.0053087
0.00514408
0.00496675
0.00477788
0.00457891
0.00437189
0.00415897
0.00394324
0.00372916
0.00726476
0.00725308
0.00722653
0.00718408
0.00712555
0.00705081
0.0069595
0.00685112
0.00672519
0.00658134
0.00641936
0.00623928
0.00604141
0.00582644
0.00559556
0.0053503
0.00509314
0.00482649
0.00455497
0.00428282
0.00839196
0.00837921
0.0083502
0.00830375
0.00823946
0.00815689
0.00805529
0.00793369
0.00779109
0.00762658
0.0074394
0.00722906
0.00699542
0.0067388
0.0064602
0.00616114
0.00584442
0.00551285
0.00517261
0.00482832
0.00957525
0.00956193
0.0095316
0.00948293
0.00941521
0.00932754
0.00921859
0.00908671
0.00893011
0.00874704
0.00853588
0.00829522
0.0080241
0.0077221
0.00738968
0.00702806
0.00664015
0.00622925
0.00580305
0.00536778
0.0108169
0.0108038
0.010774
0.010726
0.0106586
0.0105704
0.0104591
0.0103222
0.0101569
0.00996001
0.00972865
0.00945998
0.00915157
0.00880165
0.0084095
0.00797555
0.00750231
0.00699358
0.00645828
0.00590604
0.0121156
0.012104
0.0120775
0.0120344
0.0119732
0.0118913
0.0117857
0.0116526
0.0114875
0.0112857
0.0110422
0.0107519
0.0104101
0.0100127
0.00955649
0.0090402
0.00846497
0.00783455
0.0071588
0.00645235
0.0134648
0.0134563
0.0134369
0.0134049
0.0133579
0.0132927
0.0132048
0.0130888
0.0129384
0.0127466
0.0125056
0.0122071
0.0118427
0.011404
0.0108841
0.0102775
0.00958225
0.00879992
0.00794107
0.00702534
0.0148503
0.0148472
0.01484
0.014827
0.0148054
0.0147708
0.0147173
0.014638
0.0145243
0.0143662
0.0141523
0.0138697
0.0135046
0.0130424
0.0124691
0.0117714
0.0109407
0.0099715
0.00887328
0.00766708
0.0162483
0.0162533
0.0162644
0.0162804
0.0162979
0.0163116
0.0163148
0.0162989
0.0162531
0.0161641
0.0160161
0.0157902
0.015465
0.0150162
0.0144189
0.0136457
0.0126753
0.0114856
0.0100796
0.00847086
0.0176231
0.0176392
0.0176753
0.0177312
0.0178033
0.0178862
0.0179726
0.0180534
0.0181164
0.0181458
0.0181214
0.0180176
0.0178032
0.0174397
0.0168849
0.0160865
0.0149993
0.0135661
0.0117722
0.00961035
0.0189263
0.0189561
0.0190235
0.0191294
0.0192712
0.0194439
0.0196416
0.019856
0.0200757
0.0202846
0.0204606
0.0205733
0.020583
0.0204353
0.020064
0.0193775
0.0182835
0.016644
0.0143876
0.0114461
0.0200975
0.0201427
0.0202452
0.0204081
0.02063
0.0209083
0.0212402
0.021621
0.0220436
0.0224959
0.0229593
0.0234049
0.0237902
0.0240517
0.0241043
0.0238172
0.0230437
0.0215102
0.0189932
0.0151129
0.0210688
0.0211292
0.0212664
0.0214859
0.0217888
0.0221759
0.0226498
0.0232128
0.0238665
0.0246097
0.0254358
0.0263289
0.0272577
0.0281628
0.0289479
0.0294424
0.0294412
0.0285178
0.0263106
0.0215502
0.0217726
0.0218446
0.0220102
0.0222758
0.0226448
0.0231229
0.0237187
0.024444
0.0253131
0.0263423
0.0275492
0.02895
0.0305519
0.032339
0.0342424
0.0360698
0.037399
0.0371924
0.0339879
0.0233916
0.00021821
0.000239531
0.000203742
0.00022928
0.000248118
0.00040998
0.00090589
0.00157936
0.00188752
0.00172133
0.000679934
0.000746978
0.000582928
0.000647633
0.000828064
0.00128621
0.00229987
0.00350434
0.00400834
0.003663
0.00114073
0.00125338
0.00095584
0.00107185
0.00138982
0.00208271
0.00357409
0.00538037
0.00614136
0.00557729
0.00159164
0.00176101
0.00132098
0.00148867
0.00192949
0.00284558
0.00472089
0.00686971
0.00772616
0.00703296
0.00202646
0.00226977
0.00167001
0.00189774
0.00245304
0.00355788
0.00572271
0.00811752
0.00904238
0.00823775
0.00243633
0.00277789
0.00199746
0.00230026
0.0029566
0.0042176
0.00658796
0.0091092
0.0100472
0.00917592
0.00280973
0.0032839
0.00229842
0.00269716
0.00343918
0.00481575
0.00730292
0.0098697
0.0107995
0.00989424
0.00313169
0.00378604
0.00256889
0.0030899
0.00389706
0.00534101
0.00786189
0.0104104
0.0113203
0.0104165
0.00338249
0.00428193
0.00280601
0.00347891
0.00432483
0.00577991
0.00825832
0.0107485
0.0116402
0.0107693
0.00353597
0.00476819
0.00300746
0.00386319
0.004714
0.0061193
0.00849289
0.010905
0.0117875
0.0109767
0.00355757
0.00523991
0.00316994
0.00423981
0.00505283
0.00635049
0.00857611
0.0109078
0.011793
0.0110623
0.00340113
0.0056904
0.00328658
0.00460355
0.00532759
0.00647332
0.00853146
0.0107918
0.0116888
0.0110491
0.0030033
0.00611198
0.00334415
0.00494577
0.00552613
0.00650049
0.00839566
0.0105977
0.0115083
0.0109592
0.00227322
0.00649915
0.0033223
0.00525288
0.00564199
0.00645916
0.00821485
0.0103678
0.0112842
0.0108135
0.00108078
0.00685115
0.00319735
0.00550581
0.00567825
0.00638676
0.00803619
0.0101409
0.0110464
0.0106308
-0.000767592
0.00716165
0.00295079
0.00568259
0.0056484
0.00631976
0.00789668
0.00994668
0.0108201
0.0104276
-0.00369132
0.0073748
0.00257905
0.00576595
0.00557226
0.00627796
0.00781297
0.00980295
0.0106233
0.0102194
-0.00812258
0.00741833
0.00211517
0.00575526
0.00547205
0.00626122
0.00778248
0.00971205
0.0104744
0.01002
-0.0119838
0.00744808
0.00169915
0.00566632
0.0053644
0.00625513
0.007783
0.0096693
0.0103788
0.00985215
-0.0228655
0.00685173
0.00119436
0.00541924
0.00521503
0.00620858
0.00780891
0.00969607
0.0103715
0.00967884
0.00140221
0.00115387
0.000937376
0.000758196
0.00061462
0.000502107
0.000414244
0.000345141
0.000290023
0.000245226
0.000208045
0.000176515
0.0001492
0.000125044
0.00010325
8.31797e-05
6.42804e-05
4.60395e-05
2.79446e-05
9.10431e-06
0.00306422
0.0026231
0.00221977
0.00186388
0.00156059
0.00130965
0.00110438
0.000936395
0.000797782
0.000681856
0.000583302
0.00049805
0.000422997
0.00035577
0.000294507
0.000237663
0.000183848
0.000131714
7.98538e-05
2.59792e-05
0.0046549
0.00401224
0.00341815
0.00289302
0.00244262
0.00206598
0.00175432
0.00149629
0.00128102
0.00109918
0.000943197
0.000807216
0.000686725
0.000578225
0.000478934
0.000386517
0.00029885
0.000213861
0.000129399
4.20851e-05
0.00592387
0.00515986
0.00444059
0.00379413
0.00323155
0.00275448
0.00235456
0.00201949
0.00173689
0.00149579
0.0012872
0.00110401
0.000940671
0.000792843
0.000657016
0.000530209
0.000409697
0.000292809
0.000176825
5.74945e-05
0.0069851
0.00613348
0.00532146
0.0045829
0.00393302
0.00337563
0.00290319
0.00250313
0.00216228
0.00186876
0.00161268
0.00138612
0.00118286
0.00099796
0.000827382
0.000667654
0.000515577
0.000368018
0.00022184
7.20825e-05
0.00784233
0.00694057
0.00606874
0.00526552
0.00455091
0.00393141
0.00340085
0.00294703
0.00255658
0.00221725
0.00191871
0.00165264
0.00141245
0.00119283
0.000989401
0.00079835
0.000616132
0.000439272
0.000264349
8.5811e-05
0.00852475
0.00760109
0.00669537
0.0058502
0.00509021
0.0044247
0.00384912
0.00335193
0.00292002
0.00254119
0.00220506
0.00190328
0.00162912
0.00137716
0.00114283
0.000922124
0.000711268
0.00050655
0.000304379
9.86921e-05
0.00905155
0.00813058
0.00721298
0.00634511
0.00555644
0.0048591
0.00425022
0.00371917
0.00325334
0.00284092
0.00247186
0.00213801
0.00183279
0.00155084
0.00128758
0.00103891
0.000800969
0.000569883
0.000341981
0.000110748
0.0094418
0.00854422
0.00763298
0.00675859
0.00595552
0.0052387
0.00460696
0.00405059
0.00355771
0.00311717
0.00271949
0.00235701
0.00202352
0.00171388
0.00142363
0.00114873
0.000885265
0.000629321
0.00037721
0.000122
0.00971284
0.0088563
0.00796646
0.00709899
0.00629364
0.00556805
0.00492258
0.00434846
0.00383468
0.00337093
0.00294859
0.00256068
0.00220153
0.00186639
0.00155106
0.00125162
0.000964216
0.000684931
0.000410124
0.000132473
0.00988099
0.00908049
0.00822413
0.00737467
0.0065772
0.00585198
0.00520068
0.00461541
0.00408608
0.00360347
0.00315998
0.00274952
0.00236714
0.00200859
0.00167001
0.00134769
0.00103791
0.000736786
0.000440779
0.000142189
0.00996138
0.00922994
0.00841627
0.00759388
0.00681274
0.00609559
0.00544516
0.00485429
0.00431396
0.0038162
0.00335461
0.00292417
0.00252076
0.00214072
0.00178064
0.00143707
0.00110644
0.000784964
0.000469233
0.000151168
0.00996743
0.00931757
0.00855263
0.0077648
0.0070069
0.00630418
0.00566011
0.00506819
0.00452055
0.00401067
0.00353354
0.00308533
0.00266284
0.0022631
0.00188316
0.00151989
0.00116991
0.000829545
0.000495539
0.000159429
0.00991018
0.00935625
0.00864228
0.00789542
0.00716636
0.00648319
0.0058498
0.00526029
0.00470814
0.00418848
0.00369786
0.00323372
0.00279386
0.00237604
0.00197778
0.0015963
0.00122844
0.000870604
0.00051975
0.000166986
0.00979704
0.00935833
0.00869335
0.00799354
0.00729784
0.00663818
0.00601859
0.00543383
0.00487905
0.00435125
0.00384866
0.00337007
0.0029143
0.00247984
0.00206471
0.00166644
0.00128211
0.00090821
0.000541916
0.000173849
0.00963077
0.00933538
0.00871279
0.00806679
0.00740802
0.0067748
0.00617084
0.00559202
0.00503554
0.00450053
0.00398697
0.00349506
0.0030246
0.00257479
0.00214413
0.00173044
0.00133102
0.000942421
0.000562084
0.000180019
0.00940948
0.00929877
0.00870623
0.00812301
0.00750363
0.00689869
0.00631081
0.0057379
0.00517972
0.00463772
0.00411374
0.0036093
0.00312516
0.00266114
0.0022162
0.0017884
0.00137525
0.000973287
0.000580303
0.000185483
0.00914758
0.0092589
0.00867842
0.00816965
0.00759118
0.00701523
0.00644245
0.00587422
0.0053134
0.00476404
0.00422974
0.00371329
0.00321629
0.0027391
0.00228106
0.00184041
0.00141485
0.00100084
0.000596606
0.000190238
0.00870558
0.00919703
0.00863415
0.00821284
0.00767656
0.00712918
0.00656898
0.00600311
0.00543799
0.00488037
0.00433552
0.00380736
0.00329818
0.00280879
0.00233877
0.00188652
0.00144987
0.00102512
0.000610998
0.000194349
0.00868176
0.00915057
0.00858849
0.00826508
0.00776565
0.00724566
0.00669312
0.0061263
0.00555447
0.00498728
0.00443141
0.00389169
0.00337094
0.00287023
0.00238934
0.0019267
0.00148032
0.00104599
0.000623765
0.000197601
0.00779529
0.00913973
0.00855213
0.00832729
0.00782524
0.00732213
0.00676733
0.00619723
0.00561923
0.00504531
0.00448243
0.00393586
0.00340856
0.00290165
0.00241501
0.00194688
0.00149574
0.00105592
0.000631477
0.000196764
0.00770872
0.00912879
0.0085429
0.00834334
0.00784384
0.00734513
0.00678991
0.00621871
0.00563881
0.0050628
0.00449777
0.00394911
0.00341981
0.00291104
0.00242266
0.0019529
0.00150031
0.00105894
0.000633544
0.000196914
0.00769518
0.00911238
0.0085377
0.00835759
0.00786315
0.00736787
0.00681238
0.00623993
0.0056581
0.00507995
0.00451277
0.00396202
0.00343076
0.00292014
0.00243007
0.00195872
0.00150469
0.00106192
0.000635362
0.000197362
0.00766685
0.00909642
0.00853526
0.00837225
0.00788322
0.00739074
0.00683485
0.00626098
0.00567712
0.00509679
0.00452743
0.00397461
0.00344139
0.00292898
0.00243724
0.00196435
0.00150892
0.0010648
0.000637083
0.000197831
0.00762417
0.00908235
0.0085353
0.00838758
0.00790403
0.00741379
0.00685733
0.00628185
0.00569587
0.00511332
0.00454176
0.00398686
0.00345172
0.00293753
0.00244416
0.00196978
0.00151299
0.00106759
0.000638727
0.00019829
0.00757656
0.0090703
0.00853804
0.00840343
0.00792557
0.00743699
0.0068798
0.00630254
0.00571436
0.00512952
0.00455575
0.00399879
0.00346174
0.0029458
0.00245085
0.00197502
0.00151689
0.00107027
0.000640281
0.00019876
0.00752253
0.00906076
0.00854367
0.0084199
0.00794786
0.00746031
0.00690225
0.00632304
0.00573257
0.0051454
0.0045694
0.00401037
0.00347144
0.00295379
0.00245728
0.00198005
0.00152063
0.00107286
0.000641745
0.000199241
0.00744839
0.00905443
0.00855232
0.00843724
0.0079709
0.0074838
0.00692468
0.00634335
0.00575051
0.00516095
0.00458271
0.00402162
0.00348082
0.0029615
0.00246347
0.00198488
0.00152422
0.00107534
0.000643133
0.000199705
0.00735557
0.00904935
0.0085651
0.00845504
0.00799477
0.0075074
0.0069471
0.00636345
0.00576816
0.00517617
0.00459567
0.00403254
0.00348989
0.00296892
0.00246942
0.00198951
0.00152764
0.00107773
0.000644423
0.000200194
0.00736774
0.00903533
0.00858519
0.00847046
0.00801962
0.0075308
0.00696945
0.00638332
0.00578553
0.00519106
0.0046083
0.00404313
0.00349866
0.00297607
0.00247513
0.00199396
0.00153088
0.00108009
0.00064544
0.000201037
0.00836736
0.00893792
0.00868407
0.00851747
0.00811766
0.00761971
0.00705491
0.00645874
0.00585123
0.00524713
0.00465564
0.00408264
0.00353124
0.00300257
0.00249621
0.00201038
0.00154272
0.00108904
0.000648055
0.000206185
0.00821497
0.00901379
0.00890384
0.00870162
0.00830611
0.00778722
0.00719959
0.0065799
0.00595111
0.00532845
0.00472124
0.00413517
0.00357289
0.0030352
0.00252135
0.00202932
0.0015563
0.00109835
0.000652916
0.000207756
0.00891179
0.00929471
0.00919758
0.0089343
0.00850348
0.00795143
0.00733266
0.00668531
0.00603305
0.00539113
0.0047684
0.00417038
0.00359875
0.00305389
0.00253461
0.00203852
0.00156246
0.00110239
0.000654871
0.000208808
0.00945172
0.00962225
0.00950195
0.00917557
0.0086935
0.00810003
0.00744597
0.00676897
0.00609287
0.00543238
0.00479578
0.00418678
0.00360756
0.00305763
0.00253519
0.00203741
0.00156068
0.00110073
0.000653594
0.000208606
0.00999806
0.00999747
0.00980234
0.00940439
0.00886222
0.00822218
0.00753185
0.00682532
0.0061263
0.0054484
0.00479924
0.00418206
0.00359778
0.00304533
0.00252233
0.00202544
0.00155062
0.00109327
0.000648986
0.00020722
0.010501
0.0103585
0.0100707
0.00959898
0.00899583
0.00831022
0.00758241
0.00684788
0.00612826
0.00543581
0.00477702
0.00415438
0.00356792
0.00301585
0.00249516
0.00200198
0.00153181
0.0010797
0.000640844
0.000204666
0.0109318
0.0106733
0.0102889
0.00974263
0.00908013
0.00834957
0.00758945
0.00683102
0.00609446
0.00539103
0.0047262
0.00410159
0.00351635
0.00296794
0.00245274
0.00196633
0.00150375
0.00105969
0.000628959
0.000200912
0.0112694
0.0109113
0.0104359
0.00982002
0.00910414
0.00833413
0.00754629
0.00676884
0.00602016
0.00531038
0.00464391
0.00402146
0.00344134
0.00290031
0.0023941
0.00191777
0.00146592
0.00103289
0.000613117
0.000195908
0.011495
0.011053
0.0104966
0.00981889
0.00905737
0.00825501
0.00744588
0.00665563
0.0059008
0.00519021
0.00452727
0.00391176
0.0033412
0.00281165
0.00231824
0.00185555
0.00141778
0.000998936
0.0005931
0.000189593
0.0115899
0.0110794
0.0104557
0.00972704
0.00892965
0.0081038
0.00728144
0.0064859
0.00573191
0.00502699
0.00437349
0.00377033
0.00321426
0.00270067
0.00222419
0.00177895
0.0013588
0.00095745
0.000568685
0.000181896
0.0115372
0.0109741
0.010299
0.00953284
0.00871124
0.00787241
0.00704634
0.00625426
0.00550917
0.00481726
0.00417988
0.00359509
0.00305891
0.00256618
0.00211104
0.00168728
0.00128846
0.000908071
0.00053965
0.000172741
0.0113212
0.0107224
0.0100136
0.00922491
0.00839249
0.0075528
0.00673402
0.00595544
0.00522838
0.00455777
0.00394393
0.00338411
0.0028737
0.00240705
0.00197794
0.0015799
0.00120628
0.00085045
0.000505776
0.00016205
0.0109269
0.0103102
0.00958612
0.00879178
0.00796368
0.00713691
0.00633797
0.00558428
0.00488555
0.00424545
0.00366332
0.00313567
0.00265737
0.00222236
0.00182419
0.00145624
0.00111182
0.000784264
0.000466855
0.000149745
0.0103402
0.0097236
0.00900339
0.00822161
0.00741479
0.0066166
0.00585174
0.00513581
0.00447693
0.00387753
0.00333604
0.00284834
0.00240887
0.00201134
0.00164921
0.00131588
0.00100474
0.000709231
0.00042269
0.000135746
0.00954145
0.00894498
0.00825001
0.00750145
0.00673527
0.00598349
0.00526891
0.00460525
0.00399906
0.00345159
0.00296046
0.00252103
0.00212749
0.00177352
0.00145267
0.00115854
0.000884786
0.000625119
0.000373104
0.000119978
0.00851936
0.00796098
0.00731197
0.00661844
0.00591433
0.00522911
0.00458318
0.00398815
0.00344895
0.00296573
0.00253542
0.0021531
0.00181293
0.00150877
0.00123449
0.000984135
0.000751828
0.000531768
0.000317943
0.000102371
0.00722472
0.00673308
0.00616152
0.00555294
0.00493819
0.00434399
0.00378822
0.00328044
0.00282416
0.00241863
0.00206039
0.00174449
0.00146536
0.00121735
0.000994938
0.000792842
0.000605924
0.000429116
0.000257087
8.2865e-05
0.00569322
0.00528134
0.0048036
0.00430192
0.00380105
0.00332231
0.00287941
0.00247909
0.0021231
0.00180983
0.00153566
0.00129594
0.00108576
0.000900277
0.000734915
0.000585382
0.00044756
0.000317403
0.000190591
6.14692e-05
0.00370516
0.00343763
0.00312746
0.00279584
0.00246077
0.00213983
0.00184408
0.00157869
0.00134482
0.00114095
0.000964166
0.00081092
0.000677593
0.000560737
0.000457174
0.000363976
0.000278382
0.000197695
0.000118999
3.8397e-05
0.00166988
0.00152729
0.00135678
0.0011814
0.00101261
0.00085879
0.000723554
0.000607304
0.000508685
0.000425521
0.000355421
0.000296108
0.000245551
0.000201997
0.000163948
0.000130106
9.93068e-05
7.04725e-05
4.24695e-05
1.37198e-05
-0.018485
0.00730045
0.0018003
0.00526419
0.0053524
0.00619817
0.00746756
0.0089606
0.00971282
0.00866183
-0.00505507
0.0078926
0.00250548
0.00554846
0.00554422
0.00626093
0.00745401
0.00893329
0.00969074
0.00898977
-0.00303323
0.00771392
0.00300249
0.00559936
0.00568374
0.00630703
0.00749118
0.00901331
0.00984684
0.00937823
0.00141286
0.0077731
0.00359368
0.00560172
0.00582182
0.00640314
0.00760945
0.00918518
0.0101004
0.00985827
0.00331664
0.00752728
0.00399264
0.00551804
0.00591814
0.00654572
0.00781933
0.00946019
0.0104519
0.0103625
0.0044918
0.00721802
0.00424226
0.00536704
0.00594195
0.0066991
0.00809355
0.00981063
0.0108698
0.0108825
0.00511997
0.00685595
0.00436549
0.00516777
0.00587713
0.0068069
0.00836712
0.0101819
0.0113008
0.0113565
0.00537181
0.00644316
0.00438139
0.00493337
0.00572591
0.00682548
0.00857244
0.0105093
0.0116903
0.0117605
0.00537166
0.00599138
0.00430831
0.00467302
0.00550121
0.00673616
0.00866008
0.0107351
0.011987
0.0120591
0.0051974
0.00551306
0.00415946
0.00439185
0.00521828
0.00653919
0.00860473
0.0108171
0.0121482
0.0122219
0.00490142
0.00501674
0.00394425
0.0040906
0.00488825
0.00624433
0.0084006
0.0107305
0.0121419
0.0122236
0.00451994
0.00450782
0.00367077
0.00376689
0.00451799
0.00586475
0.00805306
0.0104637
0.0119459
0.0120437
0.00407799
0.00398989
0.00334682
0.00341751
0.00411106
0.00541184
0.00757293
0.0100128
0.0115437
0.0116639
0.00359291
0.00346555
0.00298011
0.00303989
0.00366952
0.00489322
0.0069688
0.00937778
0.0109259
0.0110696
0.00307692
0.00293662
0.00257788
0.00263348
0.00319326
0.00431387
0.00625098
0.0085558
0.0100714
0.0102369
0.00253889
0.00240453
0.00214646
0.00219952
0.00268396
0.00367423
0.0054153
0.0075472
0.00898636
0.00916158
0.00198541
0.00187034
0.00169259
0.00174019
0.00213953
0.00297881
0.0044716
0.00632426
0.00759579
0.00777436
0.001422
0.00133518
0.00122124
0.00126059
0.00156424
0.00221437
0.00339764
0.00491937
0.00599097
0.00614566
0.000852075
0.000801729
0.000739096
0.000759591
0.000958315
0.00140471
0.00218634
0.00316164
0.00385195
0.00397593
0.000278324
0.000265842
0.000255547
0.000254531
0.000307587
0.000494676
0.000889897
0.00138545
0.00173092
0.00179375
0.0219553
0.0220269
0.0221899
0.0224506
0.0228121
0.023279
0.0238582
0.0245589
0.0253913
0.0263657
0.0274905
0.028768
0.0301869
0.0317046
0.0332191
0.0344929
0.0351198
0.0342088
0.0305756
0.0212903
0.0211951
0.0212503
0.0213751
0.0215739
0.0218468
0.0221931
0.0226127
0.0231048
0.023667
0.0242936
0.0249736
0.0256873
0.0264031
0.0270702
0.027619
0.0279473
0.0279038
0.0271525
0.0253497
0.021682
0.0200743
0.0201108
0.020193
0.0203228
0.0204981
0.0207151
0.0209689
0.0212531
0.0215584
0.0218713
0.0221728
0.0224358
0.0226236
0.0226842
0.0225492
0.0221152
0.0212563
0.0197822
0.0175453
0.0144129
0.0187165
0.0187358
0.0187792
0.0188467
0.0189353
0.0190398
0.0191536
0.0192683
0.0193726
0.0194517
0.0194866
0.0194524
0.0193178
0.0190435
0.0185842
0.0178847
0.0168939
0.0155499
0.0138277
0.0117205
0.0172331
0.0172389
0.0172519
0.0172711
0.0172934
0.0173139
0.0173262
0.0173224
0.0172926
0.0172245
0.0171031
0.0169112
0.0166291
0.0162344
0.015704
0.0150127
0.0141388
0.0130611
0.0117742
0.0102946
0.0157112
0.0157077
0.0156998
0.0156859
0.0156637
0.015629
0.015577
0.0155012
0.0153944
0.0152477
0.0150516
0.0147952
0.0144668
0.0140541
0.0135452
0.012929
0.012197
0.0113455
0.0103784
0.00932031
0.0142109
0.0142018
0.0141812
0.0141476
0.0140991
0.0140331
0.0139459
0.0138332
0.0136899
0.0135105
0.0132889
0.0130187
0.0126933
0.0123066
0.0118534
0.0113298
0.0107343
0.0100698
0.00934213
0.00857308
0.0127686
0.0127567
0.0127298
0.0126864
0.0126254
0.0125451
0.0124431
0.0123167
0.0121627
0.0119777
0.0117583
0.0115008
0.0112023
0.01086
0.0104723
0.0100389
0.00956069
0.00904208
0.00848827
0.00791545
0.0114027
0.01139
0.011361
0.0113147
0.0112503
0.0111669
0.0110631
0.0109373
0.0107876
0.0106122
0.0104093
0.0101772
0.00991479
0.00962131
0.00929672
0.00894203
0.0085591
0.00815192
0.00772484
0.00728953
0.0101193
0.0101069
0.0100787
0.0100337
0.00997146
0.00989166
0.00979357
0.00967633
0.00953897
0.00938064
0.00920058
0.00899828
0.00877353
0.00852653
0.008258
0.00796935
0.00766259
0.00734108
0.0070082
0.0066726
0.00891677
0.00890531
0.00887939
0.00883802
0.00878106
0.00870845
0.00861995
0.00851517
0.00839374
0.00825536
0.0080999
0.00792742
0.00773822
0.00753292
0.0073125
0.00707843
0.00683251
0.00657752
0.00631588
0.00605434
0.00778885
0.00777871
0.00775575
0.00771914
0.00766888
0.00760508
0.00752777
0.00743687
0.00733232
0.00721417
0.0070826
0.00693795
0.00678075
0.00661175
0.00643198
0.00624276
0.00604562
0.0058428
0.00563598
0.00543059
0.00672716
0.00671843
0.00669868
0.00666721
0.00662408
0.00656951
0.00650366
0.00642661
0.00633849
0.00623951
0.00612998
0.00601037
0.00588127
0.00574343
0.00559778
0.00544546
0.00528773
0.00512637
0.0049625
0.00480052
0.00572251
0.00571519
0.00569861
0.00567223
0.00563611
0.00559053
0.00553568
0.00547174
0.00539891
0.00531745
0.00522775
0.00513026
0.00502556
0.00491433
0.00479737
0.00467563
0.00455009
0.00442217
0.00429264
0.00416494
0.00476575
0.00475977
0.00474621
0.00472464
0.00469515
0.00465799
0.00461337
0.0045615
0.00450258
0.0044369
0.00436482
0.00428676
0.00420323
0.0041148
0.00402214
0.003926
0.00382717
0.00372671
0.00362521
0.00352524
0.0038482
0.00384345
0.0038327
0.0038156
0.00379225
0.00376285
0.00372762
0.00368673
0.00364039
0.00358886
0.00353243
0.00347148
0.00340643
0.00333773
0.00326593
0.00319158
0.00311533
0.0030379
0.00295985
0.00288288
0.00296173
0.00295813
0.00294998
0.00293702
0.00291933
0.00289709
0.00287045
0.00283959
0.00280467
0.00276589
0.0027235
0.0026778
0.0026291
0.00257776
0.00252418
0.00246878
0.00241205
0.00235445
0.00229652
0.0022392
0.00209884
0.00209631
0.00209059
0.00208149
0.00206907
0.00205347
0.00203481
0.00201322
0.0019888
0.00196172
0.00193216
0.00190032
0.00186642
0.00183071
0.00179348
0.00175499
0.00171561
0.00167556
0.00163542
0.00159539
0.00125255
0.00125102
0.00124757
0.0012421
0.00123466
0.00122533
0.0012142
0.00120133
0.0011868
0.00117071
0.00115316
0.00113428
0.00111419
0.00109304
0.00107098
0.00104813
0.00102476
0.00100082
0.000976965
0.000952731
0.000416279
0.000415711
0.000414447
0.000412474
0.000409821
0.00040652
0.000402601
0.000398089
0.000393014
0.000387407
0.000381308
0.000374756
0.000367803
0.000360481
0.000352859
0.000344914
0.000336778
0.000328157
0.000319505
0.000309781
0.022004
0.0220744
0.0222496
0.0225294
0.0229179
0.0234233
0.0240571
0.0248346
0.025776
0.0269079
0.0282644
0.029892
0.0318475
0.0342128
0.0370707
0.0405527
0.0446725
0.0495082
0.0537527
0.0568965
0.0220633
0.0221332
0.022311
0.0225942
0.0229874
0.0234996
0.0241427
0.0249331
0.0258922
0.0270494
0.0284428
0.0301265
0.0321691
0.0346764
0.0377632
0.0416327
0.0463478
0.0521728
0.0574959
0.0633162
0.0221107
0.0221807
0.0223603
0.022646
0.0230427
0.0235599
0.0242098
0.0250096
0.0259818
0.0271575
0.0285778
0.0303025
0.0324086
0.0350188
0.0382694
0.0424092
0.0475166
0.0539438
0.0598111
0.0668876
0.0221469
0.022217
0.0223978
0.022685
0.023084
0.0236044
0.0242588
0.0250646
0.0260451
0.0272327
0.0286705
0.0304221
0.0325708
0.0352507
0.0386136
0.0429393
0.0483167
0.0551502
0.0613938
0.0690921
0.0221717
0.0222419
0.0224232
0.0227112
0.0231111
0.023633
0.0242892
0.0250976
0.0260817
0.0272744
0.02872
0.030484
0.0326531
0.0353683
0.0387907
0.0432182
0.0487481
0.0558116
0.0622814
0.0702921
0.0221852
0.0222553
0.0224365
0.0227243
0.023124
0.0236454
0.0243011
0.0251085
0.0260913
0.0272822
0.0287254
0.0304866
0.0326529
0.0353669
0.0387924
0.0432322
0.0487901
0.055901
0.0624371
0.0705574
0.0221873
0.0222573
0.0224378
0.0227245
0.0231227
0.0236418
0.0242943
0.0250974
0.026074
0.0272561
0.0286868
0.03043
0.0325704
0.0352463
0.0386181
0.0429801
0.0484413
0.0554174
0.0618628
0.069906
0.0221781
0.0222479
0.0224271
0.0227119
0.0231072
0.0236224
0.0242693
0.0250645
0.0260302
0.027197
0.0286055
0.0303161
0.0324085
0.0350117
0.0382764
0.0424762
0.047725
0.054395
0.0606139
0.0683244
0.0221576
0.0222273
0.0224045
0.0226866
0.0230779
0.0235873
0.0242261
0.0250103
0.0259605
0.0271053
0.0284822
0.0301459
0.0321682
0.0346639
0.0377673
0.0417186
0.0466355
0.0528164
0.0586797
0.0655391
0.0221253
0.0221954
0.0223699
0.0226483
0.0230344
0.0235363
0.0241647
0.0249343
0.025864
0.0269793
0.028313
0.0299116
0.0318343
0.034172
0.0370291
0.0405826
0.0449241
0.0502038
0.0552041
0.0599626
)
;

boundaryField
{
    inlet
    {
        type            zeroGradient;
    }
    outlet
    {
        type            fixedValue;
        value           uniform 0;
    }
    upAndBottom
    {
        type            empty;
    }
    obstacle
    {
        type            zeroGradient;
    }
}


// ************************************************************************* //
