/*--------------------------------*- C++ -*----------------------------------*\
| =========                 |                                                 |
| \\      /  F ield         | OpenFOAM: The Open Source CFD Toolbox           |
|  \\    /   O peration     | Version:  v1806                                 |
|   \\  /    A nd           | Web:      www.OpenFOAM.com                      |
|    \\/     M anipulation  |                                                 |
\*---------------------------------------------------------------------------*/
FoamFile
{
    version     2.0;
    format      ascii;
    class       volScalarField;
    location    "14";
    object      p;
}
// * * * * * * * * * * * * * * * * * * * * * * * * * * * * * * * * * * * * * //

dimensions      [0 2 -2 0 0 0 0];


internalField   nonuniform List<scalar> 
5052
(
4.04411
4.04423
4.04423
4.04411
3.73016
3.73016
3.73016
3.73016
4.30417
4.30429
4.30429
4.30417
-1.22403
-1.22457
-1.22457
-1.22404
-0.459867
-0.460283
-0.460283
-0.459867
-0.87006
-0.870303
-0.870303
-0.870059
1.80608
1.80594
1.80594
1.80608
1.85472
1.8547
1.8547
1.85472
2.42539
2.42545
2.42545
2.4254
2.19722
2.19688
2.19688
2.19722
2.27208
2.27228
2.27228
2.27208
-1.04775
-1.04792
-1.04792
-1.04775
-0.942327
-0.942624
-0.942624
-0.942327
2.6435
2.64355
2.64355
2.6435
2.7876
2.78736
2.78736
2.7876
2.3309
2.33099
2.33099
2.3309
-1.59481
-1.59491
-1.59491
-1.59481
-1.34771
-1.34788
-1.34788
-1.34771
-1.32792
-1.32807
-1.32807
-1.32792
0.865209
0.86534
0.86534
0.865209
0.866235
0.866253
0.866252
0.866235
0.403468
0.403273
0.403272
0.403468
-0.523467
-0.523939
-0.523939
-0.523466
-0.525994
-0.526419
-0.526418
-0.525993
-0.483988
-0.484481
-0.484481
-0.483987
-2.66948
-2.66902
-2.66902
-2.66948
-2.86818
-2.86812
-2.86812
-2.86818
-1.87883
-1.87914
-1.87914
-1.87883
-1.85056
-1.85081
-1.85081
-1.85057
1.48374
1.48369
1.48369
1.48374
1.32215
1.32254
1.32254
1.32215
4.05776
4.05773
4.05773
4.05776
4.12911
4.12899
4.12899
4.12911
4.52598
4.52616
4.52616
4.52598
5.04997
5.0501
5.0501
5.04997
3.51827
3.51837
3.51837
3.51827
2.92055
2.92049
2.92049
2.92055
3.0379
3.0378
3.03781
3.0379
3.70654
3.70633
3.70633
3.70654
4.02155
4.02154
4.02154
4.02155
2.78116
2.78114
2.78114
2.78116
2.59804
2.59804
2.59804
2.59804
2.30643
2.30649
2.30649
2.30643
2.49203
2.49207
2.49207
2.49203
2.27955
2.27971
2.27971
2.27955
2.69077
2.6908
2.6908
2.69077
2.29433
2.29435
2.29435
2.29433
3.40883
3.40881
3.40881
3.40883
4.26662
4.26657
4.26657
4.26662
3.86395
3.86409
3.86409
3.86395
3.57509
3.57511
3.57511
3.57509
3.28649
3.28652
3.28652
3.28649
2.96637
2.96644
2.96644
2.96637
2.69097
2.69094
2.69094
2.69097
2.4519
2.45207
2.45207
2.4519
2.21044
2.21038
2.21038
2.21044
2.02755
2.02773
2.02773
2.02755
2.0569
2.05694
2.05694
2.0569
2.06999
2.06994
2.06994
2.06999
2.08471
2.08477
2.08477
2.08471
3.67126
3.67108
3.67108
3.67126
3.44515
3.4452
3.4452
3.44515
3.35703
3.35693
3.35693
3.35703
3.26689
3.26688
3.26688
3.26689
3.03929
3.03937
3.03937
3.03929
2.77607
2.77613
2.77613
2.77607
2.53539
2.53549
2.53549
2.53539
2.31787
2.31793
2.31793
2.31787
2.10804
2.10803
2.10803
2.10804
1.92914
1.9292
1.9292
1.92914
1.74639
1.74641
1.74641
1.74639
1.80871
1.8087
1.8087
1.80871
1.86315
1.86325
1.86325
1.86315
1.87982
1.87993
1.87993
1.87982
1.85271
1.85276
1.85276
1.85271
1.80865
1.80875
1.80875
1.80865
2.0136
2.01361
2.01361
2.01359
2.25238
2.25247
2.25247
2.25238
2.51289
2.51284
2.51284
2.51289
2.85325
2.85335
2.85335
2.85325
3.17508
3.17506
3.17506
3.17508
3.65067
3.65087
3.65087
3.65067
3.84998
3.84992
3.84993
3.84998
3.10826
3.10831
3.10831
3.10826
2.99748
2.99724
2.99724
2.99748
2.85338
2.85315
2.85315
2.85338
2.65306
2.65308
2.65308
2.65307
2.37124
2.37118
2.37118
2.37124
2.15014
2.15019
2.15019
2.15014
1.92236
1.92237
1.92237
1.92236
1.73699
1.73709
1.73709
1.73699
3.31669
3.31682
3.31682
3.31669
3.11398
3.11398
3.11398
3.11398
2.80268
2.80263
2.80263
2.80268
2.96289
2.96318
2.96318
2.96289
3.00429
3.00454
3.00454
3.00429
2.99052
2.99071
2.99071
2.99052
2.90629
2.90635
2.90635
2.90629
2.75903
2.7591
2.7591
2.75903
2.54942
2.54947
2.54947
2.54942
2.35912
2.35917
2.35917
2.35912
2.16521
2.16523
2.16523
2.16521
1.98971
1.98974
1.98974
1.98971
1.81628
1.81635
1.81635
1.81628
1.65475
1.6548
1.6548
1.65475
1.50498
1.50506
1.50506
1.50498
1.58947
1.58955
1.58955
1.58947
1.65994
1.6601
1.6601
1.65994
1.68426
1.6843
1.6843
1.68426
1.69502
1.69503
1.69503
1.69502
1.6888
1.68892
1.68892
1.6888
1.62948
1.62957
1.62957
1.62948
1.56179
1.56188
1.56188
1.56179
2.79517
2.7951
2.7951
2.79517
-0.554984
-0.555376
-0.555376
-0.554983
-0.573584
-0.573959
-0.573959
-0.573583
-0.69879
-0.699173
-0.699173
-0.69879
-0.836366
-0.836758
-0.836758
-0.836366
-0.697924
-0.69825
-0.69825
-0.697923
-0.806221
-0.806582
-0.806583
-0.806221
-1.1383
-1.13855
-1.13855
-1.1383
-0.990844
-0.991179
-0.991179
-0.990845
-1.39837
-1.39852
-1.39852
-1.39837
-1.31695
-1.31722
-1.31722
-1.31695
-0.628231
-0.628709
-0.628709
-0.62823
-0.506959
-0.507377
-0.507377
-0.506958
-0.852714
-0.852989
-0.852988
-0.852714
-1.29884
-1.29912
-1.29912
-1.29884
-1.53854
-1.53858
-1.53858
-1.53854
-1.93398
-1.9341
-1.9341
-1.93398
-2.36123
-2.36097
-2.36097
-2.36123
-2.9037
-2.90351
-2.90351
-2.9037
2.60507
2.60497
2.60497
2.60507
2.39521
2.39525
2.39525
2.39521
2.18868
2.18871
2.18871
2.18868
1.99516
1.99519
1.99519
1.99516
1.79876
1.79879
1.79879
1.79876
1.63314
1.63321
1.63321
1.63314
1.47093
1.471
1.471
1.47093
1.88682
1.88689
1.88689
1.88682
2.21977
2.2197
2.2197
2.21977
2.41378
2.41356
2.41356
2.41378
2.55895
2.55897
2.55897
2.55895
2.59934
2.59948
2.59948
2.59934
2.61675
2.61687
2.61687
2.61675
2.56378
2.56391
2.56391
2.56378
2.45271
2.45282
2.45282
2.45271
2.30608
2.30612
2.30612
2.30608
2.15005
2.14995
2.14995
2.15005
1.99345
1.99343
1.99343
1.99345
1.83487
1.8349
1.8349
1.83487
1.68143
1.68151
1.68151
1.68143
1.53947
1.53955
1.53955
1.53947
1.40379
1.40387
1.40387
1.40379
1.28134
1.28142
1.28142
1.28134
1.37407
1.37411
1.37411
1.37407
1.4481
1.44813
1.44813
1.4481
1.4975
1.49751
1.49751
1.4975
1.5374
1.5375
1.5375
1.5374
1.54959
1.54968
1.54968
1.54959
1.52226
1.5223
1.5223
1.52226
1.48286
1.48296
1.48296
1.48286
1.42131
1.42141
1.42141
1.42131
1.33986
1.33992
1.33992
1.33986
3.68662
3.68636
3.68636
3.68662
2.85042
2.85036
2.85036
2.85042
-0.575718
-0.57617
-0.57617
-0.575717
-0.744905
-0.745202
-0.745202
-0.744905
-0.73441
-0.734806
-0.734806
-0.73441
-0.926824
-0.927217
-0.927217
-0.926824
-1.25939
-1.2597
-1.2597
-1.25939
-1.75999
-1.76046
-1.76046
-1.75999
-2.24141
-2.2415
-2.2415
-2.24141
-2.89485
-2.89483
-2.89483
-2.89485
-3.30858
-3.30864
-3.30864
-3.30858
-3.40634
-3.40576
-3.40576
-3.40634
-3.79174
-3.79073
-3.79073
-3.79175
-4.29445
-4.29323
-4.29323
-4.29446
-1.27085
-1.27113
-1.27113
-1.27085
-0.494144
-0.494578
-0.494578
-0.494143
-0.494514
-0.494948
-0.494948
-0.494513
-1.53027
-1.53045
-1.53045
-1.53027
-1.9289
-1.92897
-1.92897
-1.9289
-2.45759
-2.45761
-2.45761
-2.45759
-3.09452
-3.09419
-3.09419
-3.09452
-4.10312
-4.10237
-4.10237
-4.10312
-5.20942
-5.20804
-5.20805
-5.20943
-1.17136
-1.17151
-1.17151
-1.17136
-3.34945
-3.34955
-3.34955
-3.34946
-3.74217
-3.7414
-3.7414
-3.74217
-4.45051
-4.44865
-4.44865
-4.45051
-5.40747
-5.40498
-5.40498
-5.40747
-6.62927
-6.62626
-6.62626
-6.62927
-0.68615
-0.686576
-0.686577
-0.68615
-0.947965
-0.948427
-0.948428
-0.947966
-1.31405
-1.31451
-1.31451
-1.31405
-1.8618
-1.86214
-1.86214
-1.8618
-2.60644
-2.60684
-2.60684
-2.60644
-3.13648
-3.13676
-3.13676
-3.13648
-3.58979
-3.59048
-3.59048
-3.58979
-3.43729
-3.43824
-3.43824
-3.43729
-0.571985
-0.572514
-0.572513
-0.571985
-0.467424
-0.467887
-0.467887
-0.467423
-0.46913
-0.469575
-0.469575
-0.469129
-0.417681
-0.418132
-0.418131
-0.41768
-0.453181
-0.453687
-0.453686
-0.45318
-0.470755
-0.471192
-0.471192
-0.470754
-0.594591
-0.595111
-0.595111
-0.59459
-0.699283
-0.699721
-0.699721
-0.699283
-1.03482
-1.03525
-1.03525
-1.03482
-1.52156
-1.52184
-1.52184
-1.52156
-2.23666
-2.23693
-2.23693
-2.23666
-3.09627
-3.09664
-3.09664
-3.09627
-3.84594
-3.84662
-3.84662
-3.84594
-4.16789
-4.16905
-4.16905
-4.16788
-3.94018
-3.94203
-3.94203
-3.94018
-3.03926
-3.04183
-3.04183
-3.03926
-2.76262
-2.76427
-2.76427
-2.76263
-2.92904
-2.92946
-2.92946
-2.92904
-3.59936
-3.5981
-3.5981
-3.59936
-4.7867
-4.78354
-4.78354
-4.7867
-6.18759
-6.18305
-6.18305
-6.1876
-7.30137
-7.29683
-7.29683
-7.30138
-7.75523
-7.75167
-7.75167
-7.75523
-7.57223
-7.56922
-7.56922
-7.57223
-5.9372
-5.93598
-5.93598
-5.9372
-4.65897
-4.65822
-4.65822
-4.65897
-3.52911
-3.52865
-3.52865
-3.52912
-2.72251
-2.72233
-2.72233
-2.72251
-2.11079
-2.11074
-2.11074
-2.11079
-1.6736
-1.67368
-1.67368
-1.6736
-1.45586
-1.45599
-1.45599
-1.45586
-0.435845
-0.436316
-0.436316
-0.435844
-0.965931
-0.966177
-0.966177
-0.965932
2.56756
2.56733
2.56733
2.56756
-0.473326
-0.473762
-0.473762
-0.473326
-0.554489
-0.554966
-0.554967
-0.554489
-1.71313
-1.71332
-1.71332
-1.71313
-1.99131
-1.99149
-1.99149
-1.99131
-2.38195
-2.38207
-2.38207
-2.38195
-3.0159
-3.01589
-3.01589
-3.0159
-3.88316
-3.88302
-3.88302
-3.88317
-5.13909
-5.13869
-5.1387
-5.1391
-6.42873
-6.42813
-6.42813
-6.42874
-8.3108
-8.30841
-8.30841
-8.3108
-8.07649
-8.07395
-8.07395
-8.07649
-0.586916
-0.587187
-0.587187
-0.586916
-0.423344
-0.423872
-0.423872
-0.423344
-0.485915
-0.48643
-0.48643
-0.485914
-0.36904
-0.369517
-0.369516
-0.36904
-0.421481
-0.421996
-0.421996
-0.42148
-0.484154
-0.484621
-0.48462
-0.484153
-0.636274
-0.636713
-0.636713
-0.636273
-0.861345
-0.861831
-0.861831
-0.861344
-1.20223
-1.20264
-1.20264
-1.20223
-1.83843
-1.83875
-1.83875
-1.83843
-2.74786
-2.74812
-2.74812
-2.74786
-3.7901
-3.79057
-3.79057
-3.7901
-4.60149
-4.60238
-4.60238
-4.60149
-4.91034
-4.91198
-4.91198
-4.91034
-4.58356
-4.58596
-4.58596
-4.58356
-3.53741
-3.54049
-3.54049
-3.53741
-2.12179
-2.12535
-2.12535
-2.12179
-1.63024
-1.63349
-1.63349
-1.63024
-1.44232
-1.44471
-1.44471
-1.44232
-1.79209
-1.79306
-1.79306
-1.79208
-2.88523
-2.88389
-2.88389
-2.88523
-4.83691
-4.83244
-4.83244
-4.83691
-7.43541
-7.42739
-7.4274
-7.43541
-9.63708
-9.6287
-9.6287
-9.63709
-10.4338
-10.4273
-10.4273
-10.4338
-10.5207
-10.5152
-10.5152
-10.5207
1.23173
1.23179
1.23179
1.23173
1.35612
1.35618
1.35618
1.35612
1.48692
1.48703
1.48703
1.48692
1.64409
1.64418
1.64418
1.64409
1.80278
1.80284
1.80284
1.80278
1.97437
1.97441
1.97441
1.97437
2.13828
2.1382
2.1382
2.13828
2.31451
2.31438
2.31438
2.31451
2.45881
2.45883
2.45883
2.45881
2.52957
2.52972
2.52972
2.52957
2.40008
2.39992
2.39992
2.40008
3.62254
3.62277
3.62277
3.62254
1.17749
1.17758
1.17758
1.17749
1.26106
1.26115
1.26115
1.26106
1.3305
1.33056
1.33056
1.3305
1.3837
1.38382
1.38382
1.3837
1.40376
1.40379
1.40379
1.40376
1.41021
1.41021
1.41021
1.41021
1.40131
1.40139
1.40139
1.40131
1.35385
1.35388
1.35388
1.35386
1.29542
1.29544
1.29544
1.29542
1.219
1.21901
1.21901
1.219
1.12641
1.12644
1.12644
1.12641
1.87835
1.87835
1.87835
1.87835
2.04567
2.04549
2.04549
2.04567
2.20289
2.20283
2.20283
2.20289
2.25142
2.25137
2.25137
2.25142
2.27694
2.27703
2.27703
2.27694
2.23315
2.2333
2.2333
2.23315
2.15452
2.15467
2.15467
2.15452
2.04403
2.04405
2.04405
2.04403
1.93136
1.93126
1.93126
1.93136
1.80016
1.8001
1.8001
1.80016
1.66082
1.66084
1.66084
1.66082
1.52805
1.52816
1.52816
1.52805
1.39571
1.39583
1.39583
1.39571
1.28607
1.28614
1.28614
1.28607
1.17743
1.1775
1.1775
1.17743
1.08114
1.08123
1.08123
1.08114
1.11554
1.11567
1.11567
1.11554
1.32461
1.3249
1.3249
1.32461
1.5525
1.55252
1.55252
1.55249
1.72157
1.72154
1.72154
1.72157
1.86467
1.86457
1.86457
1.86467
1.92187
1.92183
1.92183
1.92187
1.95086
1.95092
1.95092
1.95086
1.92093
1.92106
1.92106
1.92093
1.86378
1.86393
1.86393
1.86378
1.77861
1.77862
1.77862
1.77861
1.69219
1.69218
1.69218
1.69219
1.58254
1.58246
1.58246
1.58254
1.47218
1.47221
1.47221
1.47218
1.3531
1.35317
1.35317
1.3531
1.24749
1.24756
1.24756
1.24749
1.14676
1.14681
1.14681
1.14676
1.05812
1.05819
1.05819
1.05812
0.968705
0.968811
0.968811
0.968705
0.892909
0.892995
0.892995
0.892909
0.994486
0.994568
0.994568
0.994485
1.08638
1.08644
1.08644
1.08638
1.16459
1.1646
1.1646
1.16459
1.22588
1.22588
1.22588
1.22588
1.26489
1.26487
1.26487
1.26489
1.29572
1.29574
1.29574
1.29572
1.30203
1.30206
1.30206
1.30203
1.2808
1.28077
1.28077
1.2808
1.24753
1.24755
1.24755
1.24753
1.19491
1.19494
1.19494
1.19491
1.12379
1.12383
1.12383
1.12379
1.03296
1.03301
1.03301
1.03296
0.929528
0.929524
0.929524
0.929528
1.01954
1.01958
1.01958
1.01954
1.10851
1.10853
1.10853
1.10851
1.22011
1.22016
1.22016
1.22011
1.32967
1.32971
1.32971
1.32967
1.45872
1.45876
1.45876
1.45872
1.59184
1.59189
1.59189
1.59184
1.72667
1.72669
1.72669
1.72667
1.86096
1.86091
1.86091
1.86096
1.9659
1.96574
1.96574
1.9659
2.03698
2.037
2.037
2.03698
2.02568
2.0255
2.0255
2.02568
1.93826
1.93808
1.93808
1.93826
1.66182
1.66147
1.66147
1.66182
1.2605
1.26036
1.26036
1.2605
0.886036
0.886034
0.886034
0.886037
-10.2463
-10.2431
-10.2431
-10.2463
-8.22125
-8.21952
-8.21952
-8.22126
-8.53219
-8.53055
-8.53055
-8.5322
-6.54718
-6.54701
-6.54701
-6.54718
-5.3377
-5.33735
-5.33736
-5.3377
-4.01086
-4.01088
-4.01088
-4.01087
-3.15829
-3.15819
-3.15819
-3.1583
-2.60182
-2.60195
-2.60195
-2.60181
-2.19798
-2.19808
-2.19808
-2.19798
-1.83406
-1.8341
-1.8341
-1.83406
-1.49059
-1.49054
-1.49054
-1.49059
-1.04519
-1.04517
-1.04517
-1.04519
-1.23365
-1.23401
-1.23401
-1.23365
-0.578493
-0.57887
-0.578871
-0.578493
-0.435456
-0.436
-0.436
-0.435456
-0.391864
-0.392238
-0.392238
-0.391864
-0.354799
-0.355284
-0.355283
-0.354798
-0.388932
-0.3894
-0.3894
-0.388931
-0.391343
-0.391791
-0.391791
-0.391343
-0.549839
-0.550265
-0.550264
-0.549838
-0.83843
-0.838752
-0.838751
-0.838429
-1.31799
-1.31827
-1.31827
-1.31799
-2.09174
-2.0919
-2.0919
-2.09174
-3.15785
-3.15801
-3.15801
-3.15785
-4.32672
-4.32721
-4.32721
-4.32672
-5.17966
-5.18078
-5.18078
-5.17966
-5.42111
-5.42293
-5.42293
-5.4211
-5.1197
-5.12231
-5.12231
-5.11971
-3.98974
-3.99286
-3.99286
-3.98974
-2.6296
-2.63312
-2.63312
-2.6296
-0.568239
-0.572371
-0.572371
-0.568239
-0.234018
-0.238336
-0.238336
-0.234017
0.169086
0.165177
0.165178
0.169088
0.338829
0.335888
0.33589
0.338833
-0.00735008
-0.00849947
-0.00849784
-0.00734497
-1.26953
-1.26754
-1.26754
-1.26953
-3.78768
-3.78262
-3.78262
-3.78768
-7.29057
-7.2814
-7.2814
-7.29058
-9.80156
-9.79194
-9.79194
-9.80156
-9.92983
-9.92263
-9.92264
-9.92984
-10.4571
-10.4497
-10.4497
-10.4571
-10.4021
-10.3978
-10.3978
-10.4021
-8.42841
-8.42691
-8.42691
-8.42842
-8.58801
-8.58795
-8.58795
-8.58802
-7.33035
-7.32913
-7.32913
-7.33036
-7.7627
-7.76136
-7.76136
-7.7627
-6.07926
-6.07903
-6.07903
-6.07926
-4.9843
-4.98386
-4.98387
-4.9843
-3.89404
-3.89405
-3.89406
-3.89404
-3.13819
-3.13808
-3.13808
-3.13819
-2.69336
-2.6935
-2.6935
-2.69336
-2.26754
-2.26762
-2.26763
-2.26755
-1.95236
-1.95259
-1.9526
-1.95236
-1.54922
-1.54929
-1.54929
-1.54922
-0.599228
-0.59972
-0.599721
-0.59923
-1.29601
-1.29628
-1.29628
-1.29601
0.204451
0.20018
0.20018
0.204452
0.924003
0.919199
0.9192
0.924003
1.47676
1.47194
1.47194
1.47676
1.63069
1.62649
1.62649
1.63069
1.27737
1.27497
1.27497
1.27738
0.400246
0.400529
0.400531
0.400252
-1.97982
-1.97479
-1.97478
-1.97982
-6.05567
-6.04591
-6.04591
-6.05567
-9.09058
-9.08454
-9.08454
-9.09058
-8.67493
-8.67389
-8.67389
-8.67493
-7.4287
-7.42513
-7.42513
-7.4287
-7.04
-7.03586
-7.03586
-7.04
-6.39267
-6.3893
-6.3893
-6.39268
-0.651883
-0.652148
-0.652148
-0.651883
-0.809172
-0.809392
-0.809392
-0.809171
-0.427938
-0.428832
-0.428832
-0.427938
-0.432226
-0.432763
-0.432763
-0.432225
-0.183164
-0.183892
-0.183891
-0.183164
-0.281531
-0.281929
-0.281929
-0.28153
-0.366488
-0.367002
-0.367002
-0.366487
-0.586223
-0.586638
-0.586637
-0.586222
-0.898477
-0.898867
-0.898867
-0.898476
-1.39245
-1.39267
-1.39267
-1.39245
-2.18392
-2.18399
-2.18399
-2.18392
-3.28023
-3.28028
-3.28028
-3.28023
-4.49142
-4.49195
-4.49195
-4.49142
-5.34062
-5.34175
-5.34175
-5.34061
-5.46175
-5.46369
-5.46369
-5.46175
-5.26136
-5.26381
-5.26381
-5.26136
-4.15495
-4.15799
-4.15799
-4.15495
-3.02608
-3.02916
-3.02917
-3.02608
-0.820985
-0.824394
-0.824395
-0.820987
-0.232266
-0.23608
-0.236079
-0.232264
0.831225
0.831287
0.831287
0.831225
0.927611
0.927668
0.927668
0.927611
1.01278
1.01283
1.01283
1.01278
1.08414
1.0842
1.0842
1.08414
1.13985
1.1399
1.1399
1.13985
1.18237
1.18246
1.18246
1.18237
1.19901
1.199
1.199
1.19901
1.20303
1.20299
1.20299
1.20303
1.19574
1.19577
1.19577
1.19574
1.1553
1.15529
1.15529
1.1553
1.10695
1.10692
1.10692
1.10695
1.03993
1.03988
1.03988
1.03993
0.959409
0.959436
0.959436
0.959409
0.865031
0.865099
0.865099
0.865031
0.750859
0.750829
0.750829
0.750859
0.818283
0.818335
0.818334
0.818283
0.881389
0.881357
0.881357
0.881389
0.972349
0.972422
0.972422
0.972349
1.04929
1.04925
1.04925
1.04929
1.15737
1.15749
1.15749
1.15737
1.24585
1.24582
1.24582
1.24585
1.37408
1.37422
1.37422
1.37408
1.45918
1.45911
1.45911
1.45918
1.58039
1.5805
1.5805
1.58039
1.63102
1.63089
1.63089
1.63102
1.69447
1.69455
1.69455
1.69447
1.64716
1.64698
1.64698
1.64716
1.56949
1.56927
1.56927
1.56949
1.29331
1.29317
1.29317
1.29331
1.0637
1.06396
1.06396
1.0637
0.372544
0.372208
0.372209
0.372545
0.221134
0.22124
0.22124
0.221135
-0.713707
-0.713369
-0.713369
-0.713707
-0.711336
-0.711448
-0.711448
-0.711335
-0.304368
-0.304434
-0.304433
-0.304367
0.198498
0.198175
0.198175
0.198499
-0.584257
-0.584929
-0.584929
-0.584256
-0.690208
-0.691036
-0.691036
-0.690206
-0.23932
-0.240042
-0.240042
-0.239319
-0.30448
-0.304969
-0.304969
-0.304479
-0.270107
-0.270487
-0.270487
-0.270107
-0.469704
-0.469971
-0.469971
-0.469704
-0.825035
-0.825246
-0.825246
-0.825034
-1.33535
-1.33535
-1.33535
-1.33535
-2.08573
-2.08568
-2.08568
-2.08573
-3.05217
-3.05215
-3.05215
-3.05217
-4.1429
-4.14316
-4.14316
-4.1429
-4.82941
-4.83028
-4.83028
-4.82941
-4.92366
-4.92523
-4.92523
-4.92366
-4.87667
-4.87892
-4.87892
-4.87667
-4.23395
-4.23646
-4.23646
-4.23395
-3.59535
-3.59779
-3.5978
-3.59535
-1.43265
-1.43473
-1.43473
-1.43266
-0.327247
-0.330835
-0.330833
-0.327244
-0.767984
-0.771714
-0.771712
-0.767982
0.0850974
0.0810555
0.081056
0.0850963
1.63912
1.63411
1.63411
1.63911
3.18361
3.17786
3.17786
3.18361
4.29863
4.29321
4.29321
4.29863
4.76474
4.76139
4.76139
4.76475
4.28025
4.28248
4.28248
4.28026
2.2518
2.25903
2.25903
2.25181
-0.603032
-0.595417
-0.595416
-0.603025
-3.89643
-3.88944
-3.88944
-3.89642
-5.79417
-5.7911
-5.7911
-5.79416
-6.08556
-6.08299
-6.08299
-6.08556
-5.55419
-5.55232
-5.55233
-5.55419
-5.00359
-5.00239
-5.00239
-5.00359
-4.41287
-4.41134
-4.41135
-4.41288
-4.04478
-4.04282
-4.04282
-4.04478
-5.45396
-5.45232
-5.45232
-5.45397
-6.62885
-6.6277
-6.6277
-6.62886
-6.40496
-6.40496
-6.40495
-6.40496
-6.20951
-6.20799
-6.20799
-6.20951
-6.29059
-6.29045
-6.29045
-6.29059
-4.97156
-4.97148
-4.97148
-4.97156
-4.24083
-4.24062
-4.24062
-4.24084
-3.47972
-3.4796
-3.4796
-3.47972
-2.95257
-2.95243
-2.95242
-2.95257
-2.7279
-2.72811
-2.72811
-2.7279
-2.38949
-2.38964
-2.38964
-2.38949
-2.07901
-2.07917
-2.07918
-2.07901
-1.72294
-1.7231
-1.7231
-1.72294
-0.963486
-0.96378
-0.96378
-0.963485
1.36045
1.36054
1.36054
1.36045
0.394598
0.394852
0.394852
0.394598
0.229537
0.229492
0.229492
0.229537
0.67575
0.675735
0.675735
0.67575
0.903933
0.903831
0.90383
0.903933
1.14527
1.14545
1.14545
1.14527
1.28685
1.28692
1.28692
1.28685
1.43498
1.43515
1.43515
1.43498
1.53462
1.53454
1.53454
1.53462
1.61675
1.61678
1.61678
1.61675
1.62574
1.62569
1.62569
1.62574
1.62469
1.62484
1.62484
1.62469
1.56935
1.56938
1.56938
1.56935
1.51377
1.51384
1.51384
1.51377
1.43592
1.4359
1.4359
1.43592
1.35428
1.35425
1.35425
1.35428
1.26078
1.26079
1.26079
1.26078
1.16625
1.16627
1.16627
1.16625
1.08127
1.08129
1.08129
1.08127
0.99461
0.994624
0.994624
0.99461
0.918792
0.918885
0.918885
0.918792
0.838693
0.838825
0.838825
0.838693
0.779906
0.77997
0.77997
0.779906
0.724993
0.725029
0.725029
0.724993
-3.55256
-3.55106
-3.55106
-3.55256
-4.38861
-4.38703
-4.38703
-4.38861
-5.29522
-5.29488
-5.29488
-5.29522
-4.98743
-4.98676
-4.98676
-4.98743
-5.01042
-5.00899
-5.00899
-5.01042
-4.80028
-4.80021
-4.80021
-4.80028
-4.02855
-4.02842
-4.02842
-4.02855
-3.72437
-3.72441
-3.72441
-3.72437
-3.13373
-3.13363
-3.13363
-3.13373
-2.92741
-2.92741
-2.92741
-2.92741
-2.87337
-2.8736
-2.8736
-2.87338
-2.62316
-2.62337
-2.62337
-2.62317
-2.43496
-2.43543
-2.43543
-2.43496
-1.88232
-1.88266
-1.88266
-1.88232
-1.09272
-1.09339
-1.09339
-1.09272
0.262335
0.262009
0.262008
0.262335
0.241322
0.241392
0.241391
0.241322
0.137356
0.137477
0.137477
0.137356
0.0734601
0.0731553
0.0731549
0.0734604
0.249437
0.249497
0.249496
0.249437
0.483737
0.483624
0.483623
0.483737
0.71331
0.713321
0.71332
0.71331
0.907006
0.906931
0.90693
0.907006
1.03934
1.03942
1.03942
1.03934
1.15477
1.15481
1.15481
1.15477
1.23386
1.23388
1.23388
1.23386
1.30868
1.30869
1.30869
1.30868
1.31412
1.31406
1.31406
1.31412
1.32675
1.32687
1.32687
1.32675
1.2766
1.27656
1.27656
1.2766
1.24698
1.24709
1.24709
1.24698
1.17435
1.17427
1.17427
1.17435
1.11857
1.11866
1.11866
1.11857
1.03637
1.03632
1.03632
1.03637
0.970107
0.970149
0.970149
0.970107
0.895196
0.895161
0.895161
0.895196
0.831858
0.831883
0.831883
0.831858
0.762606
0.762671
0.762671
0.762606
0.704501
0.704598
0.704598
0.704501
0.65231
0.652402
0.652402
0.652309
0.61003
0.610059
0.610059
0.61003
0.573227
0.573278
0.573278
0.573227
0.681846
0.681902
0.681902
0.681846
0.781162
0.781218
0.781218
0.781162
0.87218
0.872171
0.872171
0.87218
0.951397
0.95134
0.95134
0.951397
1.01624
1.01617
1.01617
1.01624
1.0677
1.06765
1.06765
1.0677
1.10028
1.10022
1.10022
1.10028
1.1248
1.12481
1.12481
1.1248
1.12873
1.12874
1.12874
1.12873
1.11145
1.11143
1.11143
1.11145
1.08112
1.08114
1.08114
1.08112
1.03634
1.03637
1.03637
1.03634
0.975169
0.975204
0.975204
0.975169
0.896723
0.896745
0.896745
0.896723
0.801732
0.801742
0.801741
0.801732
0.704282
0.704345
0.704345
0.704282
0.596291
0.596351
0.596351
0.596291
0.630164
0.630161
0.630161
0.630164
0.691841
0.691898
0.691898
0.691841
0.741315
0.7413
0.7413
0.741315
0.818506
0.818545
0.818545
0.818506
0.880988
0.880963
0.880963
0.880988
0.966987
0.967049
0.967049
0.966986
1.04206
1.04206
1.04206
1.04206
1.1291
1.12915
1.12915
1.1291
1.20462
1.20462
1.20462
1.20462
1.27664
1.27665
1.27665
1.27664
1.32681
1.32675
1.32675
1.32681
1.34276
1.34262
1.34262
1.34276
1.3151
1.31498
1.31498
1.3151
1.21594
1.21572
1.21572
1.21594
1.02339
1.02341
1.02341
1.02339
0.769486
0.76948
0.76948
0.769486
0.453106
0.453062
0.453062
0.453106
0.161037
0.160713
0.160713
0.161037
0.0388111
0.0389231
0.0389232
0.0388112
-0.152146
-0.152526
-0.152526
-0.152145
-0.206406
-0.206677
-0.206677
-0.206405
-0.78278
-0.78334
-0.78334
-0.782779
-0.71268
-0.713757
-0.713756
-0.712679
-0.116816
-0.117198
-0.117198
-0.116815
-0.106559
-0.10686
-0.10686
-0.106559
-0.153037
-0.153543
-0.153543
-0.153038
-0.178577
-0.178757
-0.178757
-0.178577
-0.408398
-0.408727
-0.408726
-0.408398
-0.711734
-0.711928
-0.711927
-0.711733
-1.13364
-1.13366
-1.13366
-1.13364
-1.75801
-1.75791
-1.75791
-1.75801
-2.54828
-2.54814
-2.54814
-2.54828
-3.46379
-3.46388
-3.46388
-3.46379
-3.96834
-3.96894
-3.96894
-3.96834
-3.91835
-3.91956
-3.91956
-3.91835
-3.99672
-3.99862
-3.99862
-3.99672
-3.95054
-3.95281
-3.95281
-3.95054
-4.19872
-4.20065
-4.20065
-4.19872
-2.3326
-2.33326
-2.33326
-2.3326
-0.0432023
-0.0464612
-0.04646
-0.0432005
-0.921152
-0.925012
-0.925009
-0.921146
-1.57667
-1.57924
-1.57923
-1.57667
-0.932013
-0.93381
-0.933812
-0.93202
0.422341
0.42036
0.420356
0.42233
1.99435
1.99116
1.99115
1.99434
3.31804
3.31294
3.31294
3.31804
4.03797
4.03031
4.03031
4.03797
3.5885
3.5805
3.5805
3.58851
2.44799
2.44572
2.44572
2.448
1.83773
1.83926
1.83926
1.83774
2.31934
2.31188
2.31188
2.31935
2.00921
2.00664
2.00665
2.00922
-0.818271
-0.815496
-0.815496
-0.818274
-3.22788
-3.22643
-3.22643
-3.22789
-3.08545
-3.08485
-3.08485
-3.08545
-3.69059
-3.68511
-3.68511
-3.6906
-4.59898
-4.59873
-4.59873
-4.59898
-3.93408
-3.9364
-3.9364
-3.93408
-2.81327
-2.81096
-2.81096
-2.81327
0.471101
0.471119
0.471119
0.471101
0.505452
0.505494
0.505494
0.505452
0.544295
0.544337
0.544337
0.544294
0.594083
0.594137
0.594137
0.594083
0.645262
0.645216
0.645215
0.645262
0.702465
0.702484
0.702483
0.702465
0.759444
0.759376
0.759376
0.759444
0.825974
0.82601
0.82601
0.825974
0.878661
0.878612
0.878612
0.878661
0.94431
0.944374
0.944374
0.94431
0.982744
0.982689
0.982689
0.982744
1.02277
1.02278
1.02278
1.02277
1.0221
1.02198
1.02198
1.0221
0.986071
0.985965
0.985965
0.986071
0.902885
0.902732
0.902732
0.902885
0.739461
0.73928
0.73928
0.739461
0.565173
0.56519
0.56519
0.565173
0.393763
0.393778
0.393778
0.393762
0.220692
0.220656
0.220656
0.220691
0.071871
0.0718165
0.0718166
0.0718712
-0.09202
-0.0924571
-0.0924569
-0.0920196
-0.190297
-0.190738
-0.190738
-0.190296
-0.197185
-0.197373
-0.197373
-0.197184
-0.0943053
-0.0946202
-0.0946199
-0.0943044
-0.0750414
-0.0757296
-0.0757295
-0.0750411
-0.00311642
-0.00393004
-0.00393029
-0.00311743
0.195082
0.194923
0.194922
0.195081
-0.128469
-0.128703
-0.128703
-0.12847
-0.309346
-0.309504
-0.309503
-0.309346
-0.599865
-0.599994
-0.599994
-0.599864
-0.946097
-0.946138
-0.946138
-0.946096
-1.39431
-1.3943
-1.3943
-1.39431
-1.93477
-1.93462
-1.93462
-1.93477
-2.53387
-2.53381
-2.53381
-2.53387
-2.67736
-2.6774
-2.6774
-2.67736
-2.69099
-2.6918
-2.6918
-2.69099
-2.84267
-2.84424
-2.84424
-2.84267
-3.05489
-3.05699
-3.05699
-3.05489
-3.75787
-3.75976
-3.75976
-3.75787
-2.51908
-2.51956
-2.51956
-2.51908
0.119372
0.117794
0.117794
0.119371
-0.654572
-0.657549
-0.657547
-0.654567
-1.30998
-1.31254
-1.31253
-1.30997
-0.178754
-0.179082
-0.179083
-0.178757
-0.25006
-0.250896
-0.250898
-0.250066
0.202002
0.201538
0.201534
0.201992
1.9768
1.97554
1.97554
1.97679
4.7306
4.72612
4.72612
4.73059
7.08995
7.08039
7.08039
7.08994
8.45949
8.44736
8.44736
8.45949
8.49969
8.49061
8.49062
8.4997
5.52723
5.52753
5.52753
5.52724
2.30105
2.30696
2.30696
2.30107
0.826128
0.842241
0.842243
0.826145
-2.1066
-2.08398
-2.08397
-2.10659
-5.14981
-5.1446
-5.1446
-5.1498
-3.30984
-3.31697
-3.31697
-3.30984
-1.54402
-1.53982
-1.53982
-1.54402
-3.08439
-3.07282
-3.07282
-3.08439
-4.97004
-4.96705
-4.96704
-4.97004
-3.58649
-3.59215
-3.59214
-3.58648
-1.82424
-1.82181
-1.82181
-1.82423
-3.21237
-3.20254
-3.20254
-3.21238
-2.71399
-2.71159
-2.71159
-2.71399
-2.68531
-2.68386
-2.68386
-2.68531
-3.36747
-3.36564
-3.36564
-3.36747
-3.81519
-3.81566
-3.81566
-3.81519
-3.95027
-3.95
-3.95
-3.95027
-3.95642
-3.95577
-3.95577
-3.95642
-3.89558
-3.89586
-3.89586
-3.89557
-3.60549
-3.60537
-3.60536
-3.60549
-3.4979
-3.49779
-3.49779
-3.4979
-2.90876
-2.90876
-2.90876
-2.90876
-3.25489
-3.25518
-3.25518
-3.25489
-3.30646
-3.30681
-3.30681
-3.30647
-3.1046
-3.10489
-3.10489
-3.10461
-2.76122
-2.76154
-2.76154
-2.76122
-2.09705
-2.09746
-2.09746
-2.09705
-1.61743
-1.61812
-1.61812
-1.61744
-1.091
-1.09167
-1.09167
-1.091
-0.258997
-0.259248
-0.259248
-0.258998
0.0215127
0.0217972
0.0217969
0.0215125
0.0403896
0.0403476
0.0403472
0.0403896
0.216553
0.216682
0.216681
0.216553
0.349596
0.349413
0.349413
0.349596
0.541542
0.541544
0.541544
0.541542
0.685247
0.685065
0.685065
0.685247
0.813046
0.813185
0.813185
0.813046
0.885428
0.885396
0.885396
0.885428
0.964795
0.964921
0.964921
0.964795
1.0006
1.00061
1.00061
1.0006
1.02375
1.02375
1.02375
1.02375
1.02486
1.02494
1.02494
1.02486
0.999359
0.999325
0.999326
0.999359
0.972099
0.972189
0.972189
0.972099
0.922268
0.922199
0.922199
0.922268
0.877715
0.877831
0.877831
0.877715
0.81393
0.813877
0.813877
0.81393
0.768816
0.768893
0.768893
0.768816
0.702507
0.702439
0.702439
0.702507
0.66134
0.661411
0.661411
0.66134
0.598768
0.598797
0.598797
0.598768
0.560631
0.560765
0.560765
0.560631
0.510515
0.510623
0.510623
0.510515
0.485732
0.485785
0.485785
0.485732
0.454332
0.454343
0.454343
0.454332
0.429222
0.429271
0.429271
0.429222
0.538983
0.539015
0.539015
0.538983
0.644996
0.645031
0.645031
0.644996
0.743377
0.743361
0.743361
0.743377
0.830914
0.830852
0.830852
0.830914
0.906324
0.906256
0.906256
0.906325
0.968534
0.968476
0.968476
0.968534
1.01593
1.01584
1.01584
1.01593
1.05058
1.05058
1.05058
1.05058
1.0633
1.06332
1.06332
1.0633
1.06551
1.0655
1.0655
1.06551
1.0577
1.05772
1.05772
1.0577
1.02165
1.02164
1.02164
1.02165
0.977586
0.977591
0.977591
0.977586
0.919129
0.91911
0.919109
0.919129
0.848509
0.848481
0.848481
0.848509
0.764589
0.764613
0.764613
0.764589
0.662276
0.662285
0.662285
0.662276
0.555771
0.555776
0.555776
0.555771
0.44553
0.445554
0.445554
0.44553
-3.12623
-3.12815
-3.12815
-3.12623
-2.12651
-2.12988
-2.12988
-2.12652
-1.7868
-1.78583
-1.78583
-1.7868
-2.28052
-2.28032
-2.28032
-2.28052
-2.36493
-2.3649
-2.3649
-2.36493
-2.60234
-2.60246
-2.60245
-2.60233
-2.7963
-2.79633
-2.79632
-2.79629
-2.92941
-2.92963
-2.92963
-2.92941
-2.90316
-2.90279
-2.90279
-2.90316
-2.8031
-2.80315
-2.80315
-2.8031
-2.48264
-2.48252
-2.48252
-2.48264
-2.96387
-2.96377
-2.96377
-2.96388
-2.86098
-2.86107
-2.86107
-2.86098
-2.73425
-2.73428
-2.73428
-2.73425
-2.58695
-2.58726
-2.58726
-2.58695
-1.89867
-1.89893
-1.89893
-1.89867
-1.30154
-1.30183
-1.30183
-1.30154
-0.739159
-0.739446
-0.739446
-0.73916
-0.332355
-0.332531
-0.332532
-0.332356
-0.0564556
-0.0560618
-0.0560621
-0.0564561
0.012204
0.0123149
0.0123147
0.0122037
0.160782
0.161104
0.161104
0.160781
0.252469
0.252513
0.252513
0.252469
0.379677
0.379694
0.379694
0.379677
0.472706
0.472543
0.472543
0.472706
0.582933
0.582975
0.582975
0.582933
0.623361
0.623331
0.623331
0.623361
0.70234
0.702438
0.702438
0.70234
0.70507
0.705124
0.705124
0.705069
0.73971
0.739747
0.739747
0.739709
0.728108
0.728155
0.728155
0.728108
0.723224
0.723191
0.723191
0.723224
0.695522
0.695583
0.695583
0.695522
0.66804
0.66798
0.66798
0.66804
0.633184
0.633249
0.633249
0.633184
0.588742
0.588704
0.588704
0.588742
0.557369
0.557423
0.557424
0.557369
0.508559
0.508519
0.508519
0.508559
0.480518
0.480559
0.480559
0.480518
0.435316
0.435316
0.435316
0.435316
0.407791
0.40789
0.40789
0.407791
0.370791