/*--------------------------------*- C++ -*----------------------------------*\
| =========                 |                                                 |
| \\      /  F ield         | OpenFOAM: The Open Source CFD Toolbox           |
|  \\    /   O peration     | Version:  v1806                                 |
|   \\  /    A nd           | Web:      www.OpenFOAM.com                      |
|    \\/     M anipulation  |                                                 |
\*---------------------------------------------------------------------------*/
FoamFile
{
    version     2.0;
    format      ascii;
    class       surfaceScalarField;
    location    "470";
    object      phi;
}
// * * * * * * * * * * * * * * * * * * * * * * * * * * * * * * * * * * * * * //

dimensions      [0 3 -1 0 0 0 0];
oriented        oriented;


internalField   nonuniform List<scalar> 
14009
(
1.40121e-08
0.00249542
-0.000511117
-0.00199566
1.13438e-05
1.42912e-13
0.00249376
-0.000511077
-0.0019933
1.06271e-05
-1.40088e-08
0.00249376
-0.000511077
-0.0019933
1.0627e-05
0.00249542
-0.000511117
-0.00199566
1.13438e-05
-3.80286e-08
0.00044971
0.00250432
-0.000458575
1.61907e-12
0.000449488
0.00250211
-0.000457872
3.80333e-08
0.000449488
0.00250211
-0.000457872
0.00044971
0.00250432
-0.000458575
-1.04817e-08
0.00205259
-0.00111241
-0.000490452
2.46823e-12
0.00205
-0.00111083
-0.000489688
1.04789e-08
0.00205
-0.00111083
-0.000489688
0.00205259
-0.00111241
-0.000490452
-9.11551e-09
0.00131086
-0.000369378
0.00111111
5.31261e-12
0.00130813
-0.000369784
0.00111164
9.12296e-09
0.00130813
-0.000369784
0.00111164
0.00131086
-0.000369378
0.00111111
-4.25115e-08
0.00161144
0.00876804
-0.00770951
-0.00266993
-2.96758e-13
0.0016155
0.00876869
-0.00771063
-0.00267361
4.25084e-08
0.0016155
0.00876869
-0.00771063
-0.00267361
0.00161144
0.00876804
-0.00770951
-0.00266993
-2.52813e-08
0.00104298
5.44789e-05
0.000514002
-3.94283e-12
0.00104412
5.56761e-05
0.000515679
2.5271e-08
0.00104412
5.56761e-05
0.000515679
0.00104298
5.44789e-05
0.000514002
-6.94783e-09
4.68627e-05
0.000152602
0.000843525
-2.38116e-12
4.65116e-05
0.000151818
0.000845786
6.95113e-09
4.65116e-05
0.000151818
0.000845786
4.68628e-05
0.000152602
0.000843525
-1.01023e-08
0.00921854
-0.000403632
8.51741e-12
0.00922109
-0.000405898
1.01228e-08
0.00922109
-0.000405898
0.00921854
-0.000403632
-2.12292e-07
-0.0728365
0.0216538
0.0575102
-0.00632727
1.49252e-12
-0.0728409
0.0216612
0.0575055
-0.00632598
2.12288e-07
-0.0728409
0.0216612
0.0575055
-0.00632598
-0.0728365
0.0216538
0.0575102
-0.00632727
-7.02949e-08
-0.00771819
-0.0671737
0.0020555
1.73929e-12
-0.00771823
-0.0671799
0.00205715
7.03073e-08
-0.00771823
-0.0671799
0.00205715
-0.00771819
-0.0671737
0.0020555
6.88349e-08
0.00992532
0.024287
-0.0125586
1.64283e-12
0.00993054
0.0242857
-0.012555
-6.88477e-08
0.00993054
0.0242857
-0.012555
0.00992532
0.024287
-0.0125586
1.14912e-07
-0.0248038
-0.00298115
0.0283478
-0.000562927
8.5949e-14
-0.0247838
-0.00298008
0.0283419
-0.000577876
-1.14912e-07
-0.0247838
-0.00298008
0.0283419
-0.000577876
-0.0248038
-0.00298115
0.0283478
-0.000562927
1.03683e-07
0.0114685
-0.0164888
-0.0197836
-6.08766e-13
0.0114672
-0.0164988
-0.019752
-1.03681e-07
0.0114672
-0.0164988
-0.019752
0.0114685
-0.0164888
-0.0197836
-7.99952e-08
0.0109705
-0.00248311
-5.73507e-13
0.0109656
-0.0024786
7.9995e-08
0.0109656
-0.0024786
0.0109705
-0.00248311
2.22088e-08
0.0017435
0.0101381
-0.000911125
-3.05115e-13
0.00173903
0.0101357
-0.00090907
-2.2209e-08
0.00173903
0.0101357
-0.00090907
0.0017435
0.0101381
-0.000911125
1.29799e-08
0.0256863
0.00440497
-6.16914e-14
0.025682
0.00439888
-1.29799e-08
0.025682
0.00439888
0.0256863
0.00440497
-8.73009e-10
-0.00154085
-0.00831029
0.0107866
-0.000935418
1.83911e-12
-0.00153864
-0.00831209
0.0107948
-0.00094403
8.7615e-10
-0.00153864
-0.00831209
0.0107948
-0.00094403
-0.00154085
-0.00831029
0.0107866
-0.000935418
-1.49876e-09
-0.00305657
0.00108881
0.000426913
-1.6586e-12
-0.00305925
0.00109357
0.000427041
1.48957e-09
-0.00305925
0.00109357
0.000427041
-0.00305657
0.00108881
0.000426913
-6.12182e-08
-0.00144148
1.12795e-12
-0.00144086
6.12088e-08
-0.00144086
-0.00144148
2.00736e-07
0.0195453
0.00895426
-0.0284998
6.14518e-12
0.0195408
0.0089468
-0.0284874
-2.00726e-07
0.0195408
0.0089468
-0.0284874
0.0195453
0.00895426
-0.0284998
-1.4602e-07
0.0118273
-5.20176e-12
0.0118224
1.45989e-07
0.0118224
0.0118273
-1.46678e-10
-0.0762443
0.0180248
3.75707e-12
-0.0762608
0.0180276
1.52289e-10
-0.0762608
0.0180276
-0.0762443
0.0180248
9.05139e-08
-0.0427677
-0.0515686
0.0180919
-4.20591e-13
-0.0427677
-0.051585
0.018092
-9.05232e-08
-0.0427677
-0.051585
0.018092
-0.0427677
-0.0515686
0.0180919
-2.18524e-07
0.0554687
-0.0621035
0.00318662
0.00344837
-1.07125e-13
0.0554433
-0.0620788
0.00318736
0.00344792
2.18524e-07
0.0554433
-0.0620788
0.00318736
0.00344792
0.0554687
-0.0621035
0.00318662
0.00344837
-5.21485e-07
0.0447092
0.00453916
0.00622087
2.54156e-13
0.0446705
0.00455165
0.00622066
5.21485e-07
0.0446705
0.00455165
0.00622066
0.0447092
0.00453916
0.00622087
-1.80989e-08
-0.000508977
-0.00123692
0.00174592
3.1474e-12
-0.000510837
-0.0012356
0.00174642
1.81092e-08
-0.000510837
-0.0012356
0.00174642
-0.000508977
-0.00123692
0.00174592
-2.53223e-08
-0.00163919
0.00221905
5.16015e-11
-0.00163586
0.00221856
2.54567e-08
-0.00163586
0.00221856
-0.00163919
0.00221905
-2.54501e-08
-0.000870259
0.000541954
-3.62849e-12
-0.000867463
0.000539713
2.55009e-08
-0.000867463
0.000539713
-0.000870259
0.000541954
4.13991e-08
-0.0620329
2.4822e-05
-4.3055e-05
0.0620511
3.58718e-14
-0.0620324
2.06794e-05
-4.32406e-05
0.062055
-4.13993e-08
-0.0620324
2.06794e-05
-4.32406e-05
0.062055
-0.0620329
2.4822e-05
-4.3055e-05
0.0620511
-2.15702e-08
0.00431453
-0.0639881
-0.00235933
6.21845e-14
0.00431485
-0.0639897
-0.00235755
2.15703e-08
0.00431485
-0.0639897
-0.00235755
0.00431453
-0.0639881
-0.00235933
-1.47581e-07
-0.0672649
0.00248161
0.00267994
4.17484e-13
-0.0672438
0.00247938
0.00268542
1.47581e-07
-0.0672438
0.00247938
0.00268542
-0.0672649
0.00248161
0.00267994
-9.57193e-08
-0.0696178
0.00201862
0.000334366
3.77665e-13
-0.0696002
0.00201437
0.00034198
9.57197e-08
-0.0696002
0.00201437
0.00034198
-0.0696178
0.00201862
0.000334366
-9.86412e-08
-0.0739379
0.00594994
-0.0016297
3.38757e-13
-0.0739256
0.00594765
-0.00162234
9.86419e-08
-0.0739256
0.00594765
-0.00162234
-0.0739379
0.00594994
-0.0016297
-1.04819e-07
-0.0545148
0.0107633
-0.0301863
1.02049e-13
-0.0545029
0.01076
-0.0301828
1.04819e-07
-0.0545029
0.01076
-0.0301828
-0.0545148
0.0107633
-0.0301863
-6.05002e-08
-0.0622936
0.00780369
4.50105e-14
-0.0622866
0.0078043
6.05001e-08
-0.0622866
0.0078043
-0.0622936
0.00780369
-3.95281e-08
-0.0633665
0.00538745
6.36371e-14
-0.0633617
0.0053899
3.95281e-08
-0.0633617
0.0053899
-0.0633665
0.00538745
-3.37825e-08
-0.0037118
0.00448569
-0.0641403
6.01151e-14
-0.00371025
0.0044849
-0.0641364
3.37825e-08
-0.00371025
0.0044849
-0.0641364
-0.0037118
0.00448569
-0.0641403
-1.28211e-08
-0.0650859
-0.00261398
3.93361e-14
-0.0650835
-0.00261648
1.2821e-08
-0.0650835
-0.00261648
-0.0650859
-0.00261398
-6.07905e-07
0.00444372
-0.00474921
0.0450153
2.94014e-12
0.00448344
-0.00473437
0.0449208
6.07902e-07
0.00448344
-0.00473437
0.0449208
0.00444372
-0.00474921
0.0450153
-1.37787e-07
-0.058279
0.0567807
0.00594223
2.39872e-12
-0.0582699
0.0567886
0.00596462
1.37787e-07
-0.0582699
0.0567886
0.00596462
-0.058279
0.0567807
0.00594223
-1.20793e-09
-0.0621853
0.00844544
5.67689e-13
-0.0621684
0.00845019
1.21055e-09
-0.0621684
0.00845019
-0.0621853
0.00844544
1.46341e-08
-0.0651518
0.00615308
3.05313e-13
-0.0651361
0.00615504
-1.46328e-08
-0.0651361
0.00615504
-0.0651518
0.00615308
7.18341e-09
-0.068079
0.00540883
1.96585e-13
-0.0680652
0.00540851
-7.18321e-09
-0.0680652
0.00540851
-0.068079
0.00540883
-1.93008e-08
-0.0696711
0.0036107
2.98865e-13
-0.0696631
0.00361226
1.93009e-08
-0.0696631
0.00361226
-0.0696711
0.0036107
-5.26635e-08
-0.0697435
0.00602238
3.40719e-13
-0.069736
0.00602044
5.26639e-08
-0.069736
0.00602044
-0.0697435
0.00602238
-4.27471e-08
-0.0657723
0.00679213
1.06353e-13
-0.0657683
0.00679228
4.27467e-08
-0.0657683
0.00679228
-0.0657723
0.00679213
-5.9029e-08
-0.0651187
0.00715016
1.09115e-13
-0.0651135
0.00714944
5.90288e-08
-0.0651135
0.00714944
-0.0651187
0.00715016
-3.43503e-08
-0.064381
0.00464986
6.69899e-14
-0.0643748
0.00465119
3.43503e-08
-0.0643748
0.00465119
-0.064381
0.00464986
-4.66898e-08
-0.0626365
0.0027412
5.55998e-14
-0.0626334
0.0027434
4.66898e-08
-0.0626334
0.0027434
-0.0626365
0.0027412
-4.22528e-08
-0.00489184
0.00757918
-0.0653238
9.73946e-14
-0.00489289
0.00757919
-0.0653197
4.22528e-08
-0.00489289
0.00757919
-0.0653197
-0.00489184
0.00757918
-0.0653238
-3.76537e-08
-0.00346415
-0.065568
9.4376e-14
-0.00346481
-0.0655645
3.76536e-08
-0.00346481
-0.0655645
-0.00346415
-0.065568
-3.47728e-08
0.000361689
-0.0689117
9.26945e-14
0.000362982
-0.0689113
3.47728e-08
0.000362982
-0.0689113
0.000361689
-0.0689117
-3.38774e-08
0.0650116
-0.0685862
0.00393629
9.72304e-14
0.0650119
-0.0685855
0.00393647
3.38773e-08
0.0650119
-0.0685855
0.00393647
0.0650116
-0.0685862
0.00393629
-2.63617e-08
0.06415
-0.00175232
5.99598e-14
0.0641485
-0.00175311
2.63615e-08
0.0641485
-0.00175311
0.06415
-0.00175232
-1.80359e-08
0.0596017
0.00218894
2.75729e-14
0.0595973
0.00219367
1.80358e-08
0.0595973
0.00219367
0.0596017
0.00218894
-3.75961e-09
0.0530311
0.00652753
6.25243e-14
0.053026
0.00652807
3.76006e-09
0.053026
0.00652807
0.0530311
0.00652753
-4.65079e-08
0.0764375
0.00845858
-0.0318649
2.90218e-14
0.0764381
0.00845999
-0.0318722
4.65077e-08
0.0764381
0.00845999
-0.0318722
0.0764375
0.00845858
-0.0318649
2.57695e-08
0.0732461
0.00156165
1.29147e-13
0.0732521
0.00156372
-2.57699e-08
0.0732521
0.00156372
0.0732461
0.00156165
3.90823e-08
0.0688169
0.00476352
4.15085e-13
0.0688288
0.00476527
-3.90825e-08
0.0688288
0.00476527
0.0688169
0.00476352
-3.16631e-08
0.066174
0.0053229
6.38614e-13
0.0661881
0.00532611
3.16632e-08
0.0661881
0.00532611
0.066174
0.0053229
-4.90176e-08
0.0631108
0.00651161
7.16582e-14
0.063123
0.00651301
4.90163e-08
0.063123
0.00651301
0.0631108
0.00651161
-1.00994e-07
0.062514
0.00681773
-3.91026e-13
0.0625213
0.00682219
1.00993e-07
0.0625213
0.00682219
0.062514
0.00681773
-1.2836e-07
0.000944422
0.0568205
-6.20413e-13
0.000955028
0.0568318
1.28363e-07
0.000955028
0.0568318
0.000944422
0.0568205
-1.32932e-08
0.0072193
0.0433378
0.00622354
3.29996e-12
0.00722099
0.0433428
0.00622478
1.32908e-08
0.00722099
0.0433428
0.00622478
0.0072193
0.0433378
0.00622354
-2.55592e-08
-0.0590847
0.0494326
0.0168714
3.5439e-12
-0.0590977
0.0494425
0.0168762
2.55634e-08
-0.0590977
0.0494425
0.0168762
-0.0590847
0.0494326
0.0168714
-1.97618e-07
-0.0637162
0.0105739
2.6469e-12
-0.0637119
0.0105786
1.97622e-07
-0.0637119
0.0105786
-0.0637162
0.0105739
-1.44393e-07
-0.0663459
0.0110753
1.38882e-12
-0.0663326
0.0110708
1.44397e-07
-0.0663326
0.0110708
-0.0663459
0.0110753
-1.03044e-07
-0.0664323
0.00623966
2.41412e-13
-0.066418
0.00624037
1.03045e-07
-0.066418
0.00624037
-0.0664323
0.00623966
-1.12494e-07
-0.0669942
0.00597083
8.26186e-14
-0.0669819
0.00597232
1.12494e-07
-0.0669819
0.00597232
-0.0669942
0.00597083
-1.08477e-07
-0.0687116
0.00532817
2.22583e-13
-0.0687013
0.00533158
1.08477e-07
-0.0687013
0.00533158
-0.0687116
0.00532817
-8.20801e-08
-0.0687696
0.00608048
4.03497e-13
-0.0687653
0.0060843
8.20806e-08
-0.0687653
0.0060843
-0.0687696
0.00608048
-3.69002e-08
-0.0688855
0.00690809
2.33709e-13
-0.0688834
0.00691035
3.69001e-08
-0.0688834
0.00691035
-0.0688855
0.00690809
-3.80621e-08
-0.0665932
0.00485789
1.05924e-13
-0.0665938
0.00485986
3.8062e-08
-0.0665938
0.00485986
-0.0665932
0.00485789
-3.75821e-08
-0.0652605
0.0033172
5.8651e-14
-0.0652609
0.00331822
3.7582e-08
-0.0652609
0.00331822
-0.0652605
0.0033172
-4.63692e-08
-0.0676483
0.00512901
7.50858e-14
-0.0676485
0.00513097
4.63693e-08
-0.0676485
0.00513097
-0.0676483
0.00512901
-3.42091e-08
-0.0666523
0.00658326
1.0205e-13
-0.0666525
0.00658316
3.42091e-08
-0.0666525
0.00658316
-0.0666523
0.00658326
-3.2176e-08
-0.00508214
0.00564038
-0.0672106
1.16278e-13
-0.00508227
0.00564073
-0.067211
3.2176e-08
-0.00508227
0.00564073
-0.067211
-0.00508214
0.00564038
-0.0672106
-3.90883e-08
-0.00211156
-0.0682944
1.20133e-13
-0.0021103
-0.0682917
3.90883e-08
-0.0021103
-0.0682917
-0.00211156
-0.0682944
-3.33973e-08
0.000650315
-0.0683298
1.09899e-13
0.000651526
-0.0683264
3.33973e-08
0.000651526
-0.0683264
0.000650315
-0.0683298
-1.85898e-08
0.00260295
-0.0708643
1.00477e-13
0.00260186
-0.0708617
1.85898e-08
0.00260186
-0.0708617
0.00260295
-0.0708643
-2.26818e-08
0.00489533
-0.0708785
9.27387e-14
0.0048932
-0.0708768
2.26818e-08
0.0048932
-0.0708768
0.00489533
-0.0708785
-2.81227e-08
0.0691374
0.00549444
-0.0697365
9.07109e-14
0.0691375
0.005493
-0.0697374
2.81227e-08
0.0691375
0.005493
-0.0697374
0.0691374
0.00549444
-0.0697365
-3.22308e-08
0.0660038
0.00706991
9.17271e-14
0.066005
0.00706901
3.22307e-08
0.066005
0.00706901
0.0660038
0.00706991
-2.96191e-08
0.0648007
-0.000549164
7.02543e-14
0.0647998
-0.000547968
2.9619e-08
0.0647998
-0.000547968
0.0648007
-0.000549164
5.46462e-09
0.0637249
0.0032647
4.15787e-14
0.0637282
0.00326528
-5.46479e-09
0.0637282
0.00326528
0.0637249
0.0032647
-6.81087e-09
0.0664364
0.00381602
4.58712e-14
0.0664403
0.003816
6.81102e-09
0.0664403
0.003816
0.0664364
0.00381602
1.47439e-08
0.0708599
0.00403505
1.15906e-14
0.0708639
0.00403636
-1.4744e-08
0.0708639
0.00403636
0.0708599
0.00403505
-3.49149e-08
0.0684195
0.00400212
2.15478e-13
0.0684226
0.00400502
3.49147e-08
0.0684226
0.00400502
0.0684195
0.00400212
-8.04824e-08
0.0685041
0.00467895
7.33911e-13
0.0685072
0.00468056
8.04829e-08
0.0685072
0.00468056
0.0685041
0.00467895
-1.38066e-07
0.0671368
0.00669039
9.7932e-13
0.0671419
0.00669124
1.38067e-07
0.0671419
0.00669124
0.0671368
0.00669039
-1.99298e-07
0.0652945
0.00835413
2.98119e-13
0.0652988
0.00835592
1.99297e-07
0.0652988
0.00835592
0.0652945
0.00835413
-2.54221e-07
0.0641764
0.0079361
-5.35717e-13
0.0641829
0.00793787
2.5422e-07
0.0641829
0.00793787
0.0641764
0.0079361
-2.07874e-07
0.0577075
0.00741344
-3.6911e-13
0.0577175
0.00742017
2.07873e-07
0.0577175
0.00742017
0.0577075
0.00741344
-1.84472e-07
0.00177511
0.0409387
0.0141069
1.33706e-12
0.00177492
0.0409468
0.0141099
1.84476e-07
0.00177492
0.0409468
0.0141099
0.00177511
0.0409387
0.0141069
-8.6404e-08
0.0411508
0.018332
-3.5393e-13
0.0411612
0.0183312
8.64046e-08
0.0411612
0.0183312
0.0411508
0.018332
3.71528e-07
0.0532668
0.0288223
7.22383e-13
0.0532842
0.0288242
-3.71524e-07
0.0532842
0.0288242
0.0532668
0.0288223
5.0731e-07
0.0644911
0.0282788
4.79149e-12
0.0645344
0.0282514
-5.07311e-07
0.0645344
0.0282514
0.0644911
0.0282788
-2.27223e-08
0.00061791
-0.00386827
0.00273926
-5.59755e-13
0.000619395
-0.00386978
0.00273928
2.27239e-08
0.000619395
-0.00386978
0.00273928
0.00061791
-0.00386827
0.00273926
-2.08028e-08
-0.00136208
-1.56436e-05
-9.95847e-13
-0.00135978
-1.41396e-05
2.08063e-08
-0.00135978
-1.41396e-05
-0.00136208
-1.56436e-05
-1.39743e-08
0.00220872
-0.000216452
-0.00286252
-7.68776e-12
0.00220719
-0.000215524
-0.00285914
1.3975e-08
0.00220719
-0.000215524
-0.00285914
0.00220872
-0.000216452
-0.00286252
-4.81703e-09
0.00112441
-1.67106e-11
0.0011234
4.78065e-09
0.0011234
0.00112441
2.16296e-09
0.00050169
0.000251224
0.0017514
1.98311e-12
0.000500384
0.00025423
0.00174749
-2.16155e-09
0.000500384
0.00025423
0.00174749
0.00050169
0.000251224
0.0017514
-2.38625e-08
0.00112879
7.01289e-12
0.00113062
2.38866e-08
0.00113062
0.00112879
-1.95483e-08
0.00911475
0.0012326
-2.36706e-12
0.00911686
0.00123484
1.95623e-08
0.00911686
0.00123484
0.00911475
0.0012326
1.44424e-08
0.00861235
0.000753606
-7.73383e-12
0.00861449
0.000756616
-1.44554e-08
0.00861449
0.000756616
0.00861235
0.000753606
1.6648e-09
0.00996478
-0.001811
-2.25627e-12
0.00996594
-0.00180932
-1.67619e-09
0.00996594
-0.00180932
0.00996478
-0.001811
-1.46436e-08
0.00997291
-0.00387638
1.06779e-12
0.00997124
-0.00387509
1.46391e-08
0.00997124
-0.00387509
0.00997291
-0.00387638
2.59093e-08
-0.000690246
-0.000376526
-0.000295337
-1.78289e-12
-0.000687385
-0.000377081
-0.000295292
-2.59093e-08
-0.000687385
-0.000377081
-0.000295292
-0.000690246
-0.000376526
-0.000295337
1.11979e-08
-0.002515
0.00456401
-1.27267e-12
-0.00251179
0.00456371
-1.12019e-08
-0.00251179
0.00456371
-0.002515
0.00456401
4.60472e-08
-0.00671389
0.0141717
1.67872e-12
-0.00671169
0.0141712
-4.60505e-08
-0.00671169
0.0141712
-0.00671389
0.0141717
-1.34031e-08
0.000207056
-0.00130811
-8.6542e-13
0.000209693
-0.00130991
1.34023e-08
0.000209693
-0.00130991
0.000207056
-0.00130811
-5.57813e-09
0.00115213
-0.000960709
-5.44216e-13
0.00115416
-0.000958612
5.57821e-09
0.00115416
-0.000958612
0.00115213
-0.000960709
2.0763e-09
0.00214223
-0.00136663
-1.10919e-12
0.00214204
-0.00136496
-2.07677e-09
0.00214204
-0.00136496
0.00214223
-0.00136663
4.12644e-10
-0.0079432
0.000546561
-0.000312866
4.52563e-13
-0.00794381
0.000549551
-0.000316378
-4.10682e-10
-0.00794381
0.000549551
-0.000316378
-0.0079432
0.000546561
-0.000312866
-4.61415e-08
-0.00851303
0.000751756
-0.000181879
-4.70878e-13
-0.00851398
0.000748429
-0.000178303
4.61411e-08
-0.00851398
0.000748429
-0.000178303
-0.00851304
0.000751756
-0.000181879
-2.9485e-08
0.00227447
-0.000649349
-1.64716e-13
0.00226942
-0.000647777
2.94838e-08
0.00226942
-0.000647777
0.00227447
-0.000649349
-1.56248e-08
0.0268358
0.00112502
2.00225e-13
0.0268354
0.00111606
1.56239e-08
0.0268354
0.00111606
0.0268358
0.00112502
-3.24262e-08
0.0257588
0.0018287
-8.57251e-13
0.0257556
0.00182822
3.24239e-08
0.0257556
0.00182822
0.0257588
0.0018287
4.48035e-08
0.0255699
0.000735446
-1.67214e-12
0.0255696
0.000735518
-4.4806e-08
0.0255696
0.000735518
0.0255699
0.000735446
-6.26065e-08
0.0257429
-0.00284282
-3.01878e-13
0.0257381
-0.00284212
6.26065e-08
0.0257381
-0.00284212
0.0257429
-0.00284282
-1.16053e-09
0.0257259
-0.000386672
-4.05942e-13
0.0257226
-0.000390374
1.16989e-09
0.0257226
-0.000390374
0.0257259
-0.000386672
-6.17077e-09
0.0260361
0.000922429
-1.62796e-12
0.0260355
0.000921861
6.18001e-09
0.0260355
0.000921861
0.0260361
0.000922429
1.91929e-08
0.0273579
-0.000568248
-1.2175e-12
0.0273592
-0.000567087
-1.91954e-08
0.0273592
-0.000567087
0.0273579
-0.000568248
-3.97113e-08
0.0279397
-0.00239274
1.72943e-12
0.0279408
-0.00239095
3.97099e-08
0.0279408
-0.00239095
0.0279397
-0.00239274
-4.4409e-08
0.0290362
-0.00497289
2.42079e-12
0.0290353
-0.00496958
4.44088e-08
0.0290353
-0.00496958
0.0290362
-0.00497289
3.75946e-08
0.0289378
-0.00661549
2.90294e-12
0.0289403
-0.00661665
-3.75945e-08
0.0289403
-0.00661665
0.0289378
-0.00661549
-1.24358e-08
0.00014813
-0.00144117
0.00343528
-1.09658e-12
0.000147225
-0.00144081
0.00343561
1.24349e-08
0.000147225
-0.00144081
0.00343561
0.00014813
-0.00144117
0.00343528
-1.7626e-08
-0.00100532
0.000858128
-8.10668e-13
-0.00100677
0.000858682
1.76251e-08
-0.00100677
0.000858682
-0.00100532
0.000858128
-2.21051e-08
-0.00291723
0.00647594
5.13695e-13
-0.00291915
0.00647607
2.21036e-08
-0.00291915
0.00647607
-0.00291723
0.00647594
-3.16667e-08
-0.00575533
0.0170099
2.20245e-12
-0.00575519
0.0170072
3.16657e-08
-0.00575519
0.0170072
-0.00575533
0.0170099
-2.87624e-08
0.0301044
-0.00692191
3.10028e-12
0.0301038
-0.00691877
2.87631e-08
0.0301038
-0.00691877
0.0301044
-0.00692191
-3.13412e-08
0.0104309
0.00257469
-3.1607e-12
0.0104367
0.00257662
3.13686e-08
0.0104367
0.00257662
0.0104309
0.00257469
-3.92725e-08
0.00991484
0.0010581
-1.22987e-11
0.0099193
0.00105704
3.92858e-08
0.0099193
0.00105704
0.00991484
0.0010581
1.6655e-09
0.0100777
-0.000532272
-7.40194e-12
0.010082
-0.000532483
-1.67539e-09
0.010082
-0.000532483
0.0100777
-0.000532272
-2.0312e-08
0.0107896
-0.00120232
1.46017e-14
0.0107929
-0.00120057
2.03051e-08
0.0107929
-0.00120057
0.0107896
-0.00120232
-2.12983e-08
0.0109625
-0.00148101
1.71578e-12
0.0109635
-0.00148058
2.12964e-08
0.0109635
-0.00148058
0.0109625
-0.00148101
-5.92989e-09
0.0110393
-0.00103745
2.49647e-13
0.0110407
-0.00103583
5.9308e-09
0.0110407
-0.00103583
0.0110393
-0.00103745
2.00281e-08
0.0120054
-0.00233271
-1.24323e-12
0.0120052
-0.00232946
-2.00287e-08
0.0120052
-0.00232946
0.0120054
-0.00233271
-1.57546e-08
-0.0029375
0.0135017
-9.96697e-13
-0.00293703
0.0135014
1.57518e-08
-0.00293703
0.0135014
-0.0029375
0.0135017
3.60412e-08
-0.0435103
-0.00552525
0.00626782
2.71121e-12
-0.0435
-0.00552341
0.00625573
-3.60442e-08
-0.0435
-0.00552341
0.00625573
-0.0435103
-0.00552525
0.00626782
1.29044e-07
-0.0619866
0.0219473
-0.00347115
1.66329e-12
-0.0619812
0.0219501
-0.00346876
-1.29044e-07
-0.0619812
0.0219501
-0.00346876
-0.0619866
0.0219473
-0.00347115
1.4614e-07
-0.0701212
0.0177126
-0.00957816
1.32113e-12
-0.0701116
0.0177142
-0.00958368
-1.4614e-07
-0.0701116
0.0177142
-0.00958368
-0.0701212
0.0177126
-0.00957816
9.72514e-08
-0.0748969
0.0164951
-0.0117195
-4.5506e-13
-0.0748895
0.0165051
-0.0117271
-9.72541e-08
-0.0748895
0.0165051
-0.0117271
-0.0748969
0.0164951
-0.0117195
-4.96995e-07
-0.0822981
0.0200798
-0.0126781
-1.10222e-12
-0.0823091
0.0200694
-0.0126503
4.9699e-07
-0.0823091
0.0200694
-0.0126503
-0.0822981
0.0200798
-0.0126781
1.29193e-07
-0.056431
0.0273996
-2.21275e-12
-0.0564228
0.027398
-1.29202e-07
-0.0564228
0.027398
-0.056431
0.0273996
-5.03916e-08
-0.0595045
0.0214056
4.20282e-13
-0.0595107
0.0214191
5.03898e-08
-0.0595107
0.0214191
-0.0595045
0.0214056
-5.54717e-08
-0.0657257
0.0136346
1.07603e-12
-0.0657302
0.0136396
5.5473e-08
-0.0657302
0.0136396
-0.0657257
0.0136346
-7.43036e-08
-0.067624
0.00983451
3.58478e-13
-0.0676322
0.00983982
7.43053e-08
-0.0676322
0.00983982
-0.067624
0.00983451
-3.07728e-08
-0.0669684
0.00769851
2.80037e-14
-0.0669757
0.00769933
3.07733e-08
-0.0669757
0.00769933
-0.0669684
0.00769851
-3.37088e-08
-0.0671544
0.00687643
5.13236e-14
-0.0671612
0.0068767
3.37087e-08
-0.0671612
0.0068767
-0.0671544
0.00687643
-2.54297e-08
-0.0692254
0.00675003
1.68458e-13
-0.0692293
0.00674866
2.54297e-08
-0.0692293
0.00674866
-0.0692254
0.00675003
-1.01077e-08
-0.0693147
0.00409144
1.28615e-13
-0.0693163
0.00409198
1.01077e-08
-0.0693163
0.00409198
-0.0693147
0.00409144
2.5776e-08
-0.0676022
0.00232246
2.45347e-14
-0.0676017
0.00232184
-2.57761e-08
-0.0676017
0.00232184
-0.0676022
0.00232246
7.20655e-09
-0.0664452
0.00265906
1.12461e-14
-0.0664459
0.00266013
-7.20663e-09
-0.0664459
0.00266013
-0.0664452
0.00265906
3.15146e-09
-0.0680163
0.00483573
1.62381e-14
-0.068016
0.00483537
-3.15159e-09
-0.068016
0.00483537
-0.0680163
0.00483573
-2.34812e-08
-0.072792
0.0042266
6.8176e-14
-0.0727917
0.00422779
2.34812e-08
-0.0727917
0.00422779
-0.072792
0.0042266
-2.75883e-08
-0.0710321
0.00531006
8.4674e-14
-0.0710327
0.00530991
2.75883e-08
-0.0710327
0.00530991
-0.0710321
0.00531006
-2.77543e-08
-0.0704771
0.00493947
8.0532e-14
-0.0704788
0.0049391
2.77543e-08
-0.0704788
0.0049391
-0.0704771
0.00493947
-4.244e-08
0.0280335
-0.00468184
6.26206e-13
0.028029
-0.00468731
4.2446e-08
0.028029
-0.00468731
0.0280335
-0.00468184
1.78225e-08
0.0288646
0.00174356
-3.44499e-12
0.0288659
0.00173972
-1.78215e-08
0.0288659
0.00173972
0.0288646
0.00174356
-4.72619e-08
0.029318
0.000604787
-3.68349e-12
0.0293204
0.000602514
4.72659e-08
0.0293204
0.000602514
0.029318
0.000604787
-2.71291e-09
0.0291369
-0.000351205
-9.1543e-13
0.0291397
-0.000351835
2.71138e-09
0.0291397
-0.000351835
0.0291369
-0.000351205
-4.30351e-09
0.0295642
-0.00162962
1.15865e-12
0.0295662
-0.00162706
4.29996e-09
0.0295662
-0.00162706
0.0295642
-0.00162962
-1.4247e-08
0.0289811
-0.00089788
4.85474e-13
0.0289824
-0.00089684
1.42434e-08
0.0289824
-0.00089684
0.0289811
-0.00089788
-3.49146e-10
0.0285889
-0.000645254
-1.19798e-12
0.0285887
-0.000642083
3.48634e-10
0.0285887
-0.000642083
0.0285889
-0.000645254
2.12459e-08
0.0278601
-0.00160391
-1.97954e-12
0.0278613
-0.00160202
-2.12472e-08
0.0278613
-0.00160202
0.0278601
-0.00160391
-2.9751e-08
0.0294045
-0.0044819
-1.4645e-12
0.0294033
-0.00447906
2.97474e-08
0.0294033
-0.00447906
0.0294045
-0.0044819
9.56322e-09
0.00283451
0.0294079
-0.00283792
-1.56221e-12
0.00283272
0.0294065
-0.00283593
-9.56591e-09
0.00283272
0.0294065
-0.00283593
0.00283451
0.0294079
-0.00283792
5.70451e-10
0.00165553
0.0146807
-8.43193e-13
0.0016554
0.0146788
-5.7163e-10
0.0016554
0.0146788
0.00165553
0.0146807
4.78531e-09
0.000253841
0.00483696
-4.22783e-13
0.00025417
0.00483685
-4.78659e-09
0.00025417
0.00483685
0.000253841
0.00483696
9.96021e-09
-0.00100813
0.00212009
4.37394e-13
-0.00100759
0.00212045
-9.96069e-09
-0.00100759
0.00212045
-0.00100813
0.00212009
2.3522e-09
-0.00232601
0.00779381
1.42462e-12
-0.00232439
0.00779287
-2.35225e-09
-0.00232439
0.00779287
-0.00232601
0.00779381
1.1189e-08
-0.00337094
0.0180548
2.33685e-12
-0.00336884
0.0180517
-1.11885e-08
-0.00336884
0.0180517
-0.00337094
0.0180548
3.18464e-08
-0.00477421
0.0315077
3.13054e-12
-0.00477427
0.0315093
-3.18449e-08
-0.00477427
0.0315093
-0.00477421
0.0315077
1.80514e-08
-0.0465904
0.0492682
-0.00745203
2.07182e-12
-0.0465915
0.0492697
-0.00745248
-1.80514e-08
-0.0465915
0.0492697
-0.00745248
-0.0465904
0.0492682
-0.00745203
-1.7948e-08
-0.0471087
-0.00640363
2.67927e-12
-0.04711
-0.00640028
1.79511e-08
-0.04711
-0.00640028
-0.0471087
-0.00640363
3.20288e-08
-0.0484876
-0.00523656
2.51381e-12
-0.0484885
-0.00523816
-3.20239e-08
-0.0484885
-0.00523816
-0.0484876
-0.00523656
-3.99203e-08
-0.0492724
-0.00418811
1.49493e-12
-0.0492746
-0.0041835
3.9922e-08
-0.0492746
-0.0041835
-0.0492724
-0.00418811
-3.50302e-09
-0.0489861
-0.00267902
1.32141e-12
-0.0489873
-0.00267825
3.50242e-09
-0.0489873
-0.00267825
-0.0489861
-0.00267902
3.05502e-08
-0.050425
0.000870648
1.66649e-12
-0.0504247
0.000870331
-3.05504e-08
-0.0504247
0.000870331
-0.050425
0.000870648
1.98383e-08
-0.0506377
0.00113507
-2.89345e-14
-0.0506336
0.0011308
-1.98343e-08
-0.0506336
0.0011308
-0.0506377
0.00113507
-2.23381e-08
-0.0498383
-0.00118604
-2.64114e-12
-0.049835
-0.00118901
2.23412e-08
-0.049835
-0.00118901
-0.0498383
-0.00118604
-9.11299e-08
-0.0518681
-0.000812942
-2.18356e-12
-0.0518664
-0.000810735
9.11288e-08
-0.0518664
-0.000810735
-0.0518681
-0.000812942
6.17218e-09
-0.0515389
0.000406261
-1.4283e-12
-0.0515349
0.000403998
-6.17605e-09
-0.0515349
0.000403998
-0.0515389
0.000406261
-2.31937e-08
-0.0527422
0.00303205
-5.18044e-13
-0.0527381
0.00303141
2.31904e-08
-0.0527381
0.00303141
-0.0527422
0.00303205
-6.70903e-08
-0.0540138
0.00239664
3.0832e-13
-0.0540084
0.0023863
6.70892e-08
-0.0540084
0.0023863
-0.0540138
0.00239664
6.19999e-08
-0.0577245
0.00811568
2.92864e-13
-0.0577073
0.00809784
-6.20008e-08
-0.0577073
0.00809784
-0.0577245
0.00811568
-1.24927e-08
-0.0606975
0.00241005
-5.94335e-14
-0.0606808
0.00239555
1.24927e-08
-0.0606808
0.00239555
-0.0606975
0.00241005
-1.77372e-07
-0.0827532
0.00556714
-7.28807e-13
-0.0827412
0.00556146
1.77368e-07
-0.0827412
0.00556146
-0.0827532
0.00556714
3.45257e-07
-0.0814339
0.00883069
-0.0101504
1.09145e-12
-0.0814179
0.00882123
-0.0101442
-3.45257e-07
-0.0814179
0.00882123
-0.0101442
-0.0814339
0.00883069
-0.0101504
4.39297e-08
-0.0842373
0.0165711
-0.0137677
-9.15763e-13
-0.0842538
0.0165783
-0.0137423
-4.39374e-08
-0.0842538
0.0165783
-0.0137423
-0.0842373
0.0165711
-0.0137677
-9.37196e-08
-0.0918459
0.0238284
-0.0162197
-3.60194e-12
-0.0918735
0.0238164
-0.0161967
9.37045e-08
-0.0918735
0.0238164
-0.0161967
-0.0918459
0.0238284
-0.0162197
3.75122e-07
-0.0599077
0.0325525
-1.17681e-12
-0.0599059
0.0325671
-3.75128e-07
-0.0599059
0.0325671
-0.0599077
0.0325525
2.18983e-07
-0.0639409
0.0209044
1.55318e-12
-0.063942
0.0209125
-2.18988e-07
-0.063942
0.0209125
-0.0639409
0.0209044
3.77562e-08
-0.0665153
0.0131482
1.68125e-12
-0.066512
0.0131487
-3.77553e-08
-0.066512
0.0131487
-0.0665153
0.0131482
-4.67665e-08
-0.065218
0.00977809
1.05762e-12
-0.0652234
0.00978203
4.67688e-08
-0.0652234
0.00978203
-0.065218
0.00977809
-4.98748e-08
-0.0682185
0.00924019
8.92561e-15
-0.0682245
0.00924149
4.98754e-08
-0.0682245
0.00924149
-0.0682185
0.00924019
-6.81963e-08
-0.0689769
0.00672929
-2.78657e-14
-0.0689852
0.00673289
6.81961e-08
-0.0689852
0.00673289
-0.0689769
0.00672929
-7.13085e-08
-0.0696859
0.00603723
2.15168e-13
-0.0696925
0.00603888
7.13085e-08
-0.0696925
0.00603888
-0.0696859
0.00603723
-4.58661e-08
-0.0695603
0.00595496
3.20748e-13
-0.0695652
0.00595688
4.58664e-08
-0.0695652
0.00595688
-0.0695603
0.00595496
-1.34283e-08
-0.0700839
0.00743167
1.96261e-13
-0.0700859
0.00743102
1.34283e-08
-0.0700859
0.00743102
-0.0700839
0.00743167
-2.54759e-08
-0.0685162
0.00329024
8.76325e-14
-0.0685193
0.00329323
2.54757e-08
-0.0685193
0.00329323
-0.0685162
0.00329024
-3.69538e-08
-0.0683713
0.00317234
5.47294e-14
-0.0683754
0.00317432
3.69537e-08
-0.0683754
0.00317432
-0.0683713
0.00317234
-3.15502e-08
-0.0687455
0.00550327
7.28176e-14
-0.0687485
0.005504
3.15502e-08
-0.0687485
0.005504
-0.0687455
0.00550327
-2.30178e-08
-0.0660381
0.00387582
9.85384e-14
-0.0660411
0.00387575
2.30178e-08
-0.0660411
0.00387575
-0.0660381
0.00387582
-2.5243e-08
-0.0673122
0.00691449
1.1524e-13
-0.0673145
0.00691417
2.52431e-08
-0.0673145
0.00691417
-0.0673122
0.00691449
-1.84644e-08
-0.00456183
0.00630818
-0.0690585
1.1447e-13
-0.00456202
0.00630724
-0.0690598
1.84644e-08
-0.00456202
0.00630724
-0.0690598
-0.00456183
0.00630818
-0.0690585
-2.35851e-08
-0.00229149
-0.0694809
1.15179e-13
-0.0022926
-0.0694805
2.35852e-08
-0.0022926
-0.0694805
-0.00229149
-0.0694809
-2.98551e-08
-0.000158483
-0.0704273
1.02125e-13
-0.000159568
-0.0704248
2.98552e-08
-0.000159568
-0.0704248
-0.000158483
-0.0704273
-2.79516e-08
0.0025053
-0.0709936
9.35616e-14
0.00250439
-0.0709904
2.79516e-08
0.00250439
-0.0709904
0.0025053
-0.0709936
-2.44886e-08
0.00277312
-0.0711321
8.24424e-14
0.00277303
-0.0711304
2.44886e-08
0.00277303
-0.0711304
0.00277312
-0.0711321
-2.56531e-08
0.00234606
-0.0704514
7.74556e-14
0.00234687
-0.0704507
2.56531e-08
0.00234687
-0.0704507
0.00234606
-0.0704514
-2.12626e-08
0.00363023
-0.0710206
7.30892e-14
0.0036299