/*--------------------------------*- C++ -*----------------------------------*\
| =========                 |                                                 |
| \\      /  F ield         | OpenFOAM: The Open Source CFD Toolbox           |
|  \\    /   O peration     | Version:  v1806                                 |
|   \\  /    A nd           | Web:      www.OpenFOAM.com                      |
|    \\/     M anipulation  |                                                 |
\*---------------------------------------------------------------------------*/
FoamFile
{
    version     2.0;
    format      ascii;
    class       volScalarField;
    location    "100";
    object      p;
}
// * * * * * * * * * * * * * * * * * * * * * * * * * * * * * * * * * * * * * //

dimensions      [0 2 -2 0 0 0 0];


internalField   nonuniform List<scalar> 
2400
(
4.18984e-05
4.33748e-05
4.59213e-05
5.00035e-05
5.59672e-05
6.36508e-05
7.21356e-05
8.26944e-05
9.57774e-05
0.000111672
0.000127118
0.000143955
0.000161596
0.000182097
0.00019907
0.000211574
0.000218542
0.000222131
0.000220127
0.000220376
0.000125339
0.000129528
0.000137243
0.000149791
0.000166593
0.00018854
0.000214314
0.000247241
0.000284907
0.000329104
0.000374556
0.000427549
0.00048141
0.000537432
0.000581738
0.000619043
0.000642812
0.000651031
0.00063931
0.000612541
0.000207876
0.00021479
0.000227624
0.000248306
0.000275665
0.000312048
0.000355143
0.000409662
0.000470989
0.000543852
0.000620032
0.000708781
0.000796875
0.000888277
0.000961684
0.0010251
0.00106264
0.00107171
0.00104335
0.000987954
0.000288951
0.000298549
0.000316368
0.00034507
0.000383023
0.000433693
0.000493658
0.000569465
0.000654571
0.000756428
0.000862947
0.000987262
0.0011096
0.00123814
0.00134124
0.00143151
0.00148122
0.00149018
0.00144172
0.00135236
0.000367988
0.000380204
0.000402926
0.000439537
0.000487889
0.000552569
0.000629164
0.000726154
0.000834782
0.000965585
0.00110235
0.00126303
0.00141988
0.00158727
0.00172067
0.00184057
0.00190172
0.00191036
0.0018374
0.00170542
0.000444435
0.000459196
0.000486713
0.00053103
0.000589543
0.00066798
0.000760921
0.000878794
0.00101061
0.00117049
0.00133762
0.00153558
0.00172736
0.0019362
0.00210131
0.00225519
0.00232722
0.0023375
0.00223341
0.00204887
0.000517756
0.000534959
0.000567136
0.00061892
0.000687342
0.000779186
0.000888105
0.0010265
0.00118125
0.00137031
0.00156792
0.00180423
0.00203189
0.00228561
0.00248442
0.00267829
0.00276144
0.00277795
0.00263416
0.0023872
0.000587431
0.000606943
0.000643637
0.000702597
0.000780633
0.000885428
0.00100994
0.00116842
0.00134583
0.00156401
0.00179237
0.00206822
0.00233319
0.00263574
0.00287117
0.00311296
0.00320845
0.00323944
0.00304554
0.00272663
0.000652965
0.000674619
0.000715677
0.000781457
0.000868782
0.000985965
0.00112567
0.00130359
0.00150342
0.00175046
0.00201
0.00232646
0.00263069
0.0029864
0.00326261
0.00356201
0.00367265
0.0037312
0.00347434
0.00307687
0.000713887
0.00073748
0.000782737
0.000854913
0.000951178
0.00108005
0.00123452
0.00143105
0.00165308
0.00192841
0.00221971
0.00257751
0.00292361
0.00333678
0.0036596
0.00402777
0.00415913
0.00426358
0.00392857
0.00345323
0.000769754
0.000795043
0.000844332
0.000922401
0.00102724
0.00116694
0.00133573
0.00154978
0.00179379
0.00209643
0.00242026
0.00281956
0.00321083
0.00368531
0.00406266
0.00451161
0.00467371
0.00484775
0.00441834
0.00387835
0.000820156
0.000846859
0.000900002
0.000983384
0.00109639
0.00124592
0.00142856
0.00165872
0.00192455
0.00225295
0.00261027
0.00305037
0.00349086
0.00402945
0.00447182
0.00501344
0.0052231
0.0054951
0.00495762
0.00438373
0.000864716
0.000892517
0.000949322
0.00103736
0.00115811
0.00131627
0.00151228
0.00175682
0.00204428
0.00239629
0.00278818
0.00326729
0.00376179
0.00436565
0.00488642
0.00553117
0.00581461
0.00621605
0.00556747
0.00501155
0.00090309
0.000931647
0.000991902
0.00108386
0.00121189
0.00137735
0.00158616
0.00184301
0.00215189
0.00252465
0.00295228
0.00346725
0.00402126
0.00468922
0.00530496
0.00606008
0.00645542
0.00701757
0.00627927
0.00581799
0.000934971
0.000963933
0.00102739
0.00112248
0.00125724
0.00142855
0.0016495
0.00191632
0.00224622
0.00263618
0.0031006
0.00364678
0.00426635
0.00499445
0.00572515
0.00659281
0.00715252
0.0078999
0.00713614
0.00686641
0.000960085
0.000989113
0.00105546
0.00115288
0.00129371
0.00146935
0.00170157
0.00197584
0.00232607
0.00272912
0.00323094
0.00380214
0.00449309
0.00527446
0.00614362
0.00712062
0.00791491
0.00885535
0.00820041
0.00819127
0.000978192
0.00100698
0.00107585
0.00117476
0.00132087
0.00149932
0.00174164
0.00202084
0.00239009
0.00280192
0.00334069
0.00392926
0.00469648
0.00551954
0.00655354
0.0076337
0.00875849
0.00987515
0.00958364
0.00980729
0.00098909
0.00101741
0.00108833
0.00118792
0.00133833
0.00151816
0.00176902
0.00205075
0.00243684
0.00285341
0.00342673
0.00402471
0.0048699
0.00571716
0.00694185
0.00810236
0.00970114
0.0109649
0.0114876
0.0118021
0.000992607
0.00102033
0.00109272
0.00119224
0.00134576
0.00152572
0.00178311
0.00206529
0.00246516
0.00288288
0.00348688
0.0040864
0.0050047
0.0058614
0.00728468
0.00848775
0.0106988
0.0121441
0.0139502
0.0140881
0.000988455
0.00101582
0.00108862
0.00118771
0.00134244
0.001522
0.00178243
0.00206469
0.00247158
0.00289085
0.00351242
0.00412005
0.00508296
0.0059537
0.00753395
0.00877552
0.0116741
0.0132081
0.0182669
0.0102009
0.000252167
0.000264181
0.000268829
0.000268376
0.000267355
0.000266985
0.000266708
0.000265748
0.000263397
0.00025892
0.000579779
0.000568931
0.000562768
0.000560604
0.000559739
0.000559311
0.000559595
0.000561049
0.000564139
0.000569218
0.000949299
0.000942559
0.000938571
0.00093587
0.000933493
0.000931356
0.00092971
0.000928724
0.000928413
0.000928649
0.00128859
0.00127385
0.00126184
0.00125202
0.00124334
0.00123556
0.00122893
0.00122375
0.00122025
0.00121857
0.00160757
0.0015851
0.00156665
0.00155121
0.00153708
0.00152386
0.00151183
0.00150135
0.0014926
0.00148566
0.00190932
0.00187703
0.00184925
0.0018248
0.00180176
0.00177974
0.00175917
0.0017405
0.00172401
0.00170986
0.00219542
0.0021505
0.00211035
0.00207392
0.00203921
0.00200578
0.00197412
0.00194472
0.00191793
0.00189393
0.00246784
0.00240649
0.00235005
0.00229786
0.00224781
0.00219942
0.00215321
0.00210977
0.00206952
0.00203269
0.00272913
0.00264578
0.00256781
0.00249511
0.00242529
0.00235768
0.00229285
0.00223152
0.00217419
0.00212115
0.00298138
0.00286734
0.00276067
0.00266162
0.0025667
0.00247473
0.00238637
0.00230259
0.002224
0.00215093
0.00322526
0.0030669
0.00292173
0.00278928
0.00266298
0.00254049
0.00242278
0.00231123
0.00220667
0.00210941
0.00345781
0.00323426
0.0030374
0.00286326
0.00269832
0.00253808
0.00238417
0.00223884
0.00210316
0.00197737
0.00366838
0.00334869
0.0030831
0.002858
0.00264631
0.00243988
0.00224188
0.00205609
0.00188397
0.00172549
0.0038336
0.00337332
0.00301784
0.00273221
0.00246543
0.00220372
0.00195313
0.00172002
0.00150633
0.00131158
0.00391064
0.00324828
0.00277471
0.00241588
0.00208369
0.00175675
0.00144568
0.00116025
0.000902556
0.000670895
0.00381472
0.00288354
0.00226706
0.00182009
0.00140451
0.000993771
0.00060764
0.000261245
-4.29558e-05
-0.000307872
0.0032713
0.00201742
0.0012916
0.000801588
0.000330788
-0.000149918
-0.000603294
-0.00100465
-0.00135089
-0.00164642
0.00187867
9.93416e-09
-0.000980006
-0.00154273
-0.0020538
-0.00256965
-0.00303856
-0.00342716
-0.00373258
-0.00396213
0.00138521
-0.000793908
-0.00196536
-0.00282168
-0.00367349
-0.0044884
-0.0051846
-0.0057382
-0.00615907
-0.00646087
-0.00889013
-0.00976835
-0.00870709
-0.00812157
-0.00813241
-0.00835768
-0.00861035
-0.00886112
-0.00911578
-0.00929124
0.000237606
0.000252376
0.000289415
0.000340369
0.000406382
0.000488778
0.000586909
0.000698484
0.0008185
0.000938233
0.00104749
0.00113812
0.00120417
0.00123861
0.00123317
0.00117818
0.00106991
0.000891152
0.000655554
0.000221151
0.000593031
0.000632622
0.000692306
0.000778985
0.000894716
0.00103783
0.00120324
0.00138281
0.00156498
0.00173545
0.00188055
0.00199054
0.00205887
0.00207814
0.00203982
0.00193147
0.00174554
0.00144986
0.00105893
0.000345884
0.000931177
0.000972243
0.00105096
0.001173
0.00134101
0.00155205
0.00179891
0.00207092
0.00235282
0.00262367
0.00285951
0.00303789
0.0031397
0.00314728
0.00304666
0.00282543
0.00248325
0.00199356
0.00138717
0.000446488
0.00122067
0.00126183
0.00135162
0.00149751
0.00170114
0.00195728
0.00225525
0.00257975
0.0029099
0.00321921
0.00347967
0.00366669
0.00376032
0.00374174
0.00359525
0.0033056
0.00287223
0.00226923
0.00153647
0.000487254
0.00147207
0.00150153
0.00159179
0.00175005
0.00197731
0.00226639
0.00260367
0.0029707
0.00334347
0.00369198
0.00398366
0.00418812
0.00427951
0.00423484
0.00403781
0.00367534
0.00315286
0.00245037
0.0016204
0.000505694
0.00167745
0.00168588
0.00176724
0.00192931
0.00217192
0.00248514
0.00285218
0.00325121
0.00365437
0.00402754
0.00433453
0.0045422
0.00462276
0.00455215
0.00431442
0.00389783
0.0033123
0.00254338
0.00165397
0.000507838
0.00183452
0.00181159
0.00187574
0.00203452
0.00228545
0.00261536
0.0030046
0.00342873
0.00385695
0.00425193
0.00457426
0.0047874
0.0048606
0.00476834
0.00449593
0.00403483
0.00340098
0.00258552
0.00166009
0.000501739
0.00193842
0.00187398
0.00191342
0.00206301
0.00231689
0.00265839
0.00306538
0.00351128
0.00396237
0.00437785
0.00471491
0.00493397
0.00500213
0.00489338
0.00459498
0.00410181
0.00343531
0.00259131
0.00164818
0.00049093
0.00198293
0.00186678
0.00187515
0.00201142
0.00226472
0.00261435
0.0030363
0.00350253
0.00397672
0.00441464
0.00476987
0.00499939
0.00506792
0.00494919
0.00463295
0.00411806
0.00343128
0.00257241
0.0016247
0.000477793
0.00195884
0.00178149
0.00175447
0.00187545
0.00212607
0.00248135
0.00291667
0.00340363
0.00390358
0.00436834
0.00474714
0.00499299
0.0050681
0.00494641
0.00462066
0.00409395
0.00339781
0.00253541
0.00159315
0.000463617
0.00185292
0.00160672
0.00154323
0.00164973
0.00189693
0.00225583
0.00270329
0.00321227
0.0037421
0.00424007
0.00464996
0.00491979
0.00500904
0.00489221
0.00456549
0.00403639
0.00334068
0.00248436
0.00155552
0.000449148
0.00164601
0.00132744
0.00123178
0.0013282
0.00157232
0.00193231
0.00238991
0.00292204
0.00348677
0.00402615
0.0044767
0.00478003
0.00489248
0.00478948
0.00447107
0.00394916
0.00326311
0.00242149
0.00151277
0.000434788
0.00131059
0.000924319
0.000809244
0.000904408
0.00114603
0.00150272
0.00196629
0.00252162
0.00312647
0.00371731
0.0042207
0.00456957
0.00471651
0.0046382
0.00433871
0.00383415
0.00316694
0.00234803
0.00146539
0.000420743
0.000807643
0.000373244
0.00026447
0.00037208
0.000610369
0.000955059
0.00141654
0.00199364
0.00264454
0.00329941
0.00387125
0.00428124
0.00447718
0.00443702
0.00416867
0.00369237
0.00305326
0.00226476
0.00141364
0.000407121
7.99847e-05
-0.000354975
-0.000411328
-0.000270954
-3.89174e-05
0.000278238
0.000722827
0.00131845
0.00202253
0.00275878
0.00341856
0.00390886
0.00417178
0.00418589
0.00396257
0.00352588
0.00292369
0.00217255
0.00135782
0.000393933
-0.000954594
-0.00128631
-0.00121545
-0.00101172
-0.000788303
-0.000518257
-0.000113289
0.000499294
0.00125768
0.00209314
0.0028635
0.00345554
0.00380507
0.00389029
0.00372538
0.00333849
0.00278084
0.00207285
0.00129852
0.000381049
-0.00236422
-0.00241917
-0.0021167
-0.00179619
-0.00157246
-0.00136612
-0.00102702
-0.000445574
0.000401331
0.00134846
0.00224032
0.00294832
0.00339822
0.00356608
0.00346836
0.00313764
0.00262936
0.00196808
0.00123691
0.000368315
-0.00439731
-0.00374359
-0.00307086
-0.0025431
-0.00226915
-0.00211319
-0.00183122
-0.00126268
-0.000387854
0.000640044
0.00163679
0.00245061
0.00299531
0.0032427
0.00321039
0.00293495
0.0024762
0.00186191
0.00117485
0.000355536
-0.00683923
-0.00488795
-0.00360625
-0.00285249
-0.00257241
-0.00245465
-0.00223619
-0.00172229
-0.000876847
0.000161137
0.00119556
0.00206138
0.00266161
0.0029612
0.00297646
0.00274523
0.00233009
0.00175906
0.00111478
0.000342289
-0.00841571
-0.00635379
-0.0046861
-0.00329957
-0.00270481
-0.00242903
-0.00217408
-0.00168966
-0.000913499
5.17969e-05
0.00103125
0.0018657
0.00245502
0.00275865
0.00278972
0.00258268
0.00220009
0.00166384
0.0010605
0.000326015
-0.010785
-0.00618413
-0.00468536
-0.00326796
-0.00261136
-0.00218216
-0.00185402
-0.0013585
-0.000639081
0.000240137
0.00113159
0.00189217
0.00242767
0.002697
0.00271376
0.00250384
0.00213538
0.0016078
0.00103853
0.000305444
-0.0100485
-0.00634611
-0.00488014
-0.0033359
-0.0026036
-0.00208352
-0.00170387
-0.00119278
-0.00049335
0.000347087
0.00119583
0.00191892
0.00242609
0.00267678
0.00268447
0.00247202
0.00210786
0.00158511
0.00102722
0.000299019
-0.00971368
-0.00647928
-0.00506062
-0.00343935
-0.00261294
-0.00198778
-0.00154108
-0.00100708
-0.000324494
0.000476341
0.001279
0.00196027
0.00243497
0.00266386
0.00265985
0.00244372
0.00208181
0.0015648
0.00101464
0.000295405
-0.00949521
-0.00661955
-0.00522996
-0.00355223
-0.0026265
-0.00188776
-0.00136368
-0.00080053
-0.000132265
0.000628073
0.00138142
0.00201667
0.00245479
0.00265856
0.00264034
0.00241894
0.00205789
0.00154609
0.00100244
0.000292702
-0.00935982
-0.00675257
-0.00540081
-0.00367556
-0.00264316
-0.00178445
-0.00117497
-0.000576855
8.00995e-05
0.000799737
0.00150137
0.00208707
0.00248502
0.00266066
0.00262592
0.00239764
0.00203624
0.00152887
0.000990954
0.000290477
-0.00932652
-0.00689194
-0.0055766
-0.00380335
-0.00266158
-0.00167901
-0.000978125
-0.000340097
0.000308526
0.000987922
0.00163633
0.00216983
0.00252471
0.00266968
0.0026164
0.0023798
0.00201685
0.00151322
0.000980107
0.000288778
-0.00940106
-0.0070407
-0.00575184
-0.00392928
-0.00267751
-0.00157093
-0.000775191
-9.37142e-05
0.000549224
0.00118932
0.00178379
0.00226328
0.00257289
0.00268515
0.00261158
0.00236538
0.00199972
0.00149922
0.000969899
0.000287601
-0.00957806
-0.00718772
-0.00591824
-0.00404583
-0.00268527
-0.00145856
-0.00056741
0.000159353
0.000798774
0.00140082
0.00194136
0.00236581
0.00262861
0.00270658
0.00261126
0.00235432
0.00198488
0.00148684
0.000960406
0.000286878
-0.00985935
-0.00731108
-0.00606355
-0.00414648
-0.00268066
-0.0013406
-0.000355898
0.00041645
0.00105412
0.00161951
0.00210671
0.00247583
0.0026909
0.00273347
0.00261521
0.00234656
0.00197229
0.00147616
0.000951578
0.000286708
-0.0102073
-0.00745313
-0.00617025
-0.00422956
-0.00266097
-0.00121835
-0.000142921
0.000674454
0.00131188
0.00184243
0.00227746
0.00259156
0.00275857
0.00276509
0.00262296
0.00234192
0.00196163
0.00146741
0.000942763
0.000287803
-0.0102895
-0.00779753
-0.00629016
-0.00432625
-0.00259437
-0.00100317
0.000214669
0.00110377
0.00174221
0.00221728
0.00256776
0.0027913
0.00287825
0.00282421
0.00264114
0.00233874
0.00194654
0.0014559
0.000927629
0.000291831
-0.00921319
-0.00735039
-0.00603858
-0.00414396
-0.00229705
-0.00058414
0.000757601
0.00170981
0.00233823
0.00274142
0.00298165
0.00308705
0.00306712
0.00292909
0.0026875
0.00235065
0.0019402
0.00144629
0.000916735
0.000292486
-0.00818925
-0.00668588
-0.00539632
-0.00364307
-0.00178612
-4.7718e-05
0.00133466
0.0023018
0.00290266
0.00323654
0.00338087
0.00338189
0.00326502
0.00304807
0.00274931
0.0023764
0.00194567
0.00144423
0.000912054
0.000291994
-0.00672376
-0.0056649
-0.00446616
-0.00285066
-0.00109514
0.000587006
0.00193815
0.00287366
0.00342694
0.00369247
0.00375369
0.00366555
0.00346407
0.00317575
0.00282296
0.00241405
0.00196136
0.00144975
0.000912216
0.000291952
-0.0052109
-0.00450912
-0.00344531
-0.00197648
-0.000316926
0.00126155
0.00253728
0.00341363
0.00390616
0.00410542
0.00409525
0.00393304
0.0036599
0.00330864
0.00290589
0.00246179
0.00198617
0.00146221
0.000917022
0.000292596
-0.00385097
-0.00340559
-0.00248071
-0.00115098
0.000390446
0.00188294
0.00309239
0.00390151
0.0043334
0.00447308
0.00440357
0.00418178
0.00384964
0.00344397
0.00299566
0.00251769
0.00201873
0.00148072
0.000926124
0.000293941
-0.00271659
-0.00244772
-0.00165427
-0.00045815
0.000966147
0.00237575
0.00353366
0.00430757
0.00469925
0.00479275
0.00467742
0.00440999
0.00403087
0.003579
0.00308965
0.00257949
0.00205729
0.00150415
0.000938905
0.000295966
-0.00181161
-0.00165973
-0.000986207
8.01649e-05
0.00138492
0.00271313
0.00383718
0.00460417
0.00498651
0.00505849
0.00491447
0.00461539
0.00420072
0.0037106
0.00318475
0.00264446
0.0020997
0.00153107
0.000954544
0.000298575
-0.00110692
-0.00103033
-0.000462876
0.000477784
0.00165817
0.00289902
0.00399414
0.00477561
0.00518142
0.0052615
0.00510976
0.00479395
0.00435508
0.00383457
0.003277
0.00270914
0.00214318
0.00155958
0.00097198
0.000301575
-0.000567302
-0.000536119
-5.92968e-05
0.000762649
0.00181626
0.00295858
0.00401564
0.00481852
0.00527209
0.00539023
0.00525481
0.00493889
0.00448771
0.00394512
0.00336114
0.00276904
0.00218419
0.00158726
0.000989826
0.000304656
-0.000163092
-0.000156175
0.000245294
0.000958855
0.00188851
0.00292276
0.0039248
0.00474071
0.00525224
0.0054325
0.00533789
0.00504021
0.00458974
0.00403426
0.00343019
0.00281833
0.00221815
0.00161089
0.00100626
0.000307362
0.00012861
0.000125403
0.000465096
0.00108216
0.0018952
0.00281705
0.00374655
0.00455664
0.0051216
0.00537739
0.00534497
0.00508461
0.00464919
0.00409143
0.00347507
0.00284949
0.00223917
0.00162636
0.00101886
0.000309043
0.000325884
0.000321217
0.000610072
0.00114196
0.00184783
0.00265806
0.00350121
0.00428238
0.0048843
0.0052165
0.00526102
0.0050559
0.00465097
0.00410313
0.00348418
0.00285295
0.00223975
0.00162832
0.00102444
0.000308796
0.000443727
0.000442202
0.000688181
0.0011441
0.00175192
0.00245438
0.00320218
0.00393185
0.00454655
0.00494403
0.00507106
0.00493565
0.00457672
0.00405268
0.00344307
0.00281675
0.00221044
0.00160988
0.00101872
0.000305377
0.00049502
0.000498364
0.000706602
0.00109299
0.00160981
0.00220901
0.00285631
0.00351483
0.00411442
0.00455609
0.00476066
0.00470353
0.00440491
0.00391983
0.00333403
0.00272611
0.00213943
0.00156226
0.000995961
0.000297104
0.000491047
0.000499019
0.000672235
0.000992752
0.00142271
0.00192186
0.00246539
0.00303645
0.0035923
0.00404946
0.00431611
0.00433789
0.0041107
0.00368036
0.00313553
0.00256301
0.00201215
0.00147428
0.000948474
0.000281709
0.000441342
0.00045266
0.000591658
0.000847502
0.00119174
0.00159167
0.00202818
0.00249767
0.00298187
0.00341987
0.00372119
0.00381124
0.00366167
0.00330306
0.00282075
0.00230548
0.0018108
0.0013317
0.000865697
0.00025602
0.000356332
0.000368115
0.000471928
0.000661876
0.000918319
0.00121665
0.00154206
0.00189775
0.00228379
0.00266626
0.00297154
0.00311586
0.00304551
0.00277003
0.00236761
0.00193037
0.00151376
0.00111612
0.000733421
0.000216114
0.000238747
0.000251819
0.000319561
0.000441099
0.000605389
0.000794835
0.00099831
0.0012241
0.00148355
0.00175925
0.00199618
0.0021271
0.00210724
0.00193866
0.00167319
0.00137559
0.00108741
0.000809684
0.000540885
0.000161098
0.000107464
0.000112551
0.000143995
0.000195432
0.000267364
0.00035281
0.00043736
0.000524014
0.00064131
0.000811097
0.00101771
0.00120236
0.00128571
0.00122466
0.00105251
0.00084025
0.000638434
0.000457404
0.000296999
9.11158e-05
-0.0143309
-0.0156309
-0.0152292
-0.0150907
-0.0150449
-0.0148224
-0.0144162
-0.0139071
-0.0133754
-0.012805
-0.00807124
-0.0104787
-0.0111773
-0.0114544
-0.0116528
-0.0117119
-0.0116025
-0.0113657
-0.0110492
-0.0106712
-0.00441445
-0.00689482
-0.00795674
-0.00845901
-0.00886635
-0.00919425
-0.00937235
-0.00938938
-0.00927234
-0.00905125
-0.0018329
-0.00393226
-0.00493726
-0.00547833
-0.00594769
-0.00637424
-0.00669212
-0.0068776
-0.00694778
-0.0069238
-0.000134187
-0.00183714
-0.00270741
-0.00322462
-0.00369448
-0.00414163
-0.00451239
-0.00478288
-0.00496187
-0.00506229
0.000896804
-0.000471422
-0.00120872
-0.00167472
-0.00210682
-0.00252565
-0.00288944
-0.00317805
-0.0033956
-0.003552
0.00150899
0.000419211
-0.00019982
-0.00060937
-0.00099171
-0.00136493
-0.00169742
-0.001973
-0.00219313
-0.00236546
0.00185498
0.000992214
0.000474544
0.00011836
-0.000214117
-0.000538919
-0.000832686
-0.00108251
-0.00128833
-0.00145546
0.00202234
0.00134326
0.000912989
0.000606341
0.000320917
4.27646e-05
-0.000211204
-0.000430788
-0.00061525
-0.00076782
0.00206715
0.00153624
0.00118188
0.000920872
0.000678598
0.000443407
0.000227323
3.82589e-05
-0.00012279
-0.000257576
0.0020263
0.00161399
0.00132513
0.0011056
0.000902163
0.000705539
0.000524153
0.000364029
0.000226207
0.000109841
0.0019246
0.00160642
0.0013734
0.00119104
0.00102215
0.000859635
0.000709354
0.000575807
0.000459988
0.000361541
0.00177918
0.00153528
0.00134931
0.00119984
0.00106138
0.000928726
0.000805919
0.000696273
0.000600697
0.000519077
0.0016017
0.00141625
0.00126965
0.001149
0.00103717
0.00093048
0.000831699
0.000743241
0.00066591
0.000599706
0.00139991
0.00126049
0.00114678
0.00105128
0.000962731
0.000878578
0.000800703
0.000730853
0.000669722
0.000617365
0.00117894
0.00107603
0.000989857
0.000916305
0.000848127
0.000783605
0.000723996
0.000670529
0.000623766
0.000583757
0.000942091
0.000868959
0.000806316
0.000751959
0.000701479
0.00065384
0.000609907
0.000570547
0.000536231
0.000507045
0.000690507
0.000642069
0.000600713
0.000564839
0.000531411
0.000499752
0.000470511
0.000444319
0.000421482
0.00040192
0.000429662
0.000397221
0.000370401
0.000348321
0.000328227
0.000309363
0.000292038
0.000276661
0.000263674
0.000253446
0.000176891
0.000179666
0.000175958
0.000168827
0.000162137
0.000156577
0.000151712
0.000147067
0.000142054
0.000135662
0.000908545
0.000932103
0.00100278
0.00109228
0.00124223
0.00140571
0.00166026
0.00191856
0.00232171
0.00270703
0.00333274
0.00389114
0.0048813
0.00567898
0.0073328
0.00844684
0.0115913
0.0128958
0.0196168
0.0109622
0.000883472
0.000906144
0.000975242
0.00106255
0.00120895
0.00136851
0.00161705
0.00186965
0.00226313
0.00264072
0.00324966
0.00379787
0.00475406
0.00553612
0.00709271
0.00816912
0.0108869
0.0119944
0.015534
0.0100544
0.00085525
0.000877027
0.000944339
0.00102899
0.00117143
0.00132625
0.00156797
0.00181361
0.00219591
0.00256385
0.00315289
0.00368828
0.00460296
0.00536598
0.00680481
0.0078413
0.010082
0.0110675
0.0124473
0.0103734
0.000823946
0.000844915
0.000910037
0.000991868
0.00112953
0.00127937
0.00151278
0.00175116
0.00211952
0.00247768
0.00304162
0.00356465
0.00442724
0.00517312
0.00647255
0.00747568
0.00923857
0.0101616
0.0103157
0.010084
0.000789691
0.000809887
0.000872468
0.000951274
0.00108345
0.00122797
0.00145172
0.00168241
0.00203442
0.00238232
0.00291681
0.0034271
0.00422969
0.00495822
0.00610775
0.00707816
0.00841569
0.00933085
0.00880082
0.00924791
0.000752616
0.000772042
0.000831773
0.000907321
0.00103336
0.00117217
0.00138508
0.00160748
0.0019411
0.00227791
0.00277955
0.00327587
0.00401349
0.00472254
0.00572271
0.00665664
0.00764744
0.0085721
0.00764303
0.00819115
0.000712858
0.000731501
0.000788097
0.000860147
0.00097946
0.00111212
0.00131316
0.00152657
0.00184006
0.0021647
0.00263094
0.00311152
0.00378184
0.00446803
0.00532779
0.00622101
0.0069426
0.00785188
0.0067015
0.00712876
0.000670566
0.000688395
0.000741594
0.000809899
0.000921949
0.001048
0.00123623
0.0014399
0.00173183
0.00204304
0.00247218
0.00293473
0.00353791
0.00419692
0.00492983
0.00577866
0.00629237
0.00714998
0.0059047
0.00615319
0.000625901
0.000642861
0.000692433
0.000756734
0.000861052
0.000980002
0.00115466
0.0013477
0.00161702
0.00191328
0.00230449
0.00274627
0.00328437
0.00391158
0.00453251
0.00533069
0.00568455
0.00646304
0.00521605
0.00529327
0.000579028
0.00059505
0.000640792
0.00070082
0.000797005
0.000908319
0.00106879
0.00125025
0.00149624
0.00177585
0.002129
0.00254695
0.00302314
0.00361394
0.0041369
0.00487718
0.00510983
0.00579526
0.00461217
0.00454865
0.000530121
0.000545119
0.000586861
0.000642338
0.000730062
0.00083318
0.000978997
0.00114784
0.0013701
0.00163121
0.00194672
0.00233766
0.00275554
0.0033053
0.0037429
0.00441914
0.00456214
0.00515155
0.00407368
0.0039054
0.000479359
0.000493235
0.000530837
0.000581481
0.000660483
0.000754826
0.000885665
0.00104079
0.00123917
0.00147986
0.00175846
0.0021192
0.00248245
0.00298678
0.0033501
0.00395824
0.00403722
0.00453438
0.00358341
0.0033451
0.000426926
0.000439573
0.000472925
0.000518454
0.000588537
0.000673518
0.000789171
0.000929476
0.001104
0.00132232
0.00156493
0.00189236
0.00220447
0.00265949
0.00295816
0.00349606
0.00353138
0.00394359
0.00312695
0.00285024
0.00037301
0.000384319
0.000413333
0.000453474
0.000514495
0.000589538
0.000689888
0.000814258
0.000965095
0.00115912
0.00136677
0.00165794
0.00192206
0.00232448
0.00256677
0.00303373
0.00304104
0.0033771
0.00269314
0.00240558
0.000317801
0.000327664
0.000352277
0.000386768
0.000438632
0.000503186
0.000588183
0.000695538
0.000822925
0.000990856
0.00116453
0.00141671
0.00163561
0.00198268
0.00217558
0.00257171
0.00256264
0.00283165
0.00227364
0.00199814
0.000261495
0.000269809
0.000289977
0.000318575
0.000361213
0.000414776
0.000484419
0.000573747
0.000677932
0.000818099
0.00095876
0.00116944
0.00134549
0.00163479
0.00178418
0.00210986
0.00209275
0.00230327
0.00186226
0.00161695
0.000204288
0.000210959
0.00022665
0.00024916
0.000282516
0.000324636
0.000378952
0.000449368
0.000530592
0.000641463
0.000749997
0.000916936
0.00105207
0.00128138
0.00139206
0.00164749
0.00162821
0.00178748
0.00145443
0.00125278
0.000146375
0.000151338
0.000162503
0.000178785
0.000202877
0.000233143
0.000272151
0.000322866
0.000381516
0.000461759
0.00053887
0.000660021
0.000755889
0.000923221
0.000999043
0.0011837
0.00116648
0.00127969
0.00104692
0.000898549
8.79376e-05
9.11674e-05
9.77591e-05
0.000107621
0.000122564
0.000140709
0.000164438
0.000194567
0.000231052
0.000279839
0.00032618
0.000399471
0.000457125
0.000560776
0.00060556
0.000717672
0.000705678
0.000775436
0.000637522
0.000549301
2.92479e-05
3.05418e-05
3.2689e-05
3.58795e-05
4.13077e-05
4.73372e-05
5.56465e-05
6.49764e-05
7.81863e-05
9.49403e-05
0.000111017
0.000135087
0.00015441
0.000190914
0.000208037
0.000245387
0.000241343
0.0002661
0.000221632
0.000193722
0.000981205
0.00100757
0.00108169
0.00117798
0.00133539
0.00151016
0.0017762
0.00205011
0.0024687
0.00287368
0.00351979
0.00410121
0.00511785
0.00594446
0.00765318
0.00882087
0.0121863
0.0138127
0.0230103
0.0222808
0.000977303
0.0010034
0.00107769
0.00117319
0.00133099
0.00150447
0.00177146
0.00204334
0.00246419
0.002866
0.0035174
0.00409362
0.00512334
0.00594132
0.0076862
0.00884438
0.0123505
0.0140743
0.024054
0.0260192
0.000972762
0.000998674
0.00107287
0.00116784
0.00132549
0.00149818
0.00176506
0.00203587
0.00245707
0.00285755
0.00351059
0.00408527
0.00512091
0.00593675
0.00770259
0.00886104
0.0124623
0.0142846
0.024709
0.0284964
0.000967621
0.000993321
0.00106736
0.00116177
0.00131914
0.00149094
0.00175751
0.0020271
0.00244823
0.00284717
0.00350106
0.00407386
0.00511348
0.0059267
0.00770719
0.00886365
0.0125312
0.0144166
0.0251324
0.0300093
0.000961881
0.000987331
0.0010612
0.00115497
0.00131197
0.00148273
0.00174883
0.00201696
0.00243774
0.00283474
0.00348891
0.00405916
0.00510121
0.00591075
0.00770015
0.00885153
0.0125563
0.0144635
0.0253174
0.0306214
0.000955542
0.000980714
0.00105436
0.00114744
0.00130395
0.00147358
0.001739
0.00200549
0.00242554
0.00282035
0.00347398
0.00404135
0.00508382
0.00588918
0.0076809
0.008825
0.0125359
0.0144237
0.0252611
0.0303501
0.000948605
0.000973474
0.00104684
0.0011392
0.0012951
0.00146349
0.00172799
0.00199271
0.00241161
0.00280402
0.00345624
0.00402046
0.00506126
0.00586204
0.0076494
0.00878405
0.01247
0.0142976
0.0249655
0.029191
0.000941077
0.000965607
0.00103867
0.00113023
0.00128542
0.00145245
0.00171586
0.00197859
0.00239599
0.00278569
0.0034358
0.00399638
0.00503373
0.00582914
0.00760605
0.00872862
0.0123603
0.0140892
0.0244309
0.0271072
0.00093296
0.000957125
0.00102983
0.00112056
0.00127491
0.00144049
0.00170256
0.00196317
0.00237866
0.00276544
0.00341256
0.00396927
0.00500104
0.00579083
0.00755059
0.00865991
0.0122072
0.0138078
0.0236393
0.0239954
0.000924231
0.000948089
0.00102023
0.0011103
0.00126339
0.00142783
0.00168779
0.00194687
0.00235902
0.00274404
0.00338548
0.00394055
0.00496128
0.00574985
0.00747952
0.00858358
0.0120059
0.0134779
0.0224734
0.0196592
)
;

boundaryField
{
    inlet
    {
        type            zeroGradient;
    }
    outlet
    {
        type            fixedValue;
        value           uniform 0;
    }
    upAndBottom
    {
        type            empty;
    }
    obstacle
    {
        type            zeroGradient;
    }
}


// ************************************************************************* //
