x,y,z,U_0,U_1,U_2
0,0,0,0.300164,-0.000888759,0
0,0.1,0,0.300117,-0.000634828,0
0,0.2,0,0.30007,-0.000380897,0
0,0.3,0,0.300023,-0.000126966,0
0,0.4,0,0.3,0,0
0,0.5,0,0.3,0,0
0,0.6,0,0.3,0,0
0,0.7,0,0.3,0,0
0,0.8,0,0.3,0,0
0,0.9,0,0.3,0,0
0,1,0,0.3,0,0
0,1.1,0,0.3,0,0
0,1.2,0,0.3,0,0
0,1.3,0,0.3,0,0
0,1.4,0,0.3,0,0
0,1.5,0,0.3,0,0
0,1.6,0,0.3,0,0
0,1.7,0,0.3,0,0
0,1.8,0,0.3,0,0
0,1.9,0,0.3,0,0
0,2,0,0.3,0,0
0,2.1,0,0.3,0,0
0,2.2,0,0.3,0,0
0,2.3,0,0.3,0,0
0,2.4,0,0.3,0,0
0,2.5,0,0.3,0,0
0,2.6,0,0.3,0,0
0,2.7,0,0.3,0,0
0,2.8,0,0.3,0,0
0,2.9,0,0.3,0,0
0,3,0,0.3,0,0
0,3.1,0,0.3,0,0
0,3.2,0,0.3,0,0
0,3.3,0,0.3,0,0
0,3.4,0,0.3,0,0
0,3.5,0,0.3,0,0
0,3.6,0,0.3,0,0
0,3.7,0,0.3,0,0
0,3.8,0,0.3,0,0
0,3.9,0,0.3,0,0
0,4,0,0.3,0,0
0,4.1,0,0.3,0,0
0,4.2,0,0.3,0,0
0,4.3,0,0.3,0,0
0,4.4,0,0.3,0,0
0,4.5,0,0.3,0,0
0,4.6,0,0.3,0,0
0,4.7,0,0.3,0,0
0,4.8,0,0.3,0,0
0,4.9,0,0.3,0,0
0,5,0,0.3,0,0
0,5.1,0,0.3,0,0
0,5.2,0,0.3,0,0
0,5.3,0,0.3,0,0
0,5.4,0,0.3,0,0
0,5.5,0,0.3,0,0
0,5.6,0,0.3,0,0
0,5.7,0,0.3,0,0
0,5.8,0,0.3,0,0
0,5.9,0,0.3,0,0
0,6,0,0.3,0,0
0,6.1,0,0.3,0,0
0,6.2,0,0.3,0,0
0,6.3,0,0.3,0,0
0,6.4,0,0.3,0,0
0,6.5,0,0.3,0,0
0,6.6,0,0.3,0,0
0,6.7,0,0.3,0,0
0,6.8,0,0.3,0,0
0,6.9,0,0.3,0,0
0,7,0,0.3,0,0
0,7.1,0,0.3,0,0
0,7.2,0,0.3,0,0
0,7.3,0,0.3,0,0
0,7.4,0,0.3,0,0
0,7.5,0,0.3,0,0
0,7.6,0,0.3,0,0
0,7.7,0,0.3,0,0
0,7.8,0,0.3,0,0
0,7.9,0,0.3,0,0
0,8,0,0.3,0,0
0,8.1,0,0.3,0,0
0,8.2,0,0.3,0,0
0,8.3,0,0.3,0,0
0,8.4,0,0.3,0,0
0,8.5,0,0.3,0,0
0,8.6,0,0.3,0,0
0,8.7,0,0.3,0,0
0,8.8,0,0.3,0,0
0,8.9,0,0.3,0,0
0,9,0,0.3,0,0
0,9.1,0,0.3,0,0
0,9.2,0,0.3,0,0
0,9.3,0,0.3,0,0
0,9.4,0,0.3,0,0
0,9.5,0,0.3,0,0
0,9.6,0,0.3,0,0
0,9.7,0,0.3,0,0
0,9.8,0,0.3,0,0
0,9.9,0,0.3,0,0
0,10,0,0.3,0,0
0,10.1,0,0.3,0,0
0,10.2,0,0.3,0,0
0,10.3,0,0.3,0,0
0,10.4,0,0.3,0,0
0,10.5,0,0.3,0,0
0,10.6,0,0.3,0,0
0,10.7,0,0.3,0,0
0,10.8,0,0.3,0,0
0,10.9,0,0.3,0,0
0,11,0,0.3,0,0
0,11.1,0,0.3,0,0
0,11.2,0,0.3,0,0
0,11.3,0,0.3,0,0
0,11.4,0,0.3,0,0
0,11.5,0,0.3,0,0
0,11.6,0,0.3,0,0
0,11.7,0,0.3,0,0
0,11.8,0,0.3,0,0
0,11.9,0,0.3,0,0
0,12,0,0.3,0,0
0,12.1,0,0.3,0,0
0,12.2,0,0.3,0,0
0,12.3,0,0.3,0,0
0,12.4,0,0.3,0,0
0,12.5,0,0.300024,0.000131232,0
0,12.6,0,0.300093,0.000506182,0
0,12.7,0,0.300161,0.000881131,0
0.1,0,0,0.300114,-0.00122372,0
0.1,0.1,0,0.300175,-0.000951158,0
0.1,0.2,0,0.300129,-0.000697226,0
0.1,0.3,0,0.300082,-0.000443295,0
0.1,0.4,0,0.300074,-0.000371859,0
0.1,0.5,0,0.300074,-0.000371859,0
0.1,0.6,0,0.300074,-0.000371859,0
0.1,0.7,0,0.299962,-0.000389746,0
0.1,0.8,0,0.300068,-0.000345834,0
0.1,0.9,0,0.300068,-0.000345834,0
0.1,1,0,0.300068,-0.000345834,0
0.1,1.1,0,0.300062,-0.000321933,0
0.1,1.2,0,0.300062,-0.000321933,0
0.1,1.3,0,0.300062,-0.000321933,0
0.1,1.4,0,0.299964,-0.000353906,0
0.1,1.5,0,0.300057,-0.000298777,0
0.1,1.6,0,0.300057,-0.000298777,0
0.1,1.7,0,0.300057,-0.000298777,0
0.1,1.8,0,0.300054,-0.00027665,0
0.1,1.9,0,0.300054,-0.00027665,0
0.1,2,0,0.300054,-0.00027665,0
0.1,2.1,0,0.299966,-0.000314205,0
0.1,2.2,0,0.300052,-0.000255103,0
0.1,2.3,0,0.300052,-0.000255103,0
0.1,2.4,0,0.300052,-0.000255103,0
0.1,2.5,0,0.30005,-0.000233771,0
0.1,2.6,0,0.30005,-0.000233771,0
0.1,2.7,0,0.30005,-0.000233771,0
0.1,2.8,0,0.299967,-0.000270411,0
0.1,2.9,0,0.300049,-0.000212457,0
0.1,3,0,0.300049,-0.000212457,0
0.1,3.1,0,0.300049,-0.000212457,0
0.1,3.2,0,0.300048,-0.000191019,0
0.1,3.3,0,0.300048,-0.000191019,0
0.1,3.4,0,0.300048,-0.000191019,0
0.1,3.5,0,0.299967,-0.000222657,0
0.1,3.6,0,0.300048,-0.000169388,0
0.1,3.7,0,0.300048,-0.000169388,0
0.1,3.8,0,0.300048,-0.000169388,0
0.1,3.9,0,0.300047,-0.000147548,0
0.1,4,0,0.300047,-0.000147548,0
0.1,4.1,0,0.300047,-0.000147548,0
0.1,4.2,0,0.299966,-0.000171491,0
0.1,4.3,0,0.300047,-0.000125504,0
0.1,4.4,0,0.300047,-0.000125504,0
0.1,4.5,0,0.300047,-0.000125504,0
0.1,4.6,0,0.300046,-0.000103283,0
0.1,4.7,0,0.300046,-0.000103283,0
0.1,4.8,0,0.300046,-0.000103283,0
0.1,4.9,0,0.299966,-0.000117665,0
0.1,5,0,0.300046,-8.09253e-05,0
0.1,5.1,0,0.300046,-8.09253e-05,0
0.1,5.2,0,0.300046,-8.09253e-05,0
0.1,5.3,0,0.300046,-5.84798e-05,0
0.1,5.4,0,0.300046,-5.84798e-05,0
0.1,5.5,0,0.300046,-5.84798e-05,0
0.1,5.6,0,0.299965,-6.20165e-05,0
0.1,5.7,0,0.300046,-3.60002e-05,0
0.1,5.8,0,0.300046,-3.60002e-05,0
0.1,5.9,0,0.300046,-3.60002e-05,0
0.1,6,0,0.300046,-1.35778e-05,0
0.1,6.1,0,0.300046,-1.35778e-05,0
0.1,6.2,0,0.300046,-1.35778e-05,0
0.1,6.3,0,0.299965,-5.34025e-06,0
0.1,6.4,0,0.300045,8.64379e-06,0
0.1,6.5,0,0.300045,8.64379e-06,0
0.1,6.6,0,0.300045,8.64379e-06,0
0.1,6.7,0,0.300045,3.07074e-05,0
0.1,6.8,0,0.300045,3.07074e-05,0
0.1,6.9,0,0.300045,3.07074e-05,0
0.1,7,0,0.299966,4.66584e-05,0
0.1,7.1,0,0.299966,5.98754e-05,0
0.1,7.2,0,0.299966,6.80781e-05,0
0.1,7.3,0,0.299966,7.6256e-05,0
0.1,7.4,0,0.299966,8.44055e-05,0
0.1,7.5,0,0.299966,9.25261e-05,0
0.1,7.6,0,0.299966,0.000100615,0
0.1,7.7,0,0.299966,0.000108671,0
0.1,7.8,0,0.299966,0.000116692,0
0.1,7.9,0,0.299966,0.000124672,0
0.1,8,0,0.299967,0.000135218,0
0.1,8.1,0,0.300044,0.000113514,0
0.1,8.2,0,0.300044,0.000113514,0
0.1,8.3,0,0.300044,0.000127941,0
0.1,8.4,0,0.300044,0.000127941,0
0.1,8.5,0,0.300044,0.000142295,0
0.1,8.6,0,0.300044,0.000142295,0
0.1,8.7,0,0.299984,0.000176728,0
0.1,8.8,0,0.300044,0.00015661,0
0.1,8.9,0,0.300044,0.00015661,0
0.1,9,0,0.300044,0.000170882,0
0.1,9.1,0,0.300044,0.000170882,0
0.1,9.2,0,0.300045,0.000185115,0
0.1,9.3,0,0.300045,0.000185115,0
0.1,9.4,0,0.300002,0.000214091,0
0.1,9.5,0,0.300045,0.000199324,0
0.1,9.6,0,0.300045,0.000199324,0
0.1,9.7,0,0.300046,0.000213528,0
0.1,9.8,0,0.300046,0.000213528,0
0.1,9.9,0,0.300038,0.000232171,0
0.1,10,0,0.300047,0.000227749,0
0.1,10.1,0,0.30002,0.000246486,0
0.1,10.2,0,0.300048,0.000242017,0
0.1,10.3,0,0.300048,0.000242017,0
0.1,10.4,0,0.300049,0.000256387,0
0.1,10.5,0,0.300049,0.000256387,0
0.1,10.6,0,0.300023,0.000285021,0
0.1,10.7,0,0.300051,0.000270924,0
0.1,10.8,0,0.300042,0.000276945,0
0.1,10.9,0,0.300053,0.000285728,0
0.1,11,0,0.300053,0.000285728,0
0.1,11.1,0,0.300055,0.000300909,0
0.1,11.2,0,0.300055,0.000300909,0
0.1,11.3,0,0.300006,0.000337215,0
0.1,11.4,0,0.300058,0.000316604,0
0.1,11.5,0,0.300058,0.000316604,0
0.1,11.6,0,0.300062,0.000332899,0
0.1,11.7,0,0.300062,0.000332899,0
0.1,11.8,0,0.300066,0.000349636,0
0.1,11.9,0,0.300066,0.000349636,0
0.1,12,0,0.299985,0.000385017,0
0.1,12.1,0,0.30007,0.000366806,0
0.1,12.2,0,0.30007,0.000366806,0
0.1,12.3,0,0.300073,0.000385895,0
0.1,12.4,0,0.300073,0.000385895,0
0.1,12.5,0,0.300083,0.000452056,0
0.1,12.6,0,0.300151,0.000827006,0
0.1,12.7,0,0.300109,0.00121733,0
0.2,0,0,0.300064,-0.00155868,0
0.2,0.1,0,0.300234,-0.00126749,0
0.2,0.2,0,0.300187,-0.00101356,0
0.2,0.3,0,0.300093,-0.000805827,0
0.2,0.4,0,0.300093,-0.000762156,0
0.2,0.5,0,0.300148,-0.000743718,0
0.2,0.6,0,0.300148,-0.000743718,0
0.2,0.7,0,0.299923,-0.000779492,0
0.2,0.8,0,0.300136,-0.000691669,0
0.2,0.9,0,0.300136,-0.000691669,0
0.2,1,0,0.300083,-0.000705006,0
0.2,1.1,0,0.300074,-0.000669154,0
0.2,1.2,0,0.300123,-0.000643867,0
0.2,1.3,0,0.300123,-0.000643867,0
0.2,1.4,0,0.299928,-0.000707813,0
0.2,1.5,0,0.300114,-0.000597554,0
0.2,1.6,0,0.300114,-0.000597554,0
0.2,1.7,0,0.300068,-0.00061543,0
0.2,1.8,0,0.300064,-0.000582239,0
0.2,1.9,0,0.300108,-0.000553299,0
0.2,2,0,0.300108,-0.000553299,0
0.2,2.1,0,0.299933,-0.000628411,0
0.2,2.2,0,0.300104,-0.000510206,0
0.2,2.3,0,0.300104,-0.000510206,0
0.2,2.4,0,0.300061,-0.000529067,0
0.2,2.5,0,0.300059,-0.00049707,0
0.2,2.6,0,0.300101,-0.000467543,0
0.2,2.7,0,0.300101,-0.000467543,0
0.2,2.8,0,0.299934,-0.000540822,0
0.2,2.9,0,0.300098,-0.000424914,0
0.2,3,0,0.300098,-0.000424914,0
0.2,3.1,0,0.300057,-0.000442187,0
0.2,3.2,0,0.300056,-0.000410029,0
0.2,3.3,0,0.300096,-0.000382038,0
0.2,3.4,0,0.300096,-0.000382038,0
0.2,3.5,0,0.299934,-0.000445313,0
0.2,3.6,0,0.300095,-0.000338776,0
0.2,3.7,0,0.300095,-0.000338776,0
0.2,3.8,0,0.300055,-0.00035281,0
0.2,3.9,0,0.300054,-0.00032005,0
0.2,4,0,0.300094,-0.000295096,0
0.2,4.1,0,0.300094,-0.000295096,0
0.2,4.2,0,0.299933,-0.000342981,0
0.2,4.3,0,0.300094,-0.000251008,0
0.2,4.4,0,0.300094,-0.000251008,0
0.2,4.5,0,0.300053,-0.000260686,0
0.2,4.6,0,0.300053,-0.000227354,0
0.2,4.7,0,0.300093,-0.000206566,0
0.2,4.8,0,0.300093,-0.000206566,0
0.2,4.9,0,0.299931,-0.00023533,0
0.2,5,0,0.300093,-0.000161851,0
0.2,5.1,0,0.300093,-0.000161851,0
0.2,5.2,0,0.300052,-0.000166396,0
0.2,5.3,0,0.300052,-0.000132728,0
0.2,5.4,0,0.300092,-0.00011696,0
0.2,5.5,0,0.300092,-0.00011696,0
0.2,5.6,0,0.299931,-0.000124033,0
0.2,5.7,0,0.300091,-7.20004e-05,0
0.2,5.8,0,0.300091,-7.20004e-05,0
0.2,5.9,0,0.300051,-7.08778e-05,0
0.2,6,0,0.300051,-3.72442e-05,0
0.2,6.1,0,0.300091,-2.71556e-05,0
0.2,6.2,0,0.300091,-2.71556e-05,0
0.2,6.3,0,0.299931,-1.06805e-05,0
0.2,6.4,0,0.300091,1.72876e-05,0
0.2,6.5,0,0.300091,1.72876e-05,0
0.2,6.6,0,0.300051,2.45151e-05,0
0.2,6.7,0,0.30005,5.76105e-05,0
0.2,6.8,0,0.30009,6.14149e-05,0
0.2,6.9,0,0.30009,6.14149e-05,0
0.2,7,0,0.299931,9.33168e-05,0
0.2,7.1,0,0.299932,0.000119751,0
0.2,7.2,0,0.299932,0.000136156,0
0.2,7.3,0,0.299932,0.000152512,0
0.2,7.4,0,0.299932,0.000168811,0
0.2,7.5,0,0.299932,0.000185052,0
0.2,7.6,0,0.299932,0.000201231,0
0.2,7.7,0,0.299933,0.000217342,0
0.2,7.8,0,0.299933,0.000233383,0
0.2,7.9,0,0.299933,0.000249343,0
0.2,8,0,0.299933,0.000270435,0
0.2,8.1,0,0.300088,0.000227029,0
0.2,8.2,0,0.300055,0.000243349,0
0.2,8.3,0,0.300088,0.000255882,0
0.2,8.4,0,0.300088,0.000255882,0
0.2,8.5,0,0.300037,0.000302164,0
0.2,8.6,0,0.300088,0.000284591,0
0.2,8.7,0,0.299951,0.000363362,0
0.2,8.8,0,0.300088,0.000313221,0
0.2,8.9,0,0.300072,0.000323299,0
0.2,9,0,0.300088,0.000341763,0
0.2,9.1,0,0.300088,0.000341763,0
0.2,9.2,0,0.300021,0.000401862,0
0.2,9.3,0,0.300089,0.000370229,0
0.2,9.4,0,0.299969,0.000451586,0
0.2,9.5,0,0.30009,0.000398648,0
0.2,9.6,0,0.30009,0.000398648,0
0.2,9.7,0,0.300091,0.000427055,0
0.2,9.8,0,0.300091,0.000427055,0
0.2,9.9,0,0.300005,0.000501493,0
0.2,10,0,0.300093,0.000455497,0
0.2,10.1,0,0.299987,0.000531052,0
0.2,10.2,0,0.300096,0.000484034,0
0.2,10.3,0,0.300096,0.000484034,0
0.2,10.4,0,0.300098,0.000512773,0
0.2,10.5,0,0.300098,0.000512773,0
0.2,10.6,0,0.299989,0.000598689,0
0.2,10.7,0,0.300102,0.000541848,0
0.2,10.8,0,0.300008,0.000604467,0
0.2,10.9,0,0.300106,0.000571455,0
0.2,11,0,0.300106,0.000571455,0
0.2,11.1,0,0.300111,0.000601817,0
0.2,11.2,0,0.300111,0.000601817,0
0.2,11.3,0,0.29997,0.000691078,0
0.2,11.4,0,0.300117,0.000633208,0
0.2,11.5,0,0.300032,0.000677182,0
0.2,11.6,0,0.300125,0.000665798,0
0.2,11.7,0,0.300125,0.000665798,0
0.2,11.8,0,0.300111,0.00070543,0
0.2,11.9,0,0.300133,0.000699272,0
0.2,12,0,0.299946,0.000775274,0
0.2,12.1,0,0.300141,0.000733611,0
0.2,12.2,0,0.300069,0.000756538,0
0.2,12.3,0,0.300146,0.00077179,0
0.2,12.4,0,0.300146,0.00077179,0
0.2,12.5,0,0.300099,0.000813368,0
0.2,12.6,0,0.30021,0.00114783,0
0.2,12.7,0,0.300056,0.00155354,0
0.3,0,0,0.300013,-0.00189364,0
0.3,0.1,0,0.300292,-0.00158382,0
0.3,0.2,0,0.300245,-0.00132989,0
0.3,0.3,0,0.300056,-0.00121456,0
0.3,0.4,0,0.300056,-0.00117089,0
0.3,0.5,0,0.300222,-0.00111558,0
0.3,0.6,0,0.300222,-0.00111558,0
0.3,0.7,0,0.299885,-0.00116924,0
0.3,0.8,0,0.300203,-0.0010375,0
0.3,0.9,0,0.300203,-0.0010375,0
0.3,1,0,0.300045,-0.00107751,0
0.3,1.1,0,0.300036,-0.00104166,0
0.3,1.2,0,0.300185,-0.0009658,0
0.3,1.3,0,0.300185,-0.0009658,0
0.3,1.4,0,0.299892,-0.00106172,0
0.3,1.5,0,0.300171,-0.000896331,0
0.3,1.6,0,0.300171,-0.000896331,0
0.3,1.7,0,0.300034,-0.000949959,0
0.3,1.8,0,0.300029,-0.000916768,0
0.3,1.9,0,0.300162,-0.000829949,0
0.3,2,0,0.300162,-0.000829949,0
0.3,2.1,0,0.299899,-0.000942616,0
0.3,2.2,0,0.300155,-0.000765309,0
0.3,2.3,0,0.300155,-0.000765309,0
0.3,2.4,0,0.300028,-0.000821892,0
0.3,2.5,0,0.300026,-0.000789895,0
0.3,2.6,0,0.300151,-0.000701314,0
0.3,2.7,0,0.300151,-0.000701314,0
0.3,2.8,0,0.299901,-0.000811233,0
0.3,2.9,0,0.300147,-0.000637371,0
0.3,3,0,0.300147,-0.000637371,0
0.3,3.1,0,0.300024,-0.000689188,0
0.3,3.2,0,0.300023,-0.000657031,0
0.3,3.3,0,0.300145,-0.000573057,0
0.3,3.4,0,0.300145,-0.000573057,0
0.3,3.5,0,0.299901,-0.00066797,0
0.3,3.6,0,0.300143,-0.000508163,0
0.3,3.7,0,0.300143,-0.000508163,0
0.3,3.8,0,0.300021,-0.000550266,0
0.3,3.9,0,0.300021,-0.000517506,0
0.3,4,0,0.300142,-0.000442643,0
0.3,4.1,0,0.300142,-0.000442643,0
0.3,4.2,0,0.299899,-0.000514472,0
0.3,4.3,0,0.300141,-0.000376513,0
0.3,4.4,0,0.300141,-0.000376513,0
0.3,4.5,0,0.300019,-0.000405544,0
0.3,4.6,0,0.300019,-0.000372213,0
0.3,4.7,0,0.300139,-0.000309849,0
0.3,4.8,0,0.300139,-0.000309849,0
0.3,4.9,0,0.299897,-0.000352995,0
0.3,5,0,0.300139,-0.000242776,0
0.3,5.1,0,0.300139,-0.000242776,0
0.3,5.2,0,0.300018,-0.000256413,0
0.3,5.3,0,0.300017,-0.000222745,0
0.3,5.4,0,0.300138,-0.000175439,0
0.3,5.5,0,0.300138,-0.000175439,0
0.3,5.6,0,0.299896,-0.00018605,0
0.3,5.7,0,0.300137,-0.000108001,0
0.3,5.8,0,0.300137,-0.000108001,0
0.3,5.9,0,0.300016,-0.000104633,0
0.3,6,0,0.300016,-7.09992e-05,0
0.3,6.1,0,0.300137,-4.07334e-05,0
0.3,6.2,0,0.300137,-4.07334e-05,0
0.3,6.3,0,0.299896,-1.60208e-05,0
0.3,6.4,0,0.300136,2.59314e-05,0
0.3,6.5,0,0.300136,2.59314e-05,0
0.3,6.6,0,0.300016,4.76138e-05,0
0.3,6.7,0,0.300015,8.07092e-05,0
0.3,6.8,0,0.300135,9.21223e-05,0
0.3,6.9,0,0.300135,9.21223e-05,0
0.3,7,0,0.299897,0.000139975,0
0.3,7.1,0,0.299897,0.000179626,0
0.3,7.2,0,0.299898,0.000204234,0
0.3,7.3,0,0.299898,0.000228768,0
0.3,7.4,0,0.299898,0.000253217,0
0.3,7.5,0,0.299898,0.000277578,0
0.3,7.6,0,0.299899,0.000301846,0
0.3,7.7,0,0.299899,0.000326012,0
0.3,7.8,0,0.299899,0.000350075,0
0.3,7.9,0,0.299899,0.000374015,0
0.3,8,0,0.2999,0.000405653,0
0.3,8.1,0,0.300133,0.000340543,0
0.3,8.2,0,0.300021,0.000394282,0
0.3,8.3,0,0.300125,0.000386024,0
0.3,8.4,0,0.300132,0.000383822,0
0.3,8.5,0,0.300004,0.000471103,0
0.3,8.6,0,0.300132,0.000426886,0
0.3,8.7,0,0.299918,0.000549995,0
0.3,8.8,0,0.300132,0.000469831,0
0.3,8.9,0,0.300039,0.000527279,0
0.3,9,0,0.300108,0.000523208,0
0.3,9.1,0,0.300133,0.000512645,0
0.3,9.2,0,0.299988,0.000622802,0
0.3,9.3,0,0.300134,0.000555344,0
0.3,9.4,0,0.299936,0.000689081,0
0.3,9.5,0,0.300135,0.000597971,0
0.3,9.6,0,0.300058,0.000651697,0
0.3,9.7,0,0.300095,0.000662339,0
0.3,9.8,0,0.300137,0.000640583,0
0.3,9.9,0,0.299972,0.000770814,0
0.3,10,0,0.30014,0.000683246,0
0.3,10.1,0,0.299954,0.000815618,0
0.3,10.2,0,0.300143,0.000726051,0
0.3,10.3,0,0.300081,0.000769966,0
0.3,10.4,0,0.300084,0.000802068,0
0.3,10.5,0,0.300147,0.00076916,0
0.3,10.6,0,0.299956,0.000912358,0
0.3,10.7,0,0.300153,0.000812771,0
0.3,10.8,0,0.299973,0.000931989,0
0.3,10.9,0,0.300159,0.000857183,0
0.3,11,0,0.300111,0.000887125,0
0.3,11.1,0,0.300077,0.000942306,0
0.3,11.2,0,0.300166,0.000902726,0
0.3,11.3,0,0.299934,0.00104494,0
0.3,11.4,0,0.300175,0.000949811,0
0.3,11.5,0,0.299995,0.00104359,0
0.3,11.6,0,0.300187,0.000998697,0
0.3,11.7,0,0.300155,0.00101327,0
0.3,11.8,0,0.300072,0.001084,0
0.3,11.9,0,0.300199,0.00104891,0
0.3,12,0,0.299907,0.00116553,0
0.3,12.1,0,0.300211,0.00110042,0
0.3,12.2,0,0.30003,0.0011581,0
0.3,12.3,0,0.300219,0.00115769,0
0.3,12.4,0,0.300209,0.00116034,0
0.3,12.5,0,0.300061,0.00122702,0
0.3,12.6,0,0.300269,0.00146865,0
0.3,12.7,0,0.300004,0.00188974,0
0.4,0,0,0.299963,-0.0022286,0
0.4,0.1,0,0.300242,-0.00191878,0
0.4,0.2,0,0.300303,-0.00164622,0
0.4,0.3,0,0.30002,-0.0016233,0
0.4,0.4,0,0.30002,-0.00157962,0
0.4,0.5,0,0.300296,-0.00148744,0
0.4,0.6,0,0.300183,-0.00150532,0
0.4,0.7,0,0.299847,-0.00155898,0
0.4,0.8,0,0.300165,-0.00142725,0
0.4,0.9,0,0.300271,-0.00138334,0
0.4,1,0,0.300008,-0.00145002,0
0.4,1.1,0,0.299998,-0.00141417,0
0.4,1.2,0,0.300247,-0.00128773,0
0.4,1.3,0,0.300149,-0.00131971,0
0.4,1.4,0,0.299856,-0.00141563,0
0.4,1.5,0,0.300135,-0.00125024,0
0.4,1.6,0,0.300229,-0.00119511,0
0.4,1.7,0,0.299999,-0.00128449,0
0.4,1.8,0,0.299995,-0.0012513,0
0.4,1.9,0,0.300216,-0.0011066,0
0.4,2,0,0.300128,-0.00114415,0
0.4,2.1,0,0.299866,-0.00125682,0
0.4,2.2,0,0.300122,-0.00107951,0
0.4,2.3,0,0.300207,-0.00102041,0
0.4,2.4,0,0.299995,-0.00111472,0
0.4,2.5,0,0.299993,-0.00108272,0
0.4,2.6,0,0.300201,-0.000935086,0
0.4,2.7,0,0.300118,-0.000971725,0
0.4,2.8,0,0.299869,-0.00108164,0
0.4,2.9,0,0.300115,-0.000907782,0
0.4,3,0,0.300197,-0.000849829,0
0.4,3.1,0,0.299991,-0.00093619,0
0.4,3.2,0,0.29999,-0.000904033,0
0.4,3.3,0,0.300193,-0.000764076,0
0.4,3.4,0,0.300111,-0.000795714,0
0.4,3.5,0,0.299867,-0.000890626,0
0.4,3.6,0,0.30011,-0.00073082,0
0.4,3.7,0,0.30019,-0.000677551,0
0.4,3.8,0,0.299988,-0.000747722,0
0.4,3.9,0,0.299987,-0.000714962,0
0.4,4,0,0.300189,-0.000590191,0
0.4,4.1,0,0.300108,-0.000614134,0
0.4,4.2,0,0.299865,-0.000685962,0
0.4,4.3,0,0.300107,-0.000548003,0
0.4,4.4,0,0.300187,-0.000502017,0
0.4,4.5,0,0.299985,-0.000550403,0
0.4,4.6,0,0.299985,-0.000517071,0
0.4,4.7,0,0.300186,-0.000413132,0
0.4,4.8,0,0.300105,-0.000427514,0
0.4,4.9,0,0.299863,-0.000470659,0
0.4,5,0,0.300105,-0.000360441,0
0.4,5.1,0,0.300185,-0.000323701,0
0.4,5.2,0,0.299983,-0.000346429,0
0.4,5.3,0,0.299983,-0.000312761,0
0.4,5.4,0,0.300184,-0.000233919,0
0.4,5.5,0,0.300103,-0.000237456,0
0.4,5.6,0,0.299861,-0.000248066,0
0.4,5.7,0,0.300102,-0.000170017,0
0.4,5.8,0,0.300183,-0.000144001,0
0.4,5.9,0,0.299982,-0.000138388,0
0.4,6,0,0.299981,-0.000104754,0
0.4,6.1,0,0.300182,-5.43112e-05,0
0.4,6.2,0,0.300102,-4.60737e-05,0
0.4,6.3,0,0.299861,-2.1361e-05,0
0.4,6.4,0,0.300101,2.05911e-05,0
0.4,6.5,0,0.300181,3.45752e-05,0
0.4,6.6,0,0.299981,7.07125e-05,0
0.4,6.7,0,0.299981,0.000103808,0
0.4,6.8,0,0.30018,0.00012283,0
0.4,6.9,0,0.3001,0.000138781,0
0.4,7,0,0.299862,0.000186634,0
0.4,7.1,0,0.299863,0.000239501,0
0.4,7.2,0,0.299864,0.000272313,0
0.4,7.3,0,0.299864,0.000305024,0
0.4,7.4,0,0.299864,0.000337622,0
0.4,7.5,0,0.299865,0.000370104,0
0.4,7.6,0,0.299865,0.000402461,0
0.4,7.7,0,0.299865,0.000434683,0
0.4,7.8,0,0.299866,0.000466766,0
0.4,7.9,0,0.299866,0.000498687,0
0.4,8,0,0.299866,0.000540871,0
0.4,8.1,0,0.300177,0.000454058,0
0.4,8.2,0,0.299988,0.000545214,0
0.4,8.3,0,0.300091,0.000536956,0
0.4,8.4,0,0.300109,0.000547527,0
0.4,8.5,0,0.299971,0.000640041,0
0.4,8.6,0,0.300176,0.000569182,0
0.4,8.7,0,0.299885,0.000736629,0
0.4,8.8,0,0.300176,0.000626442,0
0.4,8.9,0,0.300006,0.000731258,0
0.4,9,0,0.300075,0.000727187,0
0.4,9.1,0,0.300127,0.000716011,0
0.4,9.2,0,0.299955,0.000843742,0
0.4,9.3,0,0.300178,0.000740459,0
0.4,9.4,0,0.299903,0.000926575,0
0.4,9.5,0,0.300181,0.000797295,0
0.4,9.6,0,0.300025,0.000905324,0
0.4,9.7,0,0.300062,0.000915966,0
0.4,9.8,0,0.300149,0.000877853,0
0.4,9.9,0,0.299939,0.00104014,0
0.4,10,0,0.300187,0.000910994,0
0.4,10.1,0,0.299921,0.00110018,0
0.4,10.2,0,0.300175,0.000976669,0
0.4,10.3,0,0.300048,0.00106932,0
0.4,10.4,0,0.300051,0.00110142,0
0.4,10.5,0,0.30018,0.00103712,0
0.4,10.6,0,0.299922,0.00122603,0
0.4,10.7,0,0.300203,0.0010837,0
0.4,10.8,0,0.299939,0.00125951,0
0.4,10.9,0,0.300175,0.0011607,0
0.4,11,0,0.300076,0.00122804,0
0.4,11.1,0,0.300042,0.00128322,0
0.4,11.2,0,0.300222,0.00120363,0
0.4,11.3,0,0.299898,0.0013988,0
0.4,11.4,0,0.300234,0.00126642,0
0.4,11.5,0,0.299958,0.00141,0
0.4,11.6,0,0.300184,0.00135334,0
0.4,11.7,0,0.300116,0.00139185,0
0.4,11.8,0,0.300034,0.00146258,0
0.4,11.9,0,0.300266,0.00139854,0
0.4,12,0,0.299868,0.00155579,0
0.4,12.1,0,0.300282,0.00146722,0
0.4,12.2,0,0.29999,0.00155967,0
0.4,12.3,0,0.300195,0.00155725,0
0.4,12.4,0,0.300171,0.00157399,0
0.4,12.5,0,0.300023,0.00164067,0
0.4,12.6,0,0.300328,0.00178948,0
0.4,12.7,0,0.299951,0.00222594,0
0.5,0,0,0.299913,-0.00256356,0
0.5,0.1,0,0.300192,-0.00225374,0
0.5,0.2,0,0.300314,-0.00200875,0
0.5,0.3,0,0.299984,-0.00203203,0
0.5,0.4,0,0.299984,-0.00198836,0
0.5,0.5,0,0.300314,-0.00187773,0
0.5,0.6,0,0.300145,-0.00189507,0
0.5,0.7,0,0.299809,-0.00194873,0
0.5,0.8,0,0.300127,-0.00181699,0
0.5,0.9,0,0.300286,-0.00174251,0
0.5,1,0,0.29997,-0.00182253,0
0.5,1.1,0,0.299961,-0.00178668,0
0.5,1.2,0,0.300259,-0.00163495,0
0.5,1.3,0,0.300113,-0.00167361,0
0.5,1.4,0,0.29982,-0.00176953,0
0.5,1.5,0,0.300099,-0.00160414,0
0.5,1.6,0,0.30024,-0.00151176,0
0.5,1.7,0,0.299965,-0.00161902,0
0.5,1.8,0,0.29996,-0.00158583,0
0.5,1.9,0,0.300225,-0.00141219,0
0.5,2,0,0.300095,-0.00145836,0
0.5,2.1,0,0.299832,-0.00157103,0
0.5,2.2,0,0.300088,-0.00139372,0
0.5,2.3,0,0.300217,-0.00129438,0
0.5,2.4,0,0.299962,-0.00140754,0
0.5,2.5,0,0.29996,-0.00137554,0
0.5,2.6,0,0.30021,-0.00119838,0
0.5,2.7,0,0.300085,-0.00124214,0
0.5,2.8,0,0.299836,-0.00135205,0
0.5,2.9,0,0.300082,-0.00117819,0
0.5,3,0,0.300205,-0.00107956,0
0.5,3.1,0,0.299958,-0.00118319,0
0.5,3.2,0,0.299957,-0.00115103,0
0.5,3.3,0,0.3002,-0.000983087,0
0.5,3.4,0,0.300078,-0.00101837,0
0.5,3.5,0,0.299834,-0.00111328,0
0.5,3.6,0,0.300077,-0.000953477,0
0.5,3.7,0,0.300198,-0.000860973,0
0.5,3.8,0,0.299954,-0.000945178,0
0.5,3.9,0,0.299954,-0.000912418,0
0.5,4,0,0.300196,-0.000762693,0
0.5,4.1,0,0.300074,-0.000785625,0
0.5,4.2,0,0.299831,-0.000857453,0
0.5,4.3,0,0.300073,-0.000719494,0
0.5,4.4,0,0.300194,-0.000637198,0
0.5,4.5,0,0.299951,-0.000695262,0
0.5,4.6,0,0.299951,-0.00066193,0
0.5,4.7,0,0.300192,-0.000537203,0
0.5,4.8,0,0.300071,-0.000545179,0
0.5,4.9,0,0.299829,-0.000588324,0
0.5,5,0,0.30007,-0.000478106,0
0.5,5.1,0,0.300191,-0.000409172,0
0.5,5.2,0,0.299949,-0.000436446,0
0.5,5.3,0,0.299948,-0.000402778,0
0.5,5.4,0,0.300189,-0.000308167,0
0.5,5.5,0,0.300068,-0.000299472,0
0.5,5.6,0,0.299827,-0.000310082,0
0.5,5.7,0,0.300068,-0.000232034,0
0.5,5.8,0,0.300188,-0.000178878,0
0.5,5.9,0,0.299947,-0.000172143,0
0.5,6,0,0.299947,-0.000138509,0
0.5,6.1,0,0.300187,-7.79776e-05,0
0.5,6.2,0,0.300067,-5.14139e-05,0
0.5,6.3,0,0.299826,-2.67013e-05,0
0.5,6.4,0,0.300067,1.52509e-05,0
0.5,6.5,0,0.300187,5.04464e-05,0
0.5,6.6,0,0.299947,9.38113e-05,0
0.5,6.7,0,0.299946,0.000126907,0
0.5,6.8,0,0.300185,0.000149733,0
0.5,6.9,0,0.300066,0.000185439,0
0.5,7,0,0.299828,0.000233292,0
0.5,7.1,0,0.299829,0.000299377,0
0.5,7.2,0,0.299829,0.000340391,0
0.5,7.3,0,0.29983,0.00038128,0
0.5,7.4,0,0.29983,0.000422028,0
0.5,7.5,0,0.299831,0.000462631,0
0.5,7.6,0,0.299831,0.000503076,0
0.5,7.7,0,0.299832,0.000543354,0
0.5,7.8,0,0.299832,0.000583458,0
0.5,7.9,0,0.299833,0.000623359,0
0.5,8,0,0.299833,0.000676088,0
0.5,8.1,0,0.30018,0.000579117,0
0.5,8.2,0,0.299955,0.000696146,0
0.5,8.3,0,0.300058,0.000687888,0
0.5,8.4,0,0.300076,0.000716466,0
0.5,8.5,0,0.299938,0.00080898,0
0.5,8.6,0,0.300196,0.000725156,0
0.5,8.7,0,0.299852,0.000923262,0
0.5,8.8,0,0.300162,0.000805729,0
0.5,8.9,0,0.299973,0.000935237,0
0.5,9,0,0.300042,0.000931166,0
0.5,9.1,0,0.300094,0.000936951,0
0.5,9.2,0,0.299922,0.00106468,0
0.5,9.3,0,0.300216,0.000930031,0
0.5,9.4,0,0.299871,0.00116407,0
0.5,9.5,0,0.300149,0.00103398,0
0.5,9.6,0,0.299993,0.00115895,0
0.5,9.7,0,0.300029,0.00116959,0
0.5,9.8,0,0.300116,0.00114717,0
0.5,9.9,0,0.299907,0.00130946,0
0.5,10,0,0.300233,0.00113874,0
0.5,10.1,0,0.299888,0.00138475,0
0.5,10.2,0,0.300142,0.00126123,0
0.5,10.3,0,0.300015,0.00136867,0
0.5,10.4,0,0.300018,0.00140077,0
0.5,10.5,0,0.300146,0.00135079,0
0.5,10.6,0,0.299888,0.0015397,0
0.5,10.7,0,0.300254,0.00135462,0
0.5,10.8,0,0.299905,0.00158703,0
0.5,10.9,0,0.30014,0.00148822,0
0.5,11,0,0.300041,0.00156895,0
0.5,11.1,0,0.300007,0.00162414,0
0.5,11.2,0,0.300187,0.00155637,0
0.5,11.3,0,0.299861,0.00175267,0
0.5,11.4,0,0.300284,0.00158619,0
0.5,11.5,0,0.29992,0.0017764,0
0.5,11.6,0,0.300147,0.00171975,0
0.5,11.7,0,0.300078,0.00177042,0
0.5,11.8,0,0.299995,0.00184115,0
0.5,11.9,0,0.300253,0.00177886,0
0.5,12,0,0.299828,0.00194604,0
0.5,12.1,0,0.300319,0.00184126,0
0.5,12.2,0,0.299951,0.00196123,0
0.5,12.3,0,0.300156,0.00195881,0
0.5,12.4,0,0.300133,0.00198765,0
0.5,12.5,0,0.299985,0.00205432,0
0.5,12.6,0,0.300327,0.00211848,0
0.5,12.7,0,0.299899,0.00256214,0
0.6,0,0,0.299863,-0.00289853,0
0.6,0.1,0,0.300142,-0.0025887,0
0.6,0.2,0,0.300278,-0.00241748,0
0.6,0.3,0,0.299947,-0.00244076,0
0.6,0.4,0,0.299947,-0.00239709,0
0.6,0.5,0,0.300278,-0.00228647,0
0.6,0.6,0,0.300107,-0.00228481,0
0.6,0.7,0,0.29977,-0.00233848,0
0.6,0.8,0,0.300089,-0.00220674,0
0.6,0.9,0,0.300249,-0.00211502,0
0.6,1,0,0.299932,-0.00219504,0
0.6,1.1,0,0.299923,-0.00215919,0
0.6,1.2,0,0.300221,-0.00200746,0
0.6,1.3,0,0.300077,-0.00202752,0
0.6,1.4,0,0.299784,-0.00212344,0
0.6,1.5,0,0.300063,-0.00195805,0
0.6,1.6,0,0.300205,-0.00184629,0
0.6,1.7,0,0.29993,-0.00195355,0
0.6,1.8,0,0.299925,-0.00192035,0
0.6,1.9,0,0.300191,-0.00174672,0
0.6,2,0,0.300061,-0.00177256,0
0.6,2.1,0,0.299799,-0.00188523,0
0.6,2.2,0,0.300055,-0.00170792,0
0.6,2.3,0,0.300184,-0.0015872,0
0.6,2.4,0,0.299929,-0.00170037,0
0.6,2.5,0,0.299927,-0.00166837,0
0.6,2.6,0,0.300177,-0.00149121,0
0.6,2.7,0,0.300052,-0.00151255,0
0.6,2.8,0,0.299803,-0.00162247,0
0.6,2.9,0,0.300049,-0.0014486,0
0.6,3,0,0.300172,-0.00132656,0
0.6,3.1,0,0.299925,-0.00143019,0
0.6,3.2,0,0.299924,-0.00139804,0
0.6,3.3,0,0.300167,-0.00123009,0
0.6,3.4,0,0.300045,-0.00124103,0
0.6,3.5,0,0.299801,-0.00133594,0
0.6,3.6,0,0.300043,-0.00117613,0
0.6,3.7,0,0.300164,-0.00105843,0
0.6,3.8,0,0.299921,-0.00114263,0
0.6,3.9,0,0.29992,-0.00110987,0
0.6,4,0,0.300162,-0.000960149,0
0.6,4.1,0,0.300041,-0.000957115,0
0.6,4.2,0,0.299798,-0.00102894,0
0.6,4.3,0,0.300039,-0.000890984,0
0.6,4.4,0,0.30016,-0.000782057,0
0.6,4.5,0,0.299917,-0.00084012,0
0.6,4.6,0,0.299917,-0.000806788,0
0.6,4.7,0,0.300158,-0.000682062,0
0.6,4.8,0,0.300037,-0.000662844,0
0.6,4.9,0,0.299794,-0.000705989,0
0.6,5,0,0.300036,-0.000595771,0
0.6,5.1,0,0.300157,-0.000499189,0
0.6,5.2,0,0.299914,-0.000526463,0
0.6,5.3,0,0.299914,-0.000492794,0
0.6,5.4,0,0.300155,-0.000398184,0
0.6,5.5,0,0.300034,-0.000361489,0
0.6,5.6,0,0.299792,-0.000372099,0
0.6,5.7,0,0.300033,-0.00029405,0
0.6,5.8,0,0.300154,-0.000212633,0
0.6,5.9,0,0.299912,-0.000205898,0
0.6,6,0,0.299912,-0.000172264,0
0.6,6.1,0,0.300153,-0.000111733,0
0.6,6.2,0,0.300032,-5.67542e-05,0
0.6,6.3,0,0.299792,-3.20415e-05,0
0.6,6.4,0,0.300032,9.91061e-06,0
0.6,6.5,0,0.300152,7.35452e-05,0
0.6,6.6,0,0.299912,0.00011691,0
0.6,6.7,0,0.299912,0.000150005,0
0.6,6.8,0,0.30015,0.000172832,0
0.6,6.9,0,0.300032,0.000232098,0
0.6,7,0,0.299794,0.00027995,0
0.6,7.1,0,0.299795,0.000359252,0
0.6,7.2,0,0.299795,0.000408469,0
0.6,7.3,0,0.299796,0.000457536,0
0.6,7.4,0,0.299796,0.000506433,0
0.6,7.5,0,0.299797,0.000555157,0
0.6,7.6,0,0.299797,0.000603692,0
0.6,7.7,0,0.299798,0.000652025,0
0.6,7.8,0,0.299799,0.000700149,0
0.6,7.9,0,0.299799,0.00074803,0
0.6,8,0,0.2998,0.000811306,0
0.6,8.1,0,0.300146,0.000714334,0
0.6,8.2,0,0.299922,0.000847078,0
0.6,8.3,0,0.300025,0.00083882,0
0.6,8.4,0,0.300042,0.000885404,0
0.6,8.5,0,0.299905,0.000977918,0
0.6,8.6,0,0.300148,0.000916891,0
0.6,8.7,0,0.299819,0.0011099,0
0.6,8.8,0,0.300129,0.000992363,0
0.6,8.9,0,0.29994,0.00113922,0
0.6,9,0,0.300009,0.00113514,0
0.6,9.1,0,0.300061,0.00115789,0
0.6,9.2,0,0.299889,0.00128562,0
0.6,9.3,0,0.300151,0.00118239,0
0.6,9.4,0,0.299838,0.00140156,0
0.6,9.5,0,0.300117,0.00127147,0
0.6,9.6,0,0.29996,0.00141258,0
0.6,9.7,0,0.299996,0.00142322,0
0.6,9.8,0,0.300084,0.0014165,0
0.6,9.9,0,0.299874,0.00157878,0
0.6,10,0,0.300161,0.00144199,0
0.6,10.1,0,0.299855,0.00166931,0
0.6,10.2,0,0.300109,0.0015458,0
0.6,10.3,0,0.299982,0.00166802,0
0.6,10.4,0,0.299985,0.00170012,0
0.6,10.5,0,0.300113,0.00166446,0
0.6,10.6,0,0.299855,0.00185336,0
0.6,10.7,0,0.300178,0.0016985,0
0.6,10.8,0,0.299871,0.00191455,0
0.6,10.9,0,0.300106,0.00181574,0
0.6,11,0,0.300006,0.00190987,0
0.6,11.1,0,0.299972,0.00196505,0
0.6,11.2,0,0.300151,0.00191023,0
0.6,11.3,0,0.299825,0.00210653,0
0.6,11.4,0,0.300208,0.00196072,0
0.6,11.5,0,0.299883,0.00214281,0
0.6,11.6,0,0.30011,0.00208615,0
0.6,11.7,0,0.300039,0.002149,0
0.6,11.8,0,0.299957,0.00221973,0
0.6,11.9,0,0.300213,0.00216912,0
0.6,12,0,0.299789,0.0023363,0
0.6,12.1,0,0.300258,0.00223818,0
0.6,12.2,0,0.299912,0.0023628,0
0.6,12.3,0,0.300116,0.00236038,0
0.6,12.4,0,0.300095,0.0024013,0
0.6,12.5,0,0.299947,0.00246797,0
0.6,12.6,0,0.300275,0.00245468,0
0.6,12.7,0,0.299846,0.00289834,0
0.7,0,0,0.299813,-0.00323349,0
0.7,0.1,0,0.300091,-0.00292366,0
0.7,0.2,0,0.300133,-0.00284485,0
0.7,0.3,0,0.299911,-0.0028495,0
0.7,0.4,0,0.299911,-0.00280583,0
0.7,0.5,0,0.30013,-0.00271309,0
0.7,0.6,0,0.300069,-0.00267456,0
0.7,0.7,0,0.299732,-0.00272822,0
0.7,0.8,0,0.30005,-0.00259649,0
0.7,0.9,0,0.300105,-0.00253144,0
0.7,1,0,0.299895,-0.00256755,0
0.7,1.1,0,0.299886,-0.0025317,0
0.7,1.2,0,0.300086,-0.00241194,0
0.7,1.3,0,0.300041,-0.00238143,0
0.7,1.4,0,0.299748,-0.00247734,0
0.7,1.5,0,0.300027,-0.00231196,0
0.7,1.6,0,0.300078,-0.00223595,0
0.7,1.7,0,0.299896,-0.00228808,0
0.7,1.8,0,0.299891,-0.00225488,0
0.7,1.9,0,0.300069,-0.0021188,0
0.7,2,0,0.300028,-0.00208677,0
0.7,2.1,0,0.299765,-0.00219944,0
0.7,2.2,0,0.300021,-0.00202213,0
0.7,2.3,0,0.300065,-0.00193913,0
0.7,2.4,0,0.299896,-0.00199319,0
0.7,2.5,0,0.299894,-0.00196119,0
0.7,2.6,0,0.300061,-0.00182067,0
0.7,2.7,0,0.300019,-0.00178296,0
0.7,2.8,0,0.29977,-0.00189288,0
0.7,2.9,0,0.300016,-0.00171902,0
0.7,3,0,0.300057,-0.00163152,0
0.7,3.1,0,0.299892,-0.00167719,0
0.7,3.2,0,0.299891,-0.00164504,0
0.7,3.3,0,0.300053,-0.00150873,0
0.7,3.4,0,0.300012,-0.00146368,0
0.7,3.5,0,0.299768,-0.0015586,0
0.7,3.6,0,0.30001,-0.00139879,0
0.7,3.7,0,0.30005,-0.00130915,0
0.7,3.8,0,0.299888,-0.00134009,0
0.7,3.9,0,0.299887,-0.00130733,0
0.7,4,0,0.300048,-0.00118155,0
0.7,4.1,0,0.300007,-0.00112861,0
0.7,4.2,0,0.299764,-0.00120043,0
0.7,4.3,0,0.300006,-0.00106247,0
0.7,4.4,0,0.300045,-0.000972902,0
0.7,4.5,0,0.299883,-0.000984979,0
0.7,4.6,0,0.299883,-0.000951647,0
0.7,4.7,0,0.300043,-0.000841302,0
0.7,4.8,0,0.300002,-0.000780509,0
0.7,4.9,0,0.29976,-0.000823654,0
0.7,5,0,0.300002,-0.000713435,0
0.7,5.1,0,0.300041,-0.000625945,0
0.7,5.2,0,0.29988,-0.000616479,0
0.7,5.3,0,0.299879,-0.000582811,0
0.7,5.4,0,0.30004,-0.000491737,0
0.7,5.5,0,0.299999,-0.000423505,0
0.7,5.6,0,0.299757,-0.000434115,0
0.7,5.7,0,0.299998,-0.000356067,0
0.7,5.8,0,0.300038,-0.000272405,0
0.7,5.9,0,0.299877,-0.000239653,0
0.7,6,0,0.299877,-0.000206019,0
0.7,6.1,0,0.300038,-0.00013725,0
0.7,6.2,0,0.299998,-6.20944e-05,0
0.7,6.3,0,0.299757,-3.73818e-05,0
0.7,6.4,0,0.299997,4.57036e-06,0
0.7,6.5,0,0.300037,8.26599e-05,0
0.7,6.6,0,0.299878,0.000140009,0
0.7,6.7,0,0.299877,0.000173104,0
0.7,6.8,0,0.300036,0.000211881,0
0.7,6.9,0,0.299997,0.000278756,0
0.7,7,0,0.299759,0.000326609,0
0.7,7.1,0,0.29976,0.000419127,0
0.7,7.2,0,0.299761,0.000476547,0
0.7,7.3,0,0.299762,0.000533792,0