x,y,z,U_0,U_1,U_2
0,0,0,0.299877,-0.0061069,0
0,0.1,0,0.299926,-0.00366414,0
0,0.2,0,0.299975,-0.00122138,0
0,0.3,0,0.3,0,0
0,0.4,0,0.3,0,0
0,0.5,0,0.3,-1.57706e-18,0
0,0.6,0,0.3,0,0
0,0.7,0,0.3,0,0
0,0.8,0,0.3,0,0
0,0.9,0,0.3,0,0
0,1,0,0.3,0,0
0,1.1,0,0.3,0,0
0,1.2,0,0.3,0,0
0,1.3,0,0.3,0,0
0,1.4,0,0.3,0,0
0,1.5,0,0.3,0,0
0,1.6,0,0.3,0,0
0,1.7,0,0.3,0,0
0,1.8,0,0.3,0,0
0,1.9,0,0.3,0,0
0,2,0,0.3,0,0
0,2.1,0,0.3,0,0
0,2.2,0,0.3,0,0
0,2.3,0,0.3,0,0
0,2.4,0,0.3,0,0
0,2.5,0,0.3,0,0
0,2.6,0,0.3,0,0
0,2.7,0,0.3,0,0
0,2.8,0,0.3,0,0
0,2.9,0,0.3,0,0
0,3,0,0.3,0,0
0,3.1,0,0.3,0,0
0,3.2,0,0.3,0,0
0,3.3,0,0.3,0,0
0,3.4,0,0.3,0,0
0,3.5,0,0.3,0,0
0,3.6,0,0.3,0,0
0,3.7,0,0.3,0,0
0,3.8,0,0.3,0,0
0,3.9,0,0.3,0,0
0,4,0,0.3,0,0
0,4.1,0,0.3,0,0
0,4.2,0,0.3,0,0
0,4.3,0,0.3,0,0
0,4.4,0,0.3,0,0
0,4.5,0,0.3,0,0
0,4.6,0,0.3,0,0
0,4.7,0,0.3,0,0
0,4.8,0,0.3,0,0
0,4.9,0,0.3,0,0
0,5,0,0.3,-3.92464e-19,0
0,5.1,0,0.3,0,0
0,5.2,0,0.3,0,0
0,5.3,0,0.3,0,0
0,5.4,0,0.3,-2.7238e-19,0
0,5.5,0,0.3,0,0
0,5.6,0,0.3,0,0
0,5.7,0,0.3,0,0
0,5.8,0,0.3,-1.56039e-19,0
0,5.9,0,0.3,0,0
0,6,0,0.3,0,0
0,6.1,0,0.3,0,0
0,6.2,0,0.3,-3.97499e-20,0
0,6.3,0,0.3,0,0
0,6.4,0,0.3,1.82468e-20,0
0,6.5,0,0.3,0,0
0,6.6,0,0.3,0,0
0,6.7,0,0.3,0,0
0,6.8,0,0.3,0,0
0,6.9,0,0.3,0,0
0,7,0,0.3,0,0
0,7.1,0,0.3,0,0
0,7.2,0,0.3,0,0
0,7.3,0,0.3,0,0
0,7.4,0,0.3,0,0
0,7.5,0,0.3,0,0
0,7.6,0,0.3,0,0
0,7.7,0,0.3,0,0
0,7.8,0,0.3,0,0
0,7.9,0,0.3,0,0
0,8,0,0.3,0,0
0,8.1,0,0.3,0,0
0,8.2,0,0.3,0,0
0,8.3,0,0.3,0,0
0,8.4,0,0.3,0,0
0,8.5,0,0.3,0,0
0,8.6,0,0.3,0,0
0,8.7,0,0.3,0,0
0,8.8,0,0.3,0,0
0,8.9,0,0.3,0,0
0,9,0,0.3,0,0
0,9.1,0,0.3,0,0
0,9.2,0,0.3,0,0
0,9.3,0,0.3,0,0
0,9.4,0,0.3,0,0
0,9.5,0,0.3,0,0
0,9.6,0,0.3,0,0
0,9.7,0,0.3,0,0
0,9.8,0,0.3,0,0
0,9.9,0,0.3,0,0
0,10,0,0.3,0,0
0,10.1,0,0.3,0,0
0,10.2,0,0.3,0,0
0,10.3,0,0.3,0,0
0,10.4,0,0.3,0,0
0,10.5,0,0.3,0,0
0,10.6,0,0.3,0,0
0,10.7,0,0.3,0,0
0,10.8,0,0.3,0,0
0,10.9,0,0.3,0,0
0,11,0,0.3,0,0
0,11.1,0,0.3,0,0
0,11.2,0,0.3,0,0
0,11.3,0,0.3,0,0
0,11.4,0,0.3,0,0
0,11.5,0,0.3,0,0
0,11.6,0,0.3,0,0
0,11.7,0,0.3,0,0
0,11.8,0,0.3,0,0
0,11.9,0,0.3,0,0
0,12,0,0.3,0,0
0,12.1,0,0.3,0,0
0,12.2,0,0.3,0,0
0,12.3,0,0.3,0,0
0,12.4,0,0.3,0,0
0,12.5,0,0.299975,0.00182342,0
0,12.6,0,0.299945,0.00396862,0
0,12.7,0,0.299915,0.00611382,0
0.1,0,0,0.299606,-0.00796223,0
0.1,0.1,0,0.299841,-0.0079087,0
0.1,0.2,0,0.299867,-0.00536096,0
0.1,0.3,0,0.299854,-0.00502848,0
0.1,0.4,0,0.299872,-0.00523222,0
0.1,0.5,0,0.299678,-0.00315665,0
0.1,0.6,0,0.299868,-0.00494449,0
0.1,0.7,0,0.29985,-0.00475959,0
0.1,0.8,0,0.299886,-0.00449431,0
0.1,0.9,0,0.299908,-0.00464973,0
0.1,1,0,0.299693,-0.00300902,0
0.1,1.1,0,0.299938,-0.00437392,0
0.1,1.2,0,0.299914,-0.00422718,0
0.1,1.3,0,0.299936,-0.00397792,0
0.1,1.4,0,0.299963,-0.00409696,0
0.1,1.5,0,0.299709,-0.00279035,0
0.1,1.6,0,0.299987,-0.00383302,0
0.1,1.7,0,0.29996,-0.00371619,0
0.1,1.8,0,0.29998,-0.00348808,0
0.1,1.9,0,0.300009,-0.00357957,0
0.1,2,0,0.299727,-0.00253032,0
0.1,2.1,0,0.300027,-0.00333288,0
0.1,2.2,0,0.299998,-0.00323874,0
0.1,2.3,0,0.300011,-0.00302598,0
0.1,2.4,0,0.300042,-0.00309648,0
0.1,2.5,0,0.299743,-0.00224849,0
0.1,2.6,0,0.300054,-0.00286767,0
0.1,2.7,0,0.300024,-0.0027912,0
0.1,2.8,0,0.300033,-0.00259201,0
0.1,2.9,0,0.300064,-0.00264634,0
0.1,3,0,0.299756,-0.00195614,0
0.1,3.1,0,0.300072,-0.00243185,0
0.1,3.2,0,0.300041,-0.00236951,0
0.1,3.3,0,0.300045,-0.00218198,0
0.1,3.4,0,0.300077,-0.00222348,0
0.1,3.5,0,0.299767,-0.00166056,0
0.1,3.6,0,0.300081,-0.0020207,0
0.1,3.7,0,0.30005,-0.00196991,0
0.1,3.8,0,0.300052,-0.00179202,0
0.1,3.9,0,0.300084,-0.00182304,0
0.1,4,0,0.299776,-0.0013654,0
0.1,4.1,0,0.300084,-0.00163011,0
0.1,4.2,0,0.300054,-0.00158894,0
0.1,4.3,0,0.300054,-0.00141922,0
0.1,4.4,0,0.300084,-0.00144154,0
0.1,4.5,0,0.299783,-0.00107155,0
0.1,4.6,0,0.300082,-0.00125788,0
0.1,4.7,0,0.300053,-0.00122458,0
0.1,4.8,0,0.30005,-0.00106343,0
0.1,4.9,0,0.300079,-0.00107883,0
0.1,5,0,0.299789,-0.000785556,0
0.1,5.1,0,0.300077,-0.000912591,0
0.1,5.2,0,0.299792,-0.00066169,0
0.1,5.3,0,0.300075,-0.000760938,0
0.1,5.4,0,0.299794,-0.000545196,0
0.1,5.5,0,0.300073,-0.000611004,0
0.1,5.6,0,0.299795,-0.000428796,0
0.1,5.7,0,0.300072,-0.000463036,0
0.1,5.8,0,0.299796,-0.000312329,0
0.1,5.9,0,0.300072,-0.000315984,0
0.1,6,0,0.299797,-0.000195888,0
0.1,6.1,0,0.300073,-0.000169284,0
0.1,6.2,0,0.299797,-7.95635e-05,0
0.1,6.3,0,0.300075,-2.24802e-05,0
0.1,6.4,0,0.299797,3.65229e-05,0
0.1,6.5,0,0.300078,0.000125014,0
0.1,6.6,0,0.299796,0.000152205,0
0.1,6.7,0,0.300082,0.000274481,0
0.1,6.8,0,0.299795,0.000267644,0
0.1,6.9,0,0.300087,0.000425565,0
0.1,7,0,0.299792,0.000395042,0
0.1,7.1,0,0.300092,0.000600338,0
0.1,7.2,0,0.300092,0.000600338,0
0.1,7.3,0,0.299861,0.000606245,0
0.1,7.4,0,0.300098,0.000793569,0
0.1,7.5,0,0.300098,0.000793569,0
0.1,7.6,0,0.299936,0.000846017,0
0.1,7.7,0,0.300103,0.000994169,0
0.1,7.8,0,0.300061,0.000978782,0
0.1,7.9,0,0.300012,0.00110665,0
0.1,8,0,0.300106,0.00120012,0
0.1,8.1,0,0.299986,0.00114184,0
0.1,8.2,0,0.300089,0.00139111,0
0.1,8.3,0,0.300107,0.00141051,0
0.1,8.4,0,0.299907,0.00128757,0
0.1,8.5,0,0.300105,0.00162566,0
0.1,8.6,0,0.300105,0.00162566,0
0.1,8.7,0,0.299825,0.00141344,0
0.1,8.8,0,0.300103,0.00184595,0
0.1,8.9,0,0.300103,0.00184595,0
0.1,9,0,0.299794,0.00158252,0
0.1,9.1,0,0.300099,0.00207192,0
0.1,9.2,0,0.300099,0.00207192,0
0.1,9.3,0,0.299867,0.00189626,0
0.1,9.4,0,0.300093,0.00230435,0
0.1,9.5,0,0.300093,0.00230435,0
0.1,9.6,0,0.299938,0.00224493,0
0.1,9.7,0,0.300085,0.0025442,0
0.1,9.8,0,0.300014,0.00243848,0
0.1,9.9,0,0.300006,0.00263459,0
0.1,10,0,0.300075,0.0027926,0
0.1,10.1,0,0.299925,0.00253078,0
0.1,10.2,0,0.300061,0.0030494,0
0.1,10.3,0,0.300061,0.0030494,0
0.1,10.4,0,0.299836,0.00258382,0
0.1,10.5,0,0.300045,0.00331898,0
0.1,10.6,0,0.300045,0.00331898,0
0.1,10.7,0,0.299748,0.00259014,0
0.1,10.8,0,0.300022,0.00359627,0
0.1,10.9,0,0.300022,0.00359627,0
0.1,11,0,0.299758,0.00286775,0
0.1,11.1,0,0.3,0.00388626,0
0.1,11.2,0,0.3,0.00388626,0
0.1,11.3,0,0.299808,0.00336364,0
0.1,11.4,0,0.299972,0.0042002,0
0.1,11.5,0,0.299957,0.00413413,0
0.1,11.6,0,0.299843,0.00392155,0
0.1,11.7,0,0.299929,0.00449133,0
0.1,11.8,0,0.299859,0.00407421,0
0.1,11.9,0,0.299854,0.00460441,0
0.1,12,0,0.299879,0.00483987,0
0.1,12.1,0,0.29977,0.00393865,0
0.1,12.2,0,0.299907,0.00515147,0
0.1,12.3,0,0.299907,0.00515147,0
0.1,12.4,0,0.299737,0.0036464,0
0.1,12.5,0,0.299916,0.00604764,0
0.1,12.6,0,0.299886,0.00819284,0
0.1,12.7,0,0.299637,0.00795937,0
0.2,0,0,0.299335,-0.00981755,0
0.2,0.1,0,0.299718,-0.0116754,0
0.2,0.2,0,0.299555,-0.00855578,0
0.2,0.3,0,0.299541,-0.0082233,0
0.2,0.4,0,0.299705,-0.0100493,0
0.2,0.5,0,0.299356,-0.0063133,0
0.2,0.6,0,0.299699,-0.00953141,0
0.2,0.7,0,0.299536,-0.00785506,0
0.2,0.8,0,0.299572,-0.00758978,0
0.2,0.9,0,0.299774,-0.00897132,0
0.2,1,0,0.299385,-0.00601805,0
0.2,1.1,0,0.299827,-0.00847486,0
0.2,1.2,0,0.299613,-0.00713369,0
0.2,1.3,0,0.299636,-0.00688443,0
0.2,1.4,0,0.299875,-0.00793261,0
0.2,1.5,0,0.299418,-0.00558071,0
0.2,1.6,0,0.299919,-0.00745751,0
0.2,1.7,0,0.299678,-0.00638085,0
0.2,1.8,0,0.299698,-0.00615275,0
0.2,1.9,0,0.299962,-0.0069493,0
0.2,2,0,0.299453,-0.00506065,0
0.2,2.1,0,0.299994,-0.00650526,0
0.2,2.2,0,0.299733,-0.00563023,0
0.2,2.3,0,0.299746,-0.00541746,0
0.2,2.4,0,0.300025,-0.00602335,0
0.2,2.5,0,0.299485,-0.00449698,0
0.2,2.6,0,0.300046,-0.0056115,0
0.2,2.7,0,0.299774,-0.00489423,0
0.2,2.8,0,0.299782,-0.00469503,0
0.2,2.9,0,0.300066,-0.00515464,0
0.2,3,0,0.299513,-0.00391227,0
0.2,3.1,0,0.30008,-0.00476856,0
0.2,3.2,0,0.299803,-0.00417798,0
0.2,3.3,0,0.299808,-0.00399045,0
0.2,3.4,0,0.300092,-0.00433438,0
0.2,3.5,0,0.299535,-0.00332112,0
0.2,3.6,0,0.3001,-0.00396937,0
0.2,3.7,0,0.299822,-0.0034827,0
0.2,3.8,0,0.299824,-0.00330481,0
0.2,3.9,0,0.300106,-0.00355456,0
0.2,4,0,0.299552,-0.00273081,0
0.2,4.1,0,0.300107,-0.00320728,0
0.2,4.2,0,0.299834,-0.00280734,0
0.2,4.3,0,0.299833,-0.00263762,0
0.2,4.4,0,0.300108,-0.00280908,0
0.2,4.5,0,0.299566,-0.00214309,0
0.2,4.6,0,0.300105,-0.00247849,0
0.2,4.7,0,0.299839,-0.00214949,0
0.2,4.8,0,0.299836,-0.00198834,0
0.2,4.9,0,0.3001,-0.002099,0
0.2,5,0,0.299579,-0.00157111,0
0.2,5.1,0,0.300154,-0.00182518,0
0.2,5.2,0,0.299585,-0.00132338,0
0.2,5.3,0,0.300149,-0.00152188,0
0.2,5.4,0,0.299588,-0.00109039,0
0.2,5.5,0,0.300146,-0.00122201,0
0.2,5.6,0,0.299591,-0.000857592,0
0.2,5.7,0,0.300144,-0.000926071,0
0.2,5.8,0,0.299593,-0.000624657,0
0.2,5.9,0,0.300144,-0.000631969,0
0.2,6,0,0.299594,-0.000391775,0
0.2,6.1,0,0.300146,-0.000338568,0
0.2,6.2,0,0.299594,-0.000159127,0
0.2,6.3,0,0.300149,-4.49604e-05,0
0.2,6.4,0,0.299593,7.30457e-05,0
0.2,6.5,0,0.300156,0.000250028,0
0.2,6.6,0,0.299592,0.00030441,0
0.2,6.7,0,0.300164,0.000548962,0
0.2,6.8,0,0.299589,0.000535288,0
0.2,6.9,0,0.300173,0.000851131,0
0.2,7,0,0.299583,0.000790085,0
0.2,7.1,0,0.300057,0.00111424,0
0.2,7.2,0,0.299984,0.00116632,0
0.2,7.3,0,0.299649,0.00115435,0
0.2,7.4,0,0.300139,0.00154192,0
0.2,7.5,0,0.299917,0.00151476,0
0.2,7.6,0,0.299721,0.0015587,0
0.2,7.7,0,0.300206,0.00198834,0
0.2,7.8,0,0.299844,0.00185601,0
0.2,7.9,0,0.299795,0.00198388,0
0.2,8,0,0.300212,0.00240023,0
0.2,8.1,0,0.299765,0.0021838,0
0.2,8.2,0,0.299869,0.00243306,0
0.2,8.3,0,0.300205,0.00281567,0
0.2,8.4,0,0.299683,0.00249495,0
0.2,8.5,0,0.299942,0.00291009,0
0.2,8.6,0,0.300123,0.003185,0
0.2,8.7,0,0.299597,0.00278708,0
0.2,8.8,0,0.300015,0.00341846,0
0.2,8.9,0,0.300038,0.00353921,0
0.2,9,0,0.299561,0.00312309,0
0.2,9.1,0,0.300084,0.00396207,0
0.2,9.2,0,0.299949,0.00387563,0
0.2,9.3,0,0.299629,0.00360416,0
0.2,9.4,0,0.300151,0.00454591,0
0.2,9.5,0,0.299858,0.00419087,0
0.2,9.6,0,0.299694,0.00412016,0
0.2,9.7,0,0.30017,0.00508841,0
0.2,9.8,0,0.299763,0.00448052,0
0.2,9.9,0,0.299755,0.00467662,0
0.2,10,0,0.300149,0.0055852,0
0.2,10.1,0,0.299666,0.00473812,0
0.2,10.2,0,0.299811,0.00527891,0
0.2,10.3,0,0.300088,0.00602718,0
0.2,10.4,0,0.299569,0.00495275,0
0.2,10.5,0,0.29986,0.00593793,0
0.2,10.6,0,0.29998,0.00636725,0
0.2,10.7,0,0.299471,0.00511781,0
0.2,10.8,0,0.299894,0.00665823,0
0.2,10.9,0,0.299864,0.0066602,0
0.2,11,0,0.29947,0.00554454,0
0.2,11.1,0,0.299925,0.00745424,0
0.2,11.2,0,0.299757,0.00690109,0
0.2,11.3,0,0.29951,0.0061817,0
0.2,11.4,0,0.299936,0.00836404,0
0.2,11.5,0,0.299652,0.0070789,0
0.2,11.6,0,0.299539,0.00686632,0
0.2,11.7,0,0.299859,0.00898267,0
0.2,11.8,0,0.299544,0.00712459,0
0.2,11.9,0,0.299539,0.00765478,0
0.2,12,0,0.299758,0.00967973,0
0.2,12.1,0,0.299441,0.00706621,0
0.2,12.2,0,0.299603,0.00849207,0
0.2,12.3,0,0.299772,0.00993964,0
0.2,12.4,0,0.299422,0.0068257,0
0.2,12.5,0,0.299688,0.00958441,0
0.2,12.6,0,0.299735,0.0114155,0
0.2,12.7,0,0.29936,0.00980492,0
0.3,0,0,0.299064,-0.0116729,0
0.3,0.1,0,0.299379,-0.0132158,0
0.3,0.2,0,0.299243,-0.0117506,0
0.3,0.3,0,0.299229,-0.0114181,0
0.3,0.4,0,0.299328,-0.0125948,0
0.3,0.5,0,0.299033,-0.00946995,0
0.3,0.6,0,0.299322,-0.0121334,0
0.3,0.7,0,0.299223,-0.0109505,0
0.3,0.8,0,0.299259,-0.0106853,0
0.3,0.9,0,0.2994,-0.0115141,0
0.3,1,0,0.299078,-0.00902707,0
0.3,1.1,0,0.299448,-0.0110437,0
0.3,1.2,0,0.299313,-0.0100402,0
0.3,1.3,0,0.299335,-0.00979094,0
0.3,1.4,0,0.299505,-0.0103658,0
0.3,1.5,0,0.299127,-0.00837106,0
0.3,1.6,0,0.299547,-0.00989736,0
0.3,1.7,0,0.299396,-0.00904551,0
0.3,1.8,0,0.299416,-0.00881741,0
0.3,1.9,0,0.299601,-0.00920515,0
0.3,2,0,0.29918,-0.00759097,0
0.3,2.1,0,0.299633,-0.00875316,0
0.3,2.2,0,0.299468,-0.00802172,0
0.3,2.3,0,0.299481,-0.00780895,0
0.3,2.4,0,0.299675,-0.00806035,0
0.3,2.5,0,0.299228,-0.00674547,0
0.3,2.6,0,0.299698,-0.00763059,0
0.3,2.7,0,0.299524,-0.00699725,0
0.3,2.8,0,0.299532,-0.00679806,0
0.3,2.9,0,0.299729,-0.00694778,0
0.3,3,0,0.299269,-0.00586841,0
0.3,3.1,0,0.299744,-0.00653768,0
0.3,3.2,0,0.299565,-0.00598645,0
0.3,3.3,0,0.29957,-0.00579892,0
0.3,3.4,0,0.299765,-0.00587044,0
0.3,3.5,0,0.299302,-0.00498167,0
0.3,3.6,0,0.299774,-0.00547755,0
0.3,3.7,0,0.299594,-0.00499549,0
0.3,3.8,0,0.299596,-0.0048176,0
0.3,3.9,0,0.299788,-0.00482689,0
0.3,4,0,0.299328,-0.00409621,0
0.3,4.1,0,0.299792,-0.00444917,0
0.3,4.2,0,0.299613,-0.00402574,0
0.3,4.3,0,0.299613,-0.00385602,0
0.3,4.4,0,0.299799,-0.00381368,0
0.3,4.5,0,0.299349,-0.00321464,0
0.3,4.6,0,0.299799,-0.00345014,0
0.3,4.7,0,0.299625,-0.00307439,0
0.3,4.8,0,0.299622,-0.00291325,0
0.3,4.9,0,0.299802,-0.00283838,0
0.3,5,0,0.299368,-0.00235667,0
0.3,5.1,0,0.299802,-0.00245432,0
0.3,5.2,0,0.299377,-0.00198507,0
0.3,5.3,0,0.299802,-0.00204657,0
0.3,5.4,0,0.299382,-0.00163559,0
0.3,5.5,0,0.299801,-0.001647,0
0.3,5.6,0,0.299386,-0.00128639,0
0.3,5.7,0,0.299802,-0.0012504,0
0.3,5.8,0,0.299389,-0.000936986,0
0.3,5.9,0,0.299803,-0.000855139,0
0.3,6,0,0.29939,-0.000587663,0
0.3,6.1,0,0.299805,-0.000460514,0
0.3,6.2,0,0.299391,-0.00023869,0
0.3,6.3,0,0.299807,-6.60008e-05,0
0.3,6.4,0,0.29939,0.000109569,0
0.3,6.5,0,0.299811,0.000329067,0
0.3,6.6,0,0.299388,0.000456615,0
0.3,6.7,0,0.299816,0.000726608,0
0.3,6.8,0,0.299384,0.000802932,0
0.3,6.9,0,0.29982,0.00113536,0
0.3,7,0,0.299375,0.00118513,0
0.3,7.1,0,0.299825,0.00150515,0
0.3,7.2,0,0.299772,0.00171443,0
0.3,7.3,0,0.299437,0.00170246,0
0.3,7.4,0,0.299829,0.00206449,0
0.3,7.5,0,0.299702,0.00222744,0
0.3,7.6,0,0.299507,0.00227138,0
0.3,7.7,0,0.299831,0.00265121,0
0.3,7.8,0,0.299627,0.00273324,0
0.3,7.9,0,0.299578,0.00286111,0
0.3,8,0,0.29983,0.00324606,0
0.3,8.1,0,0.299545,0.00322575,0
0.3,8.2,0,0.299649,0.00347501,0
0.3,8.3,0,0.299826,0.00384848,0
0.3,8.4,0,0.299459,0.00370234,0
0.3,8.5,0,0.299718,0.00411748,0
0.3,8.6,0,0.299817,0.00445958,0
0.3,8.7,0,0.299369,0.00416073,0
0.3,8.8,0,0.299787,0.00479211,0
0.3,8.9,0,0.299806,0.00507978,0
0.3,9,0,0.299329,0.00466366,0
0.3,9.1,0,0.299799,0.00544517,0
0.3,9.2,0,0.299712,0.00558353,0
0.3,9.3,0,0.299391,0.00531207,0
0.3,9.4,0,0.29978,0.00608443,0
0.3,9.5,0,0.299614,0.00606611,0
0.3,9.6,0,0.29945,0.0059954,0
0.3,9.7,0,0.299757,0.00673451,0
0.3,9.8,0,0.299512,0.00652255,0
0.3,9.9,0,0.299504,0.00671865,0
0.3,10,0,0.299729,0.00739551,0
0.3,10.1,0,0.299407,0.00694547,0
0.3,10.2,0,0.299552,0.00748625,0
0.3,10.3,0,0.299694,0.00806372,0
0.3,10.4,0,0.299301,0.00732168,0
0.3,10.5,0,0.299592,0.00830686,0
0.3,10.6,0,0.299653,0.00874491,0
0.3,10.7,0,0.299194,0.00764547,0
0.3,10.8,0,0.299617,0.0091859,0
0.3,10.9,0,0.299576,0.00933698,0
0.3,11,0,0.299182,0.00822132,0
0.3,11.1,0,0.299566,0.00987803,0
0.3,11.2,0,0.299459,0.00971915,0
0.3,11.3,0,0.299212,0.00899976,0
0.3,11.4,0,0.299507,0.0105874,0
0.3,11.5,0,0.299348,0.0100237,0
0.3,11.6,0,0.299234,0.00981109,0
0.3,11.7,0,0.29943,0.0112292,0
0.3,11.8,0,0.299229,0.010175,0
0.3,11.9,0,0.299224,0.0107052,0
0.3,12,0,0.299333,0.0119085,0
0.3,12.1,0,0.299112,0.0101938,0
0.3,12.2,0,0.299274,0.0116196,0
0.3,12.3,0,0.299383,0.0124798,0
0.3,12.4,0,0.299107,0.010005,0
0.3,12.5,0,0.299373,0.0127637,0
0.3,12.6,0,0.299437,0.0131786,0
0.3,12.7,0,0.299082,0.0116505,0
0.4,0,0,0.298793,-0.0135282,0
0.4,0.1,0,0.298881,-0.0140214,0
0.4,0.2,0,0.298856,-0.0139897,0
0.4,0.3,0,0.298839,-0.0137827,0
0.4,0.4,0,0.298821,-0.013714,0
0.4,0.5,0,0.298711,-0.0126266,0
0.4,0.6,0,0.298817,-0.013441,0
0.4,0.7,0,0.298832,-0.0133309,0
0.4,0.8,0,0.298858,-0.0131244,0
0.4,0.9,0,0.29887,-0.0129688,0
0.4,1,0,0.29877,-0.0120361,0
0.4,1.1,0,0.298902,-0.0125853,0
0.4,1.2,0,0.298914,-0.0124008,0
0.4,1.3,0,0.298933,-0.0121748,0
0.4,1.4,0,0.29895,-0.0119657,0
0.4,1.5,0,0.298836,-0.0111614,0
0.4,1.6,0,0.298986,-0.0115194,0
0.4,1.7,0,0.299003,-0.0112931,0
0.4,1.8,0,0.299021,-0.0110624,0
0.4,1.9,0,0.299037,-0.0108206,0
0.4,2,0,0.298907,-0.0101213,0
0.4,2.1,0,0.299068,-0.0103421,0
0.4,2.2,0,0.299082,-0.0100922,0
0.4,2.3,0,0.299096,-0.00986124,0
0.4,2.4,0,0.29911,-0.00960385,0
0.4,2.5,0,0.298971,-0.00899396,0
0.4,2.6,0,0.299136,-0.00911444,0
0.4,2.7,0,0.299149,-0.0088526,0
0.4,2.8,0,0.299159,-0.008625,0
0.4,2.9,0,0.299171,-0.0083606,0
0.4,3,0,0.299026,-0.00782454,0
0.4,3.1,0,0.299191,-0.00787043,0
0.4,3.2,0,0.299201,-0.00760463,0
0.4,3.3,0,0.299208,-0.00738221,0
0.4,3.4,0,0.299217,-0.00711598,0
0.4,3.5,0,0.299069,-0.00664223,0
0.4,3.6,0,0.299232,-0.0066302,0
0.4,3.7,0,0.29924,-0.00636422,0
0.4,3.8,0,0.299245,-0.00614733,0
0.4,3.9,0,0.299252,-0.00588204,0
0.4,4,0,0.299104,-0.00546161,0
0.4,4.1,0,0.299263,-0.00540286,0
0.4,4.2,0,0.29927,-0.00513825,0
0.4,4.3,0,0.299272,-0.00492642,0
0.4,4.4,0,0.299278,-0.00466209,0
0.4,4.5,0,0.299132,-0.00428619,0
0.4,4.6,0,0.299285,-0.00418872,0
0.4,4.7,0,0.299291,-0.00392477,0
0.4,4.8,0,0.299292,-0.00372085,0
0.4,4.9,0,0.299298,-0.00347002,0
0.4,5,0,0.299158,-0.00314222,0
0.4,5.1,0,0.299306,-0.00298898,0
0.4,5.2,0,0.299169,-0.00264676,0
0.4,5.3,0,0.299314,-0.00249252,0
0.4,5.4,0,0.299177,-0.00218078,0
0.4,5.5,0,0.299318,-0.00200999,0
0.4,5.6,0,0.299182,-0.00171518,0
0.4,5.7,0,0.299321,-0.00152849,0
0.4,5.8,0,0.299185,-0.00124931,0
0.4,5.9,0,0.299324,-0.00104737,0
0.4,6,0,0.299187,-0.000783551,0
0.4,6.1,0,0.299325,-0.000566682,0
0.4,6.2,0,0.299187,-0.000318254,0
0.4,6.3,0,0.299326,-8.65612e-05,0
0.4,6.4,0,0.299186,0.000146091,0
0.4,6.5,0,0.299326,0.000392781,0
0.4,6.6,0,0.299184,0.00060882,0
0.4,6.7,0,0.299324,0.000871977,0
0.4,6.8,0,0.299178,0.00107058,0
0.4,6.9,0,0.299319,0.00137248,0
0.4,7,0,0.299166,0.00158017,0
0.4,7.1,0,0.299313,0.00184797,0
0.4,7.2,0,0.299307,0.00208965,0
0.4,7.3,0,0.299225,0.00225057,0
0.4,7.4,0,0.299304,0.00253171,0
0.4,7.5,0,0.2993,0.00279156,0
0.4,7.6,0,0.299292,0.00298406,0
0.4,7.7,0,0.299296,0.00324695,0
0.4,7.8,0,0.299292,0.00350676,0
0.4,7.9,0,0.299292,0.00370504,0
0.4,8,0,0.299287,0.00396513,0
0.4,8.1,0,0.299282,0.00422521,0
0.4,8.2,0,0.299281,0.00442609,0
0.4,8.3,0,0.299275,0.00468731,0
0.4,8.4,0,0.299235,0.00490973,0
0.4,8.5,0,0.299267,0.00515244,0
0.4,8.6,0,0.299261,0.00541495,0
0.4,8.7,0,0.299142,0.00553437,0
0.4,8.8,0,0.29925,0.00588448,0
0.4,8.9,0,0.299243,0.00614805,0
0.4,9,0,0.299097,0.00620424,0
0.4,9.1,0,0.29923,0.00662172,0
0.4,9.2,0,0.299221,0.00688594,0
0.4,9.3,0,0.299153,0.00701998,0
0.4,9.4,0,0.299206,0.00736323,0
0.4,9.5,0,0.299196,0.00762743,0
0.4,9.6,0,0.299188,0.00784421,0
0.4,9.7,0,0.299177,0.00810757,0
0.4,9.8,0,0.299166,0.00837094,0
0.4,9.9,0,0.299157,0.00859127,0
0.4,10,0,0.299144,0.00885229,0
0.4,10.1,0,0.299131,0.00911331,0
0.4,10.2,0,0.299119,0.00933546,0
0.4,10.3,0,0.299106,0.00959059,0
0.4,10.4,0,0.299033,0.00969061,0
0.4,10.5,0,0.299078,0.0100719,0
0.4,10.6,0,0.299063,0.0103225,0
0.4,10.7,0,0.298917,0.0101731,0
0.4,10.8,0,0.29903,0.0107941,0
0.4,10.9,0,0.299013,0.0110295,0
0.4,11,0,0.298894,0.0108981,0
0.4,11.1,0,0.29898,0.0114866,0
0.4,11.2,0,0.298964,0.0117097,0
0.4,11.3,0,0.298914,0.0118178,0
0.4,11.4,0,0.298933,0.01215,0
0.4,11.5,0,0.298923,0.0123501,0
0.4,11.6,0,0.298897,0.0125663,0
0.4,11.7,0,0.298881,0.012733,0
0.4,11.8,0,0.298865,0.0128997,0
0.4,11.9,0,0.298832,0.0131247,0
0.4,12,0,0.29881,0.0132465,0
0.4,12.1,0,0.298783,0.0133213,0
0.4,12.2,0,0.298811,0.0135535,0
0.4,12.3,0,0.298832,0.0136352,0
0.4,12.4,0,0.298791,0.0131843,0
0.4,12.5,0,0.298873,0.0139399,0
0.4,12.6,0,0.298903,0.0139792,0
0.4,12.7,0,0.298804,0.013496,0
0.5,0,0,0.298793,-0.0142079,0
0.5,0.1,0,0.298397,-0.0148446,0
0.5,0.2,0,0.298372,-0.0148129,0
0.5,0.3,0,0.298316,-0.0149049,0
0.5,0.4,0,0.298298,-0.0148362,0
0.5,0.5,0,0.298622,-0.0141806,0
0.5,0.6,0,0.298312,-0.0147687,0
0.5,0.7,0,0.298327,-0.0146585,0
0.5,0.8,0,0.298332,-0.0145844,0
0.5,0.9,0,0.298343,-0.0144288,0
0.5,1,0,0.2986,-0.01364,0
0.5,1.1,0,0.298353,-0.0141377,0
0.5,1.2,0,0.298365,-0.0139532,0
0.5,1.3,0,0.29838,-0.0137775,0
0.5,1.4,0,0.298397,-0.0135684,0
0.5,1.5,0,0.298615,-0.0127213,0
0.5,1.6,0,0.298425,-0.0131481,0
0.5,1.7,0,0.298442,-0.0129218,0
0.5,1.8,0,0.298457,-0.0126797,0
0.5,1.9,0,0.298473,-0.0124379,0
0.5,2,0,0.298657,-0.0115774,0
0.5,2.1,0,0.298502,-0.0119336,0
0.5,2.2,0,0.298517,-0.0116837,0
0.5,2.3,0,0.298532,-0.0114063,0
0.5,2.4,0,0.298546,-0.0111489,0
0.5,2.5,0,0.298707,-0.0103127,0
0.5,2.6,0,0.298575,-0.0105992,0
0.5,2.7,0,0.298588,-0.0103373,0
0.5,2.8,0,0.298602,-0.0100384,0
0.5,2.9,0,0.298614,-0.00977396,0
0.5,3,0,0.298756,-0.00898635,0
0.5,3.1,0,0.298638,-0.00920342,0
0.5,3.2,0,0.298648,-0.00893761,0
0.5,3.3,0,0.298661,-0.00862776,0
0.5,3.4,0,0.29867,-0.00836152,0
0.5,3.5,0,0.298798,-0.0076364,0
0.5,3.6,0,0.29869,-0.00778271,0
0.5,3.7,0,0.298699,-0.00751672,0
0.5,3.8,0,0.298709,-0.00720225,0
0.5,3.9,0,0.298717,-0.00693695,0
0.5,4,0,0.298834,-0.0062824,0
0.5,4.1,0,0.298734,-0.0063564,0
0.5,4.2,0,0.298741,-0.00609179,0
0.5,4.3,0,0.298751,-0.00577483,0
0.5,4.4,0,0.298757,-0.00551049,0
0.5,4.5,0,0.298865,-0.00493001,0
0.5,4.6,0,0.298772,-0.00492709,0
0.5,4.7,0,0.298778,-0.00466314,0
0.5,4.8,0,0.298788,-0.00434541,0
0.5,4.9,0,0.298794,-0.00409457,0
0.5,5,0,0.298892,-0.00361121,0
0.5,5.1,0,0.298812,-0.0035164,0
0.5,5.2,0,0.298904,-0.00304208,0
0.5,5.3,0,0.298826,-0.00293832,0
0.5,5.4,0,0.298912,-0.00250738,0
0.5,5.5,0,0.298835,-0.00237303,0
0.5,5.6,0,0.298917,-0.00197267,0
0.5,5.7,0,0.298841,-0.00180659,0
0.5,5.8,0,0.298921,-0.00143739,0
0.5,5.9,0,0.298845,-0.00123956,0
0.5,6,0,0.298923,-0.000902207,0
0.5,6.1,0,0.298846,-0.000672776,0
0.5,6.2,0,0.298923,-0.000367632,0
0.5,6.3,0,0.298845,-0.000106956,0
0.5,6.4,0,0.298922,0.00016571,0
0.5,6.5,0,0.298841,0.000456734,0
0.5,6.6,0,0.29892,0.00069682,0
0.5,6.7,0,0.298834,0.00101735,0
0.5,6.8,0,0.298914,0.00122621,0
0.5,6.9,0,0.29882,0.00159764,0
0.5,7,0,0.298902,0.00181146,0
0.5,7.1,0,0.298799,0.00217937,0
0.5,7.2,0,0.298794,0.00242106,0
0.5,7.3,0,0.298838,0.00264336,0
0.5,7.4,0,0.298779,0.00299884,0
0.5,7.5,0,0.298775,0.00325869,0
0.5,7.6,0,0.298772,0.00357111,0
0.5,7.7,0,0.298762,0.0038428,0
0.5,7.8,0,0.298758,0.00410262,0
0.5,7.9,0,0.298749,0.00442382,0
0.5,8,0,0.298744,0.00468391,0
0.5,8.1,0,0.298739,0.004944,0
0.5,8.2,0,0.29873,0.0052645,0
0.5,8.3,0,0.298725,0.00552571,0
0.5,8.4,0,0.298744,0.00572514,0
0.5,8.5,0,0.29871,0.00610742,0
0.5,8.6,0,0.298704,0.00636993,0
0.5,8.7,0,0.29878,0.00640237,0
0.5,8.8,0,0.298688,0.00695247,0
0.5,8.9,0,0.29868,0.00721604,0
0.5,9,0,0.298778,0.0071694,0
0.5,9.1,0,0.298661,0.00779814,0
0.5,9.2,0,0.298653,0.00806236,0
0.5,9.3,0,0.29869,0.00820422,0
0.5,9.4,0,0.298631,0.00864217,0
0.5,9.5,0,0.298622,0.00890637,0
0.5,9.6,0,0.298609,0.00921766,0
0.5,9.7,0,0.298598,0.00948102,0
0.5,9.8,0,0.298587,0.00974439,0
0.5,9.9,0,0.298573,0.0100491,0
0.5,10,0,0.29856,0.0103102,0
0.5,10.1,0,0.298547,0.0105712,0
0.5,10.2,0,0.298531,0.010865,0
0.5,10.3,0,0.298518,0.0111201,0
0.5,10.4,0,0.298566,0.0111639,0
0.5,10.5,0,0.29849,0.0116497,0
0.5,10.6,0,0.298475,0.0119004,0
0.5,10.7,0,0.298614,0.0116431,0
0.5,10.8,0,0.298443,0.0124117,0
0.5,10.9,0,0.298426,0.0126471,0
0.5,11,0,0.298547,0.012442,0
0.5,11.1,0,0.298393,0.0130936,0
0.5,11.2,0,0.298377,0.0133167,0
0.5,11.3,0,0.298413,0.0133925,0
0.5,11.4,0,0.298355,0.0137288,0
0.5,11.5,0,0.298345,0.0139289,0
0.5,11.6,0,0.298355,0.0140751,0
0.5,11.7,0,0.298339,0.0142418,0
0.5,11.8,0,0.298323,0.0144085,0
0.5,11.9,0,0.298306,0.0144862,0
0.5,12,0,0.298284,0.014608,0
0.5,12.1,0,0.298279,0.0146932,0
0.5,12.2,0,0.298236,0.0147109,0
0.5,12.3,0,0.298257,0.0147926,0
0.5,12.4,0,0.29849,0.0144934,0
0.5,12.5,0,0.298358,0.0147654,0
0.5,12.6,0,0.298388,0.0148047,0
0.5,12.7,0,0.298791,0.0141613,0
0.6,0,0,0.299065,-0.0137119,0
0.6,0.1,0,0.297927,-0.0156853,0
0.6,0.2,0,0.298322,-0.0149666,0
0.6,0.3,0,0.298237,-0.0151724,0
0.6,0.4,0,0.297756,-0.0159614,0
0.6,0.5,0,0.298767,-0.014132,0
0.6,0.6,0,0.297805,-0.0161164,0
0.6,0.7,0,0.298155,-0.0152498,0
0.6,0.8,0,0.298153,-0.0152227,0
0.6,0.9,0,0.29782,-0.0158941,0
0.6,1,0,0.298568,-0.0138388,0
0.6,1.1,0,0.2978,-0.015701,0
0.6,1.2,0,0.298086,-0.0147437,0
0.6,1.3,0,0.298101,-0.014585,0
0.6,1.4,0,0.297845,-0.015174,0
0.6,1.5,0,0.298464,-0.0130508,0
0.6,1.6,0,0.297864,-0.0147835,0
0.6,1.7,0,0.298102,-0.0137927,0
0.6,1.8,0,0.298116,-0.0135441,0
0.6,1.9,0,0.297909,-0.0140572,0
0.6,2,0,0.298432,-0.0119593,0
0.6,2.1,0,0.297937,-0.0135276,0
0.6,2.2,0,0.29814,-0.0125554,0
0.6,2.3,0,0.298156,-0.0122591,0
0.6,2.4,0,0.297982,-0.0126956,0
0.6,2.5,0,0.298436,-0.0107016,0
0.6,2.6,0,0.298014,-0.0120848,0
0.6,2.7,0,0.298192,-0.0111602,0
0.6,2.8,0,0.298208,-0.0108326,0
0.6,2.9,0,0.298057,-0.0111879,0
0.6,3,0,0.298459,-0.00935382,0
0.6,3.1,0,0.298086,-0.0105366,0
0.6,3.2,0,0.298245,-0.00968056,0
0.6,3.3,0,0.298259,-0.00933564,0
0.6,3.4,0,0.298123,-0.00960708,0
0.6,3.5,0,0.298489,-0.00796419,0
0.6,3.6,0,0.298149,-0.00893506,0
0.6,3.7,0,0.298294,-0.00815958,0
0.6,3.8,0,0.298307,-0.00780604,0
0.6,3.9,0,0.298181,-0.00799164,0
0.6,4,0,0.298519,-0.00655857,0
0.6,4.1,0,0.298206,-0.00730978,0
0.6,4.2,0,0.29834,-0.00662144,0
0.6,4.3,0,0.298353,-0.00626248,0
0.6,4.4,0,0.298236,-0.0063589,0
0.6,4.5,0,0.298547,-0.0051461,0
0.6,4.6,0,0.298259,-0.00566526,0
0.6,4.7,0,0.298381,-0.00506812,0
0.6,4.8,0,0.298395,-0.00470211,0
0.6,4.9,0,0.29829,-0.00471205,0
0.6,5,0,0.298571,-0.00376362,0
0.6,5.1,0,0.298318,-0.00403661,0
0.6,5.2,0,0.298581,-0.00317104,0
0.6,5.3,0,0.298339,-0.00338398,0
0.6,5.4,0,0.298588,-0.00261538,0
0.6,5.5,0,0.298352,-0.00273611,0
0.6,5.6,0,0.298592,-0.00205885,0
0.6,5.7,0,0.298361,-0.00208472,0
0.6,5.8,0,0.298596,-0.00150121,0
0.6,5.9,0,0.298367,-0.0014317,0
0.6,6,0,0.298598,-0.000943632,0
0.6,6.1,0,0.298367,-0.000778798,0
0.6,6.2,0,0.298599,-0.000386824,0
0.6,6.3,0,0.298364,-0.000127186,0
0.6,6.4,0,0.298598,0.000168423,0
0.6,6.5,0,0.298356,0.000520925,0
0.6,6.6,0,0.298596,0.000720615,0
0.6,6.7,0,0.298344,0.00116273,0
0.6,6.8,0,0.298592,0.00126985,0
0.6,6.9,0,0.298322,0.00181083,0
0.6,7,0,0.298582,0.001879,0
0.6,7.1,0,0.298285,0.00249936,0
0.6,7.2,0,0.298311,0.00270689,0
0.6,7.3,0,0.298521,0.002747,0
0.6,7.4,0,0.298254,0.00346588,0
0.6,7.5,0,0.298332,0.00359848,0
0.6,7.6,0,0.298456,0.00371578,0
0.6,7.7,0,0.298227,0.00443876,0
0.6,7.8,0,0.298361,0.00443732,0
0.6,7.9,0,0.298385,0.004719,0
0.6,8,0,0.298201,0.00540241,0
0.6,8.1,0,0.298393,0.00522756,0
0.6,8.2,0,0.298309,0.00575967,0
0.6,8.3,0,0.298175,0.00636368,0
0.6,8.4,0,0.298428,0.00597613,0
0.6,8.5,0,0.29823,0.00683982,0
0.6,8.6,0,0.298147,0.00732452,0
0.6,8.7,0,0.298466,0.00668444,0
0.6,8.8,0,0.298145,0.00795816,0
0.6,8.9,0,0.298118,0.00828375,0
0.6,9,0,0.298466,0.00747993,0
0.6,9.1,0,0.298093,0.00897443,0
0.6,9.2,0,0.298147,0.0090396,0
0.6,9.3,0,0.298384,0.00854011,0
0.6,9.4,0,0.298058,0.00992125,0
0.6,9.5,0,0.298178,0.00974885,0
0.6,9.6,0,0.298295,0.00962853,0
0.6,9.7,0,0.298019,0.0108549,0
0.6,9.8,0,0.298215,0.0104075,0
0.6,9.9,0,0.298199,0.0107369,0
0.6,10,0,0.297977,0.0117691,0
0.6,10.1,0,0.298258,0.0110117,0
0.6,10.2,0,0.298092,0.0118532,0
0.6,10.3,0,0.297929,0.0126522,0
0.6,10.4,0,0.298314,0.0115489,0
0.6,10.5,0,0.297982,0.0129452,0
0.6,10.6,0,0.297888,0.0134784,0
0.6,10.7,0,0.298393,0.0120148,0
0.6,10.8,0,0.297855,0.0140386,0
0.6,10.9,0,0.29787,0.0141735,0
0.6,11,0,0.298363,0.0127946,0
0.6,11.1,0,0.297806,0.0146991,0
0.6,11.2,0,0.297934,0.0145103,0
0.6,11.3,0,0.298281,0.0136936,0
0.6,11.4,0,0.297774,0.0153236,0
0.6,11.5,0,0.298046,0.0147724,0
0.6,11.6,0,0.298224,0.0144786,0
0.6,11.7,0,0.297804,0.0157556,0
0.6,11.8,0,0.298231,0.0148269,0
0.6,11.9,0,0.298127,0.0150761,0
0.6,12,0,0.297754,0.0159929,0
0.6,12.1,0,0.298407,0.0146824,0
0.6,12.2,0,0.297924,0.0154084,0
0.6,12.3,0,0.297658,0.015952,0
0.6,12.4,0,0.298697,0.0142051,0
0.6,12.5,0,0.297972,0.015436,0
0.6,12.6,0,0.297891,0.0156551,0
0.6,12.7,0,0.299041,0.0136463,0
0.7,0,0,0.299337,-0.0132159,0
0.7,0.1,0,0.297976,-0.0155904,0
0.7,0.2,0,0.298551,-0.0146622,0
0.7,0.3,0,0.298466,-0.014868,0
0.7,0.4,0,0.297695,-0.016265,0
0.7,0.5,0,0.298912,-0.0140834,0
0.7,0.6,0,0.297754,-0.0164866,0
0.7,0.7,0,0.298206,-0.0153367,0
0.7,0.8,0,0.298204,-0.0153096,0
0.7,0.9,0,0.29764,-0.0164728,0
0.7,1,0,0.298535,-0.0140377,0
0.7,1.1,0,0.297612,-0.0163091,0
0.7,1.2,0,0.29799,-0.0150191,0
0.7,1.3,0,0.298005,-0.0148603,0
0.7,1.4,0,0.297573,-0.0158863,0
0.7,1.5,0,0.298313,-0.0133803,0
0.7,1.6,0,0.29759,-0.0155048,0
0.7,1.7,0,0.297909,-0.0141538,0
0.7,1.8,0,0.297924,-0.0139052,0
0.7,1.9,0,0.297582,-0.0148103,0
0.7,2,0,0.298206,-0.0123412,0
0.7,2.1,0,0.297609,-0.0142732,0
0.7,2.2,0,0.297889,-0.0129455,0
0.7,2.3,0,0.297905,-0.0126492,0
0.7,2.4,0,0.297624,-0.0134319,0
0.7,2.5,0,0.298166,-0.0110905,0
0.7,2.6,0,0.297656,-0.0128027,0
0.7,2.7,0,0.297906,-0.0115413,0
0.7,2.8,0,0.297922,-0.0112136,0
0.7,2.9,0,0.297682,-0.0118693,0
0.7,3,0,0.298163,-0.00972129,0
0.7,3.1,0,0.297713,-0.0111938,0
0.7,3.2,0,0.297941,-0.01003,0
0.7,3.3,0,0.297955,-0.00968507,0
0.7,3.4,0,0.297742,-0.0102102,0
0.7,3.5,0,0.298179,-0.00829198,0
0.7,3.6,0,0.29777,-0.00951022,0
0.7,3.7,0,0.297981,-0.00846277,0
0.7,3.8,0,0.297994,-0.00810923,0
0.7,3.9,0,0.2978,-0.00850137,0
0.7,4,0,0.298204,-0.00683474,0
0.7,4.1,0,0.297827,-0.00778912,0
0.7,4.2,0,0.298023,-0.00686859,0
0.7,4.3,0,0.298037,-0.00650963,0
0.7,4.4,0,0.297858,-0.00676468,0
0.7,4.5,0,0.29823,-0.00536219,0
0.7,4.6,0,0.297882,-0.00603797,0
0.7,4.7,0,0.298062,-0.00525098,0
0.7,4.8,0,0.298076,-0.00488497,0
0.7,4.9,0,0.297914,-0.00500399,0
0.7,5,0,0.298249,-0.00391604,0
0.7,5.1,0,0.29791,-0.00436705,0
0.7,5.2,0,0.298258,-0.0033,0
0.7,5.3,0,0.297933,-0.00366605,0
0.7,5.4,0,0.298263,-0.00272338,0
0.7,5.5,0,0.297949,-0.0029662,0
0.7,5.6,0,0.298268,-0.00214503,0
0.7,5.7,0,0.297959,-0.00226128,0
0.7,5.8,0,0.298271,-0.00156503,0
0.7,5.9,0,0.297965,-0.00155409,0
0.7,6,0,0.298274,-0.000985056,0
0.7,6.1,0,0.297965,-0.000846964,0
0.7,6.2,0,0.298274,-0.000406015,0
0.7,6.3,0,0.297961,-0.00014142,0
0.7,6.4,0,0.298273,0.000171137,0
0.7,6.5,0,0.297952,0.000559648,0
0.7,6.6,0,0.298272,0.00074441,0
0.7,6.7,0,0.297937,0.00125227,0
0.7,6.8,0,0.298269,0.00131348,0
0.7,6.9,0,0.297912,0.00194522,0
0.7,7,0,0.298262,0.00194654,0
0.7,7.1,0,0.29795,0.00258683,0
0.7,7.2,0,0.297994,0.00281052,0
0.7,7.3,0,0.298204,0.00285063,0
0.7,7.4,0,0.297871,0.00368428,0
0.7,7.5,0,0.298017,0.00374314,0
0.7,7.6,0,0.29814,0.00386044,0
0.7,7.7,0,0.297802,0.00481106,0
0.7,7.8,0,0.298045,0.00461961,0
0.7,7.9,0,0.298069,0.0049013,0
0.7,8,0,0.297771,0.00586304,0
0.7,8.1,0,0.298077,0.00544522,0
0.7,8.2,0,0.297993,0.00597733,0
0.7,8.3,0,0.297748,0.00689272,0
0.7,8.4,0,0.298112,0.00622712,0
0.7,8.5,0,0.297913,0.00709082,0
0.7,8.6,0,0.297775,0.00776587,0
0.7,8.7,0,0.298151,0.0069665,0
0.7,8.8,0,0.29783,0.00824022,0
0.7,8.9,0,0.297807,0.00859429,0
0.7,9,0,0.298155,0.00779047,0
0.7,9.1,0,0.297741,0.00942167,0
0.7,9.2,0,0.29784,0.00937549,0
0.7,9.3,0,0.298077,0.00887599,0
0.7,9.4,0,0.297646,0.0106294,0
0.7,9.5,0,0.297879,0.0101062,0