/*--------------------------------*- C++ -*----------------------------------*\
| =========                 |                                                 |
| \\      /  F ield         | OpenFOAM: The Open Source CFD Toolbox           |
|  \\    /   O peration     | Version:  v1806                                 |
|   \\  /    A nd           | Web:      www.OpenFOAM.com                      |
|    \\/     M anipulation  |                                                 |
\*---------------------------------------------------------------------------*/
FoamFile
{
    version     2.0;
    format      ascii;
    class       volScalarField;
    location    "220";
    object      p;
}
// * * * * * * * * * * * * * * * * * * * * * * * * * * * * * * * * * * * * * //

dimensions      [0 2 -2 0 0 0 0];


internalField   nonuniform List<scalar> 
4400
(
0.00721844
0.00870104
0.00593577
0.00384773
0.00287056
0.00241593
0.00219783
0.00208452
0.00199882
0.00190469
0.00179019
0.00165359
0.00149683
0.00132306
0.00113564
0.000937811
0.000732535
0.000522643
0.000309433
9.29465e-05
0.0274513
0.0184379
0.0124455
0.00865385
0.00647124
0.00516888
0.00432644
0.0037411
0.00330023
0.00293811
0.00261824
0.0023209
0.00203545
0.00175616
0.00148008
0.00120584
0.000933033
0.000661717
0.000390987
0.000121518
0.0297052
0.0218607
0.016309
0.0123134
0.00957604
0.00768387
0.00633208
0.00533624
0.00457362
0.00396092
0.00344435
0.00299028
0.00257768
0.00219316
0.0018281
0.00147689
0.00113586
0.000802457
0.000473998
0.000150039
0.0302179
0.0238202
0.0186222
0.0146067
0.0116408
0.00947562
0.00786227
0.00662681
0.00565248
0.00485843
0.00418892
0.00360616
0.00308461
0.00260683
0.00216076
0.00173794
0.00133235
0.000939479
0.000555192
0.000177772
0.0284251
0.0236333
0.0193848
0.0158652
0.0130541
0.0108464
0.00910769
0.00772036
0.0065941
0.00566
0.00486618
0.00417465
0.00355807
0.00299684
0.00247674
0.00198736
0.00152095
0.0010715
0.000633654
0.000204505
0.026608
0.0230522
0.0195889
0.0165105
0.0139026
0.0117534
0.00999608
0.00855007
0.00734513
0.00632504
0.00544566
0.00467294
0.00398104
0.00335053
0.00276671
0.00221839
0.00169692
0.00119536
0.000707559
0.000229761
0.0246669
0.0219897
0.0192244
0.0166365
0.0143322
0.0123382
0.0106374
0.00918955
0.0079501
0.00687863
0.00594054
0.00510725
0.00435581
0.00366811
0.00302987
0.00242985
0.00185905
0.00131006
0.000776265
0.000253283
0.0229571
0.020916
0.0186966
0.0165143
0.0144852
0.0126608
0.011051
0.00964131
0.00840533
0.00731514
0.00634492
0.00547207
0.00467749
0.00394537
0.00326272
0.00261893
0.0020052
0.0014141
0.000838865
0.000274779
0.0214103
0.0198186
0.0180259
0.0161973
0.0144351
0.012795
0.0113004
0.00995365
0.00874432
0.0076563
0.00667215
0.00577519
0.00495034
0.0041844
0.00346608
0.00278575
0.00213518
0.00150717
0.000895115
0.000294137
0.0200844
0.0188181
0.017352
0.0158072
0.0142711
0.012799
0.0114208
0.0101482
0.00898058
0.00791056
0.00692742
0.00601963
0.00517592
0.00438586
0.00364005
0.00293011
0.00224865
0.00158897
0.000944784
0.000311278
0.0189318
0.0179029
0.0166868
0.0153733
0.0140331
0.0127153
0.011451
0.0102567
0.00913867
0.00809584
0.00712325
0.00621384
0.00535981
0.0045533
0.0037868
0.0030533
0.00234633
0.00165983
0.000988019
0.000326237
0.0179537
0.0171005
0.0160756
0.0149452
0.0137659
0.0125805
0.0114192
0.0103006
0.0092343
0.00822381
0.0072682
0.006364
0.00550634
0.00468968
0.00390832
0.00315659
0.002429
0.00172022
0.00102504
0.000339081
0.0171213
0.0163996
0.0155214
0.0145367
0.0134903
0.0124186
0.011349
0.0103005
0.00928485
0.00830822
0.0073728
0.00647794
0.0056212
0.00479906
0.00400743
0.00324188
0.00249789
0.00177089
0.00105624
0.000349938
0.0164261
0.0158033
0.0150375
0.014167
0.0132274
0.0122497
0.0112585
0.0102721
0.00930308
0.00835941
0.00744524
0.00656201
0.00570923
0.00488504
0.00408674
0.00331102
0.00255428
0.00181264
0.00108208
0.000358954
0.0158511
0.0153029
0.0146231
0.0138416
0.0129875
0.0120867
0.0111613
0.0102283
0.00930065
0.00838722
0.00749355
0.00662261
0.00577538
0.00495137
0.00414903
0.00336603
0.00259955
0.00184638
0.00110306
0.000366295
0.0153885
0.0148958
0.0142808
0.0135675
0.0127799
0.0119402
0.0110678
0.010179
0.00928643
0.00839931
0.00752415
0.00666496
0.00582383
0.0050013
0.00419676
0.00340872
0.002635
0.00187297
0.00111967
0.000372125
0.0150288
0.0145767
0.0140097
0.0133473
0.01261
0.011817
0.0109861
0.0101323
0.0092678
0.00840226
0.00754264
0.00669368
0.00585827
0.00503774
0.00423218
0.00344073
0.00266179
0.00189318
0.00113235
0.000376594
0.0147676
0.014344
0.0138105
0.013184
0.0124823
0.011723
0.010922
0.0100938
0.00925027
0.00840097
0.00755324
0.00671231
0.00588158
0.00506294
0.004257
0.00346337
0.00268084
0.00190762
0.00114146
0.000379818
0.0146007
0.0141951
0.0136825
0.0130785
0.0123993
0.0116612
0.0108794
0.0100676
0.00923761
0.00839889
0.00755897
0.00672337
0.00589582
0.00507856
0.00427251
0.00347758
0.00269286
0.00191676
0.00114724
0.000381877
0.0145246
0.0141263
0.0136231
0.0130293
0.0123605
0.0116322
0.0108592
0.0100551
0.00923136
0.0083976
0.00756136
0.00672829
0.00590227
0.00508568
0.00427962
0.00348412
0.00269839
0.00192098
0.00114991
0.000382831
0.035665
0.0424138
0.0473493
0.051163
0.0541303
0.0563937
0.0580639
0.0592243
0.0599326
0.0602251
0.0601206
0.059622
0.0587167
0.0573756
0.0555501
0.0531688
0.0501378
0.0463336
0.041492
0.0349294
0.0439677
0.0462457
0.0481372
0.0497311
0.0510619
0.0521398
0.0529706
0.0535598
0.0539109
0.0540256
0.053904
0.0535447
0.0529449
0.0520999
0.0510031
0.0496445
0.0480181
0.0461356
0.0439664
0.0411009
0.0391385
0.0406666
0.0420676
0.0433083
0.0443747
0.0452588
0.0459553
0.0464605
0.0467725
0.0468897
0.0468111
0.0465359
0.046063
0.0453918
0.0445213
0.0434513
0.0421847
0.0407308
0.0390855
0.0371653
0.0364211
0.0373159
0.0381136
0.0388186
0.0394242
0.0399232
0.0403107
0.0405832
0.0407379
0.0407729
0.040687
0.0404797
0.040151
0.0397016
0.0391329
0.0384472
0.0376488
0.0367455
0.0357369
0.0345818
0.0324319
0.0330167
0.0335494
0.0340231
0.0344314
0.0347687
0.0350309
0.0352145
0.0353167
0.0353359
0.0352708
0.0351213
0.0348879
0.034572
0.0341755
0.0337017
0.0331547
0.0325403
0.031863
0.0311195
0.0295572
0.0299525
0.0302997
0.0306039
0.0308627
0.0310729
0.0312321
0.0313388
0.0313915
0.0313894
0.031332
0.0312195
0.0310522
0.0308311
0.0305575
0.0302334
0.0298614
0.0294452
0.0289866
0.0284777
0.0267715
0.0270396
0.0272775
0.0274853
0.0276608
0.0278023
0.0279083
0.0279777
0.0280096
0.0280033
0.0279587
0.0278758
0.027755
0.0275969
0.0274025
0.0271732
0.0269107
0.0266169
0.0262939
0.0259417
0.0246058
0.0248013
0.02497
0.0251155
0.0252373
0.0253339
0.0254046
0.0254488
0.025466
0.025456
0.0254187
0.0253541
0.0252625
0.0251444
0.0250004
0.0248312
0.0246378
0.0244218
0.0241837
0.0239208
0.022683
0.0228232
0.0229449
0.0230492
0.0231358
0.0232037
0.0232525
0.0232818
0.0232913
0.0232809
0.0232505
0.0232001
0.02313
0.0230404
0.0229317
0.0228044
0.0226592
0.0224967
0.0223179
0.0221223
0.0211275
0.0212354
0.0213271
0.0214052
0.0214694
0.0215191
0.021554
0.0215739
0.0215786
0.0215681
0.0215423
0.0215013
0.0214452
0.0213741
0.0212884
0.0211884
0.0210744
0.020947
0.0208066
0.0206518
0.0197848
0.0198669
0.0199367
0.0199958
0.020044
0.0200808
0.020106
0.0201195
0.0201213
0.0201112
0.0200893
0.0200555
0.0200101
0.019953
0.0198844
0.0198046
0.0197138
0.0196124
0.0195007
0.0193783
0.0186788
0.018745
0.0188004
0.0188471
0.0188848
0.0189132
0.0189323
0.0189419
0.018942
0.0189325
0.0189134
0.0188848
0.0188467
0.0187993
0.0187425
0.0186766
0.0186017
0.0185181
0.018426
0.0183247
0.0177411
0.0177943
0.0178389
0.0178762
0.0179061
0.0179283
0.0179429
0.0179496
0.0179486
0.0179397
0.0179229
0.0178984
0.017866
0.017826
0.0177783
0.017723
0.0176604
0.0175905
0.0175135
0.0174291
0.0169707
0.0170153
0.0170525
0.0170835
0.0171081
0.0171262
0.0171378
0.0171428
0.0171412
0.0171329
0.017118
0.0170964
0.0170683
0.0170336
0.0169924
0.0169448
0.0168909
0.0168308
0.0167646
0.0166919
0.016334
0.016372
0.0164037
0.0164299
0.0164506
0.0164657
0.0164751
0.0164789
0.0164769
0.0164692
0.0164558
0.0164366
0.0164118
0.0163813
0.0163452
0.0163035
0.0162563
0.0162037
0.0161459
0.0160825
0.0158248
0.0158587
0.0158867
0.0159099
0.0159282
0.0159414
0.0159496
0.0159527
0.0159507
0.0159436
0.0159314
0.0159141
0.0158917
0.0158643
0.0158319
0.0157946
0.0157523
0.0157052
0.0156533
0.0155964
0.0154278
0.0154587
0.0154844
0.0155056
0.0155223
0.0155343
0.0155417
0.0155444
0.0155425
0.0155359
0.0155246
0.0155088
0.0154883
0.0154633
0.0154336
0.0153995
0.0153609
0.0153178
0.0152704
0.0152185
0.015142
0.015171
0.0151952
0.015215
0.0152306
0.0152418
0.0152486
0.0152511
0.0152492
0.015243
0.0152324
0.0152175
0.0151983
0.0151747
0.015147
0.015115
0.0150787
0.0150384
0.014994
0.0149453
0.0149622
0.0149887
0.0150109
0.0150292
0.0150434
0.0150536
0.0150597
0.0150616
0.0150595
0.0150533
0.015043
0.0150286
0.0150101
0.0149876
0.0149611
0.0149305
0.014896
0.0148575
0.0148152
0.0147691
0.0148876
0.0149132
0.0149346
0.0149521
0.0149657
0.0149754
0.0149811
0.0149829
0.0149806
0.0149743
0.014964
0.0149497
0.0149314
0.0149091
0.0148829
0.0148526
0.0148185
0.0147805
0.0147386
0.0146927
0.0065896
0.00684875
0.00709533
0.00734152
0.00758808
0.00783857
0.00809766
0.00837529
0.00868638
0.00905152
0.0094985
0.0100629
0.0107884
0.0117321
0.0129737
0.0146065
0.0166553
0.0189883
0.0216921
0.0263962
0.00985978
0.0103784
0.0109555
0.0116019
0.0123224
0.0131248
0.014019
0.0150166
0.0161308
0.0173769
0.0187718
0.0203336
0.0220819
0.0240383
0.0262241
0.0286542
0.0313308
0.0342553
0.0374491
0.0408986
0.0103775
0.0108419
0.0113631
0.0119462
0.0125982
0.0133273
0.0141428
0.0150554
0.0160771
0.0172211
0.018501
0.0199308
0.0215237
0.0232904
0.0252365
0.0273596
0.0296477
0.0320784
0.0346052
0.037132
0.0115774
0.0121364
0.0127465
0.0134131
0.0141419
0.0149392
0.0158114
0.0167652
0.0178074
0.0189444
0.0201819
0.0215241
0.0229728
0.024526
0.0261762
0.0279093
0.0297038
0.0315263
0.0333302
0.035081
0.0110031
0.0115354
0.0121145
0.012746
0.0134345
0.0141852
0.0150031
0.0158932
0.01686
0.0179071
0.0190361
0.0202471
0.0215372
0.0228998
0.0243233
0.0257909
0.0272796
0.0287582
0.0301848
0.0315147
0.0110675
0.0116095
0.0121891
0.0128112
0.0134797
0.0141987
0.0149717
0.0158019
0.0166913
0.0176408
0.0186495
0.019715
0.020832
0.0219918
0.0231823
0.0243874
0.0255863
0.0267521
0.0278517
0.0288655
0.0104207
0.0109538
0.01152
0.0121238
0.0127679
0.0134551
0.0141877
0.0149674
0.0157948
0.0166693
0.0175887
0.018549
0.0195436
0.0205632
0.0215954
0.0226247
0.0236321
0.0245947
0.0254846
0.0262778
0.010065
0.0105905
0.0111434
0.0117277
0.0123453
0.0129981
0.0136874
0.0144138
0.0151771
0.0159757
0.0168067
0.0176654
0.0185449
0.0194362
0.0203277
0.0212053
0.0220528
0.0228505
0.0235751
0.0242124
0.00945644
0.00998014
0.0105268
0.0111003
0.0117015
0.0123318
0.0129917
0.0136812
0.0143992
0.0151435
0.0159109
0.0166961
0.0174923
0.0182907
0.0190804
0.0198486
0.0205807
0.0212599
0.0218666
0.022386
0.00896773
0.00948697
0.0100259
0.0105876
0.0111723
0.0117807
0.0124128
0.0130679
0.0137447
0.0144405
0.0151518
0.0158733
0.0165983
0.0173186
0.0180241
0.0187032
0.0193433
0.01993
0.0204463
0.0208817
0.00839388
0.00891724
0.0094565
0.0100146
0.0105915
0.0111877
0.0118027
0.0124356
0.0130843
0.0137461
0.014417
0.0150919
0.0157643
0.0164263
0.0170688
0.0176813
0.0182523
0.0187695
0.0192182
0.0195885
0.00786934
0.00839566
0.00893565
0.00949197
0.0100642
0.010652
0.0112544
0.0118701
0.0124967
0.0131313
0.01377
0.0144077
0.0150383
0.0156544
0.0162475
0.016808
0.0173258
0.0177899
0.0181877
0.0185109
0.00731496
0.00785166
0.00839952
0.00896078
0.00953474
0.0101206
0.0107173
0.0113233
0.0119366
0.0125539
0.0131714
0.0137841
0.0143859
0.0149696
0.0155274
0.0160502
0.0165289
0.0169535
0.017313
0.0175998
0.00678067
0.00732867
0.00788551
0.00845265
0.00903014
0.00961732
0.0102135
0.0108168
0.0114246
0.0120335
0.0126392
0.0132366
0.0138195
0.0143812
0.0149139
0.0154094
0.0158591
0.0162544
0.0165854
0.0168457
0.00623532
0.00679731
0.00736583
0.0079438
0.00853265
0.00913045
0.00973544
0.0103448
0.0109555
0.0115637
0.0121651
0.0127547
0.0133266
0.0138741
0.0143901
0.0148668
0.0152965
0.0156711
0.0159819
0.0162233
0.0056942
0.00627236
0.00686143
0.00745963
0.00806645
0.00867822
0.00929332
0.00990953
0.0105243
0.0111341
0.011735
0.012322
0.0128892
0.0134304
0.0139385
0.0144063
0.0148262
0.0151904
0.0154907
0.0157218
0.0051499
0.00575389
0.00636388
0.006974
0.00758849
0.00820688
0.00882908
0.00945329
0.0100767
0.0106955
0.0113053
0.0119009
0.0124763
0.0130249
0.0135396
0.0140126
0.014436
0.0148018
0.0151017
0.0153302
0.00461841
0.00521481
0.00581524
0.00642373
0.00704637
0.00768051
0.00832295
0.00896996
0.00961748
0.010261
0.0108955
0.0115152
0.0121136
0.0126834
0.0132168
0.0137054
0.0141409
0.0145147
0.0148189
0.0150478
0.00408281
0.00467363
0.00530033
0.00594828
0.00661023
0.00728102
0.00795717
0.00863549
0.00931228
0.0099831
0.0106427
0.0112848
0.0119025
0.0124881
0.0130335
0.0135302
0.0139699
0.0143448
0.0146478
0.0148735
0.00362585
0.00439789
0.00511137
0.00580547
0.00649464
0.007184
0.00787424
0.00856383
0.00924975
0.00992775
0.0105925
0.0112379
0.0118567
0.0124414
0.0129839
0.0134762
0.0139105
0.0142796
0.0145774
0.0147995
0.0115512
0.0132987
0.0143718
0.0149501
0.0152062
0.0152652
0.0152118
0.0150924
0.0149564
0.0148191
0.0146926
0.0145834
0.0144921
0.0144204
0.0143668
0.0143298
0.0143081
0.0142999
0.0143039
0.0143325
0.0128707
0.0137769
0.014329
0.014609
0.0147174
0.0147187
0.0146614
0.014579
0.0144929
0.0144156
0.0143463
0.0142972
0.0142614
0.0142362
0.01422
0.0142108
0.0142074
0.0142092
0.0142153
0.0142382
0.0125047
0.0132001
0.0136667
0.0139629
0.014131
0.0142088
0.0142274
0.0142114
0.0141784
0.0141401
0.0141031
0.0140715
0.0140462
0.0140268
0.0140133
0.0140033
0.0139978
0.013996
0.0139957
0.0140043
0.0120452
0.0126759
0.0131424
0.0134703
0.0136865
0.0138167
0.0138845
0.0139099
0.0139086
0.0138924
0.0138694
0.0138446
0.0138212
0.0138004
0.0137828
0.0137684
0.0137571
0.0137486
0.013743
0.0137406
0.0115431
0.0121351
0.0126015
0.0129561
0.0132139
0.013391
0.0135037
0.0135675
0.0135961
0.0136006
0.0135901
0.013571
0.013548
0.0135242
0.0135015
0.0134811
0.0134637
0.0134496
0.0134395
0.0134319
0.0110593
0.0116167
0.012077
0.0124447
0.0127275
0.0129344
0.0130768
0.0131666
0.0132158
0.013235
0.0132334
0.0132186
0.0131962
0.0131704
0.0131442
0.0131195
0.0130976
0.0130794
0.0130657
0.0130539
0.0105628
0.0110758
0.0115142
0.0118778
0.0121692
0.0123928
0.0125553
0.0126653
0.0127323
0.0127656
0.012774
0.0127652
0.0127455
0.0127198
0.012692
0.0126645
0.0126392
0.0126174
0.0126003
0.0125836
0.0100489
0.0105113
0.0109172
0.0112635
0.0115499
0.0117773
0.0119491
0.0120711
0.0121501
0.0121939
0.0122105
0.0122071
0.0121902
0.0121652
0.0121363
0.0121066
0.0120783
0.0120532
0.0120327
0.0120109
0.00949032
0.0098977
0.0102626
0.0105809
0.0108507
0.0110709
0.0112427
0.0113692
0.0114552
0.0115067
0.0115301
0.0115321
0.0115188
0.0114955
0.0114667
0.0114357
0.0114052
0.0113772
0.0113534
0.0113265
0.00887415
0.00922494
0.00954315
0.00982542
0.010069
0.0102719
0.0104338
0.0105562
0.0106419
0.0106953
0.0107215
0.0107262
0.0107149
0.0106925
0.0106635
0.0106314
0.010599
0.0105687
0.0105422
0.0105104
0.00818737
0.00848417
0.00875521
0.00899929
0.00921296
0.00939339
0.00954017
0.00965342
0.00973478
0.00978715
0.00981437
0.00982089
0.00981136
0.00979028
0.00976173
0.00972916
0.00969529
0.00966277
0.00963344
0.0095973
0.00740493
0.0076358
0.00785643
0.00803888
0.00821616
0.00836508
0.00848701
0.00858142
0.00864875
0.00869148
0.0087123
0.00871472
0.00870257
0.00867972
0.0086498
0.00861597
0.0085808
0.00854703
0.00851621
0.00847682
0.00659688
0.00678125
0.00695334
0.00710978
0.00725021
0.00737538
0.00746346
0.00754807
0.00760604
0.00764311
0.00766117
0.00766223
0.00764969
0.00762669
0.00759632
0.00756141
0.00752435
0.00748782
0.00745375
0.00741003
0.00549567
0.00560187
0.00570317
0.00579509
0.00587509
0.00594171
0.00599371
0.00603216
0.00606116
0.00605884
0.00606136
0.00604693
0.00602285
0.00599191
0.0059563
0.00591825
0.00587962
0.00584299
0.0058091
0.00576405
0.00473754
0.00483621
0.00492543
0.0050072
0.00507907
0.00513957
0.00518779
0.00522294
0.00524482
0.00525527
0.00524532
0.00523087
0.00520721
0.00517478
0.00513646
0.00509436
0.00505023
0.0050065
0.0049662
0.00491398
0.00280126
0.00274581
0.00270098
0.00265538
0.0026065
0.00255528
0.00250231
0.00244781
0.00239208
0.00233554
0.00227834
0.00222103
0.00216414
0.00210843
0.00205469
0.00200441
0.0019538
0.00191189
0.00187375
0.00182152
0.00325865
0.00328415
0.00329003
0.00329246
0.0032893
0.00327879
0.00326094
0.00323589
0.00320464
0.00316867
0.00310865
0.00306326
0.00300627
0.00294419
0.00287894
0.00281165
0.00274372
0.00267768
0.00261963
0.00254562
-0.00183371
-0.00213687
-0.00241511
-0.00269594
-0.00298006
-0.00326198
-0.00353768
-0.00380399
-0.0040578
-0.00429614
-0.00451636
-0.00471628
-0.00489508
-0.00505297
-0.00519081
-0.00531015
-0.00541243
-0.00549716
-0.00556448
-0.00564824
0.00477207
0.00470535
0.00460086
0.00448812
0.00436548
0.004231
0.00408565
0.00393034
0.00376513
0.00359057
0.0034076
0.0032173
0.0030209
0.00281968
0.00261491
0.00240793
0.00220116
0.00199684
0.00178261
0.00152518
-0.00756385
-0.0084514
-0.00937191
-0.0103794
-0.0114768
-0.0125975
-0.0138599
-0.015203
-0.0166281
-0.0181385
-0.0197293
-0.0213904
-0.023108
-0.0248641
-0.0266351
-0.0283889
-0.030085
-0.031701
-0.0332851
-0.0348052
0.000189876
0.000589121
0.000988523
0.00138766
0.00178637
0.00218345
0.00257761
0.00296733
0.00335054
0.00372401
0.00408368
0.00442594
0.00474784
0.00504269
0.00529737
0.0055535
0.00584229
0.00596511
0.00568749
0.00585805
0.000191409
0.000590257
0.000991243
0.00139287
0.00179545
0.00219841
0.00260104
0.00300256
0.00340165
0.00379617
0.00418405
0.00456389
0.00493013
0.00526773
0.00557875
0.0059217
0.00631034
0.00660068
0.00704429
0.00866345
0.000195098
0.000599662
0.00100732
0.00141685
0.001829
0.002244
0.0026621
0.00308365
0.00350899
0.00393928
0.00437821
0.00483055
0.00529493
0.00576683
0.00626432
0.00680527
0.00729977
0.00765567
0.00823669
0.00954278
0.00019653
0.000602455
0.00101186
0.00142361
0.00183858
0.00225721
0.00267978
0.00310636
0.00353679
0.00397153
0.00441219
0.00485908
0.00531044
0.00577727
0.00629823
0.00689547
0.00751842
0.00818012
0.00916384
0.0106148
0.000198084
0.000605853
0.00101734
0.00143174
0.00185031
0.00227402
0.0027039
0.00314123
0.00358797
0.00404717
0.00452148
0.00500947
0.00550761
0.00602162
0.00656392
0.0071199
0.00765769
0.00824751
0.00909937
0.0102212
0.000197498
0.00060282
0.00101185
0.0014237
0.00183945
0.00225979
0.00268519
0.00311616
0.0035538
0.00400009
0.0044572
0.0049275
0.00541843
0.00594656
0.00652337
0.00713312
0.00775899
0.00845512
0.00932401
0.0103296
0.000196376
0.000598252
0.00100384
0.0014125
0.00182561
0.00224432
0.00266981
0.0031034
0.00354654
0.00400009
0.0044633
0.00493494
0.00541757
0.00591831
0.00643928
0.0069735
0.00753073
0.00816567
0.00892988
0.00976694
0.000193299
0.000587814
0.000985693
0.00138607
0.00178989
0.00219792
0.00261089
0.0030299
0.00345658
0.00389286
0.00434093
0.0048042
0.00528815
0.00579693
0.00632685
0.00687
0.0074343
0.00805264
0.00874539
0.00946994
0.000189454
0.000575279
0.000964405
0.00135619
0.00175175
0.002152
0.00255772
0.00296954
0.00338782
0.00381251
0.00424365
0.00468264
0.00513277
0.00559702
0.00607547
0.00656899
0.00708869
0.00765504
0.00827273
0.00890578
0.000183736
0.000557023
0.00093308
0.00131104
0.00169171
0.00207591
0.00246451
0.00285861
0.00325941
0.00366816
0.00408616
0.00451489
0.00495557
0.00540788
0.00587007
0.00634235
0.00683178
0.0073506
0.00790128
0.00845786
0.000177406
0.00053727
0.000899747
0.00126408
0.00163094
0.0020009
0.00237435
0.00275158
0.00313283
0.0035185
0.00390938
0.00430682
0.00471238
0.00512718
0.00555173
0.0059871
0.00643709
0.00690885
0.00740527
0.00790641
0.00016924
0.000511859
0.000856678
0.00120286
0.00155102
0.00190181
0.00225588
0.00261387
0.00297637
0.00334388
0.00371682
0.00409548
0.00448008
0.00487071
0.00526753
0.00567091
0.00608274
0.00650878
0.00695454
0.00740433
0.00016071
0.000485684
0.000812525
0.00114036
0.00146952
0.00180037
0.00213316
0.00246816
0.00280571
0.00314627
0.00349043
0.00383881
0.004192
0.00455059
0.00491488
0.00528461
0.00565987
0.00604528
0.00644895
0.00685918
0.000150664
0.000454891
0.000760779
0.00106751
0.0013754
0.00168484
0.00199612
0.00230952
0.00262523
0.00294343
0.00326426
0.00358784
0.00391437
0.00424424
0.00457775
0.00491433
0.0052534
0.00559936
0.00596253
0.00633394
0.000140251
0.000423189
0.000707428
0.000992066
0.00127723
0.00156313
0.00184992
0.00213781
0.00242699
0.00271774
0.00301031
0.0033049
0.00360178
0.00390135
0.00420381
0.00450824
0.00481329
0.00512309
0.00545021
0.0057891
0.000128982
0.000388992
0.000650176
0.000911704
0.00117365
0.00143618
0.00169938
0.0019633
0.00222799
0.00249351
0.0027599
0.00302725
0.00329571
0.00356565
0.00383725
0.00410953
0.00438103
0.00465594
0.0049477
0.00525208
0.00011714
0.000353102
0.000590012
0.000827029
0.00106413
0.0013014
0.00153888
0.00177662
0.00201465
0.00225303
0.00249178
0.00273095
0.00297061
0.00321103
0.00345237
0.0036937
0.00393338
0.00417476
0.00443131
0.00470282
0.000105158
0.000316924
0.000529552
0.000742242
0.000954916
0.00116761
0.0013803
0.00159294
0.00180548
0.00201787
0.00223006
0.00244197
0.00265364
0.00286527
0.00307702
0.00328788
0.00349587
0.00370389
0.00392645
0.00416738
9.35211e-05
0.000281528
0.000470125
0.0006588
0.000847503
0.00103627
0.00122508
0.00141389
0.00160265
0.00179127
0.00197963
0.00216759
0.00235505
0.00254196
0.00272808
0.00291231
0.00309353
0.00327488
0.00346625
0.00366399
7.61458e-05
0.00023011
0.000385253
0.000540549
0.000695848
0.000851215
0.00100668
0.00116226
0.00131797
0.00147382
0.00162985
0.00178607
0.00194249
0.00209918
0.00225633
0.00241401
0.00257082
0.00272411
0.00287997
0.00306545
0.000616103
0.00111543
0.00147263
0.00184747
0.00222619
0.00260352
0.00298299
0.00336822
0.0037622
0.00416782
0.00458803
0.005026
0.00548528
0.00596985
0.0064832
0.00702762
0.00761102
0.00826719
0.00904514
0.00984675
0.000695923
0.00148978
0.00218016
0.00286839
0.00354084
0.00419367
0.00482855
0.005447
0.00605005
0.00663854
0.00721312
0.00777426
0.00832229
0.00885744
0.00937982
0.00988891
0.0103828
0.0108609
0.0113334
0.0118177
0.000642757
0.00147831
0.00224756
0.00300588
0.00374352
0.00445794
0.00514922
0.00581732
0.006462
0.00708296
0.0076798
0.00825211
0.00879938
0.00932109
0.00981664
0.0102854
0.0107269
0.0111407
0.0115259
0.0118798
0.000504699
0.00129501
0.00204633
0.00278394
0.00350313
0.00420219
0.00488053
0.00553751
0.00617241
0.00678448
0.00737296
0.00793709
0.00847612
0.00898934
0.00947608
0.0099358
0.0103681
0.0107724
0.0111482
0.0114952
0.000413665
0.00112797
0.00182042
0.00250361
0.0031746
0.00383189
0.00447458
0.00510171
0.00571225
0.00630516
0.00687934
0.00743371
0.00796716
0.0084786
0.00896697
0.0094313
0.00987075
0.0102845
0.0106715
0.0110304
0.000354014
0.00100322
0.00163959
0.00226971
0.00289176
0.00350467
0.00410765
0.00469987
0.0052804
0.00584827
0.00640243
0.00694177
0.00746508
0.00797111
0.00845856
0.00892611
0.00937246
0.00979631
0.0101962
0.0105704
0.000314707
0.000909195
0.00149561
0.00207796
0.00265502
0.00322601
0.00379033
0.00434735
0.00489634
0.00543651
0.00596699
0.00648678
0.00699479
0.00748977
0.00797036
0.00843507
0.00888229
0.00931039
0.00971764
0.0101018
0.000284502
0.000832789
0.00137576
0.00191591
0.00245246
0.00298485
0.00351265
0.00403541
0.00455262
0.0050637
0.00556798
0.00606471
0.00655296
0.00703168
0.00749959
0.00795521
0.00839682
0.00882255
0.00923062
0.0096185
0.000258545
0.000764137
0.00126637
0.00176672
0.00226468
0.00275983
0.00325185
0.00374039
0.00422508
0.00470549
0.00518115
0.00565148
0.00611578
0.00657321
0.00702269
0.00746287
0.00789208
0.00830839
0.00871012
0.00909478
0.000234886
0.000699381
0.00116193
0.00162326
0.00208305
0.00254101
0.00299683
0.00345025
0.00390096
0.00434866
0.00479297
0.00523349
0.0056697
0.00610094
0.00652636
0.00694485
0.00735488
0.00775454
0.00814248
0.00851723
0.0002117
0.000634646
0.00105685
0.00147836
0.00189903
0.0023186
0.0027368
0.00315338
0.00356809
0.00398066
0.00439083
0.00479827
0.00520262
0.00560342
0.006
0.0063915
0.00677686
0.00715472
0.00752368
0.0078853
0.000188951
0.00056979
0.000950742
0.00133133
0.00171147
0.00209093
0.00246942
0.00284665
0.00322238
0.00359634
0.00396827
0.0043379
0.00470494
0.00506898
0.00542939
0.00578571
0.00613864
0.00648731
0.00681602
0.00713385
0.000166207
0.000504569
0.000843736
0.00118272
0.00152151
0.00185984
0.00219739
0.00253383
0.00286889
0.00320227
0.00353372
0.00386303
0.00418995
0.00451407
0.00483508
0.00515509
0.00547671
0.00577188
0.00607124
0.00636329
0.000143855
0.000439839
0.000737023
0.00103389
0.00133035
0.00162599
0.00192033
0.00221289
0.00250322
0.00279087
0.00307538
0.00335632
0.00363303
0.00390472
0.00417243
0.00444088
0.00467574
0.00491771
0.00514066
0.00535141
0.000124985
0.000385254
0.000646702
0.000907213
0.00116647
0.0014238
0.00167843
0.00192961
0.00217665
0.00241894
0.00265598
0.00288734
0.00311279
0.00333312
0.00355187
0.00375478
0.00395607
0.00415919
0.00436173
0.00457521
0.000110079
0.000342054
0.000575016
0.000806406
0.00103568
0.00126179
0.00148343
0.0016991
0.00190715
0.00210567
0.00229243
0.00246493
0.00262052
0.0027566
0.00286776
0.00294531
0.00299648
0.00300834
0.00298054
0.00290843
9.77878e-05
0.000307089
0.000517609
0.000725959
0.000931178
0.00113198
0.00132698
0.00151496
0.00169489
0.00186595
0.00202758
0.00217963
0.00232224
0.00245441
0.00257462
0.00268301
0.00280079
0.00291146
0.00302698
0.00314889
0.000106497
0.00033319
0.000559976
0.000781596
0.000995159
0.00119724
0.00138387
0.00155052
0.00169186
0.00180153
0.00187195
0.00189457
0.00185869
0.00174637
0.00157026
0.00127416
0.000875328
0.000339074
-0.000322266
-0.00116588
0.000151745
0.000467169
0.000783998
0.0010993
0.00141198
0.00172067
0.00202391
0.00232022
0.00260827
0.00288733
0.00315702
0.00341725
0.00366505
0.00390273
0.00413499
0.00435256
0.00454584
0.00469494
0.0048518
0.00473233
0.000184149
0.000563609
0.000942408
0.00131797
0.00168815
0.00204977
0.00239883
0.00273031
0.00303767
0.00331172
0.00353979
0.00370447
0.00377413
0.00373972
0.00349204
0.00297677
0.00208006
0.000639687
-0.0015841
-0.00511607
0.00055803
0.000526154
0.000325469
0.000206595
9.99461e-05
-1.08372e-05
-0.000118728
-0.000220288
-0.000314446
-0.000400427
-0.000477621
-0.000545617
-0.000604133
-0.000652933
-0.000691748
-0.000720267
-0.000738263
-0.000746042
-0.000749224
-0.000764051
0.000624417
0.000550671
0.00033057
0.000203751
8.47236e-05
-3.8884e-05
-0.000158302
-0.000270483
-0.000374554
-0.000469782
-0.000555654
-0.000631901
-0.000698406
-0.000755129
-0.00080211
-0.000839514
-0.000867695
-0.000887847
-0.000906035
-0.000934679
0.000670595
0.000578585
0.000337945
0.000198093
6.56116e-05
-7.11621e-05
-0.000202721
-0.000326141
-0.000440666
-0.000545646
-0.000640686
-0.000725644
-0.000800518
-0.00086536
-0.000920261
-0.000965387
-0.00100101
-0.00102766
-0.00104781
-0.0010663
0.000713307
0.00060601
0.000343397
0.000188697
4.20198e-05
-0.000108522
-0.000252878
-0.000388152
-0.000513709
-0.000629016
-0.000733804
-0.000828049
-0.000911834
-0.000985246
-0.00104832
-0.00110102
-0.00114325
-0.00117485
-0.00119565
-0.00120547
0.000754212
0.000631016
0.000345967
0.000175601
1.40763e-05
-0.000150773
-0.000308436
-0.000456061
-0.000593154
-0.000719324
-0.000834438
-0.000938587
-0.00103193
-0.00111454
-0.00118636
-0.00124712
-0.00129635
-0.00133333
-0.00135644
-0.00136339
0.000792488
0.000652524
0.000345124
0.00015859
-1.82843e-05
-0.000197824
-0.000369156
-0.000529519
-0.000678587
-0.00081613
-0.000942167
-0.00105691
-0.00116057
-0.00125323
-0.00133471
-0.00140451
-0.00146178
-0.00150532
-0.00153289
-0.00154145
0.00082746
0.000669763
0.000340393
0.000137442
-5.50748e-05
-0.000249503
-0.000434718
-0.000608103
-0.000769525
-0.000918939
-0.00105653
-0.00118265
-0.00129759
-0.0014014
-0.0014938
-0.00157405
-0.00164096
-0.00169285
-0.0017271
-0.00174074
0.000858359
0.000682013
0.000331406
0.000112054
-9.6166e-05
-0.000305482
-0.000504635
-0.000691212
-0.000865301
-0.00102707
-0.0011769
-0.00131528
-0.0014426
-0.00155893
-0.00166387
-0.00175645
-0.00183509
-0.00189757
-0.001941
-0.00196273
0.000884322
0.000688591
0.000317901
8.24431e-05
-0.000141296
-0.000365285
-0.000578263
-0.000778082
-0.000965079
-0.00113966
-0.00130242
-0.00145405
-0.00159505
-0.00172552
-0.00184498
-0.00195221
-0.0020452
-0.00212103
-0.0021765
-0.00220942
0.000904473
0.000688895
0.000299718
4.87407e-05
-0.000190077
-0.000428304
-0.000654822
-0.000867804
-0.00106786
-0.00125567
-0.00143208
-0.00159801
-0.00175412
-0.0019006
-0.00203692
-0.00216165
-0.00227222
-0.00236486
-0.0024359
-0.00248341
0.000917989
0.000682444
0.000276812
1.11912e-05
-0.000242008
-0.000493818
-0.000733411
-0.000959335
-0.0011725
-0.00137388
-0.00156462
-0.00174593
-0.0019187
-0.00208329
-0.0022392
-0.00238481
-0.00251696
-0.00263081
-0.00272194
-0.00278852
0.000924166
0.000668922
0.000249266
-2.98471e-05
-0.000296475
-0.000560995
-0.000813016
-0.00105151
-0.00127769
-0.00149287
-0.00169856
-0.00189628
-0.0020873
-0.00227225
-0.00245082
-0.00262132
-0.00278002
-0.00292075
-0.00303807
-0.00312997
0.000922471
0.000648211
0.000217283
-7.39229e-05
-0.000352785
-0.000628926
-0.000892533
-0.00114303
-0.00138198
-0.00161103
-0.00183209
-0.00204715
-0.00225792
-0.00246555
-0.00267012
-0.00287014
-0.00306148
-0.00323652
-0.00338858
-0.0035152
0.000912547
0.000620346
0.000181101
-0.000120602
-0.000410285
-0.000696753
-0.000970905
-0.00123264
-0.00148387
-0.00172663
-0.00196326
-0.0021963
-0.00242812
-0.00266059
-0.0028946
-0.00312932
-0.00336066
-0.00357969
-0.00377875
-0.00395517
0.000894178
0.000585492
0.000141003
-0.000169436
-0.000468314
-0.000763602
-0.00104703
-0.001319
-0.00158175
-0.00183772
-0.00208977
-0.00234104
-0.00259474
-0.00285383
-0.00312049
-0.00339536
-0.00367525
-0.00395068
-0.00421463
-0.00446614
0.000867539
0.000544517
9.80831e-05
-0.00021899
-0.000525032
-0.00082722
-0.00111822
-0.00139894
-0.00167195
-0.00194009
-0.00220673
-0.00247574
-0.00275133
-0.00303786
-0.00333951
-0.00365954
-0.00399713