/*--------------------------------*- C++ -*----------------------------------*\
| =========                 |                                                 |
| \\      /  F ield         | OpenFOAM: The Open Source CFD Toolbox           |
|  \\    /   O peration     | Version:  v1806                                 |
|   \\  /    A nd           | Web:      www.OpenFOAM.com                      |
|    \\/     M anipulation  |                                                 |
\*---------------------------------------------------------------------------*/
FoamFile
{
    version     2.0;
    format      ascii;
    class       volVectorField;
    location    "460";
    object      U;
}
// * * * * * * * * * * * * * * * * * * * * * * * * * * * * * * * * * * * * * //

dimensions      [0 1 -1 0 0 0 0];


internalField   nonuniform List<vector> 
5052
(
(0.138069 -0.0900904 -0.0016575)
(0.13803 -0.0900784 -2.43392e-07)
(0.13803 -0.0900784 2.43392e-07)
(0.138069 -0.0900904 0.0016575)
(0.101225 -0.0913993 -0.00156108)
(0.101248 -0.0913775 -9.62629e-09)
(0.101248 -0.0913775 9.62655e-09)
(0.101225 -0.0913993 0.00156108)
(0.0980534 -0.0715391 -0.00173762)
(0.0980125 -0.0715525 -3.28535e-07)
(0.0980125 -0.0715525 3.28535e-07)
(0.0980534 -0.0715391 0.00173762)
(-0.0157738 -0.0144856 0.000231603)
(-0.0157875 -0.0144939 -9.04213e-09)
(-0.0157875 -0.0144939 9.05174e-09)
(-0.0157738 -0.0144856 -0.000231603)
(0.0375945 -0.0275478 0.000229303)
(0.0376153 -0.0275259 6.44807e-08)
(0.0376153 -0.0275259 -6.44714e-08)
(0.0375945 -0.0275478 -0.000229303)
(0.0106819 -0.0148739 0.000226784)
(0.010689 -0.0148439 4.80997e-08)
(0.010689 -0.0148439 -4.80921e-08)
(0.0106819 -0.0148739 -0.000226784)
(0.219227 0.163732 -0.000672784)
(0.219268 0.163747 1.63911e-07)
(0.219268 0.163747 -1.63909e-07)
(0.219227 0.163732 0.000672784)
(0.204106 0.173657 -0.000608465)
(0.204158 0.173661 1.64314e-07)
(0.204158 0.173661 -1.64311e-07)
(0.204106 0.173657 0.000608465)
(0.183497 0.157893 -0.000950801)
(0.183485 0.157968 7.97071e-08)
(0.183485 0.157968 -7.97055e-08)
(0.183497 0.157893 0.000950801)
(0.196445 0.155734 -0.000908239)
(0.196446 0.155747 2.79081e-08)
(0.196446 0.155747 -2.7907e-08)
(0.196445 0.155734 0.000908239)
(0.216819 0.144745 -0.0008388)
(0.216846 0.144779 4.92751e-08)
(0.216846 0.144779 -4.92732e-08)
(0.216819 0.144745 0.0008388)
(-0.0454751 -0.023624 0.000191756)
(-0.0454763 -0.0236315 -3.59811e-08)
(-0.0454763 -0.0236315 3.59748e-08)
(-0.0454751 -0.023624 -0.000191756)
(-0.0502987 -0.0132673 0.000195759)
(-0.0503016 -0.0132611 2.55696e-08)
(-0.0503016 -0.0132611 -2.55772e-08)
(-0.0502987 -0.0132673 -0.000195759)
(0.179446 -0.150043 -0.00105291)
(0.179506 -0.150041 4.85179e-08)
(0.179506 -0.150041 -4.8516e-08)
(0.179446 -0.150043 0.00105291)
(0.147479 -0.141666 -0.00112373)
(0.147515 -0.141714 3.25063e-07)
(0.147515 -0.141714 -3.25061e-07)
(0.147479 -0.141666 0.00112373)
(0.166691 -0.14641 -0.000940586)
(0.166731 -0.14641 1.57937e-07)
(0.166731 -0.14641 -1.57934e-07)
(0.166691 -0.14641 0.000940586)
(-0.0159995 -0.0433424 0.00024114)
(-0.015998 -0.0433475 5.40704e-08)
(-0.015998 -0.0433475 -5.40678e-08)
(-0.0159995 -0.0433424 -0.00024114)
(-0.0180064 -0.0374177 0.000235216)
(-0.0180104 -0.03742 5.42571e-08)
(-0.0180104 -0.03742 -5.42524e-08)
(-0.0180064 -0.0374177 -0.000235216)
(-0.0193758 -0.0416514 0.000223473)
(-0.0193842 -0.0416743 6.91767e-09)
(-0.0193842 -0.0416743 -6.91624e-09)
(-0.0193758 -0.0416514 -0.000223473)
(0.234482 -0.189378 -0.000264097)
(0.234525 -0.189396 3.32971e-08)
(0.234525 -0.189396 -3.32936e-08)
(0.234482 -0.189378 0.000264097)
(0.196413 -0.177157 -0.000296951)
(0.19648 -0.177147 1.10794e-07)
(0.19648 -0.177147 -1.1079e-07)
(0.196413 -0.177157 0.000296951)
(0.203773 -0.180066 -4.07795e-05)
(0.203805 -0.180141 3.32095e-07)
(0.203805 -0.180141 -3.3209e-07)
(0.203773 -0.180066 4.07795e-05)
(-0.0321194 0.0308873 0.000192234)
(-0.0321221 0.0308815 6.03884e-09)
(-0.0321221 0.0308815 -6.04755e-09)
(-0.0321194 0.0308873 -0.000192234)
(-0.0320853 0.0256355 0.00018934)
(-0.0320931 0.0256325 8.72737e-08)
(-0.0320931 0.0256325 -8.72795e-08)
(-0.0320853 0.0256355 -0.00018934)
(-0.028309 0.0361752 0.000202832)
(-0.0283103 0.0361681 4.00715e-08)
(-0.0283103 0.0361681 -4.00807e-08)
(-0.028309 0.0361752 -0.000202832)
(-0.0949489 -0.0289491 0.000312433)
(-0.0949346 -0.0289232 -1.04971e-07)
(-0.0949346 -0.0289232 1.04962e-07)
(-0.0949489 -0.0289491 -0.000312433)
(-0.101689 -0.0246972 0.000316678)
(-0.101668 -0.0246887 6.34829e-08)
(-0.101668 -0.0246887 -6.34916e-08)
(-0.101689 -0.0246972 -0.000316678)
(-0.0862286 -0.0239803 0.000272218)
(-0.0862437 -0.0239827 5.43589e-08)
(-0.0862437 -0.0239827 -5.43657e-08)
(-0.0862286 -0.0239803 -0.000272218)
(-0.0779447 -0.0299606 0.000277246)
(-0.0779468 -0.0299388 1.12187e-07)
(-0.0779468 -0.0299388 -1.12193e-07)
(-0.0779447 -0.0299606 -0.000277246)
(0.212458 -0.181466 -0.000592931)
(0.212426 -0.181438 -6.24803e-08)
(0.212426 -0.181438 6.24831e-08)
(0.212458 -0.181466 0.000592931)
(0.207531 -0.182856 -0.00047625)
(0.20747 -0.182855 -3.91957e-07)
(0.20747 -0.182855 3.9196e-07)
(0.207531 -0.182856 0.00047625)
(0.141612 0.0401435 -0.00178997)
(0.141645 0.0401509 -2.66475e-08)
(0.141645 0.0401509 2.66468e-08)
(0.141612 0.0401435 0.00178997)
(0.113043 0.0809107 -0.0019003)
(0.113053 0.0809468 -2.33268e-08)
(0.113053 0.0809468 2.33258e-08)
(0.113043 0.0809107 0.0019003)
(0.126415 -0.00384063 -0.0018747)
(0.126401 -0.00389774 -2.45738e-07)
(0.126401 -0.00389774 2.45737e-07)
(0.126415 -0.00384063 0.0018747)
(0.0840494 -0.000475923 -0.00202083)
(0.0840533 -0.000521553 1.63351e-08)
(0.0840533 -0.000521553 -1.63356e-08)
(0.0840494 -0.000475923 0.00202083)
(0.193217 -0.00840871 -0.00146861)
(0.193188 -0.0084294 -2.67084e-07)
(0.193188 -0.0084294 2.67083e-07)
(0.193217 -0.00840871 0.00146861)
(0.214611 0.0132018 -0.00128046)
(0.214607 0.0131686 -3.37923e-08)
(0.214607 0.0131686 3.37924e-08)
(0.214611 0.0132018 0.00128046)
(0.212519 -0.0109542 -0.00130395)
(0.212525 -0.0109078 4.46268e-08)
(0.212525 -0.0109078 -4.4627e-08)
(0.212519 -0.0109542 0.00130395)
(0.171128 -0.0301949 -0.00161463)
(0.171192 -0.030175 1.01168e-07)
(0.171192 -0.030175 -1.01169e-07)
(0.171128 -0.0301949 0.00161463)
(0.150618 -0.0428237 -0.00171829)
(0.150667 -0.0428271 2.38386e-07)
(0.150667 -0.0428271 -2.38387e-07)
(0.150618 -0.0428237 0.00171829)
(0.225726 -0.00585344 -0.00119128)
(0.225716 -0.00585066 -2.49351e-07)
(0.225716 -0.00585066 2.49351e-07)
(0.225726 -0.00585344 0.00119128)
(0.235064 0.00288663 -0.00109432)
(0.235031 0.00288459 -1.00338e-07)
(0.235031 0.00288459 1.00339e-07)
(0.235064 0.00288663 0.00109432)
(0.248352 0.00319849 -0.000980753)
(0.248338 0.00320257 -1.36292e-07)
(0.248338 0.00320257 1.36292e-07)
(0.248352 0.00319849 0.000980753)
(0.238773 -0.0133522 -0.001066)
(0.238747 -0.0133294 -2.02789e-07)
(0.238747 -0.0133294 2.02789e-07)
(0.238773 -0.0133522 0.001066)
(0.249062 -0.00322075 -0.000971952)
(0.249044 -0.00322522 -2.04117e-07)
(0.249044 -0.00322522 2.04117e-07)
(0.249062 -0.00322075 0.000971952)
(0.232909 0.00663432 -0.00113201)
(0.232887 0.00664929 -3.07525e-07)
(0.232887 0.00664929 3.07525e-07)
(0.232909 0.00663432 0.00113201)
(0.246356 0.0136009 -0.000989172)
(0.246329 0.0135914 -1.65723e-07)
(0.246329 0.0135914 1.65723e-07)
(0.246356 0.0136009 0.000989172)
(0.194241 0.00803559 -0.0014604)
(0.194206 0.00803725 -3.24537e-07)
(0.194206 0.00803725 3.24537e-07)
(0.194241 0.00803559 0.0014604)
(0.122442 -0.0538879 -0.00180562)
(0.122429 -0.0538812 5.05615e-08)
(0.122429 -0.0538812 -5.05621e-08)
(0.122442 -0.0538879 0.00180562)
(0.166449 -0.0642202 -0.00159707)
(0.16642 -0.0642113 -2.02604e-07)
(0.16642 -0.0642113 2.02604e-07)
(0.166449 -0.0642202 0.00159707)
(0.179161 -0.0514856 -0.00151827)
(0.17917 -0.0514733 8.15913e-09)
(0.17917 -0.0514733 -8.15875e-09)
(0.179161 -0.0514856 0.00151827)
(0.199412 -0.0338868 -0.00139379)
(0.19942 -0.033888 -8.16319e-08)
(0.19942 -0.033888 8.16323e-08)
(0.199412 -0.0338868 0.00139379)
(0.215149 -0.0272985 -0.00126375)
(0.215131 -0.0272802 -2.08219e-07)
(0.215131 -0.0272802 2.0822e-07)
(0.215149 -0.0272985 0.00126375)
(0.229265 -0.0227578 -0.00114658)
(0.229257 -0.0227936 -9.37193e-08)
(0.229257 -0.0227936 9.37194e-08)
(0.229265 -0.0227578 0.00114658)
(0.240437 -0.0203059 -0.00104366)
(0.24041 -0.0203121 -2.64225e-07)
(0.24041 -0.0203121 2.64225e-07)
(0.240437 -0.0203059 0.00104366)
(0.250503 -0.0158876 -0.000945238)
(0.250489 -0.0159129 -5.49702e-08)
(0.250489 -0.0159129 5.49704e-08)
(0.250503 -0.0158876 0.000945238)
(0.259574 -0.0155176 -0.000858359)
(0.259554 -0.015522 -2.42268e-07)
(0.259554 -0.015522 2.42268e-07)
(0.259574 -0.0155176 0.000858359)
(0.257782 -0.0105148 -0.000880358)
(0.257756 -0.0104883 -1.86182e-07)
(0.257756 -0.0104883 1.86182e-07)
(0.257782 -0.0105148 0.000880358)
(0.25742 0.000569341 -0.000883743)
(0.257415 0.000569184 -4.02234e-09)
(0.257415 0.000569184 4.02244e-09)
(0.25742 0.000569341 0.000883743)
(0.257613 0.00825144 -0.000882243)
(0.257602 0.0082457 -1.51208e-07)
(0.257602 0.0082457 1.51208e-07)
(0.257613 0.00825144 0.000882243)
(0.168643 0.0275368 -0.00162751)
(0.168693 0.0274911 -3.02519e-09)
(0.168693 0.0274911 3.02464e-09)
(0.168643 0.0275368 0.00162751)
(0.168934 -0.104255 -0.0014484)
(0.168885 -0.104267 -6.34427e-08)
(0.168885 -0.104267 6.34424e-08)
(0.168934 -0.104255 0.0014484)
(0.181596 -0.0806035 -0.0014247)
(0.181634 -0.0806181 1.25532e-07)
(0.181634 -0.0806181 -1.25533e-07)
(0.181596 -0.0806035 0.0014247)
(0.192352 -0.0669367 -0.00137865)
(0.192386 -0.0669236 -1.90812e-08)
(0.192386 -0.0669236 1.90813e-08)
(0.192352 -0.0669367 0.00137865)
(0.208455 -0.0498666 -0.00128757)
(0.208448 -0.0498891 -1.79951e-07)
(0.208448 -0.0498891 1.79952e-07)
(0.208455 -0.0498666 0.00128757)
(0.221668 -0.0417905 -0.00118078)
(0.221648 -0.0418138 -1.98306e-07)
(0.221648 -0.0418138 1.98306e-07)
(0.221668 -0.0417905 0.00118078)
(0.234276 -0.034562 -0.00108094)
(0.234262 -0.0345888 -1.58785e-07)
(0.234262 -0.0345888 1.58785e-07)
(0.234276 -0.034562 0.00108094)
(0.244088 -0.0300413 -0.000988756)
(0.244072 -0.030068 -1.47201e-07)
(0.244072 -0.030068 1.47201e-07)
(0.244088 -0.0300413 0.000988756)
(0.253731 -0.0251883 -0.000899688)
(0.253723 -0.0251935 -9.35433e-08)
(0.253723 -0.0251935 9.35435e-08)
(0.253731 -0.0251883 0.000899688)
(0.261498 -0.0218961 -0.00082236)
(0.261484 -0.0219163 -1.3379e-07)
(0.261484 -0.0219163 1.3379e-07)
(0.261498 -0.0218961 0.00082236)
(0.268866 -0.0188542 -0.000744786)
(0.268851 -0.0188502 -8.77732e-08)
(0.268851 -0.0188502 8.77733e-08)
(0.268866 -0.0188542 0.000744786)
(0.267243 -0.0116224 -0.000774013)
(0.267221 -0.0116374 -7.43067e-08)
(0.267221 -0.0116374 7.43068e-08)
(0.267243 -0.0116224 0.000774013)
(0.266347 -0.00344461 -0.000794945)
(0.266328 -0.0034674 -1.53532e-07)
(0.266328 -0.0034674 1.53532e-07)
(0.266347 -0.00344461 0.000794945)
(0.265973 0.00221366 -0.000801041)
(0.265961 0.00221014 -1.53734e-07)
(0.265961 0.00221014 1.53734e-07)
(0.265973 0.00221366 0.000801041)
(0.26577 0.00960502 -0.000793966)
(0.265746 0.00961038 -1.69134e-07)
(0.265746 0.00961038 1.69134e-07)
(0.26577 0.00960502 0.000793966)
(0.266403 0.0161203 -0.000774707)
(0.266384 0.0161273 -1.52397e-07)
(0.266384 0.0161273 1.52397e-07)
(0.266403 0.0161203 0.000774707)
(0.258554 0.017008 -0.000863038)
(0.258543 0.0170192 -1.0507e-07)
(0.258543 0.0170192 1.0507e-07)
(0.258554 0.017008 0.000863038)
(0.247336 0.0213538 -0.000964539)
(0.247327 0.0213482 -1.20074e-07)
(0.247327 0.0213482 1.20073e-07)
(0.247336 0.0213538 0.000964539)
(0.237672 0.02233 -0.00107348)
(0.237667 0.022368 -7.08559e-08)
(0.237667 0.022368 7.08557e-08)
(0.237672 0.02233 0.00107348)
(0.219831 0.0285506 -0.00120205)
(0.219807 0.0285413 -1.86418e-07)
(0.219807 0.0285413 1.86418e-07)
(0.219831 0.0285506 0.00120205)
(0.207621 0.0321701 -0.00133623)
(0.207585 0.0321889 -3.08225e-07)
(0.207585 0.0321889 3.08224e-07)
(0.207621 0.0321701 0.00133623)
(0.177124 0.0526305 -0.00148292)
(0.177108 0.0526422 -2.56354e-07)
(0.177108 0.0526422 2.56354e-07)
(0.177124 0.0526305 0.00148292)
(0.171615 0.0681889 -0.00157797)
(0.171701 0.0682236 1.59557e-08)
(0.171701 0.0682236 -1.59567e-08)
(0.171615 0.0681889 0.00157797)
(0.200863 0.0618359 -0.001294)
(0.200869 0.0618548 -3.13248e-08)
(0.200869 0.0618548 3.13242e-08)
(0.200863 0.0618359 0.001294)
(0.195351 0.0781013 -0.00130551)
(0.195359 0.0781181 1.36398e-09)
(0.195359 0.0781181 -1.36492e-09)
(0.195351 0.0781013 0.00130551)
(0.216767 0.048645 -0.00122065)
(0.216771 0.048644 -1.16232e-07)
(0.216771 0.048644 1.16232e-07)
(0.216767 0.048645 0.00122065)
(0.226799 0.0422527 -0.00111642)
(0.226794 0.0422431 -1.29092e-07)
(0.226794 0.0422431 1.29092e-07)
(0.226799 0.0422527 0.00111642)
(0.241562 0.0344778 -0.00101291)
(0.241553 0.0344743 -1.50225e-07)
(0.241553 0.0344743 1.50224e-07)
(0.241562 0.0344778 0.00101291)
(0.250115 0.0307932 -0.000913498)
(0.250106 0.0307892 -1.08718e-07)
(0.250106 0.0307892 1.08717e-07)
(0.250115 0.0307932 0.000913498)
(0.260707 0.0254191 -0.000824209)
(0.260693 0.0254202 -1.47904e-07)
(0.260693 0.0254202 1.47903e-07)
(0.260707 0.0254191 0.000824209)
(0.267754 0.0225432 -0.000741434)
(0.267733 0.0225505 -1.39135e-07)
(0.267733 0.0225505 1.39135e-07)
(0.267754 0.0225432 0.000741434)
(0.155482 -0.118825 -0.00139916)
(0.155465 -0.118776 -2.89234e-07)
(0.155465 -0.118776 2.89234e-07)
(0.155482 -0.118825 0.00139916)
(0.157507 -0.133373 -0.00128262)
(0.157545 -0.133416 4.98893e-08)
(0.157545 -0.133416 -4.98886e-08)
(0.157507 -0.133373 0.00128262)
(0.182159 -0.14018 -0.00115517)
(0.182206 -0.140196 9.112e-08)
(0.182206 -0.140196 -9.11187e-08)
(0.182159 -0.14018 0.00115517)
(0.182809 -0.12553 -0.00122192)
(0.182815 -0.125505 -2.70497e-07)
(0.182815 -0.125505 2.70498e-07)
(0.182809 -0.12553 0.00122192)
(0.190348 -0.110178 -0.00125623)
(0.190283 -0.110151 -4.02364e-07)
(0.190283 -0.110151 4.02365e-07)
(0.190348 -0.110178 0.00125623)
(0.197102 -0.0917323 -0.00125245)
(0.197113 -0.0917147 -5.14446e-08)
(0.197113 -0.0917147 5.14446e-08)
(0.197102 -0.0917323 0.00125245)
(0.206838 -0.0775072 -0.00122748)
(0.206854 -0.0775189 -7.56021e-08)
(0.206854 -0.0775189 7.56022e-08)
(0.206838 -0.0775072 0.00122748)
(0.218434 -0.0621282 -0.00116322)
(0.218422 -0.0621659 -1.0578e-07)
(0.218422 -0.0621659 1.0578e-07)
(0.218434 -0.0621282 0.00116322)
(0.229409 -0.0532719 -0.00108319)
(0.229399 -0.0533034 -1.18562e-07)
(0.229399 -0.0533034 1.18562e-07)
(0.229409 -0.0532719 0.00108319)
(0.239927 -0.0449177 -0.00100017)
(0.23992 -0.0449501 -7.25901e-08)
(0.23992 -0.0449501 7.25904e-08)
(0.239927 -0.0449177 0.00100017)
(0.24864 -0.0390707 -0.000921318)
(0.248639 -0.0390813 -5.98987e-08)
(0.248639 -0.0390813 5.98989e-08)
(0.24864 -0.0390707 0.000921317)
(0.256981 -0.0332652 -0.000845528)
(0.256979 -0.0332653 -6.97373e-08)
(0.256979 -0.0332653 6.97375e-08)
(0.256981 -0.0332652 0.000845528)
(0.264049 -0.0292278 -0.000774271)
(0.264038 -0.0292317 -1.16329e-07)
(0.264038 -0.0292317 1.16329e-07)
(0.264049 -0.0292278 0.000774271)
(0.27098 -0.0246782 -0.00070485)
(0.270964 -0.0246762 -1.11571e-07)
(0.270964 -0.0246762 1.11571e-07)
(0.27098 -0.0246782 0.00070485)
(0.276742 -0.0216985 -0.000641718)
(0.276726 -0.0217071 -1.06047e-07)
(0.276726 -0.0217071 1.06048e-07)
(0.276742 -0.0216985 0.000641718)
(0.275265 -0.016374 -0.000677596)
(0.27525 -0.016388 -1.14634e-07)
(0.27525 -0.016388 1.14634e-07)
(0.275265 -0.016374 0.000677596)
(0.27405 -0.0112237 -0.00070511)
(0.274037 -0.0112237 -1.59908e-07)
(0.274037 -0.0112237 1.59908e-07)
(0.27405 -0.0112237 0.00070511)
(0.273014 -0.00606551 -0.000721025)
(0.272996 -0.0060501 -1.21155e-07)
(0.272996 -0.0060501 1.21155e-07)
(0.273014 -0.00606551 0.000721025)
(0.272704 0.000900077 -0.000724718)
(0.272685 0.000902194 -8.47722e-08)
(0.272685 0.000902194 8.47722e-08)
(0.272704 0.000900077 0.000724718)
(0.273104 0.0069695 -0.000717764)
(0.273085 0.00696953 -1.31044e-07)
(0.273085 0.00696953 1.31044e-07)
(0.273104 0.0069695 0.000717764)
(0.273857 0.0133223 -0.000698873)
(0.273839 0.0133291 -1.0671e-07)
(0.273839 0.0133291 1.06709e-07)
(0.273857 0.0133223 0.000698873)
(0.27502 0.0195189 -0.000669768)
(0.275003 0.0195219 -1.12591e-07)
(0.275003 0.0195219 1.12591e-07)
(0.27502 0.0195189 0.000669768)
(0.207528 0.0826882 -0.00118619)
(0.207544 0.0826777 -1.38315e-07)
(0.207544 0.0826777 1.38315e-07)
(0.207528 0.0826882 0.00118619)
(-0.0346476 0.0175595 0.000167643)
(-0.0346542 0.0175775 -1.30385e-08)
(-0.0346542 0.0175775 1.30299e-08)
(-0.0346476 0.0175595 -0.000167643)
(-0.0230042 0.011637 0.000145283)
(-0.0230057 0.0116365 -3.86112e-08)
(-0.0230057 0.0116365 3.86037e-08)
(-0.0230042 0.011637 -0.000145283)
(-0.043661 0.0019277 0.00017981)
(-0.0436604 0.00192819 -1.55321e-08)
(-0.0436604 0.00192819 1.55238e-08)
(-0.043661 0.0019277 -0.00017981)
(-0.040275 -0.00649598 0.000181011)
(-0.0402858 -0.00648249 3.24189e-08)
(-0.0402858 -0.00648249 -3.24261e-08)
(-0.040275 -0.00649598 -0.000181011)
(-0.0276333 0.000663535 0.000170987)
(-0.0276267 0.000657528 7.15739e-08)
(-0.0276267 0.000657528 -7.15772e-08)
(-0.0276333 0.000663535 -0.000170987)
(-0.0521924 -0.00275425 0.000194215)
(-0.0521935 -0.0027596 1.4835e-08)
(-0.0521935 -0.0027596 -1.48444e-08)
(-0.0521924 -0.00275425 -0.000194215)
(-0.0587782 -0.0192862 0.000215745)
(-0.0587787 -0.0192917 2.58998e-08)
(-0.0587787 -0.0192917 -2.59075e-08)
(-0.0587782 -0.0192862 -0.000215745)
(-0.0618259 -0.00877264 0.000212401)
(-0.0618351 -0.00878299 -5.46618e-10)
(-0.0618351 -0.00878299 5.38091e-10)
(-0.0618259 -0.00877264 -0.000212401)
(-0.0679119 -0.0244934 0.00024061)
(-0.0679013 -0.0244994 1.86842e-08)
(-0.0679013 -0.0244994 -1.86908e-08)
(-0.0679119 -0.0244934 -0.00024061)
(-0.0727728 -0.0155842 0.000236265)
(-0.0727694 -0.0156 -2.79502e-08)
(-0.0727694 -0.0156 2.79423e-08)
(-0.0727728 -0.0155842 -0.000236265)
(-0.0421173 0.0168017 0.000188729)
(-0.0421182 0.0168056 4.46111e-08)
(-0.0421182 0.0168056 -4.46186e-08)
(-0.0421173 0.0168017 -0.000188729)
(-0.0232018 0.0218863 0.000174203)
(-0.0231983 0.0218959 6.30369e-08)
(-0.0231983 0.0218959 -6.3046e-08)
(-0.0232018 0.0218863 -0.000174203)
(-0.0329491 -0.0186165 0.000162346)
(-0.0329473 -0.0186238 -6.90786e-08)
(-0.0329473 -0.0186238 6.90752e-08)
(-0.0329491 -0.0186165 -0.000162346)
(-0.0535273 -0.0299879 0.000218369)
(-0.053535 -0.0299933 -2.26806e-09)
(-0.053535 -0.0299933 2.26267e-09)
(-0.0535273 -0.0299879 -0.000218369)
(-0.0621872 -0.0331998 0.000242181)
(-0.0621944 -0.033201 -4.52667e-08)
(-0.0621944 -0.033201 4.52615e-08)
(-0.0621872 -0.0331998 -0.000242181)
(-0.0698969 -0.033592 0.0002664)
(-0.0698806 -0.0335828 -7.89762e-08)
(-0.0698806 -0.0335828 7.89709e-08)
(-0.0698969 -0.033592 -0.0002664)
(-0.0758544 -0.0354879 0.000298425)
(-0.0758575 -0.0354967 4.31825e-09)
(-0.0758575 -0.0354967 -4.32463e-09)
(-0.0758544 -0.0354879 -0.000298425)
(-0.085031 -0.0314986 0.000321676)
(-0.0850231 -0.031524 -2.25966e-08)
(-0.0850231 -0.031524 2.25887e-08)
(-0.085031 -0.0314986 -0.000321676)
(0.225664 0.0590242 -0.00110418)
(0.225644 0.0590436 -2.02981e-07)
(0.225644 0.0590436 2.02981e-07)
(0.225664 0.0590242 0.00110418)
(0.234058 0.0551018 -0.00101473)
(0.234046 0.0550825 -2.04391e-07)
(0.234046 0.0550825 2.0439e-07)
(0.234058 0.0551018 0.00101473)
(0.246801 0.043829 -0.000930496)
(0.246787 0.0438281 -1.53025e-07)
(0.246787 0.0438281 1.53025e-07)
(0.246801 0.043829 0.000930496)
(0.254014 0.0399153 -0.000846823)
(0.254004 0.039895 -1.51011e-07)
(0.254004 0.039895 1.51011e-07)
(0.254014 0.0399153 0.000846823)
(0.263698 0.0328408 -0.000767406)
(0.263677 0.0328444 -1.71741e-07)
(0.263677 0.0328444 1.7174e-07)
(0.263698 0.0328408 0.000767406)
(0.269832 0.0292709 -0.000694649)
(0.269811 0.0292698 -1.43817e-07)
(0.269811 0.0292698 1.43817e-07)
(0.269832 0.0292709 0.000694649)
(0.27665 0.0250706 -0.000629558)
(0.276631 0.0250749 -1.19508e-07)
(0.276631 0.0250749 1.19508e-07)
(0.27665 0.0250706 0.000629558)
(0.184661 -0.167893 -0.00076743)
(0.184661 -0.167918 9.40183e-08)
(0.184661 -0.167918 -9.40152e-08)
(0.184661 -0.167893 0.00076743)
(0.199322 -0.162209 -0.000891132)
(0.199367 -0.162247 1.77651e-07)
(0.199367 -0.162247 -1.77649e-07)
(0.199322 -0.162209 0.000891132)
(0.199279 -0.146538 -0.000985294)
(0.199334 -0.146571 2.08362e-07)
(0.199334 -0.146571 -2.08361e-07)
(0.199279 -0.146538 0.000985294)
(0.201531 -0.130139 -0.0010519)
(0.201547 -0.130159 -8.56374e-08)
(0.201547 -0.130159 8.56388e-08)
(0.201531 -0.130139 0.0010519)
(0.206994 -0.115122 -0.00108166)
(0.206963 -0.115121 -2.34329e-07)
(0.206963 -0.115121 2.3433e-07)
(0.206994 -0.115122 0.00108166)
(0.211984 -0.0994394 -0.00109228)
(0.211986 -0.0994129 -1.61248e-07)
(0.211986 -0.0994129 1.61248e-07)
(0.211984 -0.0994394 0.00109228)
(0.220106 -0.085845 -0.00107727)
(0.220094 -0.0858552 -1.41764e-07)
(0.220094 -0.0858552 1.41764e-07)
(0.220106 -0.085845 0.00107727)
(0.228218 -0.0725734 -0.00103556)
(0.228202 -0.0725886 -1.22218e-07)
(0.228202 -0.0725886 1.22219e-07)
(0.228218 -0.0725734 0.00103556)
(0.237501 -0.0628224 -0.000975726)
(0.237486 -0.0628464 -1.02151e-07)
(0.237486 -0.0628464 1.02151e-07)
(0.237501 -0.0628224 0.000975726)
(0.245784 -0.053962 -0.000910837)
(0.245788 -0.0539771 2.61419e-08)
(0.245788 -0.0539771 -2.61416e-08)
(0.245784 -0.053962 0.000910837)
(0.253454 -0.0472293 -0.000845168)
(0.253467 -0.0472271 -3.18904e-09)
(0.253467 -0.0472271 3.18935e-09)
(0.253454 -0.0472293 0.000845168)
(0.260684 -0.0405789 -0.000779653)
(0.260682 -0.0405762 -7.64835e-08)
(0.260682 -0.0405762 7.64838e-08)
(0.260684 -0.0405789 0.000779653)
(0.267264 -0.0353042 -0.00071583)
(0.26725 -0.0353047 -1.34597e-07)
(0.26725 -0.0353047 1.34598e-07)
(0.267264 -0.0353042 0.00071583)
(0.273205 -0.0303258 -0.000656068)
(0.273186 -0.0303296 -1.24467e-07)
(0.273186 -0.0303296 1.24468e-07)
(0.273205 -0.0303258 0.000656068)
(0.278611 -0.0263236 -0.000598252)
(0.278594 -0.026332 -1.06485e-07)
(0.278594 -0.026332 1.06485e-07)
(0.278611 -0.0263236 0.000598252)
(0.283258 -0.0225243 -0.000546531)
(0.283243 -0.0225274 -7.01248e-08)
(0.283243 -0.0225274 7.01249e-08)
(0.283258 -0.0225243 0.000546531)
(0.281891 -0.0183046 -0.000585973)
(0.281876 -0.0183052 -8.09635e-08)
(0.281876 -0.0183052 8.09636e-08)
(0.281891 -0.0183046 0.000585973)
(0.2806 -0.0137166 -0.000618165)
(0.280583 -0.0137158 -7.29611e-08)
(0.280583 -0.0137158 7.29612e-08)
(0.2806 -0.0137166 0.000618165)
(0.279568 -0.00853957 -0.000642169)
(0.279549 -0.0085508 -6.11568e-08)
(0.279549 -0.0085508 6.11568e-08)
(0.279568 -0.00853957 0.000642169)
(0.279069 -0.00298518 -0.000656745)
(0.279055 -0.00300158 -9.2672e-08)
(0.279055 -0.00300158 9.26719e-08)
(0.279069 -0.00298518 0.000656745)
(0.278879 0.00191373 -0.000660357)
(0.278869 0.00191258 -1.03092e-07)
(0.278869 0.00191258 1.03092e-07)
(0.278879 0.00191373 0.000660357)
(0.278918 0.00729967 -0.000652813)
(0.278902 0.00730591 -1.03259e-07)
(0.278902 0.00730591 1.03259e-07)
(0.278918 0.00729967 0.000652813)
(0.2794 0.0123581 -0.000635323)
(0.279384 0.012365 -1.02546e-07)
(0.279384 0.012365 1.02546e-07)
(0.2794 0.0123581 0.000635323)
(0.280237 0.0172056 -0.000607819)
(0.28022 0.0172135 -9.1153e-08)
(0.28022 0.0172135 9.11528e-08)
(0.280237 0.0172056 0.000607819)
(0.281413 0.0219178 -0.000571321)
(0.281396 0.0219206 -8.64783e-08)
(0.281396 0.0219206 8.64781e-08)
(0.281413 0.0219178 0.000571321)
(0.145095 0.115757 -0.00149856)
(0.145102 0.115781 2.32919e-07)
(0.145102 0.115781 -2.3292e-07)
(0.145095 0.115757 0.00149856)
(0.189523 0.103656 -0.00124452)
(0.189572 0.103614 -2.07829e-08)
(0.189572 0.103614 2.07819e-08)
(0.189523 0.103656 0.00124452)
(-0.039999 0.0267816 0.000202109)
(-0.0400005 0.0267883 -1.71494e-08)
(-0.0400005 0.0267883 1.71418e-08)
(-0.039999 0.0267816 -0.000202109)
(-0.0155162 -0.0131018 0.000152284)
(-0.0155094 -0.0130992 -4.42406e-09)
(-0.0155094 -0.0130992 4.42099e-09)
(-0.0155162 -0.0131018 -0.000152284)
(-0.0520472 0.00991942 0.000203009)
(-0.052057 0.00991832 7.99674e-09)
(-0.052057 0.00991832 -8.00412e-09)
(-0.0520472 0.00991942 -0.000203009)
(-0.0616533 0.00284922 0.000220012)
(-0.0616616 0.00285119 1.15091e-08)
(-0.0616616 0.00285119 -1.15163e-08)
(-0.0616533 0.00284922 -0.000220012)
(-0.0740182 -0.00586327 0.000240538)
(-0.0740138 -0.00586567 -3.82374e-08)
(-0.0740138 -0.00586567 3.82295e-08)
(-0.0740182 -0.00586327 -0.000240538)
(-0.0888626 -0.014706 0.000269326)
(-0.088877 -0.0147282 7.42286e-08)
(-0.088877 -0.0147282 -7.4236e-08)
(-0.0888626 -0.014706 -0.000269326)
(-0.0951231 -0.0182465 0.000282955)
(-0.0951124 -0.0182483 -9.96183e-08)
(-0.0951124 -0.0182483 9.96105e-08)
(-0.0951231 -0.0182465 -0.000282955)
(-0.103682 -0.0158281 0.000307762)
(-0.103665 -0.015838 -1.61007e-08)
(-0.103665 -0.015838 1.60921e-08)
(-0.103682 -0.0158281 -0.000307762)
(-0.111256 -0.0184738 0.000323012)
(-0.111256 -0.0184701 1.75389e-08)
(-0.111256 -0.0184701 -1.75484e-08)
(-0.111256 -0.0184738 -0.000323012)
(-0.109521 -0.0245385 0.000338317)
(-0.109532 -0.0245335 2.15154e-08)
(-0.109532 -0.0245335 -2.15258e-08)
(-0.109521 -0.0245385 -0.000338317)
(-0.0980631 -0.0285238 0.000355232)
(-0.0980551 -0.0285333 5.37878e-10)
(-0.0980551 -0.0285333 -5.48488e-10)
(-0.0980631 -0.0285238 -0.000355232)
(-0.0804528 -0.030093 0.000375584)
(-0.0804481 -0.0301035 3.70531e-08)
(-0.0804481 -0.0301035 -3.70633e-08)
(-0.0804528 -0.030093 -0.000375584)
(-0.0368176 -0.035807 0.000213159)
(-0.036814 -0.0358353 9.32597e-08)
(-0.036814 -0.0358353 -9.32694e-08)
(-0.0368176 -0.035807 -0.000213159)
(-0.0215032 0.0229837 0.000182541)
(-0.0215046 0.0229785 -2.31454e-08)
(-0.0215046 0.0229785 2.31357e-08)
(-0.0215032 0.0229837 -0.000182541)
(-0.0273057 0.0287294 0.000184836)
(-0.0272979 0.0287303 -3.87974e-08)
(-0.0272979 0.0287303 3.87836e-08)
(-0.0273057 0.0287294 -0.000184836)
(-0.0422781 -0.0397884 0.000234416)
(-0.042287 -0.0397771 5.35692e-08)
(-0.042287 -0.0397771 -5.35729e-08)
(-0.0422781 -0.0397884 -0.000234416)
(-0.0488524 -0.0424398 0.000263701)
(-0.0488444 -0.0424452 3.42027e-08)
(-0.0488444 -0.0424452 -3.42061e-08)
(-0.0488524 -0.0424398 -0.000263701)
(-0.0545151 -0.0428179 0.000299437)
(-0.0545153 -0.0428295 1.02152e-07)
(-0.0545153 -0.0428295 -1.02156e-07)
(-0.0545151 -0.0428179 -0.000299437)
(-0.0592561 -0.0410545 0.000332658)
(-0.0592669 -0.0410551 2.91322e-08)
(-0.0592669 -0.0410551 -2.91381e-08)
(-0.0592561 -0.0410545 -0.000332658)
(-0.0633553 -0.0365578 0.000366869)
(-0.0633517 -0.036567 4.92822e-08)
(-0.0633517 -0.036567 -4.92899e-08)
(-0.0633553 -0.0365578 -0.000366869)
(-0.0615448 -0.0293375 0.000399843)
(-0.0615458 -0.02934 3.52627e-08)
(-0.0615458 -0.02934 -3.52714e-08)
(-0.0615448 -0.0293375 -0.000399843)
(-0.0247866 -0.0351151 0.000217067)
(-0.0247693 -0.0351019 4.77915e-08)
(-0.0247693 -0.0351019 -4.77985e-08)
(-0.0247866 -0.0351151 -0.000217067)
(-0.116929 -0.0163966 0.000331572)
(-0.116932 -0.0163954 8.46621e-09)
(-0.116932 -0.0163954 -8.47549e-09)
(-0.116929 -0.0163966 -0.000331572)
(-0.112874 -0.020282 0.000354077)
(-0.112877 -0.0202814 1.70126e-08)
(-0.112877 -0.0202814 -1.70223e-08)
(-0.112874 -0.020282 -0.000354077)
(-0.0988532 -0.0220532 0.000379957)
(-0.0988565 -0.0220534 3.25536e-09)
(-0.0988565 -0.0220534 -3.2664e-09)
(-0.0988532 -0.0220532 -0.000379957)
(-0.0796878 -0.0218619 0.000404954)
(-0.0796907 -0.0218703 -1.04365e-09)
(-0.0796907 -0.0218703 1.03245e-09)
(-0.0796878 -0.0218619 -0.000404954)
(-0.0584224 -0.0202146 0.000427578)
(-0.0584242 -0.0202222 2.7193e-08)
(-0.0584242 -0.0202222 -2.72027e-08)
(-0.0584224 -0.0202146 -0.000427578)
(-0.0457786 0.0212355 0.000218423)
(-0.0457751 0.0212349 1.69827e-08)
(-0.0457751 0.0212349 -1.69892e-08)
(-0.0457786 0.0212355 -0.000218423)
(-0.054496 0.0133676 0.000235645)
(-0.0545005 0.0133721 1.31743e-08)
(-0.0545005 0.0133721 -1.31813e-08)
(-0.054496 0.0133676 -0.000235645)
(-0.0653725 0.005151 0.000254495)
(-0.0653733 0.00515652 2.85811e-09)
(-0.0653733 0.00515652 -2.86519e-09)
(-0.0653725 0.005151 -0.000254495)
(-0.0767524 -0.00210351 0.000274635)
(-0.0767509 -0.00211286 4.84247e-09)
(-0.0767509 -0.00211286 -4.84888e-09)
(-0.0767524 -0.00210351 -0.000274635)
(-0.0860704 -0.00613832 0.000291738)
(-0.0860757 -0.00612325 3.16841e-08)
(-0.0860757 -0.00612325 -3.16915e-08)
(-0.0860704 -0.00613831 -0.000291738)
(-0.0936849 -0.00897082 0.000304477)
(-0.0936817 -0.00897178 -2.0153e-08)
(-0.0936817 -0.00897178 2.01444e-08)
(-0.0936849 -0.00897082 -0.000304477)
(-0.101164 -0.0108044 0.000315401)
(-0.10116 -0.0108024 1.46126e-08)
(-0.10116 -0.0108024 -1.46194e-08)
(-0.101164 -0.0108044 -0.000315401)
(-0.107417 -0.0111874 0.000318814)
(-0.10742 -0.0111834 1.13449e-08)
(-0.10742 -0.0111834 -1.13501e-08)
(-0.107417 -0.0111874 -0.000318814)
(-0.0329379 0.0346372 0.000215304)
(-0.0329449 0.0346334 6.76304e-08)
(-0.0329449 0.0346334 -6.76366e-08)
(-0.0329379 0.0346372 -0.000215304)
(-0.0250175 0.0326687 0.000196769)
(-0.025021 0.0326755 5.5565e-08)
(-0.025021 0.0326755 -5.5574e-08)
(-0.0250175 0.0326687 -0.000196769)
(-0.0195824 0.0239016 0.000193393)
(-0.0195801 0.0239035 4.57452e-08)
(-0.0195801 0.0239035 -4.57551e-08)
(-0.0195824 0.0239016 -0.000193393)
(-0.0224545 0.0325557 0.000201065)
(-0.0224535 0.032543 7.33768e-09)
(-0.0224535 0.032543 -7.34615e-09)
(-0.0224545 0.0325557 -0.000201065)
(-0.0249127 0.0372714 0.000203741)
(-0.024916 0.0372656 -2.88026e-08)
(-0.024916 0.0372656 2.87955e-08)
(-0.0249127 0.0372714 -0.000203741)
(-0.0267436 0.0366107 0.000211787)
(-0.0267382 0.0366099 -1.55057e-08)
(-0.0267382 0.0366099 1.54996e-08)
(-0.0267436 0.0366107 -0.000211787)
(-0.0292393 0.0339332 0.000221197)
(-0.0292446 0.0339329 -5.96405e-09)
(-0.0292446 0.0339329 5.95787e-09)
(-0.0292393 0.0339332 -0.000221197)
(-0.0366295 0.0277179 0.000232662)
(-0.0366241 0.0277191 -8.14922e-09)
(-0.0366241 0.0277191 8.14296e-09)
(-0.0366295 0.0277179 -0.000232662)
(-0.0423847 0.0211654 0.000250953)
(-0.0423864 0.0211692 1.76049e-08)
(-0.0423864 0.0211692 -1.76112e-08)
(-0.0423847 0.0211654 -0.000250953)
(-0.0502231 0.0142136 0.000268485)
(-0.0502329 0.01422 7.59618e-09)
(-0.0502329 0.01422 -7.6022e-09)
(-0.0502231 0.0142136 -0.000268485)
(-0.0590877 0.00770228 0.000284197)
(-0.0590944 0.00770267 -4.54792e-09)