/*--------------------------------*- C++ -*----------------------------------*\
| =========                 |                                                 |
| \\      /  F ield         | OpenFOAM: The Open Source CFD Toolbox           |
|  \\    /   O peration     | Version:  v1806                                 |
|   \\  /    A nd           | Web:      www.OpenFOAM.com                      |
|    \\/     M anipulation  |                                                 |
\*---------------------------------------------------------------------------*/
FoamFile
{
    version     2.0;
    format      ascii;
    class       surfaceScalarField;
    location    "460";
    object      phi;
}
// * * * * * * * * * * * * * * * * * * * * * * * * * * * * * * * * * * * * * //

dimensions      [0 3 -1 0 0 0 0];
oriented        oriented;


internalField   nonuniform List<scalar> 
4680
(
0.0825007
-8.7531e-05
0.0825027
-0.000262752
0.0825062
-0.000437638
0.0825113
-0.000611123
0.0825181
-0.000782532
0.0825267
-0.000951224
0.0825372
-0.00111658
0.0825496
-0.00127799
0.0825642
-0.00143486
0.0825809
-0.00158661
0.0825998
-0.00173268
0.082621
-0.00187257
0.0826444
-0.00200573
0.0826701
-0.00213185
0.0826981
-0.00225018
0.0827283
-0.00236129
0.0827606
-0.00246254
0.0827954
-0.00255978
0.0828318
-0.00263754
-0.00273386
0.0828692
0.0825017
-8.92133e-05
0.0825067
-0.000267795
0.0825151
-0.000446022
0.0825268
-0.000622864
0.082542
-0.000797657
0.0825605
-0.000969763
0.0825825
-0.00113856
0.0826079
-0.00130342
0.0826368
-0.00146375
0.0826692
-0.00161895
0.0827049
-0.00176842
0.082744
-0.00191165
0.0827863
-0.00204804
0.0828317
-0.00217728
0.08288
-0.00229848
0.0829311
-0.00241236
0.0829844
-0.0025158
0.0830402
-0.00261559
0.0830963
-0.00269366
-0.00279533
0.0831578
0.0825027
-9.1949e-05
0.0825109
-0.000276004
0.0825246
-0.000459706
0.0825438
-0.000642021
0.0825684
-0.000822288
0.0825985
-0.000999865
0.0826341
-0.00117412
0.0826751
-0.00134441
0.0827214
-0.00151011
0.0827731
-0.00167059
0.0828298
-0.00182521
0.0828916
-0.00197341
0.0829581
-0.00211453
0.083029
-0.00224821
0.083104
-0.00237343
0.0831827
-0.00249106
0.0832642
-0.00259731
0.0833491
-0.00270046
0.083434
-0.00277861
-0.00288619
0.0835249
0.0825038
-9.57635e-05
0.0825153
-0.000287452
0.0825344
-0.000478797
0.0825611
-0.000668759
0.0825955
-0.000856678
0.0826375
-0.0010419
0.0826872
-0.00122378
0.0827444
-0.00140166
0.0828092
-0.00157487
0.0828813
-0.00174272
0.0829607
-0.00190453
0.0830469
-0.00205965
0.0831397
-0.00220732
0.0832386
-0.00234715
0.0833431
-0.00247787
0.0834526
-0.00260061
0.0835659
-0.00271057
0.0836836
-0.00281818
0.0838009
-0.00289588
-0.00301164
0.0839263
0.0825049
-0.000100668
0.0825196
-0.000302168
0.0825442
-0.00050334
0.0825786
-0.000703153
0.0826228
-0.000900953
0.082677
-0.00109609
0.0827411
-0.0012879
0.0828151
-0.00147568
0.082899
-0.00165873
0.0829926
-0.0018363
0.0830957
-0.0020076
0.0832079
-0.00217192
0.0833289
-0.00232832
0.0834582
-0.00247638
0.0835947
-0.00261445
0.0837382
-0.00274406
0.0838865
-0.00285892
0.0840409
-0.00297251
0.0841944
-0.00304942
-0.00317623
0.084359
0.082506
-0.000106657
0.082524
-0.00032013
0.0825539
-0.000533304
0.0825959
-0.000745184
0.0826501
-0.000955141
0.0827166
-0.00116254
0.0827954
-0.00136669
0.0828866
-0.0015669
0.0829902
-0.00176237
0.0831062
-0.0019523
0.0832344
-0.00213579
0.0833745
-0.002312
0.083526
-0.00247978
0.0836882
-0.00263865
0.0838602
-0.00278645
0.0840414
-0.0029252
0.0842291
-0.00304664
0.0844249
-0.0031683
0.0846196
-0.00324415
-0.00338573
0.0848291
0.082507
-0.000113694
0.0825281
-0.000341228
0.0825633
-0.000568511
0.0826128
-0.000794637
0.0826767
-0.00101903
0.0827553
-0.0012411
0.0828487
-0.00146017
0.0829573
-0.00167551
0.0830813
-0.00188629
0.0832206
-0.00209163
0.0833753
-0.00229046
0.0835451
-0.00248182
0.0837296
-0.00266428
0.0839282
-0.00283725
0.0841396
-0.00299788
0.0843633
-0.00314887
0.0845958
-0.00327919
0.0848394
-0.00341187
0.0850818
-0.00348658
-0.00364792
0.085344
0.082508
-0.000121692
0.082532
-0.000365194
0.082572
-0.000608519
0.0826283
-0.000850936
0.0827012
-0.00109198
0.0827913
-0.00133114
0.0828989
-0.00156778
0.0830246
-0.00180119
0.0831688
-0.00203051
0.0833319
-0.00225475
0.0835141
-0.00247271
0.0837155
-0.00268323
0.0839358
-0.00288452
0.0841744
-0.00307589
0.0844301
-0.00325351
0.0847022
-0.00342099
0.0849865
-0.00356351
0.0852861
-0.00371143
0.0855848
-0.00378528
-0.00397328
0.0859101
0.0825088
-0.000130479
0.0825351
-0.000391504
0.082579
-0.000652459
0.082641
-0.000912922
0.0827217
-0.00117262
0.0828217
-0.00143117
0.082942
-0.00168807
0.0830835
-0.00194267
0.083247
-0.00219407
0.0834335
-0.00244127
0.0836437
-0.00268287
0.083878
-0.00291754
0.0841365
-0.00314301
0.0844191
-0.00335846
0.0847243
-0.00355874
0.085052
-0.00374866
0.0853967
-0.00390821
0.0857628
-0.00407759
0.086129
-0.0041515
-0.00437597
0.0865317
0.0825093
-0.000139752
0.082537
-0.00041925
0.0825834
-0.00069882
0.082649
-0.000978554
0.0827349
-0.00125846
0.0828421
-0.00153842
0.0829721
-0.00181812
0.0831265
-0.00209705
0.0833069
-0.00237441
0.0835148
-0.00264917
0.0837517
-0.00291981
0.084019
-0.00318481
0.0843173
-0.00344133
0.0846473
-0.00368844
0.0850077
-0.00391918
0.0853991
-0.00414004
0.0858146
-0.00432378
0.086261
-0.00452392
0.0867095
-0.00460004
-0.00487526
0.0872088
0.0825093
-0.000149019
0.082537
-0.000446955
0.0825833
-0.000745186
0.0826493
-0.00104454
0.0827363
-0.00134545
0.0828461
-0.00164818
0.0829807
-0.00195278
0.0831427
-0.00225901
0.0833346
-0.00256629
0.0835591
-0.00287372
0.083819
-0.0031797
0.0841169
-0.00348263
0.0844546
-0.00377903
0.0848341
-0.00406793
0.0852548
-0.00433994
0.0857187
-0.00460394
0.0862175
-0.00482259
0.0867613
-0.00506765
0.0873116
-0.00515038
-0.00549782
0.0879342
0.0825085
-0.000157549
0.082534
-0.000472402
0.0825767
-0.00078793
0.0826381
-0.0011059
0.08272
-0.00142735
0.0828249
-0.00175313
0.0829559
-0.00208379
0.0831166
-0.00241964
0.0833108
-0.00276052
0.083543
-0.00310589
0.0838176
-0.0034543
0.0841392
-0.00380426
0.0845118
-0.00415167
0.0849397
-0.00449577
0.0854237
-0.004824
0.0859686
-0.00514878
0.0865645
-0.00541849
0.0872273
-0.00573048
0.0879051
-0.00582812
-0.00628145
0.0886887
0.0825068
-0.000164315
0.0825269
-0.000492512
0.0825609
-0.000821963
0.0826106
-0.00115556
0.0826784
-0.00149516
0.0827676
-0.00184241
0.0828825
-0.00219868
0.083028
-0.00256506
0.0832096
-0.00294217
0.0834339
-0.00333022
0.083708
-0.00372833
0.0840393
-0.00413559
0.0844351
-0.00454749
0.0849035
-0.00496416
0.0854485
-0.00536899
0.0860797
-0.00578
0.0867864
-0.00612517
0.087595
-0.00653909
0.0884334
-0.00666652
-0.00728106
0.089433
0.0825037
-0.000167971
0.0825144
-0.000503262
0.082533
-0.000840588
0.0825616
-0.00118409
0.0826031
-0.00153667
0.0826617
-0.00190101
0.0827426
-0.00227962
0.0828524
-0.00267482
0.0829987
-0.00308847
0.0831905
-0.0035221
0.0834383
-0.00397607
0.0837536
-0.0044509
0.0841486
-0.00494244
0.0846373
-0.00545286
0.0852293
-0.00596105
0.0859435
-0.00649421
0.0867696
-0.0069512
0.0877541
-0.00752358
0.0887944
-0.00770683
-0.00857918
0.0900925
0.0824989
-0.000166889
0.0824955
-0.000499796
0.0824905
-0.000835657
0.0824863
-0.0011799
0.0824862
-0.00153655
0.0824948
-0.00190958
0.0825181
-0.00230295
0.0825639
-0.00272066
0.082642
-0.00316655
0.0827643
-0.00364439
0.082945
-0.00415679
0.0832011
-0.00470695
0.0835513
-0.00529269
0.0840186
-0.00592016
0.0846224
-0.0065648
0.0853959
-0.00726776
0.0863342
-0.0078895
0.0875195
-0.00870886
0.0888048
-0.00899208
-0.0103018
0.0905273
0.0824924
-0.000159302
0.0824695
-0.000476854
0.0824321
-0.000798264
0.0823822
-0.00113004
0.082323
-0.00147733
0.0822588
-0.00184541
0.0821958
-0.00223988
0.0821419
-0.00266682
0.0821081
-0.0031327
0.0821083
-0.00364458
0.0821606
-0.00420908
0.0822879
-0.00483425
0.0825179
-0.00552268
0.0828849
-0.00628721
0.0834255
-0.00710536
0.0841933
-0.00803558
0.0852042
-0.00890043
0.0865877
-0.0100924
0.0881522
-0.0105566
-0.0126184
0.0904689
0.0824843
-0.0001436
0.0824371
-0.000429652
0.082359
-0.000720193
0.0822513
-0.00102233
0.0821159
-0.00134196
0.0819559
-0.00168541
0.0817758
-0.00205977
0.0815822
-0.00247323
0.0813847
-0.00293515
0.0811967
-0.00345662
0.0810374
-0.00404972
0.0809327
-0.0047296
0.0809187
-0.00550864
0.0810423
-0.00641088
0.0813653
-0.0074283
0.081967
-0.00863728
0.0829283
-0.00986173
0.0844225
-0.0115866
0.0863052
-0.0124392
-0.0156999
0.0893867
0.0824752
-0.000118795
0.0824008
-0.000355245
0.0822768
-0.000596202
0.082103
-0.000848552
0.0818793
-0.0011182
0.0816056
-0.00141173
0.0812828
-0.00173696
0.080913
-0.00210342
0.0805006
-0.00252279
0.0800538
-0.00300979
0.0795864
-0.00358232
0.0791207
-0.00426391
0.0786923
-0.00508023
0.0783521
-0.00607073
0.0781803
-0.00725648
0.0782738
-0.00873073
0.0788138
-0.0104018
0.0800339
-0.0128067
0.0822019
-0.0146072
-0.0196848
0.0861868
0.0824663
-8.50709e-05
0.0823652
-0.000254143
0.0821958
-0.000426873
0.0819562
-0.000608904
0.0816428
-0.000804811
0.0812512
-0.0010201
0.080776
-0.00126175
0.0802113
-0.00153873
0.0795511
-0.00186266
0.0787907
-0.0022493
0.0779279
-0.0027196
0.0769678
-0.00330375
0.0759283
-0.00404078
0.0748503
-0.00499269
0.0738185
-0.00622473
0.0729407
-0.00785288
0.0724544
-0.00991542
0.0726718
-0.0130242
0.0744906
-0.016426
-0.0232578
0.0780637
0.0824595
-4.45869e-05
0.0823368
-0.000131384
0.0821313
-0.000221441
0.0818387
-0.000316274
0.0814518
-0.000417869
0.080961
-0.000529361
0.0803539
-0.000654633
0.079614
-0.000798833
0.0787203
-0.000968936
0.0776464
-0.00117546
0.0763604
-0.00143356
0.0748255
-0.00176887
0.073004
-0.00221927
0.0708686
-0.0028573
0.0684298
-0.00378595
0.06581
-0.00523304
0.063356
-0.0074614
0.0615314
-0.0111997
0.0611955
-0.01609
0.0568608
-0.0189232
0.0831199
-0.0224878
0.0834911
-0.0259883
0.0838403
-0.0258668
0.0841785
-0.0226489
0.0845029
-0.0196079
0.0847907
-0.0158171
0.0850572
-0.0118884
0.0852914
-0.00730121
0.0854891
-0.00280159
0.00198539
0.0856339
0.0834296
-0.0227597
0.0839435
-0.0265022
0.0843249
-0.0262482
0.0846533
-0.0229774
0.0849717
-0.0199262
0.0852409
-0.0160864
0.0854857
-0.0121332
0.0856856
-0.00750109
0.0858458
-0.00296182
0.00189579
0.0859354
0.0838595
-0.0230943
0.0845635
-0.0272062
0.0850074
-0.0266922
0.0853551
-0.023325
0.0856895
-0.0202606
0.0859531
-0.01635
0.0861874
-0.0123674
0.0863608
-0.00767449
0.086482
-0.00308307
0.00187796
0.0864999
0.0843451
-0.0235131
0.0852576
-0.0281188
0.0857789
-0.0272134
0.0861681
-0.0237143
0.0865357
-0.0206282
0.0868098
-0.0166242
0.0870505
-0.0126081
0.087213
-0.00783702
0.0873087
-0.00317872
0.00192415
0.0872625
0.0848709
-0.024025
0.0860065
-0.0292543
0.086606
-0.027813
0.0870489
-0.0241572
0.0874588
-0.0210381
0.0877534
-0.0169188
0.0880125
-0.0128672
0.0881764
-0.00800095
0.0882597
-0.003262
0.00202413
0.0881597
0.0854398
-0.0246357
0.0868119
-0.0306264
0.0874843
-0.0284853
0.0879875
-0.0246604
0.0884424
-0.021493
0.0887605
-0.0172369
0.089043
-0.0131497
0.0892135
-0.00817138
0.0892908
-0.00333931
0.00217379
0.0891411
0.0860596
-0.0253512
0.0876818
-0.0322486
0.088418
-0.0292215
0.0889854
-0.0252278
0.0894832
-0.0219907
0.0898217
-0.0175754
0.0901242
-0.0134523
0.0902969
-0.00834399
0.090365
-0.00340745
0.00237814
0.0901607
0.0867396
-0.0261806
0.0886254
-0.0341345
0.089414
-0.0300102
0.0900468
-0.0258605
0.0905782
-0.0225221
0.0909242
-0.0179214
0.0912314
-0.0137595
0.0913888
-0.00850142
0.0914324
-0.00345105
0.00265237
0.0911582
0.0874899
-0.0271388
0.0896519
-0.0362965
0.090478
-0.0308363
0.0911707
-0.0265532
0.0917119
-0.0230634
0.0920346
-0.0182442
0.0923105
-0.0140354
0.0924159
-0.00860679
0.0924042
-0.00343939
0.0030219
0.0920347
0.0883222
-0.0282523
0.0907697
-0.0387439
0.0916096
-0.0316762
0.0923389
-0.0272824
0.0928352
-0.0235597
0.0930705
-0.0184795
0.0932464
-0.0142112
0.0932357
-0.0085961
0.0931211
-0.00332484
0.00351936
0.0926236
0.089252
-0.0295701
0.0919825
-0.0414744
0.0927864
-0.0324801
0.093486
-0.0279819
0.0938247
-0.0238984
0.093856
-0.0185109
0.0938189
-0.0141741
0.0935975
-0.00837467
0.0933197
-0.00304705
0.00417535
0.0926637
0.0902997
-0.0311811
0.0932701
-0.0444448
0.0939233
-0.0331334
0.0944417
-0.0285004
0.0944183
-0.023875
0.0940623
-0.0181549
0.0936541
-0.0137659
0.0931059
-0.00782654
0.0926087
-0.0025498
0.00500093
0.0917831
0.0914816
-0.0332297
0.0945331
-0.0474963
0.0947873
-0.0333876
0.0948338
-0.0285469
0.0941325
-0.0231737
0.0931498
-0.0171721
0.0921911
-0.0128072
0.0912119
-0.00684732
0.0904769
-0.00181477
0.00596213
0.0895157
0.0927607
-0.0358979
0.0954695
-0.050205
0.094859
-0.0327771
0.0939565
-0.0276443
0.0921973
-0.0214146
0.090355
-0.0153297
0.0887095
-0.0111618
0.0872682
-0.00540603
0.0863589
-0.000905534
0.00695431
0.0853668
0.0939065
-0.0392771
0.0953589
-0.0516574
0.0931661
-0.0305844
0.0907202
-0.0251984
0.0875836
-0.018278
0.0847856
-0.0125317
0.0824621
-0.00883821
0.0806761
-0.00362004
0.0797693
1.26111e-06
0.00779442
0.0789292
0.0941868
-0.0429951
0.0927892
-0.0502598
0.088197
-0.0259921
0.0837423
-0.0207438
0.0792277
-0.0137633
0.0756808
-0.00898477
0.0729306
-0.00608806
0.0711153
-0.00180472
0.0704618
0.00065477
0.0082498
0.0700064
0.0918452
-0.0454536
0.0854947
-0.0439093
0.0781084
-0.0186058
0.071775
-0.0144104
0.0664981
-0.00848639
0.062801
-0.00528772
0.0601202
-0.00340723
0.0587074
-0.000391889
0.058524
0.000838139
0.00811069
0.0586631
0.0835329
-0.0427997
0.0707071
-0.0310836
0.0615083
-0.00940703
0.0545145
-0.00741659
0.0497421
-0.00371393
0.0467139
-0.00225956
0.0446592
-0.00135254
0.0439841
0.0002832
0.04426
0.000562238
0.0071823
0.0451884
0.0642742
-0.0290102
0.0465734
-0.0133827
0.0388063
-0.00164
0.0333455
-0.0019558
0.0303852
-0.000753631
0.0286109
-0.000485241
0.027504
-0.000245576
0.0275314
0.000255783
0.0279492
0.000144369
0.00494954
0.030182
0.0278506
0.0144679
0.0128279
0.0108721
0.0101185
0.00963323
0.00938765
0.00964343
0.0097878
0.0147373
0.0856859
0.00217961
0.0857252
0.00291445
0.0857568
0.00356363
0.0857817
0.0041182
0.0858018
0.00457603
0.0858183
0.00494215
0.0858324
0.00522646
0.0858448
0.00543898
0.0858565
0.00559044
0.0858678
0.00569027
0.0858793
0.00574919
0.0858908
0.00577541
0.0859031
0.00577859
0.0859157
0.00576434
0.0859293
0.00574114
0.0859429
0.00571184
0.0859579
0.0056843
0.0859725
0.00565824
0.0859889
0.00564093
0.00562944
0.0859542
0.00216083
0.0859628
0.00290585
0.0859636
0.00356278
0.0859604
0.00412147
0.085956
0.00458036
0.0859522
0.00494597
0.0859498
0.00522885
0.0859492
0.00543962
0.0859508
0.00558878
0.0859546
0.0056865
0.0859608
0.00574302
0.0859687
0.00576751
0.0859787
0.00576851
0.08599
0.0057531
0.0860032
0.00572794
0.0860168
0.00569818
0.0860323
0.00566885
0.0860473
0.00564323
0.0860637
0.00562457
0.00561533
0.0864796
0.00218111
0.0864452
0.00294022
0.0864017
0.00360633
0.0863554
0.00416776
0.0863115
0.00462426
0.0862724
0.00498507
0.0862392
0.00526202
0.0862123
0.00546655
0.086192
0.00560908
0.0861778
0.00570073
0.0861695
0.00575133
0.0861659
0.00577107
0.0861671
0.00576732
0.0861716
0.00574863
0.0861797
0.00571977
0.0861897
0.0056882
0.0862025
0.00565606
0.0862155
0.00563023
0.0862302
0.00560986
0.0056018
0.0872038
0.00223982
0.087125
0.00301895
0.0870341
0.00369724
0.0869407
0.00426114
0.0868521
0.00471286
0.0867717
0.00506552
0.0867009
0.00533277
0.0866405
0.00552694
0.0865909
0.00565871
0.0865514
0.00574025
0.0865215
0.00578127
0.0864996
0.00579288
0.0864855
0.00578146
0.0864773
0.00575684
0.086475
0.0057221
0.0864764
0.00568677
0.086482
0.00565044
0.0864893
0.00562301
0.0864989
0.00560022
0.00559255
0.0880649
0.00233465
0.087943
0.00314087
0.0878052
0.00383501
0.0876652
0.00440114
0.0875321
0.004846
0.0874098
0.00518779
0.0873003
0.00544229
0.0872046
0.00562258
0.0871233
0.00574004
0.0870556
0.00580793
0.0870007
0.0058362
0.086957
0.00583655
0.0869237
0.00581481
0.0868989
0.00578162
0.086882
0.00573898
0.086871
0.00569776
0.0868656
0.00565587
0.0868635
0.00562513
0.0868644
0.00559926
0.00559085
0.0890102
0.00246558
0.088844
0.00330701
0.0886587
0.00402032
0.0884725
0.00458739
0.0882957
0.00502283
0.0881325
0.00535098
0.087985
0.00558978
0.0878548
0.00575278
0.0877421
0.00585276
0.0876462
0.00590381
0.0875657
0.00591668
0.0874993
0.00590299
0.0874453
0.00586879
0.0874023
0.00582462
0.0873688
0.00577247
0.0873433
0.00572329
0.0873244
0.00567472
0.0873106
0.00563897
0.0873004
0.00560946
0.00559908
0.0899891
0.00263711
0.0897733
0.00352287
0.0895364
0.00425714
0.089302
0.00482187
0.0890805
0.00524428
0.0888761
0.00555536
0.0886909
0.00577496
0.0885269
0.00591682
0.0883836
0.00599607
0.0882603
0.00602712
0.0881548
0.00602219
0.0880659
0.00599184
0.0879913
0.0059434
0.0879299
0.00588603
0.0878793
0.00582311
0.0878385
0.00576404
0.0878053
0.00570797
0.0877787
0.00566558
0.0877561
0.00563201
0.0056185
0.090936
0.00285932
0.0906597
0.00379921
0.0903638
0.004553
0.0900764
0.00510927
0.0898071
0.00551361
0.0895593
0.00580309
0.0893354
0.00599886
0.0891374
0.00611484
0.0889638
0.0061697
0.0888136
0.00617729
0.0886837
0.00615213
0.0885731
0.00610237
0.0884784
0.00603812
0.0883992
0.00596527
0.0883316
0.00589063
0.088276
0.00581969
0.0882284
0.00575556
0.0881892
0.00570483
0.0881542
0.00566692
0.00564908
0.0917455
0.00314846
0.0913934
0.00415139
0.0910288
0.00491753
0.0906824
0.00545574
0.0903606
0.00583541
0.0900665
0.0060971
0.0898026
0.00626277
0.0895704
0.00634707
0.0893668
0.00637329
0.0891906
0.0063535
0.0890373
0.00630548
0.0889063
0.00623333
0.0887927
0.00615173
0.088697
0.00606096
0.0886138
0.00597384
0.0885447
0.00588881
0.0884839
0.00581632
0.0884335
0.00575525
0.0883875
0.00571289
0.00568926
0.0922452
0.0035269
0.0918
0.00459655
0.0913583
0.00535921
0.090948
0.00586611
0.0905705
0.00621286
0.0902294
0.00643826
0.0899265
0.00656565
0.0896621
0.00661143
0.0894312
0.00660425
0.0892319
0.00655275
0.0890583
0.00647908
0.0889103
0.00638133
0.0887811
0.00628099
0.0886724
0.00616963
0.0885767
0.00606955
0.0884976
0.00596786
0.0884269
0.00588704
0.088369
0.00581313
0.0883154
0.00576647
0.00573505
0.0921698
0.00402087
0.0916187
0.00514766
0.0910983
0.0058796
0.090625
0.00633943
0.0901946
0.0066432
0.0898121
0.00682082
0.0894778
0.00689994
0.0891893
0.00689991
0.0889392
0.00685434
0.0887252
0.00676678
0.0885395
0.00666471
0.0883826
0.00653831
0.0882455
0.0064181
0.0881316
0.00628351
0.0880307
0.00617043
0.0879493
0.00604926
0.0878756
0.00596068
0.087818
0.00587082
0.087764
0.00582047
0.00577854
0.0911499
0.00465411
0.0904942
0.00580331
0.0899082
0.00646563
0.0893844
0.00686322
0.0889164
0.00711118
0.0885108
0.00722644
0.088164
0.00724667
0.0878699
0.00719405
0.0876188
0.00710545
0.0874074
0.00697815
0.0872266
0.00684553
0.0870767
0.0066882
0.0869472
0.00654762
0.086843
0.0063877
0.0867512
0.00626222
0.0866817
0.00611882
0.0866185
0.00602382
0.0865749
0.00591441
0.0865337
0.00586171
0.00580586
0.0887304
0.0054394
0.0880002
0.00653347
0.0873829
0.00708296
0.0868387
0.00740748
0.0863677
0.00758211
0.0859755
0.00761871
0.0856513
0.00757082
0.0853847
0.00746067
0.0851644
0.0073257
0.0849859
0.00715668
0.0848389
0.00699258
0.0847234
0.00680367
0.0846278
0.00664318
0.0845584
0.00645713
0.0844999
0.00632071
0.0844657
0.00615308
0.0844355
0.006054
0.0844285
0.00592139
0.0844215
0.00586869
0.00579506
0.0844391
0.0063671
0.0837031
0.00726947
0.0831109
0.00767517
0.0825981
0.00792026
0.0821832
0.00799698
0.0818615
0.00794046
0.0816133
0.007819
0.0814247
0.00764923
0.0812837
0.00746673
0.0811836
0.00725673
0.0811141
0.00706214
0.0810743
0.00684349
0.0810525
0.00666492
0.0810555
0.00645415
0.0810669
0.0063093
0.0811028
0.0061172
0.0811393
0.00601752
0.0812017
0.00585894
0.0812605
0.00580993
0.00571479
0.0778992
0.00739711
0.0772606
0.00790806
0.0767602
0.0081755
0.0763567
0.00832374
0.0760813
0.00827244
0.0759068
0.00811491
0.0758071
0.00791872
0.075766
0.00769039
0.0757704
0.00746228
0.0758116
0.00721555
0.0758796
0.00699411
0.0759722
0.00675096
0.0760789
0.00655815
0.0762056
0.00632744
0.0763367
0.00617822
0.0764893
0.00596459
0.0766376
0.00586921
0.0768124
0.00568422
0.076978
0.00564431
0.00552513
0.0689402
0.0084633
0.0685269
0.00832134
0.0681759
0.00852656
0.0679898
0.00850977
0.0679601
0.00830219
0.0680309
0.00804407
0.0681741
0.00777554
0.0683706
0.00749386
0.068606
0.00722693
0.0688687
0.00695282
0.0691502
0.00671263
0.069446
0.00645514
0.0697485
0.00625562
0.0700613
0.00601469
0.0703717
0.00586784
0.0706957
0.00564051
0.0710085
0.00555644
0.0713441
0.00534866
0.0716628
0.00532557
0.00518215
0.0576392
0.00948722
0.057575
0.0083855
0.0574665
0.0086351
0.0576634
0.0083129
0.0580185
0.00794709
0.0584647
0.00759784
0.0589724
0.00726779
0.0595178
0.0069485
0.0600848
0.00665995
0.0606606
0.00637702
0.0612388
0.00613443
0.0618136
0.00588034
0.0623813
0.00568792
0.062943
0.00545298
0.0634911
0.00531973
0.0640392
0.00509245
0.0645657
0.00502987
0.0651066
0.00480783
0.0656196
0.00481257
0.00464712
0.0443334
0.0103423
0.0447743
0.00794459
0.0451687
0.00824073
0.0460156
0.00746592
0.0469416
0.00702118
0.047925
0.00661443
0.0489312
0.00626153
0.0499357
0.00594399
0.0509262
0.00566948
0.0518928
0.00541041
0.0528339
0.00519339
0.0537446
0.00496958
0.0546269
0.00480563
0.0554805
0.00459942
0.0563044
0.00449577
0.0571091
0.0042878
0.0578791
0.00425987
0.0586504
0.00403649
0.0593793
0.00408372
0.00389886
0.0298807
0.0106436
0.0312382
0.00658708
0.0326469
0.00683198
0.0344158
0.00569704
0.0360842
0.00535275
0.0377274
0.00497125
0.0393086
0.00468033
0.0408218
0.00443075
0.0422678
0.00422351
0.0436455
0.00403271
0.0449613
0.00387757
0.0462141
0.00371679
0.047413
0.00360673
0.0485567
0.00345573
0.0496537
0.00339874
0.0507081
0.00323344
0.0517163
0.00325162
0.0527079
0.0030449
0.0536418
0.00314985
0.00294487
0.0166694
0.00871156
0.0194727
0.00378376
0.0222501
0.00405463
0.0249394
0.00300766
0.0273329
0.00295925
0.0295887
0.00271553
0.031674
0.00259494
0.0336232
0.00248161
0.0354513
0.00239538
0.0371682
0.00231584
0.0387902
0.0022556
0.040318
0.00218892
0.0417722
0.00215251
0.0431436
0.00208442
0.0444614
0.00208088
0.0457042
0.00199065
0.0469105
0.00204532
0.0480575
0.00189787
0.0491616
0.00204575
0.00184033
0.00207414
0.00663742
0.00272788
0.00313001
0.00343602
0.00334649
0.00395445
0.00248923
0.00445159
0.00246211
0.00489494
0.00227218
0.00530491
0.00218497
0.00568431
0.0021022
0.00603876
0.00204093
0.0063699
0.0019847
0.00668235
0.00194315
0.00697479
0.00189647
0.00725446
0.00187284
0.0075144
0.00182448
0.00776931
0.00182597
0.00800033
0.00175963
0.0082389
0.00180675
0.00844238
0.00169439
0.00867229
0.00181584
0.00165698
0.00183515
0.00480227
0.00252648
0.00243868
0.00327859
0.00259438
0.00381039
0.00195743
0.00432093
0.00195158
0.00477262
0.0018205
0.00519003
0.00176756
0.00557551
0.00171671
0.00593526
0.00168119
0.00627102
0.00164895
0.00658761
0.00162655
0.00688372
0.00160037
0.00716683
0.00158973
0.0074297
0.00156161
0.00768766
0.00156801
0.00792092
0.00152638
0.00816252
0.00156514
0.00836727
0.00148964
0.00860058
0.00158253
0.00147319
0.00164782
0.00315446
0.00237734
0.00170916
0.00315608
0.00181564
0.00370021
0.0014133
0.00421984
0.00143194
0.00467783
0.0013625
0.0051006
0.00134479
0.0054905
0.00132682
0.00585405
0.00131763
0.00619313
0.00130987
0.00651268
0.00130699
0.00681143
0.00130163
0.00709696
0.0013042
0.007362
0.00129657
0.00762204
0.00130796
0.00785706
0.00129137
0.00810057
0.00132163
0.00830669
0.00128352
0.00854162
0.00134761
0.00128781
0.00152156
0.0016329
0.00227615
0.000954574
0.00307205
0.00101974
0.00362405
0.000861297
0.00414937
0.000906625
0.00461124
0.000900629
0.00503728
0.000918756
0.00542984
0.000934257
0.00579568
0.000951795
0.00613674
0.00096881
0.00645804
0.000985686
0.00675835
0.00100132
0.00704531
0.00101724
0.00731163
0.00103025
0.00757291
0.00104668
0.00780897
0.00105531
0.00805364
0.00107697
0.00826056
0.00107659
0.00849648
0.00111169
0.00110146
0.00145706
0.000175832
0.00222391
0.000187732
0.00302746
0.000216189
0.00358264
0.000306117
0.0041101
0.000379168
0.00457336
0.000437366
0.00500054
0.000491576
0.00539398
0.000540813
0.00576054
0.000585233
0.00610221
0.000627139
0.00642405
0.000663852
0.00672482
0.000700545
0.00701221
0.000729854
0.00727891
0.00076355
0.00754056
0.000785024
0.00777694
0.000818928
0.00802198
0.000831934
0.00822914
0.000869428
0.0084654
0.000875436
0.000914744
0.0014549
-0.00127907
0.00222113
-0.000578496
0.00302284
-0.000585519
0.00357636
-0.00024741
0.00410237
-0.000146841
0.0045645
-2.47582e-05
0.00499066
6.54095e-05
0.00538319
0.00014829
0.0057489
0.000219517
0.0060898
0.000286237
0.00641092
0.000342732
0.00671106
0.000400409
0.00699785
0.000443067
0.00726403
0.00049737
0.00752519
0.000523864
0.00776115
0.000582968
0.00800578
0.000587295
0.0082126
0.000662612
0.00844856
0.000639479
0.000728278
0.00151517
-0.00279424
0.00226789
-0.00133121
0.00305823
-0.00137586
0.00360528
-0.000794463
0.00412627
-0.000667828
0.00458473
-0.000483227
0.00500774
-0.000357596
0.00539754
-0.000241513
0.00576084
-0.000143782
0.0060996
-5.25167e-05
0.00641877
2.3562e-05
0.00671716
0.000102017
0.00700233
0.000157897
0.00726708
0.000232616
0.00752688
0.00026407
0.00776168
0.000348161
0.00800514
0.000343835
0.00821104
0.000456717
0.00844605
0.000404464
0.000542693
0.00163752
-0.00443177
0.00236381
-0.0020575
0.00313318
-0.00214523
0.00366912
-0.0013304
0.00418158
-0.00118029
0.00463393
-0.000935576
0.00505165
-0.000775325
0.00543696
-0.000626823
0.0057963
-0.000503115
0.00613154
-0.000387759
0.00644753
-0.000292433
0.00674309
-0.000193537
0.00702563
-0.000124649
0.00728807
-2.98175e-05
0.00754564
6.5019e-06
0.00777856
0.000115233
0.00802007
0.000102328
0.00822448
0.000252309
0.0084579
0.000171042
0.00035861
0.00182148
-0.00625325
0.00250804
-0.00274406
0.00324682
-0.00288401
0.00376726
-0.00185083
0.00426784
-0.00168087
0.0047117
-0.00137943
0.00512209
-0.00118572
0.00550118
-0.00100591
0.00585503
-0.000856968
0.00618543
-0.000718157
0.00649705
-0.000604055
0.0067887
-0.000485182
0.00706763
-0.000403583
0.00732687
-0.000289051
0.00758136
-0.000247994
0.00781169
-0.000115099
0.00805049
-0.000136469
0.00825285
4.99483e-05
0.00848404
-6.01432e-05
0.000176638
0.00205696
-0.00831021
0.0027056
-0.00339269
0.00339547
-0.00357388
0.00389974
-0.0023551
0.00438415
-0.00216528
0.00481758
-0.00181286
0.00521857
-0.00158671
0.00558979
-0.00137713
0.00593669
-0.00120387
0.00626096
-0.00104243
0.00656703
-0.000910124
0.00685375
-0.000771905
0.00712806
-0.000677891
0.00738332
-0.000544317
0.00763377
-0.000498445
0.00786106
-0.000342381
0.00809599
-0.000371402
0.00829647
-0.000150535
0.00852351
-0.00028718
-4.53588e-06
0.0213932
-0.010355
-0.0193484
0.0244226
-0.00642208
0.0274051
-0.00655636
0.0304261
-0.00537617
0.0331423
-0.00488149
0.0357189
-0.00438945
0.0381131
-0.00398088
0.0403558
-0.00361981
0.042463
-0.00331106
0.0444459
-0.00302532
0.0463218
-0.00278608
0.0480933
-0.00254342
0.049781
-0.00236555
0.0513783
-0.0021416
0.0529129
-0.00203305
0.0543687
-0.0017982
0.0557781
-0.00178076
0.05713
-0.00150247
0.0584294
-0.00158657
-0.00130302
0.0415705
-0.00929926
-0.0426263
0.0425713
-0.00742284
0.0435999
-0.00758495
0.0451733
-0.00694956
0.0467211
-0.00642929
0.048282
-0.00595035
0.049817
-0.00551588
0.0513091
-0.00511186
0.0527513
-0.00475333
0.0541396
-0.00441364
0.0554761
-0.00412255
0.0567604
-0.00382769
0.0579956
-0.00360078
0.059187
-0.00333294
0.0603306
-0.00317669
0.0614476
-0.00291523
0.0625094
-0.00284252
0.0635794
-0.0025725
0.0645763
-0.00258345
-0.0023483
0.0628123
-0.00791462
-0.064197
0.062763
-0.00737355
0.0626072
-0.00742914
0.062908
-0.00725035
0.0633943
-0.0069156
0.0639898
-0.00654579
0.0646553
-0.00618141
0.0653625
-0.00581907
0.0660917
-0.00548257
0.0668289
-0.00515078
0.0675663
-0.00485991
0.0682989
-0.00456035
0.0690213
-0.00432316
0.0697381
-0.00404974
0.0704365
-0.00387505
0.0711396
-0.00361835
0.0718124
-0.00351533
0.0725133
-0.00327339
0.0731717
-0.00324182
-0.00305342
0.0809978
-0.00639838
-0.0825141
0.0803628
-0.00673853
0.0797843
-0.0068506
0.0794199
-0.00688603
0.0792514
-0.00674712
0.0792131
-0.00650748
0.0792683
-0.00623661
0.0793937
-0.00594442
0.0795718
-0.00566071
0.0797896
-0.0053686
0.0800363
-0.00510658
0.0803074
-0.00483144
0.0805926
-0.00460832
0.0808977
-0.00435489
0.0812051
-0.00418241
0.0815378
-0.0039511
0.0818602
-0.00383773
0.0822219
-0.00363508
0.0825636
-0.00358352
-0.0034416
0.0949845
-0.00496315
-0.0964197
0.094035
-0.00578903
0.0932719
-0.00608749
0.0926122
-0.00622639
0.0920997
-0.00623462
0.091713
-0.00612073
0.0914211
-0.00594469
0.0912043
-0.00572763
0.0910474
-0.00550381
0.090941
-0.00526222
0.0908733
-0.00503892
0.0908426
-0.00480071
0.0908357
-0.00460144
0.0908608
-0.00437993
0.0908975
-0.00421917
0.0909687
-0.00402227
0.0910403
-0.00390933
0.0911536
-0.00374842
0.0912597
-0.00368962
-0.00359008
0.104533
-0.00375089
-0.105745
0.103509
-0.00476557
0.102666
-0.00524394
0.101916
-0.00547662
0.101267
-0.00558508
0.100724
-0.00557799
0.100271
-0.00549132
0.099891
-0.00534808
0.0995708
-0.00518361
0.0993032
-0.00499468
0.0990763
-0.00481199
0.0988899
-0.00461432
0.0987301
-0.00444163
0.0986052
-0.00425501
0.0984956
-0.00410957
0.0984206
-0.00394732
0.0983516
-0.00384034
0.0983195
-0.00371624
0.098287
-0.00365718
-0.00359114
0.110107
-0.00281099
-0.111047
0.109177
-0.0038361
0.108366
-0.00443276
0.107643
-0.004754
0.106992
-0.004934
0.106422
-0.00500784
0.105929
-0.00499824
0.105504
-0.00492289
0.105134
-0.00481363
0.104814
-0.00467508
0.104534
-0.00453159
0.104293
-0.00437356
0.104079
-0.00422765
0.103899
-0.00407433
0.103735
-0.00394573
0.103601
-0.003814
0.103477
-0.00371613
0.103382
-0.00362089
0.10329
-0.00356541
-0.00352273
0.112662
-0.00212106
-0.113352
0.111906
-0.00307983
0.111201
-0.00372801
0.110564
-0.00411724
0.109983
-0.00435274
0.10946
-0.00448532
0.108999
-0.00453643
0.108595
-0.00451942
0.108241
-0.00445921
0.107932
-0.00436601
0.107659
-0.00425867
0.107422
-0.00413681
0.107211
-0.00401677
0.10703
-0.00389306
0.106866
-0.0037819
0.106727
-0.00367534
0.1066
-0.00358837
0.106493
-0.0035143
0.106392
-0.00346439
-0.00343642
0.113248
-0.00162845
-0.113741
0.112669
-0.00250022
0.112094
-0.00315385
0.111563
-0.00358557
0.111074
-0.00386404
0.110629
-0.00403989
0.110229
-0.00413697
0.109877
-0.00416743
0.109567
-0.00414935
0.109297
-0.00409558
0.109059
-0.00402069
0.108853