x,y,z,p
0,0,0,3.68669e-05
0,0.1,0,6.69035e-05
0,0.2,0,9.694e-05
0,0.3,0,0.000126977
0,0.4,0,0.000162175
0,0.5,0,0.000202535
0,0.6,0,0.000242895
0,0.7,0,0.000283256
0,0.8,0,0.000323197
0,0.9,0,0.000363139
0,1,0,0.000403081
0,1.1,0,0.000442707
0,1.2,0,0.000482018
0,1.3,0,0.000521329
0,1.4,0,0.00056064
0,1.5,0,0.000599105
0,1.6,0,0.000637569
0,1.7,0,0.000676034
0,1.8,0,0.000713965
0,1.9,0,0.000751363
0,2,0,0.00078876
0,2.1,0,0.000826158
0,2.2,0,0.00086226
0,2.3,0,0.000898362
0,2.4,0,0.000934464
0,2.5,0,0.000969803
0,2.6,0,0.00100438
0,2.7,0,0.00103895
0,2.8,0,0.00107353
0,2.9,0,0.00110634
0,3,0,0.00113915
0,3.1,0,0.00117196
0,3.2,0,0.00120377
0,3.3,0,0.00123458
0,3.4,0,0.00126539
0,3.5,0,0.00129619
0,3.6,0,0.00132476
0,3.7,0,0.00135333
0,3.8,0,0.0013819
0,3.9,0,0.00140922
0,4,0,0.00143531
0,4.1,0,0.00146141
0,4.2,0,0.0014875
0,4.3,0,0.00151088
0,4.4,0,0.00153426
0,4.5,0,0.00155764
0,4.6,0,0.00157956
0,4.7,0,0.00160001
0,4.8,0,0.00162046
0,4.9,0,0.00164091
0,5,0,0.0016582
0,5.1,0,0.0016755
0,5.2,0,0.00169279
0,5.3,0,0.00170839
0,5.4,0,0.00172231
0,5.5,0,0.00173622
0,5.6,0,0.00175013
0,5.7,0,0.00176045
0,5.8,0,0.00177076
0,5.9,0,0.00178107
0,6,0,0.00178947
0,6.1,0,0.00179596
0,6.2,0,0.00180246
0,6.3,0,0.00180895
0,6.4,0,0.00181133
0,6.5,0,0.00181371
0,6.6,0,0.00181609
0,6.7,0,0.00181673
0,6.8,0,0.00181563
0,6.9,0,0.00181452
0,7,0,0.00181342
0,7.1,0,0.00180682
0,7.2,0,0.00180107
0,7.3,0,0.00179414
0,7.4,0,0.00178604
0,7.5,0,0.00177678
0,7.6,0,0.00176634
0,7.7,0,0.00175473
0,7.8,0,0.00174197
0,7.9,0,0.00172801
0,8,0,0.00170756
0,8.1,0,0.0016926
0,8.2,0,0.00167764
0,8.3,0,0.0016595
0,8.4,0,0.00163965
0,8.5,0,0.00161899
0,8.6,0,0.00159644
0,8.7,0,0.00157389
0,8.8,0,0.00154887
0,8.9,0,0.00152372
0,9,0,0.00149709
0,9.1,0,0.00146947
0,9.2,0,0.00144126
0,9.3,0,0.00141129
0,9.4,0,0.00138133
0,9.5,0,0.00134936
0,9.6,0,0.00131718
0,9.7,0,0.00128385
0,9.8,0,0.00124958
0,9.9,0,0.00121492
0,10,0,0.0011787
0,10.1,0,0.00114248
0,10.2,0,0.00110472
0,10.3,0,0.00106669
0,10.4,0,0.00102783
0,10.5,0,0.000988143
0,10.6,0,0.000948225
0,10.7,0,0.000907018
0,10.8,0,0.00086581
0,10.9,0,0.000823515
0,11,0,0.000780947
0,11.1,0,0.000737838
0,11.2,0,0.000694067
0,11.3,0,0.000650192
0,11.4,0,0.000605381
0,11.5,0,0.000560569
0,11.6,0,0.000515101
0,11.7,0,0.000469414
0,11.8,0,0.000423444
0,11.9,0,0.00037705
0,12,0,0.00033063
0,12.1,0,0.0002837
0,12.2,0,0.00023677
0,12.3,0,0.00018959
0,12.4,0,0.000142301
0,12.5,0,9.93253e-05
0,12.6,0,6.43576e-05
0,12.7,0,2.93898e-05
0.1,0,0,3.01638e-05
0.1,0.1,0,6.02347e-05
0.1,0.2,0,9.02712e-05
0.1,0.3,0,0.00012177
0.1,0.4,0,0.000162286
0.1,0.5,0,0.000202634
0.1,0.6,0,0.000242995
0.1,0.7,0,0.000283568
0.1,0.8,0,0.000323364
0.1,0.9,0,0.000363306
0.1,1,0,0.000403313
0.1,1.1,0,0.000442993
0.1,1.2,0,0.000482253
0.1,1.3,0,0.000521564
0.1,1.4,0,0.000561278
0.1,1.5,0,0.000599409
0.1,1.6,0,0.000637873
0.1,1.7,0,0.000676447
0.1,1.8,0,0.000714434
0.1,1.9,0,0.000751738
0.1,2,0,0.000789135
0.1,2.1,0,0.000827154
0.1,2.2,0,0.000862709
0.1,2.3,0,0.000898811
0.1,2.4,0,0.000935072
0.1,2.5,0,0.000970469
0.1,2.6,0,0.0010049
0.1,2.7,0,0.00103948
0.1,2.8,0,0.00107492
0.1,2.9,0,0.00110694
0.1,3,0,0.00113975
0.1,3.1,0,0.00117278
0.1,3.2,0,0.00120465
0.1,3.3,0,0.00123526
0.1,3.4,0,0.00126606
0.1,3.5,0,0.00129799
0.1,3.6,0,0.00132551
0.1,3.7,0,0.00135408
0.1,3.8,0,0.00138291
0.1,3.9,0,0.0014103
0.1,4,0,0.00143614
0.1,4.1,0,0.00146223
0.1,4.2,0,0.00148963
0.1,4.3,0,0.00151177
0.1,4.4,0,0.00153516
0.1,4.5,0,0.00155883
0.1,4.6,0,0.0015808
0.1,4.7,0,0.00160098
0.1,4.8,0,0.00162143
0.1,4.9,0,0.0016432
0.1,5,0,0.00165924
0.1,5.1,0,0.00167653
0.1,5.2,0,0.00169409
0.1,5.3,0,0.00170975
0.1,5.4,0,0.00172342
0.1,5.5,0,0.00173733
0.1,5.6,0,0.00175233
0.1,5.7,0,0.00176163
0.1,5.8,0,0.00177194
0.1,5.9,0,0.00178244
0.1,6,0,0.00179089
0.1,6.1,0,0.00179721
0.1,6.2,0,0.0018037
0.1,6.3,0,0.0018109
0.1,6.4,0,0.0018127
0.1,6.5,0,0.00181508
0.1,6.6,0,0.00181758
0.1,6.7,0,0.0018178
0.1,6.8,0,0.00181647
0.1,6.9,0,0.00181537
0.1,7,0,0.00181532
0.1,7.1,0,0.00180864
0.1,7.2,0,0.0018029
0.1,7.3,0,0.00179599
0.1,7.4,0,0.00178791
0.1,7.5,0,0.00177864
0.1,7.6,0,0.0017682
0.1,7.7,0,0.00175658
0.1,7.8,0,0.00174378
0.1,7.9,0,0.00172981
0.1,8,0,0.00170937
0.1,8.1,0,0.0016941
0.1,8.2,0,0.0016792
0.1,8.3,0,0.00166009
0.1,8.4,0,0.00164024
0.1,8.5,0,0.00161993
0.1,8.6,0,0.00159701
0.1,8.7,0,0.00157554
0.1,8.8,0,0.00154941
0.1,8.9,0,0.00152434
0.1,9,0,0.0014976
0.1,9.1,0,0.00146998
0.1,9.2,0,0.00144231
0.1,9.3,0,0.00141178
0.1,9.4,0,0.00138288
0.1,9.5,0,0.00134982
0.1,9.6,0,0.00131764
0.1,9.7,0,0.00128428
0.1,9.8,0,0.00125001
0.1,9.9,0,0.00121611
0.1,10,0,0.0011791
0.1,10.1,0,0.00114383
0.1,10.2,0,0.00110509
0.1,10.3,0,0.00106706
0.1,10.4,0,0.00102818
0.1,10.5,0,0.000988484
0.1,10.6,0,0.000949453
0.1,10.7,0,0.000907325
0.1,10.8,0,0.000866812
0.1,10.9,0,0.000823789
0.1,11,0,0.000781221
0.1,11.1,0,0.000738078
0.1,11.2,0,0.000694307
0.1,11.3,0,0.000651243
0.1,11.4,0,0.000605585
0.1,11.5,0,0.000561156
0.1,11.6,0,0.00051527
0.1,11.7,0,0.000469583
0.1,11.8,0,0.000423627
0.1,11.9,0,0.000377183
0.1,12,0,0.000331266
0.1,12.1,0,0.000283796
0.1,12.2,0,0.000236981
0.1,12.3,0,0.000189647
0.1,12.4,0,0.000142359
0.1,12.5,0,9.50107e-05
0.1,12.6,0,5.90362e-05
0.1,12.7,0,2.40462e-05
0.2,0,0,2.34608e-05
0.2,0.1,0,5.35512e-05
0.2,0.2,0,8.36024e-05
0.2,0.3,0,0.000121927
0.2,0.4,0,0.000162443
0.2,0.5,0,0.000202734
0.2,0.6,0,0.000243185
0.2,0.7,0,0.00028388
0.2,0.8,0,0.000323594
0.2,0.9,0,0.000363473
0.2,1,0,0.000403785
0.2,1.1,0,0.000443464
0.2,1.2,0,0.000482487
0.2,1.3,0,0.000521971
0.2,1.4,0,0.000561915
0.2,1.5,0,0.000599856
0.2,1.6,0,0.000638177
0.2,1.7,0,0.000677259
0.2,1.8,0,0.000715246
0.2,1.9,0,0.000752113
0.2,2,0,0.000789777
0.2,2.1,0,0.000828151
0.2,2.2,0,0.000863392
0.2,2.3,0,0.00089926
0.2,2.4,0,0.000936264
0.2,2.5,0,0.000971661
0.2,2.6,0,0.00100542
0.2,2.7,0,0.00104037
0.2,2.8,0,0.00107632
0.2,2.9,0,0.00110788
0.2,3,0,0.00114035
0.2,3.1,0,0.00117438
0.2,3.2,0,0.00120624
0.2,3.3,0,0.00123593
0.2,3.4,0,0.00126722
0.2,3.5,0,0.00129979
0.2,3.6,0,0.00132671
0.2,3.7,0,0.00135483
0.2,3.8,0,0.00138489
0.2,3.9,0,0.00141228
0.2,4,0,0.00143697
0.2,4.1,0,0.00146362
0.2,4.2,0,0.00149177
0.2,4.3,0,0.0015132
0.2,4.4,0,0.00153605
0.2,4.5,0,0.00156107
0.2,4.6,0,0.00158305
0.2,4.7,0,0.00160195
0.2,4.8,0,0.00162297
0.2,4.9,0,0.00164549
0.2,5,0,0.00166082
0.2,5.1,0,0.00167757
0.2,5.2,0,0.00169636
0.2,5.3,0,0.00171202
0.2,5.4,0,0.00172453
0.2,5.5,0,0.00173891
0.2,5.6,0,0.00175452
0.2,5.7,0,0.00176324
0.2,5.8,0,0.00177312
0.2,5.9,0,0.00178451
0.2,6,0,0.00179296
0.2,6.1,0,0.00179845
0.2,6.2,0,0.00180525
0.2,6.3,0,0.00181284
0.2,6.4,0,0.00181432
0.2,6.5,0,0.00181646
0.2,6.6,0,0.00181951
0.2,6.7,0,0.00181973
0.2,6.8,0,0.00181731
0.2,6.9,0,0.00181666
0.2,7,0,0.00181721
0.2,7.1,0,0.00181046
0.2,7.2,0,0.00180474
0.2,7.3,0,0.00179784
0.2,7.4,0,0.00178977
0.2,7.5,0,0.0017805
0.2,7.6,0,0.00177005
0.2,7.7,0,0.00175842
0.2,7.8,0,0.0017456
0.2,7.9,0,0.00173161
0.2,8,0,0.00171119
0.2,8.1,0,0.0016956
0.2,8.2,0,0.00168102
0.2,8.3,0,0.00166126
0.2,8.4,0,0.00164126
0.2,8.5,0,0.00162172
0.2,8.6,0,0.00159758
0.2,8.7,0,0.00157733
0.2,8.8,0,0.00154995
0.2,8.9,0,0.00152616
0.2,9,0,0.00149889
0.2,9.1,0,0.00147082
0.2,9.2,0,0.00144417
0.2,9.3,0,0.00141227
0.2,9.4,0,0.00138477
0.2,9.5,0,0.00135029
0.2,9.6,0,0.00131946
0.2,9.7,0,0.00128575
0.2,9.8,0,0.00125062
0.2,9.9,0,0.00121801
0.2,10,0,0.0011795
0.2,10.1,0,0.0011457
0.2,10.2,0,0.00110548
0.2,10.3,0,0.00106863
0.2,10.4,0,0.00102974
0.2,10.5,0,0.00098884
0.2,10.6,0,0.000951179
0.2,10.7,0,0.000907632
0.2,10.8,0,0.000868425
0.2,10.9,0,0.000824234
0.2,11,0,0.00078235
0.2,11.1,0,0.000739486
0.2,11.2,0,0.000694547
0.2,11.3,0,0.000652553
0.2,11.4,0,0.00060579
0.2,11.5,0,0.000562281
0.2,11.6,0,0.000515673
0.2,11.7,0,0.000470201
0.2,11.8,0,0.000424551
0.2,11.9,0,0.000377316
0.2,12,0,0.000331974
0.2,12.1,0,0.000283892
0.2,12.2,0,0.000237463
0.2,12.3,0,0.000189858
0.2,12.4,0,0.000142506
0.2,12.5,0,9.52558e-05
0.2,12.6,0,5.37148e-05
0.2,12.7,0,1.87026e-05
0.3,0,0,1.67577e-05
0.3,0.1,0,4.68481e-05
0.3,0.2,0,8.13215e-05
0.3,0.3,0,0.000122084
0.3,0.4,0,0.0001626
0.3,0.5,0,0.00020287
0.3,0.6,0,0.000243497
0.3,0.7,0,0.000284192
0.3,0.8,0,0.000323906
0.3,0.9,0,0.000363836
0.3,1,0,0.000404256
0.3,1.1,0,0.000443936
0.3,1.2,0,0.000482874
0.3,1.3,0,0.000522608
0.3,1.4,0,0.000562553
0.3,1.5,0,0.000600493
0.3,1.6,0,0.000638808
0.3,1.7,0,0.000678072
0.3,1.8,0,0.000716059
0.3,1.9,0,0.000752769
0.3,2,0,0.000790774
0.3,2.1,0,0.000829148
0.3,2.2,0,0.000864389
0.3,2.3,0,0.000900186
0.3,2.4,0,0.000937455
0.3,2.5,0,0.000972852
0.3,2.6,0,0.00100638
0.3,2.7,0,0.00104177
0.3,2.8,0,0.00107771
0.3,2.9,0,0.00110927
0.3,3,0,0.00114159
0.3,3.1,0,0.00117597
0.3,3.2,0,0.00120784
0.3,3.3,0,0.0012372
0.3,3.4,0,0.00126902
0.3,3.5,0,0.00130159
0.3,3.6,0,0.00132851
0.3,3.7,0,0.00135637
0.3,3.8,0,0.00138688
0.3,3.9,0,0.00141426
0.3,4,0,0.00143854
0.3,4.1,0,0.00146575
0.3,4.2,0,0.0014939
0.3,4.3,0,0.00151534
0.3,4.4,0,0.00153782
0.3,4.5,0,0.00156331
0.3,4.6,0,0.00158529
0.3,4.7,0,0.00160374
0.3,4.8,0,0.00162526
0.3,4.9,0,0.00164778
0.3,5,0,0.00166311
0.3,5.1,0,0.00167941
0.3,5.2,0,0.00169864
0.3,5.3,0,0.0017143
0.3,5.4,0,0.00172639
0.3,5.5,0,0.0017411
0.3,5.6,0,0.00175671
0.3,5.7,0,0.00176544
0.3,5.8,0,0.00177487
0.3,5.9,0,0.00178658
0.3,6,0,0.00179503
0.3,6.1,0,0.00180023
0.3,6.2,0,0.00180719
0.3,6.3,0,0.00181479
0.3,6.4,0,0.00181627
0.3,6.5,0,0.00181818
0.3,6.6,0,0.00182143
0.3,6.7,0,0.00182166
0.3,6.8,0,0.00181885
0.3,6.9,0,0.00181856
0.3,7,0,0.00181911
0.3,7.1,0,0.00181229
0.3,7.2,0,0.00180657
0.3,7.3,0,0.00179969
0.3,7.4,0,0.00179163
0.3,7.5,0,0.00178237
0.3,7.6,0,0.00177191
0.3,7.7,0,0.00176026
0.3,7.8,0,0.00174742
0.3,7.9,0,0.00173341
0.3,8,0,0.001713
0.3,8.1,0,0.00169731
0.3,8.2,0,0.00168284
0.3,8.3,0,0.00166308
0.3,8.4,0,0.00164305
0.3,8.5,0,0.00162351
0.3,8.6,0,0.00159882
0.3,8.7,0,0.00157913
0.3,8.8,0,0.00155147
0.3,8.9,0,0.00152798
0.3,9,0,0.00150071
0.3,9.1,0,0.00147268
0.3,9.2,0,0.00144602
0.3,9.3,0,0.00141345
0.3,9.4,0,0.00138665
0.3,9.5,0,0.00135202
0.3,9.6,0,0.00132136
0.3,9.7,0,0.00128765
0.3,9.8,0,0.00125252
0.3,9.9,0,0.00121991
0.3,10,0,0.00118064
0.3,10.1,0,0.00114757
0.3,10.2,0,0.00110734
0.3,10.3,0,0.00107044
0.3,10.4,0,0.00103155
0.3,10.5,0,0.000990566
0.3,10.6,0,0.000952905
0.3,10.7,0,0.000908627
0.3,10.8,0,0.000870038
0.3,10.9,0,0.000825847
0.3,11,0,0.000783823
0.3,11.1,0,0.000740959
0.3,11.2,0,0.000695743
0.3,11.3,0,0.000653863
0.3,11.4,0,0.000606534
0.3,11.5,0,0.000563406
0.3,11.6,0,0.000516798
0.3,11.7,0,0.000471125
0.3,11.8,0,0.000425474
0.3,11.9,0,0.000377895
0.3,12,0,0.000332682
0.3,12.1,0,0.00028432
0.3,12.2,0,0.000237944
0.3,12.3,0,0.000190339
0.3,12.4,0,0.000142751
0.3,12.5,0,9.55009e-05
0.3,12.6,0,4.83787e-05
0.3,12.7,0,1.3359e-05
0.4,0,0,1.00546e-05
0.4,0.1,0,4.06326e-05
0.4,0.2,0,8.14488e-05
0.4,0.3,0,0.000122241
0.4,0.4,0,0.000162757
0.4,0.5,0,0.000203209
0.4,0.6,0,0.000243814
0.4,0.7,0,0.000284504
0.4,0.8,0,0.00032424
0.4,0.9,0,0.000364432
0.4,1,0,0.000404728
0.4,1.1,0,0.000444407
0.4,1.2,0,0.000483691
0.4,1.3,0,0.000523263
0.4,1.4,0,0.00056319
0.4,1.5,0,0.000601167
0.4,1.6,0,0.000639906
0.4,1.7,0,0.000678884
0.4,1.8,0,0.000716871
0.4,1.9,0,0.000754115
0.4,2,0,0.000791802
0.4,2.1,0,0.000830145
0.4,2.2,0,0.000865439
0.4,2.3,0,0.000901847
0.4,2.4,0,0.000938646
0.4,2.5,0,0.000974043
0.4,2.6,0,0.00100831
0.4,2.7,0,0.00104321
0.4,2.8,0,0.0010791
0.4,2.9,0,0.00111074
0.4,3,0,0.00114387
0.4,3.1,0,0.00117757
0.4,3.2,0,0.00120944
0.4,3.3,0,0.00123976
0.4,3.4,0,0.00127088
0.4,3.5,0,0.00130339
0.4,3.6,0,0.0013304
0.4,3.7,0,0.00135925
0.4,3.8,0,0.00138886
0.4,3.9,0,0.00141625
0.4,4,0,0.00144164
0.4,4.1,0,0.00146797
0.4,4.2,0,0.00149604
0.4,4.3,0,0.00151757
0.4,4.4,0,0.00154112
0.4,4.5,0,0.00156556
0.4,4.6,0,0.00158753
0.4,4.7,0,0.00160711
0.4,4.8,0,0.00162764
0.4,4.9,0,0.00165007
0.4,5,0,0.00166549
0.4,5.1,0,0.00168275
0.4,5.2,0,0.00170091
0.4,5.3,0,0.00171657
0.4,5.4,0,0.00172959
0.4,5.5,0,0.00174337
0.4,5.6,0,0.00175891
0.4,5.7,0,0.00176769
0.4,5.8,0,0.00177781
0.4,5.9,0,0.00178865
0.4,6,0,0.00179711
0.4,6.1,0,0.0018029
0.4,6.2,0,0.0018092
0.4,6.3,0,0.00181674
0.4,6.4,0,0.00181826
0.4,6.5,0,0.0018206
0.4,6.6,0,0.00182336
0.4,6.7,0,0.00182358
0.4,6.8,0,0.00182168
0.4,6.9,0,0.00182053
0.4,7,0,0.001821
0.4,7.1,0,0.00181411
0.4,7.2,0,0.00180841
0.4,7.3,0,0.00180155
0.4,7.4,0,0.00179349
0.4,7.5,0,0.00178423
0.4,7.6,0,0.00177376
0.4,7.7,0,0.0017621
0.4,7.8,0,0.00174924
0.4,7.9,0,0.00173521
0.4,8,0,0.00171482
0.4,8.1,0,0.00169939
0.4,8.2,0,0.00168466
0.4,8.3,0,0.00166493
0.4,8.4,0,0.00164501
0.4,8.5,0,0.0016253
0.4,8.6,0,0.00160178
0.4,8.7,0,0.00158092
0.4,8.8,0,0.00155418
0.4,8.9,0,0.0015298
0.4,9,0,0.00150253
0.4,9.1,0,0.00147487
0.4,9.2,0,0.00144788
0.4,9.3,0,0.0014167
0.4,9.4,0,0.00138853
0.4,9.5,0,0.00135477
0.4,9.6,0,0.00132326
0.4,9.7,0,0.00128955
0.4,9.8,0,0.00125496
0.4,9.9,0,0.0012218
0.4,10,0,0.001184
0.4,10.1,0,0.00114943
0.4,10.2,0,0.00110992
0.4,10.3,0,0.00107225
0.4,10.4,0,0.00103336
0.4,10.5,0,0.000993011
0.4,10.6,0,0.00095463
0.4,10.7,0,0.000911658
0.4,10.8,0,0.000871651
0.4,10.9,0,0.000827906
0.4,11,0,0.000785297
0.4,11.1,0,0.000742432
0.4,11.2,0,0.000697801
0.4,11.3,0,0.000655172
0.4,11.4,0,0.000608764
0.4,11.5,0,0.000564531
0.4,11.6,0,0.000518116
0.4,11.7,0,0.000472049
0.4,11.8,0,0.000426398
0.4,11.9,0,0.000379175
0.4,12,0,0.00033339
0.4,12.1,0,0.000285397
0.4,12.2,0,0.000238426
0.4,12.3,0,0.000190847
0.4,12.4,0,0.000143005
0.4,12.5,0,9.5746e-05
0.4,12.6,0,4.77134e-05
0.4,12.7,0,8.0154e-06
0.5,0,0,3.35154e-06
0.5,0.1,0,4.0755e-05
0.5,0.2,0,8.15713e-05
0.5,0.3,0,0.000122388
0.5,0.4,0,0.000162974
0.5,0.5,0,0.000203579
0.5,0.6,0,0.000244183
0.5,0.7,0,0.000284817
0.5,0.8,0,0.000324857
0.5,0.9,0,0.000365049
0.5,1,0,0.000405241
0.5,1.1,0,0.000444994
0.5,1.2,0,0.000484566
0.5,1.3,0,0.000524137
0.5,1.4,0,0.000563828
0.5,1.5,0,0.000602313
0.5,1.6,0,0.000641052
0.5,1.7,0,0.000679792
0.5,1.8,0,0.000717861
0.5,1.9,0,0.000755549
0.5,2,0,0.000793236
0.5,2.1,0,0.000831142
0.5,2.2,0,0.000867179
0.5,2.3,0,0.000903586
0.5,2.4,0,0.000939994
0.5,2.5,0,0.000975483
0.5,2.6,0,0.00101038
0.5,2.7,0,0.00104527
0.5,2.8,0,0.0010805
0.5,2.9,0,0.00111313
0.5,3,0,0.00114626
0.5,3.1,0,0.0011794
0.5,3.2,0,0.00121136
0.5,3.3,0,0.00124248
0.5,3.4,0,0.0012736
0.5,3.5,0,0.00130519
0.5,3.6,0,0.00133343
0.5,3.7,0,0.00136228
0.5,3.8,0,0.00139114
0.5,3.9,0,0.0014186
0.5,4,0,0.00144493
0.5,4.1,0,0.00147127
0.5,4.2,0,0.00149817
0.5,4.3,0,0.00152105
0.5,4.4,0,0.0015446
0.5,4.5,0,0.00156816
0.5,4.6,0,0.00159015
0.5,4.7,0,0.00161068
0.5,4.8,0,0.0016312
0.5,4.9,0,0.00165236
0.5,5,0,0.00166901
0.5,5.1,0,0.00168627
0.5,5.2,0,0.00170354
0.5,5.3,0,0.00171915
0.5,5.4,0,0.00173294
0.5,5.5,0,0.00174673
0.5,5.6,0,0.0017611
0.5,5.7,0,0.00177077
0.5,5.8,0,0.00178089
0.5,5.9,0,0.00179101
0.5,6,0,0.00179938
0.5,6.1,0,0.00180568
0.5,6.2,0,0.00181197
0.5,6.3,0,0.00181869
0.5,6.4,0,0.00182076
0.5,6.5,0,0.0018231
0.5,6.6,0,0.00182545
0.5,6.7,0,0.00182581
0.5,6.8,0,0.00182466
0.5,6.9,0,0.00182351
0.5,7,0,0.0018229
0.5,7.1,0,0.00181593
0.5,7.2,0,0.00181024
0.5,7.3,0,0.0018034
0.5,7.4,0,0.00179535
0.5,7.5,0,0.00178609
0.5,7.6,0,0.00177561
0.5,7.7,0,0.00176394
0.5,7.8,0,0.00175106
0.5,7.9,0,0.00173701
0.5,8,0,0.00171663
0.5,8.1,0,0.00170153
0.5,8.2,0,0.00168658
0.5,8.3,0,0.00166796
0.5,8.4,0,0.00164804
0.5,8.5,0,0.00162734
0.5,8.6,0,0.00160479
0.5,8.7,0,0.00158271
0.5,8.8,0,0.00155726
0.5,8.9,0,0.00153217
0.5,9,0,0.00150557
0.5,9.1,0,0.00147803
0.5,9.2,0,0.00144985
0.5,9.3,0,0.00141995
0.5,9.4,0,0.00139042
0.5,9.5,0,0.0013581
0.5,9.6,0,0.00132595
0.5,9.7,0,0.00129261
0.5,9.8,0,0.00125833
0.5,9.9,0,0.0012237
0.5,10,0,0.00118736
0.5,10.1,0,0.0011513
0.5,10.2,0,0.00111323
0.5,10.3,0,0.00107507
0.5,10.4,0,0.0010361
0.5,10.5,0,0.000996207
0.5,10.6,0,0.000956356
0.5,10.7,0,0.00091469
0.5,10.8,0,0.000873264
0.5,10.9,0,0.000830718
0.5,11,0,0.000787824
0.5,11.1,0,0.000744497
0.5,11.2,0,0.000700344
0.5,11.3,0,0.000656482
0.5,11.4,0,0.000610994
0.5,11.5,0,0.000565751
0.5,11.6,0,0.000519996
0.5,11.7,0,0.000473837
0.5,11.8,0,0.000427572
0.5,11.9,0,0.000380674
0.5,12,0,0.000334098
0.5,12.1,0,0.000286491
0.5,12.2,0,0.000239031
0.5,12.3,0,0.000191516
0.5,12.4,0,0.000143675
0.5,12.5,0,9.59841e-05
0.5,12.6,0,4.79363e-05
0.5,12.7,0,2.6718e-06
0.6,0,0,0
0.6,0.1,0,4.0914e-05
0.6,0.2,0,8.17303e-05
0.6,0.3,0,0.000122547
0.6,0.4,0,0.000163442
0.6,0.5,0,0.000204047
0.6,0.6,0,0.000244651
0.6,0.7,0,0.000285436
0.6,0.8,0,0.000325637
0.6,0.9,0,0.00036583
0.6,1,0,0.000406022
0.6,1.1,0,0.000446099
0.6,1.2,0,0.000485671
0.6,1.3,0,0.000525243
0.6,1.4,0,0.000565084
0.6,1.5,0,0.000603758
0.6,1.6,0,0.000642497
0.6,1.7,0,0.000681237
0.6,1.8,0,0.000719665
0.6,1.9,0,0.000757353
0.6,2,0,0.00079504
0.6,2.1,0,0.000833085
0.6,2.2,0,0.000869362
0.6,2.3,0,0.00090577
0.6,2.4,0,0.000942178
0.6,2.5,0,0.000978065
0.6,2.6,0,0.00101296
0.6,2.7,0,0.00104785
0.6,2.8,0,0.00108318
0.6,2.9,0,0.00111612
0.6,3,0,0.00114925
0.6,3.1,0,0.00118239
0.6,3.2,0,0.00121476
0.6,3.3,0,0.00124588
0.6,3.4,0,0.00127701
0.6,3.5,0,0.00130864
0.6,3.6,0,0.00133722
0.6,3.7,0,0.00136608
0.6,3.8,0,0.00139493
0.6,3.9,0,0.00142274
0.6,4,0,0.00144907
0.6,4.1,0,0.0014754
0.6,4.2,0,0.00150235
0.6,4.3,0,0.00152546
0.6,4.4,0,0.00154901
0.6,4.5,0,0.00157256
0.6,4.6,0,0.00159472
0.6,4.7,0,0.00161524
0.6,4.8,0,0.00163577
0.6,4.9,0,0.00165711
0.6,5,0,0.00167361
0.6,5.1,0,0.00169087
0.6,5.2,0,0.00170813
0.6,5.3,0,0.00172364
0.6,5.4,0,0.00173743
0.6,5.5,0,0.00175122
0.6,5.6,0,0.00176619
0.6,5.7,0,0.00177505
0.6,5.8,0,0.00178517
0.6,5.9,0,0.00179529
0.6,6,0,0.00180339
0.6,6.1,0,0.00180969
0.6,6.2,0,0.00181598
0.6,6.3,0,0.00182394
0.6,6.4,0,0.00182454
0.6,6.5,0,0.00182688
0.6,6.6,0,0.00182923
0.6,6.7,0,0.00182974
0.6,6.8,0,0.00182858
0.6,6.9,0,0.00182743
0.6,7,0,0.00182839
0.6,7.1,0,0.00182148
0.6,7.2,0,0.00181583
0.6,7.3,0,0.001809
0.6,7.4,0,0.00180096
0.6,7.5,0,0.0017917
0.6,7.6,0,0.00178122
0.6,7.7,0,0.00176952
0.6,7.8,0,0.00175661
0.6,7.9,0,0.00174252
0.6,8,0,0.00172208
0.6,8.1,0,0.00170521
0.6,8.2,0,0.00169027
0.6,8.3,0,0.00167156
0.6,8.4,0,0.00165164
0.6,8.5,0,0.00163091
0.6,8.6,0,0.00160836
0.6,8.7,0,0.00158745
0.6,8.8,0,0.00156086
0.6,8.9,0,0.00153577
0.6,9,0,0.00150924
0.6,9.1,0,0.0014817
0.6,9.2,0,0.00145359
0.6,9.3,0,0.0014237
0.6,9.4,0,0.00139465
0.6,9.5,0,0.00136189
0.6,9.6,0,0.00132974
0.6,9.7,0,0.00129642
0.6,9.8,0,0.00126214
0.6,9.9,0,0.00122751
0.6,10,0,0.00119114
0.6,10.1,0,0.00115515
0.6,10.2,0,0.00111692
0.6,10.3,0,0.00107876
0.6,10.4,0,0.00103965
0.6,10.5,0,0.000999758
0.6,10.6,0,0.000959737
0.6,10.7,0,0.000918043
0.6,10.8,0,0.000876602
0.6,10.9,0,0.000833817
0.6,11,0,0.000790922
0.6,11.1,0,0.000747291
0.6,11.2,0,0.000703138
0.6,11.3,0,0.00065892
0.6,11.4,0,0.000613439
0.6,11.5,0,0.000568195
0.6,11.6,0,0.000522052
0.6,11.7,0,0.000475893
0.6,11.8,0,0.00042921
0.6,11.9,0,0.000382312
0.6,12,0,0.000335346
0.6,12.1,0,0.000287685
0.6,12.2,0,0.000240226
0.6,12.3,0,0.000192248
0.6,12.4,0,0.000144406
0.6,12.5,0,9.62328e-05
0.6,12.6,0,4.8185e-05
0.6,12.7,0,0
0.7,0,0,0
0.7,0.1,0,4.11095e-05
0.7,0.2,0,8.19257e-05
0.7,0.3,0,0.000122935
0.7,0.4,0,0.000163937
0.7,0.5,0,0.000204613
0.7,0.6,0,0.000245218
0.7,0.7,0,0.000286363
0.7,0.8,0,0.000326583
0.7,0.9,0,0.000366775
0.7,1,0,0.000407288
0.7,1.1,0,0.000447477
0.7,1.2,0,0.000487006
0.7,1.3,0,0.000526578
0.7,1.4,0,0.00056696
0.7,1.5,0,0.000605502
0.7,1.6,0,0.000644242
0.7,1.7,0,0.00068343
0.7,1.8,0,0.000721982
0.7,1.9,0,0.000759527
0.7,2,0,0.000797215
0.7,2.1,0,0.000835975
0.7,2.2,0,0.00087199
0.7,2.3,0,0.000908397
0.7,2.4,0,0.000945374
0.7,2.5,0,0.000981397
0.7,2.6,0,0.00101606
0.7,2.7,0,0.00105095
0.7,2.8,0,0.00108716
0.7,2.9,0,0.00111971
0.7,3,0,0.00115285
0.7,3.1,0,0.00118665
0.7,3.2,0,0.00121917
0.7,3.3,0,0.00124997
0.7,3.4,0,0.00128109
0.7,3.5,0,0.00131374
0.7,3.6,0,0.00134178
0.7,3.7,0,0.00137063
0.7,3.8,0,0.00140028
0.7,3.9,0,0.00142821
0.7,4,0,0.00145405
0.7,4.1,0,0.00148038
0.7,4.2,0,0.00150855
0.7,4.3,0,0.00153079
0.7,4.4,0,0.00155434
0.7,4.5,0,0.00157889
0.7,4.6,0,0.00160111
0.7,4.7,0,0.00162081
0.7,4.8,0,0.00164133
0.7,4.9,0,0.0016643
0.7,5,0,0.00167928
0.7,5.1,0,0.00169654
0.7,5.2,0,0.0017152
0.7,5.3,0,0.00173069
0.7,5.4,0,0.00174306
0.7,5.5,0,0.00175685
0.7,5.6,0,0.00177418
0.7,5.7,0,0.00178053
0.7,5.8,0,0.00179065
0.7,5.9,0,0.00180279
0.7,6,0,0.00181081
0.7,6.1,0,0.00181493
0.7,6.2,0,0.00182123
0.7,6.3,0,0.00183251
0.7,6.4,0,0.0018296
0.7,6.5,0,0.00183194
0.7,6.6,0,0.00183697
0.7,6.7,0,0.00183742
0.7,6.8,0,0.00183346
0.7,6.9,0,0.00183231
0.7,7,0,0.00183748
0.7,7.1,0,0.00183076
0.7,7.2,0,0.00182516
0.7,7.3,0,0.00181836
0.7,7.4,0,0.00181033
0.7,7.5,0,0.00180107
0.7,7.6,0,0.00179057
0.7,7.7,0,0.00177885
0.7,7.8,0,0.0017659
0.7,7.9,0,0.00175175
0.7,8,0,0.00173117
0.7,8.1,0,0.00171045
0.7,8.2,0,0.00169799
0.7,8.3,0,0.00167573
0.7,8.4,0,0.00165581
0.7,8.5,0,0.00163864
0.7,8.6,0,0.00161248
0.7,8.7,0,0.00159584
0.7,8.8,0,0.001565
0.7,8.9,0,0.00154215
0.7,9,0,0.0015138
0.7,9.1,0,0.00148589
0.7,9.2,0,0.00146108
0.7,9.3,0,0.00142793
0.7,9.4,0,0.00140207
0.7,9.5,0,0.00136615
0.7,9.6,0,0.00133524
0.7,9.7,0,0.00130126
0.7,9.8,0,0.00126639
0.7,9.9,0,0.00123411
0.7,10,0,0.00119533
0.7,10.1,0,0.0011613
0.7,10.2,0,0.001121
0.7,10.3,0,0.00108336
0.7,10.4,0,0.00104414
0.7,10.5,0,0.00100366
0.7,10.6,0,0.000964907
0.7,10.7,0,0.000921717
0.7,10.8,0,0.00088125
0.7,10.9,0,0.000837202
0.7,11,0,0.000794462
0.7,11.1,0,0.000750812
0.7,11.2,0,0.000706183
0.7,11.3,0,0.000662474
0.7,11.4,0,0.000616098
0.7,11.5,0,0.000571154
0.7,11.6,0,0.000524286
0.7,11.7,0,0.000478143
0.7,11.8,0,0.000431342
0.7,11.9,0,0.000384088
0.7,12,0,0.000337167
0.7,12.1,0,0.00028898
0.7,12.2,0,0.000241466
0.7,12.3,0,0.000193042
0.7,12.4,0,0.000145201
0.7,12.5,0,9.67452e-05
0.7,12.6,0,4.84595e-05
0.7,12.7,0,0
0.8,0,0,0
0.8,0.1,0,4.11234e-05
0.8,0.2,0,8.21598e-05
0.8,0.3,0,0.000123401
0.8,0.4,0,0.000164403
0.8,0.5,0,0.000205165
0.8,0.6,0,0.000246119
0.8,0.7,0,0.00028729
0.8,0.8,0,0.000327511
0.8,0.9,0,0.000367784
0.8,1,0,0.000408682
0.8,1.1,0,0.000448871
0.8,1.2,0,0.000488351
0.8,1.3,0,0.000528415
0.8,1.4,0,0.000568836
0.8,1.5,0,0.000607368
0.8,1.6,0,0.000646076
0.8,1.7,0,0.000685804
0.8,1.8,0,0.000724355
0.8,1.9,0,0.00076173
0.8,2,0,0.000800053
0.8,2.1,0,0.000838865
0.8,2.2,0,0.000874861
0.8,2.3,0,0.000911139
0.8,2.4,0,0.000948799
0.8,2.5,0,0.000984822
0.8,2.6,0,0.00101921
0.8,2.7,0,0.00105487
0.8,2.8,0,0.00109113
0.8,2.9,0,0.00112366
0.8,3,0,0.00115657
0.8,3.1,0,0.00119119
0.8,3.2,0,0.00122371
0.8,3.3,0,0.00125411
0.8,3.4,0,0.00128612
0.8,3.5,0,0.00131885
0.8,3.6,0,0.00134684
0.8,3.7,0,0.00137534
0.8,3.8,0,0.00140594
0.8,3.9,0,0.00143387
0.8,4,0,0.00145913
0.8,4.1,0,0.0014865
0.8,4.2,0,0.00151476
0.8,4.3,0,0.00153694
0.8,4.4,0,0.00155987
0.8,4.5,0,0.00158561
0.8,4.6,0,0.00160783
0.8,4.7,0,0.00162654
0.8,4.8,0,0.00164841
0.8,4.9,0,0.0016715
0.8,5,0,0.00168636
0.8,5.1,0,0.00170249
0.8,5.2,0,0.00172282
0.8,5.3,0,0.00173831
0.8,5.4,0,0.00174898
0.8,5.5,0,0.00176467
0.8,5.6,0,0.00178217
0.8,5.7,0,0.00178834
0.8,5.8,0,0.00179653
0.8,5.9,0,0.00181109
0.8,6,0,0.00181912
0.8,6.1,0,0.00182061
0.8,6.2,0,0.00182956
0.8,6.3,0,0.00184107
0.8,6.4,0,0.00183791
0.8,6.5,0,0.00183754
0.8,6.6,0,0.00184578
0.8,6.7,0,0.00184624
0.8,6.8,0,0.00183889
0.8,6.9,0,0.0018411
0.8,7,0,0.00184658
0.8,7.1,0,0.00184003
0.8,7.2,0,0.00183449
0.8,7.3,0,0.00182771
0.8,7.4,0,0.0018197
0.8,7.5,0,0.00181044
0.8,7.6,0,0.00179993
0.8,7.7,0,0.00178818
0.8,7.8,0,0.00177519
0.8,7.9,0,0.00176098
0.8,8,0,0.00174026
0.8,8.1,0,0.00171631
0.8,8.2,0,0.00170687
0.8,8.3,0,0.00168451
0.8,8.4,0,0.00166384
0.8,8.5,0,0.00164729
0.8,8.6,0,0.00161677
0.8,8.7,0,0.00160424
0.8,8.8,0,0.00157032
0.8,8.9,0,0.00155026
0.8,9,0,0.00152191
0.8,9.1,0,0.00149275
0.8,9.2,0,0.00146886
0.8,9.3,0,0.00143217
0.8,9.4,0,0.00140949
0.8,9.5,0,0.00137165
0.8,9.6,0,0.00134227
0.8,9.7,0,0.00130829
0.8,9.8,0,0.00127212
0.8,9.9,0,0.00124071
0.8,10,0,0.00119952
0.8,10.1,0,0.00116745
0.8,10.2,0,0.00112613
0.8,10.3,0,0.00108903
0.8,10.4,0,0.00104981
0.8,10.5,0,0.00100821
0.8,10.6,0,0.000970076
0.8,10.7,0,0.00092539
0.8,10.8,0,0.000885898
0.8,10.9,0,0.00084138
0.8,11,0,0.00079857
0.8,11.1,0,0.00075492
0.8,11.2,0,0.000709429
0.8,11.3,0,0.000666028
0.8,11.4,0,0.000618757
0.8,11.5,0,0.00057414
0.8,11.6,0,0.00052708
0.8,11.7,0,0.000480551
0.8,11.8,0,0.00043375
0.8,11.9,0,0.000385877
0.8,12,0,0.000338987
0.8,12.1,0,0.000290298
0.8,12.2,0,0.000242694
0.8,12.3,0,0.000194209
0.8,12.4,0,0.000145828
0.8,12.5,0,9.73692e-05
0.8,12.6,0,4.86902e-05
0.8,12.7,0,0
0.9,0,0,0
0.9,0.1,0,4.11234e-05
0.9,0.2,0,8.2556e-05
0.9,0.3,0,0.000123867
0.9,0.4,0,0.000164869
0.9,0.5,0,0.00020576
0.9,0.6,0,0.000247045
0.9,0.7,0,0.000288216
0.9,0.8,0,0.000328437
0.9,0.9,0,0.000369172
0.9,1,0,0.000410077
0.9,1.1,0,0.000450266
0.9,1.2,0,0.000489938
0.9,1.3,0,0.000530291
0.9,1.4,0,0.000570711
0.9,1.5,0,0.000609244
0.9,1.6,0,0.000648496
0.9,1.7,0,0.000688178
0.9,1.8,0,0.000726729
0.9,1.9,0,0.000764359
0.9,2,0,0.000802943
0.9,2.1,0,0.000841755
0.9,2.2,0,0.00087775
0.9,2.3,0,0.000914657
0.9,2.4,0,0.000952223
0.9,2.5,0,0.000988246
0.9,2.6,0,0.00102294
0.9,2.7,0,0.00105884
0.9,2.8,0,0.0010951
0.9,2.9,0,0.00112763
0.9,3,0,0.00116125
0.9,3.1,0,0.00119573
0.9,3.2,0,0.00122824
0.9,3.3,0,0.00125902
0.9,3.4,0,0.00129122
0.9,3.5,0,0.00132395
0.9,3.6,0,0.00135194
0.9,3.7,0,0.0013812
0.9,3.8,0,0.00141161
0.9,3.9,0,0.00143953
0.9,4,0,0.00146523
0.9,4.1,0,0.00149271
0.9,4.2,0,0.00152097
0.9,4.3,0,0.00154314
0.9,4.4,0,0.00156691
0.9,4.5,0,0.00159233
0.9,4.6,0,0.00161456
0.9,4.7,0,0.00163385
0.9,4.8,0,0.00165561
0.9,4.9,0,0.00167869
0.9,5,0,0.00169356
0.9,5.1,0,0.00171065
0.9,5.2,0,0.00173044
0.9,5.3,0,0.00174593
0.9,5.4,0,0.00175744
0.9,5.5,0,0.00177266
0.9,5.6,0,0.00179015
0.9,5.7,0,0.00179632
0.9,5.8,0,0.00180572
0.9,5.9,0,0.00181939
0.9,6,0,0.00182742
0.9,6.1,0,0.0018301
0.9,6.2,0,0.00183812
0.9,6.3,0,0.00184964
0.9,6.4,0,0.00184647
0.9,6.5,0,0.0018476
0.9,6.6,0,0.0018546
0.9,6.7,0,0.00185505
0.9,6.8,0,0.00184921
0.9,6.9,0,0.00185019
0.9,7,0,0.00185567
0.9,7.1,0,0.00184931
0.9,7.2,0,0.00184382
0.9,7.3,0,0.00183707
0.9,7.4,0,0.00182907
0.9,7.5,0,0.0018198
0.9,7.6,0,0.00180928
0.9,7.7,0,0.00179751
0.9,7.8,0,0.00178448
0.9,7.9,0,0.00177021
0.9,8,0,0.00174935
0.9,8.1,0,0.00172664
0.9,8.2,0,0.00171575
0.9,8.3,0,0.00169339
0.9,8.4,0,0.00167249
0.9,8.5,0,0.00165593
0.9,8.6,0,0.00162724
0.9,8.7,0,0.00161264
0.9,8.8,0,0.0015796
0.9,8.9,0,0.00155837
0.9,9,0,0.00153002
0.9,9.1,0,0.00150054
0.9,9.2,0,0.00147664
0.9,9.3,0,0.00144139
0.9,9.4,0,0.00141691
0.9,9.5,0,0.00137937
0.9,9.6,0,0.0013493
0.9,9.7,0,0.00131532
0.9,9.8,0,0.00127872
0.9,9.9,0,0.00124732
0.9,10,0,0.00120697
0.9,10.1,0,0.0011736
0.9,10.2,0,0.00113228
0.9,10.3,0,0.0010947
0.9,10.4,0,0.00105548
0.9,10.5,0,0.00101338
0.9,10.6,0,0.000975246
0.9,10.7,0,0.000930947
0.9,10.8,0,0.000890546
0.9,10.9,0,0.000846028
0.9,11,0,0.000802679
0.9,11.1,0,0.000759029
0.9,11.2,0,0.000713096
0.9,11.3,0,0.000669582
0.9,11.4,0,0.000622432
0.9,11.5,0,0.000577126
0.9,11.6,0,0.000530066
0.9,11.7,0,0.000482959
0.9,11.8,0,0.000436158
0.9,11.9,0,0.000387839
0.9,12,0,0.000340808
0.9,12.1,0,0.000292088
0.9,12.2,0,0.000243921
0.9,12.3,0,0.000195436
0.9,12.4,0,0.000146452
0.9,12.5,0,9.79931e-05
0.9,12.6,0,4.88092e-05
0.9,12.7,0,0
1,0,0,0
1,0.1,0,4.1278e-05
1,0.2,0,8.28265e-05
1,0.3,0,0.000124333
1,0.4,0,0.000165335
1,0.5,0,0.000206586
1,0.6,0,0.000247915
1,0.7,0,0.000289143
1,0.8,0,0.000329621
1,0.9,0,0.000370548
1,1,0,0.000411472
1,1.1,0,0.000451661
1,1.2,0,0.000491873
1,1.3,0,0.0005322
1,1.4,0,0.000572587
1,1.5,0,0.000611479
1,1.6,0,0.000651001
1,1.7,0,0.000690551
1,1.8,0,0.000729102
1,1.9,0,0.000767448
1,2,0,0.000805947
1,2.1,0,0.000844644
1,2.2,0,0.000881096
1,2.3,0,0.000918344
1,2.4,0,0.000955648
1,2.5,0,0.000991671
1,2.6,0,0.00102724
1,2.7,0,0.001063
1,2.8,0,0.00109908
1,2.9,0,0.00113215
1,3,0,0.00116617
1,3.1,0,0.00120027
1,3.2,0,0.00123278
1,3.3,0,0.00126457
1,3.4,0,0.00129659
1,3.5,0,0.00132905
1,3.6,0,0.00135768
1,3.7,0,0.00138742
1,3.8,0,0.00141727
1,3.9,0,0.0014452
1,4,0,0.00147212
1,4.1,0,0.00149931
1,4.2,0,0.00152718
1,4.3,0,0.00155015
1,4.4,0,0.00157451
1,4.5,0,0.00159906
1,4.6,0,0.00162128
1,4.7,0,0.0016422
1,4.8,0,0.00166347
1,4.9,0,0.00168589
1,5,0,0.00170187
1,5.1,0,0.0017198
1,5.2,0,0.00173806
1,5.3,0,0.00175355
1,5.4,0,0.00176742
1,5.5,0,0.00178179
1,5.6,0,0.00179814
1,5.7,0,0.00180593
1,5.8,0,0.00181654
1,5.9,0,0.00182769
1,6,0,0.00183572
1,6.1,0,0.00184172
1,6.2,0,0.00184843
1,6.3,0,0.0018582
1,6.4,0,0.00185718
1,6.5,0,0.00185992
1,6.6,0,0.00186341
1,6.7,0,0.00186386
1,6.8,0,0.00186225
1,6.9,0,0.00186153
1,7,0,0.00186476
1,7.1,0,0.00185858
1,7.2,0,0.00185315
1,7.3,0,0.00184642
1,7.4,0,0.00183843
1,7.5,0,0.00182917
1,7.6,0,0.00181864
1,7.7,0,0.00180684
1,7.8,0,0.00179377
1,7.9,0,0.00177943
1,8,0,0.00175845
1,8.1,0,0.00173937
1,8.2,0,0.00172462
1,8.3,0,0.0017046
1,8.4,0,0.00168414
1,8.5,0,0.00166458
1,8.6,0,0.00164017
1,8.7,0,0.00162103
1,8.8,0,0.00159196
1,8.9,0,0.00156647
1,9,0,0.00153958
1,9.1,0,0.00151128
1,9.2,0,0.00148442
1,9.3,0,0.00145236
1,9.4,0,0.00142434
1,9.5,0,0.00138956
1,9.6,0,0.00135649
1,9.7,0,0.00132302
1,9.8,0,0.00128775
1,9.9,0,0.00125392
1,10,0,0.00121553
1,10.1,0,0.00117975
1,10.2,0,0.00114001
1,10.3,0,0.00110073
1,10.4,0,0.00106137
1,10.5,0,0.0010203
1,10.6,0,0.000980415
1,10.7,0,0.00093709
1,10.8,0,0.000895193
1,10.9,0,0.000851307
1,11,0,0.00080715
1,11.1,0,0.000763164
1,11.2,0,0.000717713
1,11.3,0,0.000673136
1,11.4,0,0.000626313
1,11.5,0,0.000580113
1,11.6,0,0.000533184
1,11.7,0,0.000485671
1,11.8,0,0.000438566
1,11.9,0,0.000390291
1,12,0,0.000342629
1,12.1,0,0.00029384
1,12.2,0,0.000245148
1,12.3,0,0.000196555
1,12.4,0,0.000147302
1,12.5,0,9.86171e-05
1,12.6,0,4.91586e-05
1,12.7,0,0
1.1,0,0,0
1.1,0.1,0,4.15485e-05
1.1,0.2,0,8.3097e-05
1.1,0.3,0,0.000124645
1.1,0.4,0,0.000166084
1.1,0.5,0,0.000207413
1.1,0.6,0,0.000248741
1.1,0.7,0,0.00029007
1.1,0.8,0,0.000330997
1.1,0.9,0,0.000371925
1.1,1,0,0.000412852
1.1,1.1,0,0.000453479
1.1,1.2,0,0.000493807
1.1,1.3,0,0.000534135
1.1,1.4,0,0.000574463
1.1,1.5,0,0.000613984
1.1,1.6,0,0.000653506
1.1,1.7,0,0.000693028
1.1,1.8,0,0.000732038
1.1,1.9,0,0.000770537
1.1,2,0,0.000809036
1.1,2.1,0,0.000847534
1.1,2.2,0,0.000884782
1.1,2.3,0,0.00092203
1.1,2.4,0,0.000959278
1.1,2.5,0,0.000995781
1.1,2.6,0,0.00103154
1.1,2.7,0,0.0010673
1.1,2.8,0,0.00110305
1.1,2.9,0,0.00113707