/*--------------------------------*- C++ -*----------------------------------*\
| =========                 |                                                 |
| \\      /  F ield         | OpenFOAM: The Open Source CFD Toolbox           |
|  \\    /   O peration     | Version:  v1806                                 |
|   \\  /    A nd           | Web:      www.OpenFOAM.com                      |
|    \\/     M anipulation  |                                                 |
\*---------------------------------------------------------------------------*/
FoamFile
{
    version     2.0;
    format      ascii;
    class       surfaceScalarField;
    location    "12";
    object      phi;
}
// * * * * * * * * * * * * * * * * * * * * * * * * * * * * * * * * * * * * * //

dimensions      [0 3 -1 0 0 0 0];
oriented        oriented;


internalField   nonuniform List<scalar> 
4680
(
0.749162
-0.00896411
0.751907
-0.0265864
0.749691
-0.0442362
0.751928
-0.0583395
0.750228
-0.0831012
0.751077
-0.0898355
0.750508
-0.118033
0.750888
-0.12768
0.751056
-0.143637
0.751786
-0.169854
0.752908
-0.166127
0.753237
-0.203441
0.756248
-0.195022
0.75545
-0.221611
0.760617
-0.230282
0.759782
-0.22996
0.765455
-0.261368
0.767336
-0.238134
0.77103
-0.278041
-0.251725
0.776903
0.747878
-0.00684191
0.752389
-0.0310979
0.749556
-0.0414031
0.752917
-0.0617001
0.751142
-0.0813264
0.752324
-0.0910175
0.751752
-0.117461
0.75257
-0.128498
0.752933
-0.144001
0.754509
-0.171429
0.756622
-0.168241
0.758132
-0.204951
0.762752
-0.199642
0.763534
-0.222394
0.770222
-0.23697
0.771708
-0.231447
0.778446
-0.268107
0.783748
-0.243435
0.788009
-0.282302
-0.261769
0.798054
0.747428
-0.00427015
0.751147
-0.0348164
0.749386
-0.0396419
0.752122
-0.0644365
0.751762
-0.0809663
0.752773
-0.0920288
0.753269
-0.117957
0.753937
-0.129165
0.755416
-0.14548
0.756411
-0.172424
0.759504
-0.171334
0.761729
-0.207177
0.765359
-0.203271
0.770124
-0.227159
0.7729
-0.239746
0.78052
-0.239066
0.782809
-0.270396
0.792279
-0.252905
0.795687
-0.28571
-0.271064
0.804982
0.747729
-0.00199888
0.75055
-0.0376382
0.748983
-0.0380741
0.751612
-0.0670656
0.751031
-0.0803855
0.753243
-0.0942411
0.753256
-0.11797
0.755177
-0.131086
0.757381
-0.147684
0.757734
-0.172777
0.76287
-0.17647
0.764012
-0.208318
0.769048
-0.208307
0.775073
-0.233184
0.777283
-0.241955
0.788493
-0.250277
0.789645
-0.271547
0.802342
-0.265603
0.806585
-0.289953
-0.281122
0.816643
0.748058
-5.72116e-05
0.74996
-0.0395398
0.748881
-0.0369956
0.751352
-0.0695364
0.749529
-0.0785624
0.753725
-0.098437
0.751966
-0.116211
0.755523
-0.134644
0.758355
-0.150516
0.757931
-0.172354
0.76557
-0.184109
0.765227
-0.207975
0.772339
-0.215419
0.778342
-0.239188
0.781397
-0.24501
0.794088
-0.262968
0.795649
-0.273108
0.809908
-0.279862
0.815264
-0.295308
-0.291986
0.826128
0.748143
0.00179954
0.749614
-0.0410103
0.748083
-0.0354648
0.751686
-0.0731396
0.747395
-0.0742716
0.753944
-0.104985
0.750363
-0.112629
0.754842
-0.139123
0.757888
-0.153562
0.75778
-0.172245
0.766011
-0.192341
0.766015
-0.207979
0.774225
-0.223629
0.779618
-0.244581
0.785407
-0.250799
0.796796
-0.274357
0.801833
-0.278146
0.815927
-0.293956
0.823629
-0.30301
-0.305328
0.836972
0.747448
0.00435113
0.749587
-0.0431489
0.746382
-0.0322597
0.751602
-0.0783596
0.745806
-0.0684755
0.753107
-0.112287
0.749116
-0.108638
0.754139
-0.144145
0.755274
-0.154697
0.758462
-0.175433
0.763294
-0.197173
0.766839
-0.211523
0.773956
-0.230747
0.779734
-0.250358
0.788137
-0.259203
0.79794
-0.284159
0.80691
-0.287116
0.821009
-0.308056
0.831276
-0.313277
-0.322571
0.848518
0.746201
0.00814994
0.749842
-0.0467897
0.744604
-0.0270216
0.750802
-0.084558
0.744717
-0.0623903
0.751808
-0.119378
0.747485
-0.104315
0.754154
-0.150814
0.751472
-0.152016
0.759087
-0.183048
0.759302
-0.197388
0.766728
-0.218949
0.771937
-0.235956
0.779432
-0.257853
0.7888
-0.268571
0.799585
-0.294943
0.810753
-0.298284
0.827054
-0.324357
0.840061
-0.326283
-0.343529
0.861019
0.744974
0.0131758
0.75068
-0.0524954
0.743503
-0.0198447
0.750396
-0.0914506
0.743406
-0.0554006
0.750984
-0.126957
0.74467
-0.098
0.753943
-0.160088
0.747553
-0.145626
0.75799
-0.193485
0.755326
-0.194725
0.764853
-0.228476
0.768822
-0.239925
0.778574
-0.267605
0.788166
-0.278163
0.801658
-0.308435
0.814337
-0.310962
0.834501
-0.344522
0.849961
-0.341743
-0.368458
0.87489
0.743925
0.0192512
0.751379
-0.05995
0.743124
-0.0115894
0.750489
-0.0988157
0.742115
-0.047027
0.750462
-0.135303
0.741712
-0.0892507
0.752444
-0.170819
0.743881
-0.137063
0.755888
-0.205491
0.750753
-0.18959
0.763042
-0.240764
0.764551
-0.241434
0.777527
-0.280581
0.787061
-0.287698
0.802935
-0.324309
0.818684
-0.326711
0.841051
-0.36689
0.859785
-0.360476
-0.397678
0.889005
0.743536
0.0257157
0.751187
-0.0676018
0.743125
-0.00352689
0.750167
-0.105858
0.741413
-0.0382729
0.749729
-0.143619
0.740462
-0.0799843
0.75087
-0.181227
0.741486
-0.127679
0.755215
-0.21922
0.746408
-0.180784
0.763185
-0.257541
0.760111
-0.23836
0.776865
-0.297334
0.785208
-0.296041
0.802543
-0.341643
0.821946
-0.346114
0.844396
-0.38934
0.868074
-0.384153
-0.431562
0.901957
0.744984
0.0307314
0.750512
-0.0731296
0.74454
0.00244576
0.749507
-0.110826
0.74285
-0.0316153
0.749357
-0.150126
0.742246
-0.0728725
0.751428
-0.190409
0.742081
-0.118332
0.757174
-0.234313
0.744955
-0.168565
0.765893
-0.27848
0.755874
-0.228341
0.778403
-0.319864
0.780551
-0.298189
0.801078
-0.36217
0.821004
-0.36604
0.844232
-0.412569
0.875305
-0.415226
-0.467437
0.91118
0.749736
0.0309956
0.748381
-0.0717744
0.748141
0.00268579
0.748042
-0.110727
0.748115
-0.0316885
0.749252
-0.151263
0.746828
-0.0704491
0.752718
-0.196298
0.745843
-0.111458
0.758634
-0.247105
0.746441
-0.156371
0.768572
-0.300611
0.752164
-0.211933
0.781924
-0.349623
0.771119
-0.287383
0.80123
-0.392281
0.813409
-0.37822
0.840077
-0.439236
0.879438
-0.454587
-0.499667
0.911668
0.754876
0.0261194
0.7472
-0.0640987
0.754619
-0.00473262
0.745746
-0.101854
0.75448
-0.0404219
0.744901
-0.141685
0.752821
-0.0783686
0.745909
-0.189387
0.749932
-0.11548
0.750936
-0.248108
0.747618
-0.153053
0.762704
-0.315698
0.748419
-0.197648
0.780621
-0.381825
0.75896
-0.265723
0.803195
-0.436517
0.792509
-0.367533
0.833126
-0.479853
0.866879
-0.48834
-0.529795
0.897007
0.758068
0.0180511
0.746134
-0.0521646
0.757674
-0.0162719
0.742879
-0.0870597
0.755978
-0.0535205
0.739364
-0.125071
0.753337
-0.092342
0.73534
-0.17139
0.75096
-0.1311
0.732246
-0.229395
0.749188
-0.169995
0.735594
-0.302104
0.747456
-0.20951
0.757228
-0.391596
0.746757
-0.255252
0.79313
-0.482889
0.75978
-0.334184
0.825909
-0.545982
0.821438
-0.48387
-0.581474
0.873117
0.758475
0.00957561
0.747081
-0.0407704
0.756897
-0.0260875
0.743294
-0.0734573
0.752958
-0.0631838
0.737402
-0.109515
0.748233
-0.103173
0.729342
-0.152499
0.743864
-0.145622
0.719183
-0.204714
0.7414
-0.192211
0.709147
-0.269852
0.741325
-0.241687
0.708479
-0.358751
0.738348
-0.285121
0.738252
-0.482794
0.727887
-0.323819
0.801243
-0.619338
0.751477
-0.434104
-0.681499
0.851502
0.755997
0.00357895
0.748694
-0.0334677
0.752591
-0.0299848
0.744051
-0.0649175
0.745731
-0.0648631
0.736001
-0.0997847
0.736595
-0.103767
0.724618
-0.140522
0.726626
-0.14763
0.709705
-0.187792
0.717347
-0.199854
0.691789
-0.244294
0.711433
-0.261331
0.670698
-0.318016
0.712297
-0.326719
0.65998
-0.430477
0.71319
-0.377029
0.717873
-0.624021
0.691369
-0.407599
-0.815546
0.825416
0.753284
0.000294705
0.748948
-0.0291317
0.748236
-0.0292721
0.742755
-0.0594374
0.739449
-0.061557
0.732662
-0.0929976
0.726035
-0.0971404
0.717887
-0.132374
0.708707
-0.13845
0.699231
-0.178317
0.687317
-0.187939
0.676572
-0.23355
0.664686
-0.249445
0.649071
-0.302401
0.654515
-0.332163
0.618026
-0.393987
0.672654
-0.431658
0.602517
-0.553883
0.655072
-0.460154
-0.897968
0.737493
0.753052
-0.00275764
0.747122
-0.0232011
0.747722
-0.0298724
0.739291
-0.0510064
0.737104
-0.0593696
0.725836
-0.0817301
0.720517
-0.0918215
0.706321
-0.118178
0.69732
-0.12945
0.681729
-0.162726
0.667624
-0.173833
0.653414
-0.219339
0.633022
-0.229052
0.623298
-0.292678
0.59571
-0.304576
0.590699
-0.388976
0.582009
-0.422968
0.546368
-0.518242
0.633805
-0.547591
-0.835952
0.571789
0.752891
-0.00564825
0.745736
-0.0160466
0.747144
-0.03128
0.736514
-0.0403768
0.734946
-0.0578016
0.720258
-0.0670424
0.716143
-0.0877061
0.696664
-0.0986983
0.690073
-0.122859
0.665083
-0.137735
0.656666
-0.165416
0.625267
-0.187941
0.614536
-0.218322
0.578832
-0.256974
0.561035
-0.286779
0.531893
-0.359834
0.494813
-0.385888
0.49039
-0.513819
0.536158
-0.593359
0.522683
-0.822476
0.773327
-0.581178
0.805583
-0.586679
0.81312
-0.434866
0.804738
-0.507784
0.816814
-0.432478
0.846603
-0.629887
0.853716
-0.622174
0.841124
-0.356325
0.850578
-0.31012
-0.359628
0.867277
0.794017
-0.577142
0.833144
-0.625805
0.845043
-0.446765
0.841773
-0.504514
0.85658
-0.447285
0.877559
-0.650866
0.895964
-0.640579
0.881797
-0.342159
0.898474
-0.326797
-0.390535
0.92938
0.814182
-0.586342
0.822967
-0.63459
0.836155
-0.459954
0.861108
-0.529467
0.886898
-0.473075
0.876502
-0.64047
0.874997
-0.639074
0.876844
-0.344006
0.922331
-0.372283
-0.446143
0.977939
0.834674
-0.604373
0.824117
-0.624032
0.84871
-0.484547
0.897918
-0.578676
0.918107
-0.493264
0.884389
-0.606752
0.870672
-0.625357
0.892249
-0.365582
0.958114
-0.438148
-0.517879
1.02985
0.84849
-0.626736
0.832038
-0.607579
0.863966
-0.516476
0.921769
-0.636478
0.930394
-0.501889
0.881057
-0.557415
0.861265
-0.605565
0.906438
-0.410755
0.982134
-0.513845
-0.59545
1.05971
0.857043
-0.646807
0.865447
-0.615983
0.9004
-0.551429
0.932527
-0.668605
0.93537
-0.504732
0.903216
-0.525261
0.885274
-0.587623
0.932229
-0.45771
1.00161
-0.583224
-0.670506
1.07666
0.865679
-0.663968
0.905783
-0.656088
0.944267
-0.589913
0.938127
-0.662465
0.939001
-0.505606
0.924931
-0.51119
0.913354
-0.576047
0.953256
-0.497612
1.01653
-0.646498
-0.74218
1.0882
0.884365
-0.687314
0.937219
-0.708942
0.977903
-0.630597
0.955804
-0.640365
0.961865
-0.511667
0.946278
-0.495603
0.925618
-0.555387
0.953104
-0.525098
1.02906
-0.722449
-0.820173
1.10705
0.909105
-0.721529
0.961175
-0.761012
1.00733
-0.676755
0.994665
-0.627697
0.994043
-0.511045
0.951159
-0.45272
0.917708
-0.521936
0.944946
-0.552336
1.02875
-0.806256
-0.885717
1.0943
0.931471
-0.763995
0.992281
-0.821822
1.04894
-0.733409
1.04509
-0.623853
1.01648
-0.482435
0.94982
-0.386059
0.915038
-0.487154
0.943976
-0.581274
0.998116
-0.860396
-0.897415
1.00981
0.94932
-0.811358
1.04071
-0.913215
1.11207
-0.804769
1.09958
-0.611355
1.03019
-0.413046
0.952054
-0.307925
0.917566
-0.452666
0.918317
-0.582025
0.898442
-0.84052
-0.8261
0.827127
0.974588
-0.874766
1.10765
-1.04628
1.18614
-0.883263
1.15118
-0.57639
1.04411
-0.305981
0.958385
-0.222199
0.898576
-0.392857
0.830451
-0.5139
0.71796
-0.728029
-0.676608
0.568468
1.01472
-0.977814
1.18234
-1.2139
1.24469
-0.945608
1.17624
-0.507941
1.04233
-0.172073
0.940528
-0.120397
0.82136
-0.273689
0.673924
-0.366464
0.484097
-0.538203
-0.492612
0.300102
1.06356
-1.14436
1.22072
-1.37106
1.23662
-0.961516
1.12943
-0.400752
0.978081
-0.0207186
0.852668
0.00501503
0.67015
-0.0911711
0.463207
-0.159521
0.237986
-0.312982
-0.355619
0.100993
1.07386
-1.34511
1.14011
-1.43731
1.08674
-0.908146
0.961269
-0.275279
0.810003
0.130547
0.661056
0.153962
0.448127
0.121758
0.232535
0.0560724
0.0462851
-0.126733
-0.313856
0.00452205
0.953105
-1.44671
0.854427
-1.33863
0.730913
-0.784632
0.633093
-0.177459
0.515512
0.248128
0.375484
0.29399
0.200495
0.296747
0.0613798
0.195188
-0.047783
-0.0175703
-0.31498
-0.0466593
0.641062
-1.26236
0.353253
-1.05082
0.262044
-0.693424
0.226487
-0.141902
0.118476
0.356139
0.0249659
0.3875
-0.0260984
0.347812
-0.0614676
0.230557
-0.0926115
0.0135736
-0.316812
-0.0907795
0.242217
-0.767081
-0.141351
-0.667254
-0.272798
-0.561977
-0.272832
-0.141868
-0.276547
0.359854
-0.232219
0.343172
-0.130946
0.246538
-0.0880557
0.187666
-0.074612
0.000129967
-0.248272
-0.143152
0.0317135
-0.227006
-0.280019
-0.355522
-0.398694
-0.443302
-0.567404
0.0268422
-0.474586
0.267037
-0.23138
0.0999657
-0.128971
0.14413
-0.0479421
0.106637
-0.0353333
-0.0124788
-0.162999
-0.120607
0.295677
-0.0598451
-0.503147
-0.476305
-0.209268
-0.109303
0.0348271
0.141464
0.128985
-0.0340134
0.938697
-0.754751
0.96535
-0.578297
0.872476
-0.1243
0.83637
0.423885
0.934986
0.567789
0.952003
-0.0495057
0.849454
-0.177736
0.792471
1.0244
0.829057
1.50714
0.878065
0.799238
0.923797
0.421932
0.989419
0.587236
0.988813
0.143824
0.932209
0.0727768
0.883461
0.415681
0.887752
0.782718
0.863888
0.724753
0.817191
0.485948
0.842632
0.690614
0.206725
1.00873
-0.834101
1.05895
-0.628521
0.940884
-0.0062303
0.847544
0.517225
0.936619
0.478715
0.986576
-0.0994628
0.880209
-0.0713692
0.804022
1.10058
0.816397
1.49476
0.857917
0.757717
0.917473
0.362376
1.00409
0.500622
1.00337
0.144541
0.938756
0.13739
0.891976
0.462461
0.890146
0.784548
0.860469
0.754431
0.826244
0.520172
0.85117
0.665688
0.203536
1.0425
-0.898663
1.08534
-0.671363
0.987715
0.091398
0.864806
0.640133
0.907202
0.436319
0.958428
-0.150688
0.881145
0.00591376
0.805067
1.17666
0.809362
1.49047
0.846893
0.720186
0.910255
0.299015
0.996675
0.414202
0.99835
0.142866
0.935224
0.200517
0.8894
0.508284
0.884494
0.789454
0.860741
0.778184
0.831631
0.549282
0.854003
0.643317
0.20054
1.09283
-0.96164
1.12958
-0.708117
1.04823
0.172753
0.90254
0.785818
0.902359
0.436501
0.954376
-0.202706
0.882048
0.0782414
0.801344
1.25737
0.821932
1.46988
0.876847
0.665272
0.939563
0.236299
1.01686
0.336909
1.007
0.152717
0.938056
0.269465
0.891714
0.554626
0.878919
0.802248
0.856971
0.800132
0.842851
0.563402
0.863142
0.623026
0.202799
1.12979
-1.03173
1.14098
-0.719302
1.0829
0.230832
0.950278
0.91844
0.90237
0.484409
0.920551
-0.220887
0.858987
0.139806
0.805403
1.31095
0.856408
1.41888
0.919112
0.602568
0.975676
0.179735
1.03458
0.278009
1.01131
0.17598
0.94093
0.339849
0.892556
0.602999
0.876261
0.818544
0.859545
0.816848
0.847338
0.575609
0.863007
0.607357
0.205021
1.18728
-1.14235
1.17521
-0.707226
1.11239
0.293654
1.00491
1.02591
0.936226
0.553096
0.911767
-0.196428
0.847251
0.204322
0.828987
1.32921
0.917628
1.33023
0.988305
0.53189
1.0294
0.138641
1.05869
0.248714
1.01468
0.21999
0.939494
0.415039
0.88853
0.653963
0.867336
0.839738
0.85786
0.826324
0.854896
0.578574
0.865401
0.596852
0.210877
1.24183
-1.29597
1.22559
-0.690989
1.13769
0.381552
1.05084
1.11276
0.979981
0.623958
0.916816
-0.133263
0.846102
0.275037
0.872043
1.30327
1.00027
1.202
1.07232
0.459842
1.08435
0.126616
1.07493
0.258133
1.01082
0.284094
0.930088
0.495775
0.87593
0.708121
0.856917
0.858752
0.853515
0.829726
0.851251
0.580838
0.861403
0.586699
0.214257
1.27319
-1.46211
1.28092
-0.698717
1.16635
0.49612
1.09004
1.18907
1.03358
0.680414
0.940821
-0.0405048
0.869044
0.346814
0.934563
1.23775
1.08146
1.0551
1.14751
0.393793
1.13371
0.140421
1.09083
0.30101
1.00655
0.368376
0.918026
0.584297
0.862575
0.763572
0.845744
0.875582
0.849613
0.825857
0.849371
0.58108
0.854284
0.581787
0.21818
1.21754
-1.58536
1.26527
-0.746445
1.17378
0.58761
1.1198
1.24305
1.07956
0.720656
0.966524
0.0725326
0.900622
0.412715
0.993116
1.14526
1.14102
0.907195
1.19357
0.34125
1.15588
0.178107
1.08559
0.371297
0.989222
0.464749
0.90028
0.673239
0.846135
0.817716
0.832678
0.88904
0.838646
0.819889
0.838245
0.58148
0.847838
0.572194
0.217262
1.05852
-1.63407
1.14602
-0.83394
1.13272
0.600913
1.13165
1.24412
1.10425
0.748054
0.97898
0.197801
0.922187
0.469508
1.03176
1.03569
1.16278
0.776174
1.19501
0.309016
1.14775
0.225371
1.06556
0.453487
0.960193
0.570116
0.867672
0.765761
0.817739
0.867649
0.81261
0.894169
0.824523
0.807976
0.826204
0.579799
0.837442
0.560956
0.21351
0.804436
-1.61138
0.925936
-0.95544
1.01548
0.511367
1.09254
1.16707
1.08088
0.759713
0.955296
0.323383
0.911712
0.513091
1.02354
0.923856
1.13622
0.663496
1.1561
0.289141
1.1022
0.279268
1.01294
0.542741
0.906905
0.676155
0.821091
0.851575
0.785215
0.903525
0.789582
0.889802
0.805444
0.792114
0.812539
0.572704
0.830841
0.542654
0.20543
0.503686
-1.5466
0.653288
-1.10504
0.837696
0.326958
0.977675
1.02709
0.977816
0.759573
0.868179
0.43302
0.846844
0.534426
0.966852
0.803849
1.07638
0.553969
1.08876
0.276758
1.02826
0.339771
0.941401
0.629599
0.845233
0.772323
0.774806
0.922002
0.752847
0.925485
0.765025
0.877624
0.787392
0.769747
0.797778
0.562318
0.82202
0.518412
0.191612
0.241468
-1.48796
0.396642
-1.26022
0.629641
0.0939588
0.788601
0.86813
0.822382
0.725792
0.774359
0.481043
0.795495
0.51329
0.925378
0.673967
1.02898
0.450369
1.02045
0.28528
0.942523
0.417703
0.858896
0.713226
0.779493
0.851727
0.728364
0.973131
0.719672
0.934177
0.739105
0.858191
0.766723
0.742128
0.784798
0.544244
0.81831
0.484899
0.174139
0.0870684
-1.47404
0.19887
-1.37202
0.407873
-0.115044
0.546138
0.729865
0.655773
0.616156
0.709663
0.427154
0.789163
0.433789
0.912527
0.550603
0.977992
0.384904
0.939115
0.324157
0.854744
0.502073
0.774392
0.793578
0.705785
0.920334
0.674059
1.00486
0.680465
0.927772
0.711524
0.827131
0.748337
0.705315
0.77285
0.519731
0.815093
0.442657
0.150802
0.0203203
-1.48983
0.000204629
-1.3519
0.139991
-0.25483
0.340118
0.529737
0.550593
0.405682
0.665221
0.312526
0.762911
0.336099
0.851841
0.461673
0.879028
0.357717
0.825371
0.377814
0.731061
0.596384
0.653765
0.870873
0.614788
0.959311
0.6149
1.00475
0.641277
0.901394
0.686883
0.781525
0.730961
0.661237
0.763293
0.487399
0.81658
0.38937
0.122926
-0.0134545
-1.52304
-0.152017
-1.21334
0.0045734
-0.41142
0.301279
0.233031
0.505473
0.201487
0.603073
0.214927
0.67817
0.261002
0.728499
0.411345
0.727297
0.358919
0.667128
0.437983
0.585788
0.677723
0.543112
0.91355
0.537143
0.965279
0.558595
0.983294
0.605373
0.854617
0.664679
0.722219
0.714285
0.611631
0.758119
0.443566
0.823696
0.323793
0.0917449
-0.0487943
-1.56502
-0.149792
-1.11234
0.0307938
-0.592006
0.30688
-0.0430554
0.445762
0.0626058
0.521695
0.138994
0.569004
0.213693
0.581255
0.399094
0.560689
0.379485
0.505875
0.492797
0.449436
0.734162
0.43618
0.926806
0.450909
0.95055
0.502757
0.931446
0.576565
0.780809
0.643616
0.655168
0.699955
0.555293
0.760793
0.382727
0.836427
0.248159
0.0604251
-0.14337
-1.56481
-0.111937
-1.14378
0.0719702
-0.775913
0.237238
-0.208323
0.329123
-0.0292785
0.386188
0.0819284
0.40562
0.194261
0.395641
0.409073
0.362359
0.412767
0.318534
0.536622
0.294589
0.758107
0.319377
0.902018
0.372041
0.897886
0.463665
0.839822
0.550979
0.693495
0.62014
0.586007
0.692444
0.482988
0.773949
0.301223
0.853344
0.168764
0.0329893
-0.12429
-1.56112
-0.0870161
-1.18105
0.0344627
-0.897392
0.12224
-0.2961
0.164171
-0.07121
0.17703
0.0690691
0.178034
0.193257
0.179043
0.408064
0.160296
0.431514
0.152546
0.544373
0.161095
0.749558
0.220622
0.842491
0.316582
0.801926
0.431395
0.725009
0.519117
0.605772
0.601192
0.503932
0.699757
0.384424
0.795967
0.205012
0.868486
0.0962447
0.0126674
-0.114336
-1.4808
-0.109815
-1.18557
-0.0467017
-0.960505
-0.0161883
-0.326614
-0.0283898
-0.0590086
-0.0591858
0.0998651
-0.0421089
0.17618
-0.0211156
0.387071
-0.0338029
0.444201
-0.00285242
0.513422
0.0407781
0.705927
0.145343
0.737925
0.273334
0.673935
0.389442
0.608901
0.487569
0.507645
0.599783
0.391718
0.72197
0.262237
0.81781
0.109172
0.874696
0.0393584
-0.000161225
-0.151132
-1.32967
-0.169141
-1.16756
-0.204936
-0.92471
-0.230673
-0.300876
-0.306477
0.0167949
-0.344498
0.137887
-0.282457
0.114138
-0.27854
0.383154
-0.282341
0.448002
-0.180241
0.411322
-0.0716447
0.597331
0.095469
0.570812
0.257513
0.511891
0.413641
0.452773
0.579966
0.34132
0.751543
0.220141
0.900369
0.113412
0.991221
0.0183194
1.03583
-0.00524775
-0.0108246
-0.162602
-1.16707
-0.282109
-1.04805
-0.37858
-0.828238
-0.453858
-0.225599
-0.542106
0.105043
-0.560928
0.156709
-0.496828
0.0500378
-0.515467
0.401794
-0.464659
0.397194
-0.291429
0.238092
-0.161674
0.467575
0.0267606
0.382377
0.218861
0.31979
0.420689
0.250946
0.61849
0.143518
0.778927
0.0597044
0.893893
-0.00155425
0.952684
-0.0404716
0.989764
-0.0423275
-0.0300575
-0.207742
-0.959325
-0.392801
-0.862995
-0.533603
-0.687436
-0.632127
-0.127076
-0.71213
0.185046
-0.718388
0.162967
-0.657305
-0.0110446
-0.643077
0.387566
-0.545114
0.299231
-0.348376
0.0413543
-0.194068
0.313267
0.0128831
0.175426
0.226904
0.105769
0.430654
0.0471955
0.601773
-0.0276004
0.725528
-0.064051
0.821425
-0.0974509
0.880741
-0.0997871
0.937707
-0.0992944
-0.0672935
-0.264314
-0.695011
-0.477777
-0.649532
-0.696669
-0.468543
-0.802861
-0.0208846
-0.862836
0.245021
-0.849083
0.149214
-0.765981
-0.0941462
-0.695316
0.3169
-0.618959
0.222875
-0.421497
-0.156108
-0.224174
0.115944
-0.0379602
-0.0107877
0.167113
-0.0993043
0.353046
-0.138737
0.512743
-0.187298
0.639384
-0.190692
0.753342
-0.211409
0.832724
-0.179169
0.910366
-0.176937
-0.117406
-0.289836
-0.405175
-0.573196
-0.366173
-0.833532
-0.208207
-0.958244
0.103828
-0.997329
0.284106
-0.967017
0.118902
-0.890034
-0.171128
-0.789332
0.216198
-0.676087
0.10963
-0.507182
-0.325013
-0.313268
-0.0779698
-0.111051
-0.213004
0.0976932
-0.308049
0.294104
-0.335148
0.468811
-0.362005
0.609109
-0.330991
0.735659
-0.337959
0.823658
-0.267167
0.907604
-0.260883
-0.171863
-0.305462
-0.0997133
-0.611763
-0.0598713
-0.894691
0.0747213
-1.03822
0.247361
-1.05887
0.304751
-1.02027
0.0803009
-0.979729
-0.211668
-0.833818
0.0702866
-0.638257
-0.0859303
-0.539714
-0.423557
-0.3503
-0.267383
-0.0963033
-0.467001
0.109717
-0.51407
0.315053
-0.540484
0.493342
-0.540294
0.633747
-0.471395
0.757191
-0.461403
0.840776
-0.350752
0.919788
-0.339895
-0.224936
-0.298351
0.198637
-0.60017
0.241948
-0.878578
0.35313
-1.01448
0.383259
-1.01015
0.300421
-0.965455
0.0356093
-0.939471
-0.237652
-0.77528
-0.0939041
-0.605653
-0.255557
-0.51311
-0.516101
-0.291527
-0.488966
-0.0494843
-0.709044
0.161334
-0.724888
0.369133
-0.748282
0.550995
-0.722155
0.694661
-0.615062
0.81318
-0.579922
0.886162
-0.423734
0.950375
-0.404109
-0.269716
-0.271229
0.469866
-0.546115
0.516834
-0.797407
0.604422
-0.927038
0.51289
-0.91586
0.289243
-0.881874
0.00162331
-0.852401
-0.267124
-0.701882
-0.244424
-0.587017
-0.370421
-0.468623
-0.634495
-0.241485
-0.716105
-0.0289915
-0.921537
0.192024
-0.945904
0.395916
-0.952174
0.583361
-0.9096
0.746612
-0.778313
0.881869
-0.715179
0.959279
-0.501143
1.00777
-0.4526
-0.299057
-0.247641
0.717507
-0.462212
0.731405
-0.690144
0.832354
-0.80877
0.631515
-0.819246
0.299718
-0.810644
-0.00697818
-0.793934
-0.283835
-0.658233
-0.380124
-0.517629
-0.511026
-0.410644
-0.74148
-0.225532
-0.901217
0.00816245
-1.15523
0.22528
-1.16302
0.416714
-1.14361
0.579423
-1.07231
0.738844
-0.937734
0.900127
-0.876462
1.016
-0.617016
1.07544
-0.512044
-0.318395
-0.221418
0.938925
-0.370849
0.880836
-0.54977
1.01127
-0.645995
0.727741
-0.659418
0.313141
-0.661618
-0.00477816
-0.651841
-0.293612
-0.536582
-0.495383
-0.401058
-0.646549
-0.302138
-0.8404
-0.143338
-1.06002
0.077553
-1.37612
0.301533
-1.387
0.500293
-1.34237
0.635246
-1.20726
0.741512
-1.044
0.872599
-1.00755
1.01273
-0.757145
1.11152
-0.610836
-0.34749
-0.159882
1.07017
0.0286326
-0.226705
0.947659
-0.309278
1.09385
-0.365901
0.784364
-0.36025
0.30749
-0.352238
-0.0127905
-0.327344
-0.318506
-0.244375
-0.578352
-0.17227
-0.718655
-0.118993
-0.893676
-0.0248404
-1.15417
0.118209
-1.51917
0.283919
-1.55271
0.444183
-1.50263
0.568394
-1.33147
0.640655
-1.11626
0.697386
-1.06428
0.778274
-0.838034
0.868353
-0.700915
-0.382508
-0.106119
1.09362
0.0826768
-0.15651
0.99805
-0.201775
1.13911
-0.233177
0.815767
-0.204766
0.279079
-0.178588
-0.0389685
-0.137021
-0.360073
-0.0714701
-0.643902
-0.00528285
-0.784843
0.0238888
-0.922848
0.0649462
-1.19523
0.18408
-1.63831
0.337967
-1.7066
0.474131
-1.6388
0.593808
-1.45115
0.685582
-1.20803
0.736454
-1.11515
0.786715
-0.888295
0.865722
-0.779922
-0.420829
-0.0603119
1.04483
0.109094
-0.0770467
1.01478
-0.0964868
1.15855
-0.0890491
0.808329
-0.0310341
0.221064
0.0271084
-0.0971109
0.0892724
-0.422238
0.140476
-0.695106
0.185213
-0.829579
0.196824
-0.934459
0.1965
-1.1949
0.259041
-1.70085
0.401135
-1.84869
0.533084
-1.77075
0.629069
-1.54714
0.713227
-1.29219
0.767109
-1.16903
0.802338
-0.923524
0.867373
-0.844957
-0.457622
-0.0296336
0.998559
0.0759096
-0.016878
1.00203
-0.0122848
1.15396
0.0439717
0.752073
0.13592
0.129116
0.218651
-0.179843
0.285746
-0.489332
0.349174
-0.758534
0.39981
-0.880215
0.385978
-0.920627
0.344665
-1.15359
0.357873
-1.71405
0.45576
-1.94658
0.57744
-1.89243
0.667813
-1.63751
0.744354
-1.36873
0.799182
-1.22386
0.824068
-0.94841
0.872751
-0.893639
-0.489123
0.0505877
0.942044
0.00592729
0.0398379
1.01278
0.0590208
1.13478
0.149916
0.661177
0.279922
-0.000889232
0.374205
-0.274126
0.442797
-0.557924
0.524529
-0.840266
0.591005
-0.946692
0.566788
-0.89641
0.485578
-1.07238
0.462224
-1.6907
0.530157
-2.01451
0.627941
-1.99021
0.701855
-1.71142
0.765547
-1.43242
0.821592
-1.27991
0.84568
-0.972497
0.882343
-0.930303
-0.513702
0.117908
0.885259
-0.0611224
0.0794054
1.05128
0.102766
1.11142
0.198151
0.565792
0.366295
-0.169033
0.480959
-0.38879
0.548675
-0.62564
0.652219
-0.94381
0.757349
-1.05182
0.739659
-0.87872
0.625482
-0.958202
0.557645
-1.62286
0.594307
-2.05118
0.676656
-2.07256
0.742211
-1.77698
0.791908
-1.48212
0.840701
-1.3287
0.863564
-0.995361
0.892203
-0.958941
-0.532007
0.116305
0.885984
-0.117031
0.0520954
1.11549
0.0585809
1.10493
0.168157
0.456216
0.383936
-0.384812
0.536565
-0.541418
0.608484
-0.697559
0.712081
-1.04741
0.853274
-1.19301
0.866831
-0.892277
0.746837
-0.838209
0.655627
-1.53165
0.663369
-2.05892
0.719527
-2.12872
0.77313
-1.83058
0.813737
-1.52273
0.855932
-1.3709
0.877984
-1.01741
0.901618
-0.982575
-0.544976
0.119689
0.970734
-0.20444
0.0305639
1.20462
0.0478606
1.08763
0.187039
0.317038
0.399889
-0.597662
0.572247
-0.713777
0.636745
-0.762057
0.730271
-1.14093
0.907962
-1.37071
0.958115
-0.94243
0.836524
-0.716618
0.7284
-1.42353
0.723032
-2.05355
0.763579
-2.16926
0.805623
-1.87262
0.836128
-1.55323
0.868472
-1.40324
0.887458
-1.0364
0.908261
-1.00338
-0.554089
0.202057
1.10316
-0.334482
0.111255
1.29542
0.172563
1.02633
0.352312
0.137288
0.518913
-0.764263
0.662106
-0.856969
0.702259
-0.802211
0.750457
-1.18913
0.926387
-1.54664
1.02324
-1.03928
0.92025
-0.613632
0.798116
-1.3014
0.775098
-2.03053
0.798318
-2.19248
0.828762
-1.90307
0.854183
-1.57865
0.879386
-1.42844
0.893632
-1.05064
0.91225
-1.022
-0.560575
0.338879
1.25303
-0.488752
0.271647
1.36265
0.34554
0.952432
0.537976
-0.0551476
0.696866
-0.923153
0.819479
-0.979582
0.816464
-0.799195
0.797393
-1.17006
0.945253
-1.6945
1.06119
-1.15522
0.965405
-0.517842
0.838087
-1.17408
0.815843
-2.00829
0.832897
-2.20954
0.850487
-1.92066
0.869205
-1.59737
0.887265
-1.4465
0.895637
-1.05902
0.913165
-1.03952
-0.56518
0.498078
1.40491
-0.649956
0.45325
1.40748
0.531346
0.874337
0.681513
-0.205315
0.8277
-1.06934
0.960007
-1.11189
0.922809
-0.761997
0.829569
-1.07682
0.937884
-1.80281
1.07347
-1.29081
0.996386
-0.44076
0.869521
-1.04721
0.845077
-1.98384
0.857004
-2.22146
0.865849
-1.9295
0.880897
-1.61242
0.894561
-1.46017
0.896277
-1.06073
0.909693
-1.05294
-0.568575
0.664348
1.5264
-0.785834
0.640773
1.43105
0.733503
0.781606
0.832769
-0.304581
0.931955
-1.16853
1.04421
-1.22414
0.975824
-0.693611
0.83917
-0.940166
0.917631
-1.88127
1.05885
-1.43202
1.00157
-0.383483
0.887922
-0.933563
0.870184
-1.96611
0.88153
-2.23281
0.879369
-1.92734
0.889554
-1.6226
0.898724
-1.46934
0.892689
-1.0547
0.904686
-1.06494
-0.571655
0.828364
1.57907
-0.881044
0.838647
1.42077
0.940215
0.680039
0.981413
-0.345779
1.01363
-1.20074
1.08108
-1.2916
0.98379
-0.59632
0.829301
-0.785677
0.896153
-1.94812
1.0388
-1.57467
0.994436
-0.339121
0.891853
-0.83098
0.879846
-1.9541
0.897211
-2.25017
0.889344
-1.91948
0.895146
-1.62841
0.903153
-1.47734
0.889469
-1.04101
0.896111
-1.07158
-0.573417
0.947281
1.54523
-0.91344
1.00476
1.36329
1.09836
0.586447
1.07893
-0.326356
1.05126
-1.17307
1.07346
-1.3138
0.958124
-0.48098
0.80685
-0.634403
0.869748
-2.01102
1.01419
-1.71911
0.985038
-0.30997
0.898693
-0.744636
0.892101
-1.94751
0.91125
-2.26932
0.896433
-1.90466
0.898792
-1.63077
0.905922
-1.48447
0.88284
-1.01793
0.885113
-1.07385
-0.576236
1.0159
1.43949
-0.910158
1.11592
1.26327
1.19206
0.510315
1.12481
-0.25911
1.0537
-1.10196
1.04275
-1.30285
0.933026
-0.371254
0.794223
-0.495601
0.848929
-2.06573
0.99017
-1.86035
0.966468
-0.286268
0.891391
-0.669558
0.89267
-1.94879
0.917637
-2.29429
0.900967
-1.88799
0.899332
-1.62913
0.907812
-1.49295
0.879061
-0.989182
0.874723
-1.06951
-0.577129
1.01736
1.30848
-0.886351
1.15159
1.12904
1.19889
0.463012
1.10956
-0.169785
1.02747
-1.01987
0.99817
-1.27355
0.89838
-0.271465
0.790098
-0.387319
0.839226
-2.11485
0.961298
-1.98242
0.941868
-0.266839
0.885041
-0.612732
0.896676
-1.96042
0.923916
-2.32153
0.90254
-1.86661
0.897715
-1.62431
0.90963
-1.50487
0.872125
-0.951677
0.861024
-1.05841
-0.57841
1.0009
1.1821
-0.874522
1.13318
0.996762
1.15253
0.443655
1.07083
-0.0880815
0.991881
-0.940921
0.955434
-1.2371
0.874458
-0.190489
0.804443
-0.317303
0.844089
-2.1545
0.946925
-2.08526
0.929329
-0.249242
0.87872
-0.562122
0.893692
-1.97539
0.926684
-2.35452
0.903742
-1.84367
0.895103
-1.61567
0.90853
-1.5183
0.868109
-0.911257
0.852545
-1.04285
-0.578416
0.957002
1.08
-0.854901
1.06122
0.892544
1.07181
0.433063
1.01569
-0.0319601
0.948995
-0.874226
0.917636
-1.20574
0.860136
-0.132989
0.817739
-0.274906
0.846756
-2.18352
0.921707
-2.16021
0.902784
-0.230319
0.868822
-0.528161
0.889272
-1.99584
0.929292
-2.39454
0.902959
-1.81734
0.890804
-1.60351
0.910089
-1.53758
0.863185
-0.864353
0.840606
-1.02027
-0.57833
0.951539
0.982933
-0.854467
1.01311
0.830973
1.02839
0.417784
0.982782
0.0136471
0.913051
-0.804495
0.892305
-1.18499
0.851431
-0.0921152
0.822241
-0.245716
0.851716
-2.21299
0.921614
-2.23011
0.899913
-0.208618
0.870267
-0.498515
0.887057
-2.01263
0.93109
-2.43858
0.905316
-1.79156
0.88726
-1.58546
0.90717
-1.55749
0.857678
-0.814861
0.83484
-0.997429
-0.578402
0.893824
-0.830257
0.92208
0.953591
0.927199
0.866247
0.858394
0.833692
0.814745
0.851748
0.90768
0.872402
0.845288
0.894467
0.933103
0.903692
0.883137
0.907612
0.857161
0.828453
0.263662
0.269282
-0.532945
0.0875417
0.176121
-0.0779862