/*--------------------------------*- C++ -*----------------------------------*\
| =========                 |                                                 |
| \\      /  F ield         | OpenFOAM: The Open Source CFD Toolbox           |
|  \\    /   O peration     | Version:  v1806                                 |
|   \\  /    A nd           | Web:      www.OpenFOAM.com                      |
|    \\/     M anipulation  |                                                 |
\*---------------------------------------------------------------------------*/
FoamFile
{
    version     2.0;
    format      ascii;
    class       volScalarField;
    location    "2";
    object      p;
}
// * * * * * * * * * * * * * * * * * * * * * * * * * * * * * * * * * * * * * //

dimensions      [0 2 -2 0 0 0 0];


internalField   nonuniform List<scalar> 
2400
(
0.0466608
0.047942
0.048643
0.064888
0.090254
0.112611
0.13
0.139778
0.144705
0.143629
0.135831
0.123707
0.10974
0.0956022
0.0821687
0.0698909
0.0589751
0.0494896
0.0413196
0.0344283
0.136165
0.139675
0.149807
0.191917
0.24748
0.306079
0.358965
0.390095
0.403872
0.40139
0.381513
0.349318
0.311218
0.2722
0.235063
0.201083
0.170712
0.144079
0.120913
0.101131
0.224295
0.231196
0.247001
0.306387
0.38666
0.476071
0.559429
0.613963
0.638623
0.63489
0.605441
0.557882
0.500295
0.439616
0.380735
0.326422
0.277747
0.234979
0.197669
0.165659
0.311708
0.319249
0.342078
0.419152
0.513778
0.622304
0.727289
0.80664
0.846149
0.843612
0.805367
0.74414
0.670768
0.593024
0.516509
0.44482
0.379799
0.322197
0.271642
0.228056
0.397154
0.406051
0.434247
0.519329
0.630969
0.758183
0.886411
0.982746
1.03003
1.03097
0.989547
0.917899
0.829602
0.735577
0.642968
0.555821
0.476222
0.4052
0.342443
0.28805
0.477736
0.491401
0.522592
0.616203
0.743134
0.884841
1.03414
1.14418
1.19417
1.19326
1.14907
1.07193
0.974437
0.86812
0.761727
0.660659
0.567707
0.48429
0.410147
0.345615
0.558493
0.572069
0.606928
0.710275
0.840648
0.996909
1.1577
1.28009
1.34286
1.34696
1.29919
1.21327
1.10594
0.989159
0.871451
0.758588
0.653894
0.559286
0.474631
0.400649
0.632589
0.648706
0.691071
0.794557
0.934431
1.10145
1.26499
1.39432
1.46525
1.47571
1.43066
1.34249
1.22818
1.10203
0.973957
0.850416
0.735098
0.630282
0.535883
0.453104
0.70682
0.724289
0.764677
0.875388
1.02212
1.18252
1.36274
1.51043
1.59129
1.60048
1.54992
1.45713
1.33783
1.20498
1.06866
0.936033
0.811327
0.697292
0.593882
0.502941
0.775472
0.793231
0.839712
0.956346
1.10023
1.2746
1.46415
1.6086
1.69129
1.70725
1.65949
1.56414
1.43961
1.30022
1.15647
1.01581
0.882745
0.760392
0.64864
0.550151
0.840582
0.861175
0.907668
1.01932
1.1776
1.36207
1.54596
1.6989
1.78674
1.80175
1.75372
1.65802
1.53109
1.38718
1.23742
1.0899
0.949472
0.819667
0.700188
0.594755
0.902884
0.922564
0.971404
1.09771
1.24209
1.40152
1.60118
1.77638
1.87374
1.89327
1.84414
1.74561
1.61519
1.46697
1.31199
1.15853
1.01166
0.875226
0.748592
0.636807
0.95988
0.98196
1.03237
1.14664
1.30737
1.50476
1.70549
1.8594
1.94896
1.96628
1.91977
1.82246
1.69083
1.53958
1.38037
1.22189
1.06945
0.927192
0.793965
0.676401
1.01418
1.03561
1.08652
1.21562
1.3662
1.53016
1.73282
1.91388
2.01596
2.03817
1.99166
1.8931
1.75958
1.60564
1.44287
1.28017
1.12299
0.975703
0.836483
0.713674
1.06328
1.08591
1.13888
1.2589
1.41627
1.60697
1.81565
1.98254
2.07791
2.09874
2.05349
1.95553
1.82122
1.66531
1.4997
1.33352
1.17244
1.0209
0.876416
0.748783
1.10881
1.13153
1.18467
1.31191
1.46774
1.64537
1.85123
2.02805
2.13028
2.154
2.10963
2.01159
1.87645
1.71895
1.55106
1.38207
1.21791
1.06294
0.914184
0.781713
1.14973
1.17285
1.22758
1.35295
1.50864
1.69153
1.90232
2.07777
2.17872
2.20249
2.15877
2.06103
1.92545
1.76677
1.59709
1.42592
1.25952
1.10195
0.95051
0.812133
1.18643
1.2099
1.26526
1.39143
1.54813
1.73051
1.93989
2.1167
2.21971
2.24486
2.20189
2.10443
1.96855
1.80896
1.63793
1.4651
1.29729
1.13803
0.986468
0.840316
1.21866
1.24251
1.29895
1.4252
1.58181
1.76462
1.97478
2.1523
2.2559
2.28159
2.23916
2.14199
2.00595
1.8457
1.67365
1.4996
1.33115
1.1712
1.02305
0.867224
1.2463
1.27067
1.32837
1.45412
1.61089
1.79436
2.00446
2.18206
2.2864
2.31281
2.27089
2.174
2.03787
1.87713
1.70429
1.52936
1.36086
1.2012
1.0632
0.869914
0.0310493
0.0302698
0.029502
0.0287499
0.0280139
0.0272935
0.0265883
0.0258977
0.0252205
0.024555
0.0913122
0.0890423
0.0868183
0.0846415
0.0825106
0.0804244
0.0783822
0.0763829
0.0744253
0.0725098
0.149726
0.146045
0.142439
0.138907
0.135448
0.13206
0.128742
0.125492
0.122311
0.119198
0.206301
0.201276
0.19635
0.191522
0.186791
0.182156
0.177615
0.173166
0.16881
0.164545
0.260792
0.254495
0.24832
0.242264
0.236327
0.230506
0.224801
0.21921
0.213733
0.208368
0.313129
0.305625
0.298263
0.29104
0.283955
0.277005
0.270191
0.263511
0.256964
0.250549
0.363193
0.354541
0.346054
0.337723
0.329547
0.321524
0.313654
0.305936
0.29837
0.290955
0.41089
0.401144
0.391588
0.382204
0.37299
0.363945
0.35507
0.346364
0.337828
0.32946
0.45613
0.445333
0.434757
0.424371
0.414166
0.404147
0.394313
0.384667
0.375206
0.365933
0.49882
0.487001
0.475449
0.464103
0.452951
0.441998
0.431249
0.420705
0.410366
0.400232
0.538854
0.526026
0.513529
0.50126
0.489195
0.477346
0.46572
0.454319
0.443143
0.432195
0.576093
0.562244
0.548826
0.535663
0.522712
0.509997
0.497529
0.485311
0.473342
0.461626
0.610337
0.595424
0.581102
0.567064
0.553249
0.539692
0.526415
0.513421
0.500707
0.488277
0.641262
0.625203
0.609992
0.595102
0.58044
0.566067
0.55202
0.538299
0.524897
0.511822
0.668321
0.650989
0.63492
0.619214
0.603735
0.588589
0.573831
0.559457
0.545452
0.531829
0.690596
0.671853
0.655013
0.638564
0.622331
0.606495
0.59113
0.576218
0.561733
0.547698
0.706071
0.686093
0.668931
0.652031
0.635251
0.618916
0.603126
0.587844
0.573017
0.558685
0.710277
0.689151
0.67262
0.656147
0.639601
0.623488
0.607928
0.592853
0.57821
0.56412
0.7081
0.686851
0.670896
0.654878
0.63885
0.62322
0.607929
0.592819
0.577786
0.563008
0.663169
0.65936
0.650896
0.63871
0.625963
0.61296
0.599514
0.585571
0.571209
0.55634
0.0226945
0.0199868
0.0175738
0.0154369
0.0135503
0.0118866
0.0104181
0.00911854
0.00796405
0.00693336
0.00600795
0.00517172
0.00441068
0.0037125
0.00306621
0.00246178
0.0018898
0.00134096
0.000805689
0.000269597
0.0671387
0.0592121
0.0521311
0.0458445
0.0402824
0.0353675
0.0310216
0.0271693
0.0237419
0.0206781
0.0179242
0.0154332
0.0131643
0.0110813
0.00915205
0.00734684
0.00563793
0.00399791
0.00239893
0.000801682
0.110456
0.0975085
0.085929
0.0756339
0.0665122
0.0584405
0.0512931
0.044949
0.0392976
0.0342397
0.0296887
0.0255684
0.0218125
0.018362
0.0151642
0.0121706
0.00933583
0.00661514
0.0039637
0.00132277
0.152559
0.134778
0.118863
0.1047
0.0921394
0.0810133
0.0711497
0.0623846
0.0545671
0.0475629
0.041254
0.0355369
0.0303211
0.0255261
0.0210795
0.0169151
0.0129703
0.00918425
0.00549648
0.00183218
0.193282
0.170871
0.150798
0.132924
0.11706
0.102994
0.0905122
0.0794072
0.0694913
0.0605968
0.0525765
0.0453017
0.038659
0.0325477
0.0268771
0.0215639
0.0165296
0.0116979
0.00699408
0.00232925
0.232501
0.205664
0.181618
0.160198
0.141176
0.124298
0.109306
0.0959523
0.0840142
0.0732931
0.0636151
0.0548276
0.0467965
0.0394023
0.0325371
0.0261016
0.0200024
0.0141489
0.0084529
0.002813
0.270082
0.239032
0.211206
0.186417
0.164396
0.144845
0.127461
0.111959
0.0980837
0.085607
0.0743309
0.0640814
0.0547055
0.0460665
0.0380405
0.0305135
0.0233779
0.01653
0.00986914
0.00328232
0.305897
0.270851
0.23945
0.211483
0.186635
0.164561
0.144914
0.127373
0.111652
0.0974968
0.0846879
0.0730323
0.0623599
0.0525184
0.0433695
0.0347853
0.0266456
0.0188341
0.011239
0.00373602
0.339812
0.300999
0.266241
0.235302
0.207812
0.183377
0.161606
0.142144
0.124675
0.108924
0.0946529
0.0816515
0.069735
0.0587373
0.048507
0.0389038
0.0297956
0.0210547
0.0125585
0.0041729
0.371684
0.329353
0.291472
0.257785
0.227854
0.201232
0.177485
0.156225
0.137113
0.119855
0.104196
0.0899128
0.0768083
0.0647041
0.0534374
0.0428565
0.0328185
0.0231853
0.0138242
0.00459181
0.401353
0.355785
0.31504
0.278851
0.246697
0.218073
0.192507
0.16958
0.148933
0.130258
0.113289
0.097792
0.0835588
0.0704012
0.058146
0.0466318
0.0357055
0.0252197
0.0150325
0.0049916
0.428634
0.380164
0.336842
0.298424
0.264283
0.233857
0.206633
0.182174
0.160104
0.140107
0.121909
0.105268
0.0899677
0.0758121
0.0626192
0.0502186
0.0384483
0.0271522
0.01618
0.00537119
0.4533
0.402356
0.356782
0.316443
0.280569
0.248548
0.219837
0.193981
0.170603
0.149379
0.130034
0.11232
0.0960177
0.0809221
0.0668445
0.0536069
0.0410393
0.0289776
0.0172637
0.00572957
0.475067
0.422229
0.374771
0.332856
0.295524
0.262124
0.232097
0.204984
0.180409
0.158055
0.137646
0.118933
0.101693
0.0857175
0.0708105
0.0567874
0.0434713
0.0306907
0.0182805
0.00606578
0.493581
0.439668
0.390732
0.347637
0.309137
0.274579
0.243405
0.215169
0.18951
0.16612
0.144729
0.125091
0.106981
0.0901861
0.0745067
0.0597516
0.0457377
0.032287
0.0192278
0.00637894
0.508355
0.454585
0.404592
0.360785
0.321419
0.285919
0.253762
0.224532
0.197895
0.173561
0.15127
0.130781
0.111868
0.0943169
0.0779235
0.0624917
0.0478326
0.0337622
0.0201032
0.00666822
0.518352
0.466889
0.416303
0.372347
0.332408
0.29617
0.26318
0.233075
0.20556
0.18037
0.157258
0.135991
0.116343
0.0980996
0.0810522
0.0650004
0.0497503
0.0351124
0.0209042
0.00693287
0.524713
0.477075
0.425994
0.382448
0.342178
0.305375
0.271681
0.240805
0.212502
0.186539
0.162684
0.140711
0.120397
0.101525
0.083885
0.0672714
0.0514858
0.0363341
0.0216288
0.00717218
0.519567
0.484164
0.43343
0.391146
0.350815
0.313592
0.279296
0.247733
0.218722
0.192062
0.167539
0.144932
0.12402
0.104586
0.0864147
0.0692985
0.0530345
0.037424
0.0222752
0.00738549
0.51687
0.49088
0.439842
0.39894
0.35849
0.320907
0.28606
0.25387
0.22422
0.196935
0.171815
0.148645
0.127205
0.107273
0.0886345
0.0710764
0.0543922
0.0383791
0.0228416
0.00757212
0.496111
0.491513
0.443267
0.403801
0.363265
0.325445
0.29022
0.25762
0.227562
0.199887
0.174399
0.150884
0.129121
0.108889
0.0899675
0.0721432
0.0552063
0.0389515
0.0231811
0.00768351
0.50199
0.492677
0.445458
0.406535
0.365895
0.327914
0.292468
0.259638
0.229356
0.201468
0.17578
0.152079
0.130144
0.10975
0.0906779
0.0727115
0.0556399
0.0392562
0.0233619
0.00774283
0.499059
0.494101
0.447762
0.409228
0.368433
0.330262
0.294589
0.261531
0.231032
0.202942
0.177066
0.153191
0.131093
0.110549
0.0913368
0.0732383
0.0560417
0.0395385
0.0235292
0.00779785
0.500229
0.496091
0.450209
0.411895
0.370883
0.33249
0.296581
0.263299
0.232592
0.204308
0.178256
0.154218
0.13197
0.111286
0.0919439
0.0737234
0.0564115
0.0397983
0.0236831
0.00784852
0.500435
0.498654
0.45282
0.414548
0.373246
0.334598
0.298445
0.264941
0.234033
0.205568
0.179349
0.15516
0.132773
0.111961
0.0924989
0.0741667
0.0567492
0.0400355
0.0238236
0.00789479
0.500905
0.501829
0.455621
0.417192
0.375525
0.336585
0.30018
0.266456
0.235355
0.206718
0.180346
0.156016
0.133502
0.112572
0.0930016
0.0745678
0.0570547
0.0402499
0.0239505
0.00793665
0.501511
0.505663
0.458632
0.419823
0.377716
0.338448
0.301783
0.267843
0.236558
0.20776
0.181244
0.156787
0.134156
0.11312
0.0934516
0.0749266
0.0573277
0.0404415
0.0240638
0.00797407
0.502444
0.510196
0.461849
0.422421
0.379812
0.340182
0.303251
0.2691
0.237639
0.208691
0.182045
0.157471
0.134736
0.113605
0.0938488
0.0752428
0.0575681
0.04061
0.0241634
0.00800704
0.504017
0.515345
0.465222
0.424949
0.381798
0.341781
0.304582
0.270225
0.238598
0.209512
0.182746
0.158068
0.13524
0.114025
0.0941927
0.0755163
0.0577757
0.0407556
0.0242493
0.00803555
0.496205
0.521091
0.46884
0.42742
0.383685
0.343245
0.305773
0.271217
0.239434
0.210221
0.183348
0.158578
0.135668
0.114381
0.0944834
0.0757469
0.0579506
0.0408779
0.0243214
0.00805966
0.548127
0.540292
0.479213
0.433053
0.387645
0.346142
0.308058
0.27308
0.240982
0.211518
0.18444
0.159495
0.136435
0.115016
0.0949992
0.076155
0.0582592
0.0410937
0.0244482
0.00810238
0.589041
0.545168
0.486275
0.437169
0.39093
0.348542
0.309792
0.274351
0.241926
0.212229
0.184981
0.159911
0.136755
0.115262
0.0951874
0.0762962
0.0583617
0.0411631
0.0244881
0.00811577
0.610778
0.55345
0.492413
0.440034
0.392239
0.348954
0.309685
0.27395
0.241372
0.211611
0.184353
0.159307
0.136199
0.114767
0.0947618
0.0759451
0.0580876
0.0409674
0.0243709
0.00807705
0.615245
0.551603
0.491554
0.438393
0.390346
0.346871
0.307494
0.271759
0.239258
0.209627
0.182534
0.157673
0.13476
0.113526
0.0937201
0.0751002
0.0574363
0.0405062
0.0240964
0.00798624
0.612038
0.547156
0.487389
0.433895
0.385775
0.342398
0.30322
0.267749
0.235556
0.206259
0.179512
0.155
0.132433
0.111538
0.0920617
0.0737616
0.0564081
0.0397798
0.0236647
0.00784352
0.601462
0.537027
0.478414
0.425697
0.378216
0.335419
0.2968
0.261886
0.230246
0.201495
0.175282
0.151288
0.12922
0.108805
0.0897893
0.071932
0.0550053
0.0387902
0.0230771
0.00764926
0.58551
0.522696
0.465656
0.414177
0.367774
0.325951
0.288233
0.254163
0.223325
0.195335
0.169847
0.146541
0.125127
0.105334
0.0869092
0.0696169
0.0532324
0.0375404
0.0223352
0.00740408
0.564682
0.504142
0.449136
0.39939
0.3545
0.31403
0.277538
0.244598
0.214806
0.187794
0.16322
0.140773
0.120167
0.101135
0.0834314
0.0668247
0.0510959
0.036035
0.021442
0.0071089
0.539437
0.481632
0.429071
0.381472
0.338485
0.299716
0.264762
0.233223
0.20472
0.178896
0.155425
0.134005
0.114357
0.0962254
0.0793698
0.0635668
0.0486045
0.0342804
0.020401
0.00676488
0.510065
0.455382
0.405639
0.360561
0.31983
0.283089
0.249967
0.220092
0.193108
0.16868
0.146496
0.126266
0.107725
0.0906269
0.0747425
0.0598576
0.0457695
0.0322842
0.0192167
0.0063735
0.47678
0.425578
0.379007
0.336797
0.298652
0.264245
0.233231
0.20527
0.180029
0.157195
0.136473
0.117592
0.100301
0.0843662
0.0695719
0.0557151
0.0426042
0.0300558
0.0178947
0.00593654
0.439758
0.392394
0.349337
0.310324
0.275077
0.24329
0.214648
0.188837
0.165551
0.144499
0.125409
0.108029
0.0921231
0.0774755
0.0638842
0.0511601
0.0391246
0.0276063
0.0164413
0.00545607
0.399164
0.355996
0.316791
0.281294
0.249239
0.220345
0.194323
0.170885
0.149754
0.130664
0.113365
0.0976277
0.0832362
0.0699919
0.0577099
0.0462169
0.0353489
0.0249482
0.0148639
0.00493445
0.355162
0.316555
0.281538
0.249863
0.221284
0.19554
0.172371
0.151517
0.132729
0.115767
0.10041
0.0864484
0.0736906
0.0619578
0.0510838
0.0409129
0.0312975
0.0220957
0.0131706
0.00437435
0.307927
0.274251
0.243753
0.216202
0.191369
0.16902
0.148923
0.130848
0.114576
0.0998985
0.0866195
0.0745571
0.0635428
0.0534203
0.0440442
0.0352783
0.0269934
0.0190644
0.0113705
0.00377865
0.257651
0.229279
0.203629
0.180491
0.159663
0.140939
0.124117
0.109002
0.0954075
0.0831551
0.0720797
0.0620271
0.0528549
0.0444313
0.0366335
0.0293466
0.0224613
0.0158712
0.00947319
0.00315042
0.204553
0.181855
0.161372
0.142929
0.126349
0.111464
0.098106
0.0861165
0.0753433
0.0656431
0.0568825
0.0489378
0.0416946
0.0350473
0.0288977
0.0231538
0.0177279
0.0125343
0.00748879
0.00249281
0.148859
0.132205
0.117205
0.103723
0.0916232
0.0807749
0.0710527
0.0623367
0.0545134
0.0474766
0.0411275
0.0353749
0.0301346
0.025329
0.0208861
0.0167385
0.0128217
0.00907243
0.00542751
0.00180891
0.0909033
0.0806297
0.0713979
0.06312
0.0557061
0.0490713
0.043135
0.0378209
0.0330574
0.0287779
0.024921
0.0214298
0.0182524
0.015341
0.0126513
0.0101417
0.00777271
0.00550507
0.00329901
0.00110131
0.0308347
0.0273025
0.0241399
0.021314
0.0187903
0.016537
0.0145251
0.0127272
0.011118
0.00967428
0.00837462
0.00719945
0.0061309
0.00515259
0.00424941
0.00340724
0.0026126
0.00185203
0.00111172
0.000371726
0.828838
0.806192
0.785807
0.764246
0.741769
0.718828
0.69542
0.671332
0.64637
0.620065
0.846577
0.821225
0.798996
0.777142
0.755282
0.733638
0.712292
0.691258
0.670361
0.650166
0.838282
0.815958
0.795335
0.775162
0.755142
0.735398
0.716049
0.697161
0.678719
0.660977
0.831924
0.811092
0.791322
0.772007
0.752956
0.734225
0.715881
0.697956
0.680432
0.663416
0.816262
0.796899
0.778267
0.760052
0.742119
0.72449
0.707208
0.690292
0.673739
0.657589
0.796768
0.778552
0.760828
0.743447
0.72634
0.709518
0.693003
0.676802
0.660916
0.645361
0.772312
0.755024
0.738111
0.721501
0.705158
0.689086
0.673296
0.657791
0.642572
0.627644
0.74308
0.726647
0.710519
0.694665
0.679067
0.663727
0.648651
0.633838
0.619288
0.605004
0.70914
0.69354
0.678202
0.663117
0.64828
0.633691
0.61935
0.605258
0.591414
0.577817
0.670506
0.655759
0.64125
0.626978
0.612946
0.599152
0.585595
0.572274
0.559188
0.546336
0.6272
0.613359
0.599739
0.586345
0.573181
0.560246
0.547537
0.535052
0.52279
0.510749
0.579257
0.566398
0.553745
0.541308
0.529091
0.517091
0.505305
0.493731
0.482368
0.471213
0.526734
0.514946
0.503352
0.491962
0.48078
0.469801
0.459024
0.448445
0.438064
0.427876
0.469711
0.459097
0.448663
0.43842
0.428368
0.418506
0.408829
0.399335
0.390023
0.380889
0.4083
0.398971
0.389806
0.380814
0.371997
0.363351
0.354871
0.346558
0.338407
0.330417
0.342637
0.334711
0.326931
0.319303
0.311829
0.304503
0.297324
0.29029
0.283397
0.276644
0.272928
0.266528
0.26025
0.254101
0.248079
0.242182
0.236407
0.230751
0.225212
0.219791
0.199315
0.194573
0.189927
0.18538
0.180931
0.176576
0.172315
0.168144
0.164062
0.160069
0.122292
0.119331
0.116431
0.113596
0.110824
0.108113
0.105463
0.10287
0.100334
0.0978537
0.0417819
0.040748
0.0397341
0.0387436
0.0377761
0.0368309
0.035907
0.0350037
0.0341197
0.0332539
1.3225
1.34735
1.40469
1.53221
1.68947
1.87126
2.08209
2.26088
2.36604
2.39385
2.35352
2.25756
2.12131
1.95923
1.78395
1.60584
1.43375
1.27217
1.12989
0.969136
1.32337
1.34808
1.40403
1.5324
1.69019
1.87079
2.08183
2.26111
2.36623
2.3939
2.35359
2.25761
2.12123
1.95893
1.78317
1.60421
1.43005
1.26575
1.11434
0.973904
1.31587
1.34078
1.39578
1.52436
1.68258
1.86256
2.07354
2.25304
2.35809
2.38553
2.34509
2.24897
2.11246
1.95002
1.77401
1.59452
1.41893
1.25203
1.09377
0.94128
1.30041
1.32543
1.37972
1.50818
1.66661
1.84628
2.05715
2.23675
2.34163
2.36872
2.32796
2.2316
2.09495
1.93251
1.7565
1.57689
1.40068
1.23265
1.07287
0.92489
1.277
1.30206
1.35568
1.4838
1.64259
1.82217
2.03243
2.21167
2.31636
2.34314
2.30199
2.20532
2.06859
1.90631
1.73069
1.55152
1.37564
1.20782
1.04874
0.901099
1.24562
1.27067
1.32411
1.45071
1.60887
1.78973
2.00131
2.17967
2.28308
2.30884
2.26698
2.1699
2.03316
1.87132
1.69652
1.51845
1.34385
1.17746
1.02053
0.875923
1.20656
1.23126
1.28365
1.41287
1.57031
1.74352
1.9512
2.13265
2.23833
2.26456
2.22236
2.12496
1.98837
1.82729
1.65385
1.47761
1.30524
1.1414
0.987824
0.847082
1.1594
1.18418
1.23661
1.3583
1.51897
1.71447
1.92538
2.09195
2.18869
2.21133
2.16772
2.06992
1.93376
1.77391
1.60245
1.42885
1.25966
1.09944
0.950159
0.814046
1.10517
1.12861
1.17957
1.30925
1.45959
1.61163
1.81427
2.00862
2.12056
2.14668
2.10293
2.00458
1.86892
1.71075
1.54201
1.37193
1.2069
1.05132
0.907221
0.776484
1.04228
1.06651
1.11692
1.2351
1.40237
1.61644
1.82424
1.96682
2.05103
2.06929
2.02416
1.92665
1.79271
1.63718
1.47209
1.30654
1.14673
0.996815
0.858781
0.734168
0.973404
0.994664
1.04407
1.17034
1.31003
1.43939
1.63287
1.84101
1.95909
1.98858
1.94004
1.83923
1.70553
1.55283
1.39226
1.23232
1.07886
0.935707
0.804666
0.686959
0.895406
0.918203
0.964979
1.07867
1.25268
1.46678
1.65353
1.77133
1.85486
1.87114
1.82674
1.73222
1.60366
1.45624
1.30179
1.14885
1.00302
0.867797
0.744749
0.634792
0.812267
0.830863
0.877811
0.997924
1.13851
1.28682
1.46968
1.63675
1.74185
1.77032
1.72008
1.61951
1.49087
1.34783
1.20035
1.05575
0.918932
0.792914
0.678948
0.577655
0.721991
0.740581
0.780063
0.8891
1.04254
1.21085
1.36441
1.50795
1.5997
1.61663
1.56882
1.47723
1.35791
1.22421
1.08659
0.952395
0.826277
0.710901
0.607215
0.515578
0.621735
0.639234
0.680299
0.783859
0.9308
1.10841
1.26035
1.36573
1.43071
1.44982
1.41259
1.32748
1.21366
1.088
0.960915
0.838648
0.724893
0.621674
0.529553
0.448633
0.522807
0.535708
0.565626
0.665498
0.794682
0.932483
1.09422
1.2181
1.27833
1.27827
1.23093
1.14722
1.04375
0.932223
0.820307
0.713245
0.61427
0.525068
0.445972
0.37692
0.412329
0.424319
0.450214
0.535808
0.651115
0.767109
0.896184
1.0025
1.05182
1.05096
1.01226
0.944739
0.857932
0.762677
0.667364
0.577189
0.494809
0.421299
0.356651
0.300628
0.30068
0.305869
0.326742
0.398334
0.492234
0.596571
0.691204
0.764121
0.806524
0.811477
0.779004
0.720165
0.647666
0.57116
0.496806
0.427667
0.365175
0.309841
0.261484
0.219844
0.181766
0.184346
0.200603
0.252388
0.317851
0.393049
0.456956
0.499336
0.522628
0.520616
0.494443
0.453708
0.406721
0.358159
0.310953
0.266871
0.226982
0.191796
0.161227
0.135113
0.0621372
0.0633079
0.0656749
0.0848195
0.123344
0.153413
0.175506
0.185363
0.190062
0.188202
0.178961
0.164604
0.147364
0.128976
0.110946
0.0942627
0.0794049
0.0665161
0.0555044
0.0462635
1.26261
1.28714
1.34583
1.4713
1.62797
1.81181
2.02202
2.1996
2.3042
2.33098
2.28936
2.19265
2.0565
1.89549
1.72224
1.54683
1.37848
1.22009
1.09295
0.930589
1.27122
1.29589
1.35505
1.48037
1.63702
1.82102
2.03126
2.20881
2.31355
2.34053
2.29907
2.20247
2.06631
1.90517
1.7317
1.55604
1.38776
1.2301
1.10689
0.961348
1.27918
1.30398
1.36346
1.48871
1.64534
1.82943
2.03971
2.21726
2.32211
2.34926
2.30796
2.21146
2.0753
1.91404
1.74036
1.56447
1.39622
1.23918
1.11909
0.986783
1.2865
1.31139
1.37108
1.49633
1.65296
1.83706
2.04738
2.22495
2.32989
2.3572
2.31604
2.21963
2.08347
1.9221
1.74822
1.57211
1.40381
1.24725
1.12933
1.00687
1.29316
1.31811
1.3779
1.50321
1.65985
1.84391
2.05427
2.23188
2.3369
2.36434
2.32332
2.22699
2.09082
1.92935
1.75529
1.57896
1.41052
1.25424
1.13757
1.02181
1.29917
1.32415
1.38394
1.50937
1.66604
1.84998
2.06039
2.23807
2.34314
2.37069
2.3298
2.23354
2.09738
1.93581
1.76157
1.585
1.41634
1.2601
1.14379
1.03168
1.30452
1.3295
1.38919
1.5148
1.6715
1.85529
2.06576
2.24351
2.34862
2.37626
2.33549
2.2393
2.10313
1.94147
1.76705
1.59025
1.42126
1.2648
1.14794
1.03658
1.30922
1.33415
1.39365
1.51951
1.67625
1.85981
2.07037
2.24823
2.35336
2.38107
2.3404
2.24427
2.10809
1.94635
1.77175
1.5947
1.42529
1.26835
1.14992
1.03658
1.31327
1.33812
1.3973
1.52351
1.68029
1.86353
2.07421
2.25221
2.35734
2.3851
2.34453
2.24846
2.11226
1.95043
1.77567
1.59836
1.42842
1.27077
1.14957
1.03036
1.31668
1.34145
1.40015
1.52677
1.68365
1.86647
2.07723
2.25545
2.36059
2.38838
2.34789
2.25186
2.11565
1.95374
1.77881
1.60124
1.43066
1.27203
1.1486
1.02233
)
;

boundaryField
{
    inlet
    {
        type            zeroGradient;
    }
    outlet
    {
        type            fixedValue;
        value           uniform 0;
    }
    upAndBottom
    {
        type            empty;
    }
    obstacle
    {
        type            zeroGradient;
    }
}


// ************************************************************************* //
