/*--------------------------------*- C++ -*----------------------------------*\
| =========                 |                                                 |
| \\      /  F ield         | OpenFOAM: The Open Source CFD Toolbox           |
|  \\    /   O peration     | Version:  v1806                                 |
|   \\  /    A nd           | Web:      www.OpenFOAM.com                      |
|    \\/     M anipulation  |                                                 |
\*---------------------------------------------------------------------------*/
FoamFile
{
    version     2.0;
    format      ascii;
    class       surfaceScalarField;
    location    "2";
    object      phi;
}
// * * * * * * * * * * * * * * * * * * * * * * * * * * * * * * * * * * * * * //

dimensions      [0 3 -1 0 0 0 0];
oriented        oriented;


internalField   nonuniform List<scalar> 
4680
(
0.745206
-0.0506998
0.731442
-0.257095
0.748262
-0.111602
0.772552
-0.0259913
0.757161
-0.381308
0.689477
-0.977422
0.587146
-1.46598
0.475206
-1.70015
0.369706
-1.7217
0.278449
-1.62519
0.204354
-1.476
0.147232
-1.3078
0.104814
-1.13839
0.0740407
-0.978323
0.0521031
-0.833239
0.0367049
-0.70517
0.0260256
-0.593903
0.0186613
-0.498196
0.0135687
-0.416105
-0.346098
0.00995801
0.745438
-0.0461374
0.732734
-0.244391
0.746369
-0.125237
0.759743
-0.0393647
0.740334
-0.3619
0.678781
-0.915869
0.589412
-1.37661
0.492262
-1.603
0.398991
-1.62842
0.315294
-1.5415
0.243855
-1.40456
0.185607
-1.24955
0.139949
-1.09274
0.104955
-0.943329
0.078429
-0.806713
0.0585274
-0.685268
0.043766
-0.579141
0.0329288
-0.487359
0.024982
-0.408158
-0.340211
0.0190954
0.745156
-0.0412935
0.734862
-0.234097
0.742862
-0.133238
0.755577
-0.0520794
0.737688
-0.344011
0.674735
-0.852916
0.584574
-1.28645
0.48679
-1.50522
0.392655
-1.53429
0.309275
-1.45812
0.239778
-1.33507
0.183987
-1.19376
0.140646
-1.04939
0.107834
-0.910517
0.0831876
-0.782067
0.0645854
-0.666666
0.0504489
-0.565005
0.0396827
-0.476593
0.0314221
-0.399897
-0.333839
0.0250499
0.74623
-0.0375236
0.736574
-0.224441
0.739733
-0.136396
0.747057
-0.0594034
0.725204
-0.322158
0.670033
-0.797745
0.594851
-1.21127
0.51013
-1.4205
0.425286
-1.44945
0.346225
-1.37906
0.276658
-1.2655
0.217854
-1.13495
0.169525
-1.00107
0.131044
-0.872035
0.101304
-0.752327
0.0787396
-0.644101
0.0617197
-0.547985
0.0488876
-0.463761
0.0390954
-0.390105
-0.326299
0.0315551
0.747855
-0.0353784
0.735598
-0.212184
0.739047
-0.139845
0.745246
-0.0656022
0.72589
-0.302802
0.675883
-0.747738
0.596796
-1.13218
0.503512
-1.32721
0.414152
-1.36009
0.335875
-1.30078
0.270085
-1.19971
0.216553
-1.08142
0.17347
-0.957983
0.138681
-0.837246
0.110641
-0.724287
0.0882792
-0.621739
0.0706567
-0.530362
0.0569262
-0.45003
0.0461777
-0.379357
-0.317893
0.0377715
0.747289
-0.032667
0.73503
-0.199925
0.736235
-0.14105
0.736757
-0.0661245
0.719184
-0.285229
0.675509
-0.704063
0.606469
-1.06314
0.526957
-1.2477
0.44739
-1.28052
0.372116
-1.22551
0.303297
-1.13089
0.243297
-1.02142
0.193744
-0.90843
0.154258
-0.79776
0.123207
-0.693236
0.0988493
-0.597381
0.0797477
-0.511261
0.0648345
-0.435117
0.0530753
-0.367598
-0.30866
0.0438433
0.745354
-0.0280211
0.737256
-0.191827
0.73712
-0.140914
0.738903
-0.0679072
0.721939
-0.268265
0.667842
-0.649966
0.58954
-0.984837
0.50664
-1.1648
0.427603
-1.20148
0.357487
-1.15539
0.297576
-1.07098
0.246169
-0.970015
0.20189
-0.864151
0.164394
-0.760265
0.133408
-0.662251
0.108303
-0.572276
0.0882149
-0.491173
0.0723408
-0.419243
0.0596937
-0.35495
-0.29872
0.0497537
0.749146
-0.0271669
0.737977
-0.180658
0.731678
-0.134615
0.732839
-0.0690681
0.712804
-0.24823
0.665433
-0.602595
0.606176
-0.925579
0.538897
-1.09752
0.465979
-1.12856
0.391886
-1.0813
0.323102
-1.0022
0.264158
-0.911071
0.215572
-0.815565
0.175893
-0.720586
0.143564
-0.629921
0.117357
-0.546069
0.0962571
-0.470073
0.0794895
-0.402475
0.0660365
-0.341497
-0.288201
0.0555171
0.747439
-0.0246057
0.734884
-0.168103
0.735586
-0.135317
0.735457
-0.0689391
0.713121
-0.225894
0.669518
-0.558992
0.602022
-0.858083
0.520693
-1.0162
0.444968
-1.05284
0.38018
-1.01651
0.322828
-0.944843
0.270916
-0.859159
0.224996
-0.769645
0.185686
-0.681276
0.152824
-0.597059
0.125792
-0.519037
0.103814
-0.448095
0.0862571
-0.384918
0.0720908
-0.327331
-0.277265
0.0611551
0.747515
-0.022121
0.738159
-0.158747
0.731451
-0.128609
0.727164
-0.0646527
0.718427
-0.217157
0.687027
-0.527593
0.630348
-0.801404
0.559288
-0.945135
0.48174
-0.975291
0.406204
-0.940972
0.339512
-0.878152
0.282983
-0.80263
0.235299
-0.721961
0.195127
-0.641103
0.16151
-0.563443
0.133675
-0.491202
0.110891
-0.425311
0.0926331
-0.366661
0.0778474
-0.312545
-0.266122
0.0667042
0.748506
-0.020627
0.737736
-0.147977
0.732019
-0.122891
0.732453
-0.0650873
0.707056
-0.191759
0.647154
-0.467691
0.57694
-0.73119
0.513702
-0.881897
0.455716
-0.917305
0.39891
-0.884166
0.342997
-0.822238
0.290643
-0.750276
0.243987
-0.675305
0.203687
-0.600803
0.169526
-0.529282
0.140987
-0.462662
0.117475
-0.401799
0.0986004
-0.347786
0.0832965
-0.297241
-0.255048
0.072222
0.748081
-0.0187082
0.736758
-0.136654
0.730921
-0.117053
0.727554
-0.0617201
0.716962
-0.181168
0.694263
-0.444992
0.64694
-0.683867
0.573346
-0.808304
0.492065
-0.836023
0.417981
-0.810083
0.354378
-0.758635
0.299684
-0.695581
0.252369
-0.627991
0.211633
-0.560067
0.176927
-0.494577
0.147734
-0.433469
0.123558
-0.377623
0.104134
-0.328362
0.0884298
-0.281537
-0.244414
0.0777964
0.74824
-0.0169483
0.738493
-0.126907
0.731305
-0.109866
0.727568
-0.0579822
0.709069
-0.162669
0.661179
-0.397102
0.596379
-0.619067
0.533741
-0.745666
0.474853
-0.777135
0.416266
-0.751496
0.359354
-0.701723
0.306734
-0.642961
0.259811
-0.581068
0.218876
-0.519132
0.18371
-0.45941
0.153916
-0.403675
0.12913
-0.352836
0.109196
-0.308428
0.0932428
-0.265584
-0.23473
0.0835586
0.748492
-0.0154402
0.73752
-0.115935
0.729862
-0.102208
0.727181
-0.0553009
0.713711
-0.149199
0.68084
-0.364231
0.629158
-0.567384
0.562997
-0.679505
0.492728
-0.706866
0.426681
-0.685449
0.367054
-0.642097
0.313811
-0.589718
0.266702
-0.533959
0.225495
-0.477925
0.189895
-0.42381
0.159534
-0.373314
0.134177
-0.327479
0.113728
-0.287979
0.0977405
-0.249597
-0.226693
0.0897034
0.748438
-0.0138779
0.738124
-0.105622
0.730567
-0.0946509
0.726136
-0.0508692
0.710531
-0.133595
0.67371
-0.327409
0.618561
-0.512236
0.555518
-0.616462
0.491725
-0.643072
0.430117
-0.623841
0.372462
-0.584442
0.31989
-0.537146
0.272886
-0.486955
0.231485
-0.436524
0.195495
-0.38782
0.164589
-0.342409
0.138687
-0.301577
0.117647
-0.266939
0.101946
-0.233897
-0.221257
0.0965106
0.7486
-0.012478
0.738116
-0.0951379
0.729707
-0.0862415
0.725699
-0.0468614
0.711815
-0.119711
0.677578
-0.293172
0.625019
-0.459676
0.562466
-0.55391
0.497764
-0.57837
0.435618
-0.561695
0.377953
-0.526777
0.325487
-0.48468
0.278472
-0.439939
0.236878
-0.39493
0.200524
-0.351467
0.169086
-0.31097
0.14264
-0.275131
0.120839
-0.245138
0.105915
-0.218973
-0.219657
0.104315
0.748649
-0.0111272
0.738176
-0.0846652
0.729723
-0.0777876
0.725331
-0.0424702
0.711249
-0.105628
0.677463
-0.259387
0.625914
-0.408127
0.56458
-0.492576
0.501084
-0.514874
0.439798
-0.500409
0.382649
-0.469628
0.330434
-0.432465
0.283448
-0.392954
0.241691
-0.353173
0.205001
-0.314777
0.173036
-0.279005
0.146008
-0.248103
0.123159
-0.222288
0.109658
-0.205473
-0.223356
0.113357
0.748726
-0.00985275
0.738254
-0.0741936
0.729486
-0.0690197
0.724857
-0.0378413
0.711327
-0.0920982
0.678601
-0.226661
0.627991
-0.357516
0.567381
-0.431967
0.504454
-0.451947
0.443636
-0.439591
0.386832
-0.412824
0.334807
-0.38044
0.287844
-0.345991
0.245944
-0.311273
0.208943
-0.277775
0.176467
-0.246529
0.148743
-0.220379
0.124511
-0.198057
0.112596
-0.193558
-0.233768
0.123009
0.748785
-0.00863811
0.738263
-0.0636711
0.729309
-0.0600656
0.724493
-0.0330255
0.711279
-0.0788838
0.679293
-0.194675
0.629566
-0.30779
0.569693
-0.372093
0.507328
-0.389581
0.44694
-0.379203
0.390449
-0.356334
0.338603
-0.328594
0.291671
-0.299058
0.249654
-0.269256
0.212369
-0.24049
0.179427
-0.213587
0.150748
-0.191699
0.125241
-0.172551
0.112385
-0.180702
-0.247748
0.126366
0.748782
-0.00741971
0.738256
-0.0531451
0.729177
-0.0509868
0.724265
-0.0281139
0.711453
-0.0660715
0.680095
-0.163317
0.630817
-0.258512
0.571472
-0.312748
0.509596
-0.327705
0.449607
-0.319214
0.393421
-0.300148
0.341766
-0.276939
0.294894
-0.252187
0.252811
-0.227173
0.215294
-0.202972
0.181994
-0.180288
0.152033
-0.161738
0.126218
-0.146736
0.105277
-0.159761
0.102014
-0.244486
0.00955926
-0.0415645
0.00918564
-0.0405095
0.00882746
-0.0394812
0.00848435
-0.0384757
0.00815574
-0.0374926
0.00784108
-0.0365315
0.0075399
-0.035592
0.00725187
-0.034674
0.0069769
-0.0337771
-0.0329032
0.00671079
0.0184245
-0.0408936
0.0177798
-0.0398648
0.0171592
-0.0388606
0.0165614
-0.0378779
0.0159854
-0.0369165
0.01543
-0.0359761
0.0148944
-0.0350564
0.0143777
-0.0341573
0.0138793
-0.0332787
-0.0324216
0.0133977
0.0242984
-0.0401421
0.0235676
-0.039134
0.0228582
-0.0381512
0.0221694
-0.0371891
0.0215002
-0.0362474
0.0208499
-0.0353258
0.0202178
-0.0344242
0.019603
-0.0335426
0.0190051
-0.0326808
-0.0318398
0.0184233
0.0306603
-0.0392473
0.0297903
-0.0382639
0.0289434
-0.0373044
0.0281189
-0.0363646
0.0273158
-0.0354443
0.0265333
-0.0345433
0.0257706
-0.0336615
0.0250271
-0.0327991
0.0243022
-0.0319558
-0.0311327
0.0235951
0.0367596
-0.0382354
0.0357714
-0.0372756
0.034806
-0.036339
0.0338626
-0.0354213
0.0329405
-0.0345222
0.0320389
-0.0336417
0.0311572
-0.0327798
0.0302949
-0.0319367
0.0294514
-0.0311124
-0.0303078
0.0286264
0.0427193
-0.0371115
0.0416182
-0.0361745
0.040539
-0.0352598
0.0394808
-0.0343632
0.0384432
-0.0334845
0.0374254
-0.0326238
0.0364269
-0.0317814
0.0354476
-0.0309574
0.0344871
-0.0301519
-0.0293659
0.0335452
0.0485274
-0.0358853
0.0473216
-0.0349686
0.0461353
-0.0340735
0.0449679
-0.0331958
0.0438191
-0.0323356
0.0426883
-0.0314931
0.0415755
-0.0306686
0.0404807
-0.0298625
0.039404
-0.0290752
-0.0283073
0.0383454
0.0541984
-0.0345666
0.0528958
-0.033666
0.0516085
-0.0327861
0.0503363
-0.0319236
0.0490791
-0.0310785
0.0478371
-0.030251
0.0466104
-0.0294419
0.0453995
-0.0286517
0.0442052
-0.0278808
-0.0271301
0.0430279
0.0597547
-0.0331663
0.0583631
-0.0322743
0.05698
-0.031403
0.0556058
-0.0305495
0.0542412
-0.0297139
0.052887
-0.0288968
0.051544
-0.028099
0.0502137
-0.0273213
0.0488972
-0.0265644
-0.025829
0.0475962
0.0652336
-0.0316957
0.0637601
-0.0308008
0.0622844
-0.0299274
0.0608084
-0.0290735
0.0593338
-0.0282393
0.0578625
-0.0274255
0.0563966
-0.0266332
0.0549387
-0.0258634
0.0534912
-0.0251169
-0.0243945
0.0520567
0.0706928
-0.0301666
0.0691425
-0.0292504
0.067574
-0.028359
0.0659914
-0.0274908
0.0643983
-0.0266462
0.0627987
-0.0258259
0.0611968
-0.0250312
0.0595967
-0.0242633
0.0580025
-0.0235228
-0.0228104
0.0564185
0.0762192
-0.0285894
0.0745928
-0.0276239
0.0729244
-0.0266906
0.0712218
-0.0257882
0.0694923
-0.0249168
0.0677434
-0.0240769
0.0659821
-0.02327
0.0642155
-0.0224966
0.0624499
-0.0217572
-0.0210521
0.0606916
0.0819396
-0.0269704
0.0802288
-0.0259132
0.0784411
-0.0249028
0.0765908
-0.0239379
0.0746916
-0.0230176
0.0727567
-0.022142
0.0707982
-0.0213115
0.068827
-0.0205254
0.0668528
-0.019783
-0.0190836
0.0648843
0.0880365
-0.0253036
0.0862145
-0.0240911
0.084265
-0.0229534
0.0822143
-0.0218872
0.0800872
-0.0208905
0.0779063
-0.0199611
0.0756917
-0.0190968
0.07346
-0.0182938
0.0712245
-0.0175475
-0.0168561
0.068997
0.0947647
-0.0235577
0.0927668
-0.0220933
0.0905707
-0.0207572
0.088224
-0.0195406
0.0857708
-0.0184372
0.0832496
-0.01744
0.0806923
-0.0165395
0.0781226
-0.015724
0.0755569
-0.0149818
-0.0143091
0.0730099
0.102403
-0.0216455
0.100104
-0.0197947
0.0975133
-0.0181663
0.0947144
-0.0167417
0.0917844
-0.0155072
0.0887887
-0.0144442
0.0857756
-0.0135265
0.0827761
-0.0127245
0.079805
-0.0120107
-0.0113779
0.0768738
0.110988
-0.0192758
0.108148
-0.0169551
0.104932
-0.01495
0.10147
-0.0132797
0.0978831
-0.0119206
0.0942724
-0.0108336
0.0907049
-0.00995897
0.0872166
-0.0092362
0.0838207
-0.00861475
-0.00808063
0.0805234
0.119816
-0.0160826
0.115906
-0.0130459
0.111631
-0.0106744
0.107184
-0.00883331
0.102742
-0.00747837
0.0984288
-0.00652028
0.0943016
-0.00583172
0.0903586
-0.00529319
0.086549
-0.00480515
-0.00436066
0.082829
0.122014
-0.0117312
0.117164
-0.00819602
0.112084
-0.00559427
0.10705
-0.00379865
0.102271
-0.00269934
0.097847
-0.00209669
0.0937984
-0.00178313
0.0901065
-0.00160126
0.0867548
-0.00145342
-0.00131667
0.0837108
0.0902829
0.0820869
0.0764926
0.072694
0.0699947
0.067898
0.0661148
0.0645136
0.0630601
0.0617435
0.00558103
-0.144667
0.00465028
-0.127495
0.00388774
-0.112256
0.00326474
-0.0987789
0.00275702
-0.086874
0.00234353
-0.0763524
0.00200641
-0.0670349
0.00173088
-0.058758
0.00150498
-0.051376
0.00131919
-0.0447613
0.00116605
-0.0388027
0.00103971
-0.0334034
0.000935677
-0.0284783
0.000850461
-0.0239523
0.000781393
-0.0197579
0.000726464
-0.0158338
0.000684252
-0.0121226
0.000654002
-0.00856981
0.00063574
-0.00512623
-0.00186825
0.0113316
-0.142601
0.0095833
-0.125746
0.00811628
-0.110789
0.00689387
-0.0975565
0.00588069
-0.0858608
0.00504346
-0.0755152
0.00435224
-0.0663437
0.00378111
-0.0581868
0.00330839
-0.0509033
0.00291641
-0.0443693
0.002591
-0.0384773
0.00232098
-0.0331333
0.00209759
-0.0282549
0.00191399
-0.0237687
0.00176495
-0.0196089
0.00164652
-0.0157153
0.00155594
-0.012032
0.00149179
-0.00850566
0.00145418
-0.00508862
-0.00185539
0.0158779
-0.140055
0.013662
-0.12353
0.0117528
-0.10888
0.0101247
-0.0959285
0.00874783
-0.0844839
0.00758967
-0.074357
0.00661836
-0.0653724
0.00580454
-0.057373
0.00512257
-0.0502213
0.00455087
-0.0437976
0.00407178
-0.0379982
0.00367105
-0.0327326
0.0033374
-0.0279212
0.00306196
-0.0234932
0.00283789
-0.0193848
0.00266003
-0.0155375
0.00252482
-0.0118968
0.00243035
-0.00841119
0.00237646
-0.00503472
-0.00183727
0.0204775
-0.136938
0.0177362
-0.120789
0.0153537
-0.106497
0.0133066
-0.0938814
0.0115632
-0.0827406
0.0100873
-0.0728811
0.00884188
-0.0641269
0.00779217
-0.0563233
0.00690757
-0.0493367
0.00616214
-0.0430522
0.00553449
-0.0373706
0.00500736
-0.0322055
0.00456702
-0.0274809
0.00420267
-0.0231289
0.00390595
-0.0190881
0.00367058
-0.0153021
0.00349217
-0.0117184
0.00336824
-0.00828726
0.00329798
-0.00496446
-0.00181357
0.0249588
-0.13327
0.0217053
-0.117536
0.0188598
-0.103652
0.0164038
-0.0914254
0.0143044
-0.0806412
0.0125211
-0.0710978
0.011011
-0.0626169
0.00973385
-0.0550462
0.00865384
-0.0482567
0.00774066
-0.042139
0.00696933
-0.0365992
0.00631972
-0.0315559
0.0057758
-0.026937
0.00532496
-0.0226781
0.00495744
-0.0187206
0.00466587
-0.0150105
0.00444506
-0.0114976
0.00429184
-0.00813403
0.00420471
-0.00487734
-0.0017839
0.0293274
-0.129052
0.0255628
-0.113771
0.0222592
-0.100348
0.0194028
-0.088569
0.0169583
-0.0781967
0.014879
-0.0690185
0.0131154
-0.0608532
0.0116206
-0.0535514
0.0103536
-0.0469897
0.00927962
-0.041065
0.00837024
-0.0356899
0.00760264
-0.0307883
0.00695867
-0.026293
0.00642407
-0.0221435
0.0059878
-0.0182843
0.0056415
-0.0146643
0.00537917
-0.0112352
0.00519696
-0.00795182
0.0050927
-0.00477308
-0.00174799
0.0335721
-0.124279
0.0292943
-0.109493
0.0255362
-0.0965901
0.0222887
-0.0853215
0.0195114
-0.0754194
0.0171495
-0.0666565
0.015145
-0.0588488
0.013444
-0.0518504
0.0119996
-0.0455453
0.0107727
-0.0398381
0.00973163
-0.0346488
0.0088511
-0.0299077
0.00811106
-0.025553
0.0074958
-0.0215282
0.00699312
-0.0177816
0.00659376
-0.0142649
0.00629098
-0.0109324
0.00608029
-0.00774113
0.00595889
-0.00465168
-0.00170574
0.0376828
-0.118934
0.0328844
-0.104695
0.028674
-0.0923797
0.0250454
-0.0816929
0.0219497
-0.0723237
0.0193207
-0.0640275
0.0170902
-0.0566182
0.0151959
-0.0499561
0.0135849
-0.0439343
0.0122139
-0.0384671
0.0110483
-0.0334831
0.0100604
-0.0289199
0.0092287
-0.0247212
0.00853618
-0.0208357
0.00796969
-0.0172151
0.00751915
-0.0138144
0.00717718
-0.0105905
0.00693868
-0.00750263
0.00680036
-0.00451336
-0.00165715
0.0416483
-0.112986
0.0363153
-0.0993618
0.0316535
-0.0877178
0.0276559
-0.0776953
0.0242591
-0.0689269
0.0213814
-0.0611499
0.0189417
-0.0541786
0.0168687
-0.0478831
0.0151032
-0.0421688
0.0135979
-0.0369618
0.0123153
-0.0322006
0.0112262
-0.0278308
0.0103076
-0.0238026
0.0095415
-0.0200696
0.00891399
-0.0165876
0.00841435
-0.0133147
0.0080346
-0.0102107
0.00776915
-0.00723718
0.00761424
-0.00435845
-0.0016023
0.0454543
-0.106383
0.0395655
-0.093473
0.0344529
-0.0826052
0.0301014
-0.0733438
0.0264247
-0.0652503
0.0233202
-0.0580453
0.020691
-0.0515494
0.0184557
-0.0456478
0.0165489
-0.040262
0.0149197
-0.0353326
0.0135284
-0.0308093
0.0123445
-0.0266468
0.011344
-0.0228021
0.0105082
-0.0192339
0.00982274
-0.0159021
0.00927622
-0.0127682
0.00886025
-0.00979476
0.00856883
-0.00694576
0.00839781
-0.00418743
-0.00154132
0.0490814
-0.0990463
0.042608
-0.0869996
0.0370463
-0.0770435
0.0323614
-0.068659
0.0284318
-0.0613206
0.0251264
-0.0547399
0.0223302
-0.0487532
0.0199508
-0.0432684
0.0179171
-0.0382283
0.016175
-0.0335905
0.0146837
-0.029318
0.0134117
-0.0253748
0.0123345
-0.021725
0.0114332
-0.0183326
0.0106928
-0.0151617
0.0101018
-0.0121772
0.0096513
-0.00934427
0.00933498
-0.00662944
0.00914842
-0.00400087
-0.00147438
0.0525014
-0.0908561
0.0454073
-0.0799056
0.0394029
-0.0710391
0.0344134
-0.0636695
0.0302651
-0.0571722
0.0267903
-0.0512652
0.0238528
-0.0458157
0.0213492
-0.0407648
0.0192037
-0.0360827
0.0173604
-0.0317472
0.0157779
-0.0277355
0.0144246
-0.0240215
0.0132761
-0.0205765
0.0123134
-0.0173699
0.0115214
-0.0143697
0.0108883
-0.011544
0.0104051
-0.00886103
0.010065
-0.00628942
0.00986358
-0.00379941
-0.00140171
0.0556721
-0.081644
0.0479167
-0.0721501
0.0414852
-0.0646076
0.0362328
-0.0584171
0.03191
-0.0528495
0.0283034
-0.0476586
0.0252534
-0.0427657
0.0226472
-0.0381586
0.0204057
-0.0338412
0.018473
-0.0298145
0.0168081
-0.0260706
0.0153804
-0.0225938
0.014166
-0.0193622
0.0131462
-0.01635
0.0123058
-0.0135294
0.0116332
-0.0108714
0.011119
-0.00834689
0.0107566
-0.00592696
0.0105409
-0.00358376
-0.00132354
0.0585297
-0.0711767
0.0500743
-0.0636946
0.0432481
-0.0577815
0.0377931
-0.0529621
0.0333533
-0.0484096
0.0296594
-0.0439646
0.0265291
-0.0396355
0.0238428
-0.0354723
0.0215213
-0.0315198
0.0195107
-0.0278039
0.0177723
-0.0243322
0.0162769
-0.0210984
0.0150019
-0.0180871
0.013929
-0.0152771
0.0130436
-0.012644
0.012334
-0.0101618
0.0117909
-0.00780375
0.0114073
-0.00554335
0.0111782
-0.0033547
-0.00124014
0.0609803
-0.0591471
0.0518027
-0.054517
0.0446375
-0.0506163
0.0390679
-0.0473925
0.0345847
-0.0439265
0.0308554
-0.0402353
0.0276794
-0.0364595
0.0249359
-0.0327288
0.02255
-0.0291339
0.0204726
-0.0257265
0.0186688
-0.0225284
0.0171121
-0.0195417
0.0157815
-0.0167565
0.0146598
-0.0141554
0.0137326
-0.0117169
0.0129886
-0.00941774
0.0124184
-0.00723357
0.012015
-0.00513996
0.0117734
-0.00311302
-0.00115181
0.0628842
-0.0451575
0.0529955
-0.0446283
0.0455864
-0.0432072
0.0400322
-0.0418383
0.0355993
-0.0394935
0.0318933
-0.0365294
0.0287071
-0.0332733
0.0259283
-0.02995
0.0234923
-0.0266979
0.0213582
-0.0235923
0.0194965
-0.0206667
0.0178845
-0.0179297
0.0165031
-0.0153752
0.0153364
-0.0129887
0.0143708
-0.0107513
0.0135949
-0.00864187
0.0129997
-0.00663829
0.0125779
-0.00471818
0.0123244
-0.00285957
-0.00105884
0.0640045
-0.0286386
0.0534505
-0.0340743
0.0460205
-0.0357772
0.0406699
-0.0364876
0.0364009
-0.0352245
0.0327814
-0.0329099
0.0296193
-0.0301112
0.0268245
-0.0271552
0.0243505
-0.0242238
0.0221679
-0.0214097
0.0202549
-0.0187537
0.0185928
-0.0162677
0.0171652
-0.0139476
0.0159573
-0.0117808
0.0149563
-0.00975026
0.0141511
-0.0078367
0.0135327
-0.0060199
0.013094
-0.00427941
0.0128296
-0.00259525
-0.000961555
0.0640773
-0.00988696
0.0530622
-0.0230592
0.0459058
-0.0286209
0.0409846
-0.0315664
0.0370066
-0.0312465
0.0335359
-0.0294392
0.030427
-0.0270024
0.0276309
-0.0243591
0.0251274
-0.0217203
0.0229027
-0.019185
0.0209436
-0.0167946
0.0192361
-0.0145602
0.0177663
-0.0124777
0.0165208
-0.0105353
0.0154874
-0.0087169
0.0146555
-0.00700474
0.0140159
-0.00538036
0.0135616
-0.0038251
0.0132873
-0.00232096
-0.000860263
0.061961
0.0118628
0.0506268
-0.011725
0.0449142
-0.0229082
0.0409629
-0.0276151
0.0374458
-0.0277294
0.0341827
-0.0261761
0.0311463
-0.0239659
0.0283559
-0.0215688
0.0258271
-0.0191915
0.0235641
-0.016922
0.0215626
-0.0147931
0.0198135
-0.012811
0.0183052
-0.0109694
0.0170254
-0.00925558
0.0159627
-0.00765415
0.0151064
-0.00614848
0.0144477
-0.00472165
0.0139793
-0.00335669
0.013696
-0.00203768
-0.000755259
0.0523605
0.0212459
0.0467219
-0.00608642
0.0436241
-0.0198104
0.0408249
-0.0248159
0.0378209
-0.0247254
0.0347688
-0.0231241
0.0317995
-0.0209966
0.0290104
-0.0187798
0.0264548
-0.0166359
0.0241543
-0.0146215
0.0221128
-0.0127516
0.0203251
-0.0110233
0.0187814
-0.00942574
0.0174706
-0.00794475
0.0163813
-0.00656486
0.0155032
-0.00527035
0.0148273
-0.00404573
0.0143462
-0.00287563
0.0140549
-0.00174639
-0.000646835
0.012205
0.00904088
0.0158405
-0.00972196
0.016712
-0.0206819
0.0162177
-0.0243216
0.015226
-0.0237337
0.0140666
-0.0219646
0.0128921
-0.0198221
0.0117732
-0.0176608
0.0107417
-0.0156044
0.00981047
-0.0136903
0.00898287
-0.011924
0.00825751
-0.010298
0.00763085
-0.00879909
0.00709852
-0.00741241
0.00665604
-0.00612238
0.00629924
-0.00491356
0.00602453
-0.00377101
0.00582896
-0.00268006
0.00571021
-0.00162764
-0.000603004
0.00967186
-0.000630985
0.0150031
-0.0150532
0.016454
-0.0221329
0.0161991
-0.0240667
0.0152928
-0.0228275
0.0141579
-0.0208298
0.0129871
-0.0186512
0.0118645
-0.0165383
0.0108271
-0.0145669
0.00988947
-0.0127526
0.0090557
-0.0110902
0.00832472
-0.00956697
0.00769308
-0.00816745
0.00715644
-0.00687578
0.00671034
-0.00567627
0.00635059
-0.00455382
0.00607356
-0.00349398
0.00587632
-0.00248282
0.00575643
-0.00150775
-0.000558861
0.00828949
-0.00892048
0.0144986
-0.0212623
0.0163202
-0.0239545
0.0162265
-0.0239729
0.0153741
-0.0219751
0.0142521
-0.0197077
0.01308
-0.017479
0.0119517
-0.0154101
0.0109075
-0.0135227
0.00996325
-0.0118084
0.00912335
-0.0102503
0.00838689
-0.0088305
0.00775047
-0.00753103
0.00720974
-0.00633505
0.00676022
-0.00522675
0.0063977
-0.00419129
0.0061185
-0.00321478
0.00591968
-0.002284
0.00579879
-0.00138686
-0.000514285
0.00773267
-0.0166531
0.0142883
-0.0278179
0.0163031
-0.0259693
0.0162975
-0.0239673
0.0154707
-0.0211484
0.0143498
-0.0185868
0.0131714
-0.0163007
0.0120354
-0.0142741
0.0109837
-0.012471
0.0100325
-0.0108572
0.00918644
-0.00940431
0.00844464
-0.0080887
0.00780362
-0.00689001
0.007259
-0.00579043
0.00680624
-0.00477399
0.0064411
-0.00382615
0.00615987
-0.00293355
0.00595956
-0.00208369
0.00583774
-0.00126504
-0.000469318
0.00751953
-0.0241727
0.0142663
-0.0345646
0.0163947
-0.0280977
0.016413
-0.0239856
0.0155835
-0.0203189
0.0144514
-0.0174547
0.0132616
-0.0151109
0.0121157
-0.0131281
0.0110555
-0.0114107
0.0100971
-0.00989881
0.00924494
-0.00855217
0.00849793
-0.00734168
0.0078525
-0.00624459
0.00730419
-0.00524212
0.00684838
-0.00431818
0.00648078
-0.00345855
0.00619764
-0.00265042
0.00599596
-0.001882
0.00587326
-0.00114234
-0.000423997
0.00758925
-0.0317619
0.0144277
-0.041403
0.0165968
-0.0302668
0.0165745
-0.0239633
0.0157129
-0.0194573
0.0145568
-0.0162987
0.0133504
-0.0139045
0.0121924
-0.0119701
0.0111229
-0.0103412
0.0101571
-0.00893301
0.00929881
-0.00769393
0.00854673
-0.00658961
0.00789709
-0.00559494
0.00734527
-0.0046903
0.0068866
-0.0038595
0.00651671
-0.00308866
0.0062318
-0.00236552
0.00602884
-0.00167904
0.00590533
-0.00101883
-0.000378361
0.0080917
-0.0398536
0.0148127
-0.048124
0.0169183
-0.0323725
0.0167835
-0.0238284
0.0158587
-0.0185325
0.0146659
-0.0151058
0.0134376
-0.0126762
0.0122654
-0.0107978
0.0111858
-0.00926162
0.0102123
-0.00795955
0.009348
-0.00682963
0.00859101
-0.00583262
0.00793734
-0.00494127
0.00738223
-0.00413519
0.00692088
-0.00339815
0.00654886
-0.00271664
0.00626233
-0.00207898
0.00605819
-0.0014749
0.00593392
-0.000894563
-0.00033245
0.00941554
-0.0492692
0.0155166
-0.0542251
0.0173761
-0.0342319
0.0170418
-0.0234942
0.0160203
-0.017511
0.014778
-0.0138635
0.0135229
-0.0114212
0.0123345
-0.00960938
0.0112441
-0.00817119
0.0102628
-0.00697824
0.00939245
-0.00595932
0.00863071
-0.00507088
0.00797322
-0.00428379
0.00741503
-0.003577
0.0069512
-0.00293432
0.00657723
-0.00234267
0.0062892
-0.00179096
0.00608399
-0.00126969
0.00595903
-0.000769602
-0.000286305
0.0121433
-0.0614124
0.0166892
-0.058771
0.0179956
-0.0355384
0.0173524
-0.0228509
0.0161971
-0.0163557
0.0148925
-0.0125589
0.0136059
-0.0101346
0.0123995
-0.00840301
0.0112977
-0.0070693
0.0103084
-0.00598895
0.00943213
-0.00508308
0.00866582
-0.00430457
0.00800472
-0.00362269
0.00744365
-0.00301593
0.00697754
-0.00246821
0.00660178
-0.00196691
0.00631239
-0.00150157
0.00610622
-0.00106352
0.00598063
-0.000644008
-0.00023997
0.0167174
-0.0781299
0.0185289
-0.0605825
0.0188011
-0.0358105
0.0177277
-0.0217776
0.0163886
-0.0150166
0.0150079
-0.0111781
0.0136851
-0.00881181
0.0124591
-0.00717703
0.0113452
-0.00595544
0.0103479
-0.00499161
0.0094659
-0.00420108
0.00869526
-0.00353393
0.00803083
-0.00295826
0.00746715
-0.00245225
0.006999
-0.00200006
0.00662166
-0.00158957
0.0063311
-0.00121101
0.00612407
-0.000856484
0.00599804
-0.000517974
-0.000193268
0.106496
-0.0541802
-0.130446
0.0822383
-0.036325
0.0702986
-0.0238708
0.0624729
-0.013952
0.0563495
-0.00889315
0.0510983
-0.00592701
0.0463847
-0.00409814
0.0421286
-0.00292094
0.0383085
-0.00213533
0.0349095
-0.00159265
0.0319144
-0.00120599
0.0293033
-0.000922795
0.0270552
-0.000710211
0.0251499
-0.000546936
0.0235685
-0.000418674
0.0222945
-0.000315495
0.0213137
-0.000230226
0.0206148
-0.000157605
0.0201899
-9.30316e-05
-3.44609e-05
0.107804
-0.0223439
-0.13964
0.0860191
-0.0145405
0.0729756
-0.0108272
0.0644921
-0.00546856
0.0577741
-0.00217508
0.0520349
-0.000187793
0.0469983
0.000938401
0.0425389
0.0015385
0.0385904
0.0018131
0.035109
0.00188878
0.0320595
0.00184349
0.0294115
0.00172518
0.0271379
0.0015634
0.0252146
0.00137644
0.0236203
0.00117559
0.022337
0.000967754
0.0213498
0.000756985
0.0206467
0.000545507
0.0202191
0.000334577
0.000124923
0.105014
0.00104535
-0.128404
0.0888571
0.00161666
0.0760473
0.00198265
0.0665162
0.00406249
0.0589535
0.00538764
0.0526925
0.0060732
0.0473437
0.00628715
0.0426993
0.00618292
0.0386409
0.00587147
0.0350938
0.00543597
0.0320049
0.00493237
0.0293335
0.00439655
0.0270464
0.00385056
0.0251155
0.00330731
0.0235174
0.00277369
0.0222325
0.00225267
0.0212448
0.00174466
0.0205418
0.00124846
0.0201145
0.000761901
0.000283886
0.103251
0.0198226
-0.122028
0.0884387
0.016429
0.0763241
0.0140972
0.0668992
0.0134873
0.0592312
0.0130557
0.0527993
0.0125051
0.047302
0.0117844
0.0425542
0.0109307
0.0384313
0.00999432
0.0348477
0.00901959
0.031741
0.00803909
0.0290634
0.0070741
0.026777
0.00613704
0.0248505
0.00523381
0.0232584
0.0043658
0.0219797
0.00353129
0.0209978
0.00272659
0.0202995
0.00194671
0.0198755
0.00118593
0.000441359
0.100232
0.0351783
-0.115588
0.0872434
0.029418
0.0759879
0.0253527
0.066695
0.0227803
0.0589634
0.0207872
0.0524465
0.0190221
0.0468834
0.0173475
0.0420936
0.0157206
0.0379503
0.0141376
0.0343625
0.0126073
0.0312626
0.011139
0.0285982
0.00973846
0.026328
0.0084072
0.0244187
0.00714317
0.022843
0.00594148
0.021579
0.00479525
0.0206093
0.00369628
0.0199205
0.00263554
0.0195028
0.0016036
0.000596186
0.0969155
0.0485451
-0.110282
0.0850076
0.0413258
0.0745425
0.0358178
0.0656289
0.0316939
0.0580594
0.0283567
0.051606
0.0254755
0.0460732
0.0228802
0.0413072
0.0204866
0.0371904
0.0182545
0.0336331
0.0161646
0.0305663
0.0142058
0.027936
0.0123688
0.0256989
0.0106443
0.0238203
0.00902178
0.022272
0.00748976
0.0210315
0.00603582
0.0200807
0.00464702
0.0194062
0.00331011
0.018998
0.00201182
0.000747176
0.0931425
0.060545
-0.105142
0.0821873
0.052281
0.0724169
0.0455882
0.0639215
0.0401892
0.0566011
0.0356772
0.0503029
0.0317738
0.0448771
0.028306
0.0401946
0.0251691
0.0361497
0.0222993
0.0326579
0.0196564
0.0296518
0.0172119
0.0270773
0.0149433
0.0248908
0.0128308
0.0230571
0.0108555
0.0215475
0.00899928
0.0203393
0.00724404
0.0194144
0.00557197
0.018759
0.00396551
0.0183633
0.0024075
0.000893134
0.0889647
0.0715756
-0.0999952
0.0788109
0.0624347
0.0696794
0.0547198
0.0616389
0.0482297
0.0546354
0.0426807
0.0485637
0.0378455
0.0433084
0.0335613
0.0387622
0.0297153
0.0348318
0.0262297
0.0314396
0.0230487
0.0285213
0.0201302
0.0260245
0.0174401
0.0239064
0.0149489
0.0221319
0.01263
0.0206726
0.0104585
0.0195058
0.00841087
0.0186135
0.00646428
0.0179821
0.00459685
0.0176021
0.00278758
0.00103289
0.0843947
0.0818423
-0.0946615
0.0749448
0.0718847
0.0664154
0.0632492
0.0588487
0.0557965
0.0522086
0.0493208
0.0464179
0.0436361
0.0413856
0.0385936
0.0370216
0.0340793
0.0332447
0.0300067
0.0299841
0.0263093
0.02718
0.0229342
0.0247826
0.0198375
0.0227503
0.0169811
0.0210493
0.014331
0.0196517
0.0118561
0.0185352
0.00952734
0.0176824
0.00731713
0.0170799
0.00519932
0.0167184
0.00314907
0.00116531
0.0794334
0.0914434
-0.0890344
0.0706317
0.0806864
0.0626832
0.0711978
0.0556038
0.0628758
0.0493619
0.0555627
0.0438953
0.0491027
0.0391294
0.0433595
0.0349879
0.0382208
0.0313994
0.0335951
0.0283003
0.0294084
0.0256355
0.0255991
0.0233581
0.0221149
0.0214288
0.0189103
0.0198152
0.0159447
0.0184904
0.0131809
0.0174331
0.0105847
0.0166263
0.00812392
0.0160574
0.00576824
0.0157173
0.00348913
0.00128933
0.0740783
0.100415
-0.0830496
0.0658998
0.0888649
0.0585249
0.0785727
0.051947
0.0694537
0.0461316
0.0613781
0.0410248
0.0542096
0.0365623
0.047822
0.0326783
0.0421047
0.0293099
0.0369636
0.0263997
0.0323186
0.0238974
0.0281014
0.0217597
0.0242526
0.0199497
0.0207203
0.0184368
0.0174576
0.0171956
0.0144221
0.0162058
0.0115745
0.0154515
0.00887829
0.0149205
0.00629916
0.0146046
0.0038051
0.00140396
0.0683285
0.108756
-0.0766697
0.0607704
0.096423
0.0539739
0.0853691
0.0479137
0.0755139
0.0425507
0.0667411
0.0378342
0.058926
0.0337074
0.0519488
0.0301118
0.0457003
0.0269916
0.0400838
0.0242953
0.0350149
0.0219772
0.0304194
0.0199975
0.0262323
0.0183222
0.0223956
0.0169227
0.0188572
0.0157753
0.0155694
0.0148611
0.0124887
0.0141651
0.00957425
0.0136763