/*--------------------------------*- C++ -*----------------------------------*\
| =========                 |                                                 |
| \\      /  F ield         | OpenFOAM: The Open Source CFD Toolbox           |
|  \\    /   O peration     | Version:  v1806                                 |
|   \\  /    A nd           | Web:      www.OpenFOAM.com                      |
|    \\/     M anipulation  |                                                 |
\*---------------------------------------------------------------------------*/
FoamFile
{
    version     2.0;
    format      ascii;
    class       volScalarField;
    location    "140";
    object      p;
}
// * * * * * * * * * * * * * * * * * * * * * * * * * * * * * * * * * * * * * //

dimensions      [0 2 -2 0 0 0 0];


internalField   nonuniform List<scalar> 
4400
(
-0.0035989
0.00604605
0.00528803
0.0039223
0.00335861
0.00305101
0.00280012
0.00257243
0.00235399
0.00213823
0.00192366
0.00171064
0.00149959
0.00129075
0.0010842
0.00087997
0.000678133
0.000478817
0.000281101
8.44971e-05
0.0221032
0.0152705
0.0106776
0.00789229
0.00633882
0.0053525
0.00461693
0.00402314
0.00352417
0.00309148
0.00270601
0.00235498
0.00202967
0.00172393
0.00143331
0.00115454
0.000885199
0.000623369
0.000366469
0.00011366
0.0261039
0.0193106
0.0146824
0.0113969
0.00910122
0.00747766
0.00627979
0.00535424
0.0046084
0.0039847
0.00344648
0.00296989
0.00253889
0.00214225
0.00177187
0.00142172
0.00108722
0.000764691
0.00045028
0.00014231
0.0277709
0.0215872
0.0168882
0.0134149
0.0108931
0.00903195
0.0076104
0.00648443
0.00556422
0.00479147
0.00412648
0.00354147
0.00301664
0.00253762
0.00209373
0.00167691
0.00128091
0.000900621
0.000531163
0.000169926
0.0263845
0.0217534
0.0178528
0.0147101
0.0122248
0.0102644
0.00870187
0.00743487
0.00638634
0.0054997
0.00473398
0.00405954
0.00345476
0.0029036
0.00239391
0.00191633
0.00146347
0.00102923
0.000607927
0.00019615
0.0249333
0.0214483
0.0181822
0.0153586
0.0130105
0.0110851
0.00949989
0.00817867
0.00706108
0.00610074
0.00526217
0.00451824
0.00384816
0.00323587
0.00266883
0.00213713
0.00163276
0.001149
0.000679652
0.000220698
0.0232175
0.0205955
0.0179751
0.0155738
0.0134616
0.011643
0.0100881
0.00875546
0.00760429
0.00659924
0.00571094
0.00491564
0.00419435
0.00353194
0.00291626
0.00233742
0.00178727
0.00125883
0.000745659
0.000243335
0.0217102
0.0196999
0.0175725
0.0155205
0.0136381
0.0119574
0.0104756
0.00917242
0.00802198
0.00699943
0.00608263
0.00525255
0.00449317
0.00379112
0.00313525
0.00251623
0.00192614
0.00135805
0.000805514
0.000263908
0.0203159
0.0187444
0.0170183
0.0152868
0.0136361
0.0121089
0.0107197
0.0094659
0.00833557
0.00731344
0.00638393
0.00553257
0.0047464
0.00401412
0.00332595
0.00267341
0.00204909
0.00144637
0.00085901
0.000282335
0.0191232
0.0178656
0.016443
0.0149678
0.0135167
0.0121353
0.0108456
0.00965453
0.00855908
0.00755151
0.00662203
0.00576049
0.0049571
0.00420282
0.00348942
0.00280949
0.00215636
0.00152386
0.000906144
0.000298608
0.0180769
0.0170502
0.0158641
0.0146022
0.0133272
0.0120814
0.01089
0.00976554
0.00871183
0.00772696
0.00680596
0.00594241
0.00512935
0.00435988
0.00362737
0.00292555
0.00224858
0.00159089
0.000947082
0.000312775
0.0171901
0.0163328
0.0153265
0.014233
0.0131037
0.011976
0.0108754
0.00981697
0.00880808
0.00785091
0.00694416
0.00608454
0.00526762
0.00448847
0.00374198
0.00302305
0.0023267
0.00164801
0.000982121
0.000324932
0.0164315
0.0157021
0.014835
0.0138771
0.0128691
0.0118436
0.0108244
0.00982753
0.00886267
0.00793475
0.00704524
0.0061933
0.00537662
0.004592
0.00383569
0.00310369
0.00239186
0.00169595
0.00101165
0.000335204
0.0157984
0.0151645
0.0144037
0.0135519
0.0126419
0.0117015
0.0107525
0.00981078
0.00888705
0.00798791
0.00711674
0.00627461
0.00546091
0.00467388
0.00391101
0.00316927
0.0024453
0.0017355
0.00103613
0.00034374
0.0152731
0.0147118
0.0140328
0.0132642
0.0124329
0.0115626
0.0106727
0.00977869
0.00889156
0.00801896
0.00716562
0.00633398
0.00552476
0.00473739
0.00397039
0.00322157
0.00248829
0.00176752
0.00105603
0.000350698
0.0148507
0.0143431
0.0137256
0.0130208
0.0122509
0.0114363
0.0105946
0.00974016
0.00888419
0.00803484
0.00719769
0.00637616
0.00557198
0.00478552
0.00401611
0.0032623
0.00252203
0.00179279
0.0010718
0.00035623
0.0145215
0.0140536
0.0134817
0.0128247
0.0121013
0.0113296
0.0105255
0.00970249
0.00887166
0.00804142
0.0072179
0.00640523
0.00560585
0.00482084
0.00405016
0.00329294
0.00254759
0.00181203
0.00108386
0.000360475
0.0142825
0.0138422
0.0133023
0.0126789
0.0119887
0.0112478
0.0104709
0.00967107
0.00885896
0.00804315
0.0072301
0.00642439
0.00562896
0.00484539
0.00407411
0.00331465
0.0025658
0.00182581
0.00109253
0.000363542
0.0141295
0.0137068
0.0131869
0.0125847
0.0119153
0.0111939
0.0104345
0.00964953
0.00884953
0.00804312
0.00723695
0.00643588
0.00564315
0.00486065
0.0040891
0.0033283
0.00257729
0.00183452
0.00109803
0.000365502
0.0140599
0.0136443
0.0131334
0.0125407
0.011881
0.0111686
0.0104172
0.00963916
0.00884482
0.00804282
0.0072399
0.00644103
0.0056496
0.00486763
0.00409598
0.00333458
0.00258259
0.00183855
0.00110058
0.00036641
0.0339324
0.0412044
0.0464951
0.0505442
0.0536588
0.0560017
0.0576968
0.0588359
0.0594813
0.0596715
0.0594246
0.0587407
0.0576016
0.0559699
0.0537847
0.0509571
0.0473689
0.0428662
0.0371342
0.0293609
0.0428314
0.0452562
0.0472524
0.0489108
0.0502767
0.0513662
0.0521885
0.0527505
0.0530573
0.0531116
0.0529141
0.052464
0.0517588
0.0507943
0.0495636
0.0480564
0.0462672
0.044217
0.0418792
0.0386782
0.0378215
0.0393779
0.0407954
0.042044
0.0431085
0.0439797
0.0446514
0.0451197
0.0453821
0.0454368
0.0452826
0.0449182
0.0443426
0.0435547
0.0425539
0.0413399
0.0399168
0.038296
0.0364735
0.0343504
0.0353038
0.036155
0.0369251
0.0376023
0.0381778
0.0386448
0.0389978
0.0392328
0.0393467
0.0393373
0.0392033
0.0389441
0.0385598
0.0380512
0.0374197
0.0366677
0.0358003
0.034826
0.0337426
0.0324965
0.0312765
0.0318223
0.0323173
0.0327539
0.0331253
0.0334255
0.03365
0.0337949
0.0338572
0.0338352
0.0337276
0.0335344
0.0332562
0.0328947
0.0324525
0.0319332
0.0313418
0.0306847
0.0299676
0.029188
0.0285977
0.0289414
0.0292472
0.0295116
0.0297315
0.0299039
0.0300266
0.0300976
0.0301156
0.0300795
0.029989
0.029844
0.0296451
0.0293933
0.02909
0.0287375
0.0283385
0.0278972
0.0274154
0.0268828
0.0258424
0.026072
0.0262745
0.0264478
0.0265898
0.0266989
0.0267736
0.0268127
0.0268153
0.026781
0.0267094
0.0266006
0.0264553
0.026274
0.0260581
0.0258089
0.0255283
0.0252186
0.0248819
0.0245189
0.0238252
0.0239823
0.0241185
0.0242327
0.0243239
0.0243911
0.0244337
0.024451
0.0244426
0.0244082
0.0243477
0.0242613
0.0241493
0.0240121
0.0238504
0.0236649
0.0234569
0.0232279
0.0229785
0.0227052
0.0219522
0.022063
0.0221581
0.0222367
0.0222981
0.0223419
0.0223676
0.0223749
0.0223634
0.022333
0.0222838
0.0222159
0.0221293
0.0220246
0.021902
0.0217622
0.0216058
0.0214336
0.0212464
0.0210442
0.0204997
0.0205806
0.0206489
0.0207043
0.0207463
0.0207747
0.0207891
0.0207895
0.0207756
0.0207475
0.020705
0.0206483
0.0205776
0.0204929
0.0203947
0.0202832
0.0201589
0.0200223
0.0198738
0.0197117
0.0192056
0.019266
0.0193164
0.0193566
0.0193863
0.0194053
0.0194134
0.0194107
0.0193969
0.0193721
0.0193362
0.0192894
0.0192316
0.0191631
0.0190841
0.0189947
0.0188952
0.018786
0.0186675
0.0185393
0.01817
0.0182166
0.0182549
0.0182848
0.0183062
0.0183188
0.0183227
0.0183177
0.0183039
0.0182811
0.0182494
0.0182089
0.0181596
0.0181016
0.0180351
0.0179601
0.0178769
0.0177858
0.0176869
0.0175794
0.0172727
0.0173095
0.0173394
0.0173623
0.0173781
0.0173867
0.0173881
0.0173823
0.0173692
0.0173487
0.017321
0.0172861
0.0172439
0.0171947
0.0171383
0.0170751
0.017005
0.0169284
0.0168452
0.0167554
0.0165498
0.0165797
0.0166037
0.0166217
0.0166336
0.0166395
0.0166392
0.0166327
0.01662
0.0166012
0.0165761
0.016545
0.0165077
0.0164643
0.016415
0.0163597
0.0162987
0.0162319
0.0161596
0.0160813
0.0159444
0.0159694
0.0159892
0.0160037
0.0160131
0.0160171
0.0160158
0.0160092
0.0159973
0.01598
0.0159573
0.0159294
0.0158962
0.0158578
0.0158141
0.0157654
0.0157116
0.0156528
0.0155892
0.0155205
0.0154687
0.0154901
0.015507
0.0155192
0.0155267
0.0155294
0.0155274
0.0155207
0.0155092
0.015493
0.015472
0.0154463
0.0154159
0.0153809
0.0153412
0.0152969
0.0152482
0.0151949
0.0151374
0.0150752
0.0150952
0.0151142
0.015129
0.0151395
0.0151458
0.0151477
0.0151454
0.0151387
0.0151277
0.0151124
0.0150928
0.0150689
0.0150408
0.0150084
0.0149718
0.0149311
0.0148862
0.0148372
0.0147843
0.0147272
0.0148285
0.0148459
0.0148593
0.0148687
0.0148741
0.0148755
0.0148729
0.0148662
0.0148555
0.0148408
0.0148221
0.0147994
0.0147726
0.014742
0.0147074
0.0146689
0.0146265
0.0145803
0.0145304
0.0144765
0.0146525
0.0146688
0.0146814
0.0146901
0.0146951
0.0146962
0.0146934
0.0146869
0.0146765
0.0146623
0.0146442
0.0146224
0.0145968
0.0145674
0.0145342
0.0144974
0.0144569
0.0144128
0.0143651
0.0143138
0.0145804
0.0145963
0.0146085
0.014617
0.0146217
0.0146226
0.0146198
0.0146132
0.0146029
0.0145887
0.0145709
0.0145492
0.0145239
0.0144948
0.014462
0.0144256
0.0143856
0.0143419
0.0142947
0.0142437
0.0122765
0.0126728
0.0130562
0.0134283
0.0137858
0.0141178
0.0144104
0.0146481
0.0148159
0.0149032
0.0149082
0.0148434
0.0147426
0.0146708
0.0147341
0.0150703
0.0157981
0.0170278
0.019283
0.0243483
0.014198
0.0145239
0.0149171
0.0153595
0.0158565
0.0164206
0.0170654
0.0178066
0.018662
0.0196509
0.0207926
0.0221049
0.0236029
0.0252982
0.0271979
0.0293039
0.0316168
0.0341544
0.0369584
0.0399785
0.0174303
0.0179783
0.0185408
0.0191319
0.0197555
0.0204142
0.0211114
0.0218515
0.0226392
0.0234797
0.0243787
0.0253428
0.0263794
0.027497
0.0287043
0.0300085
0.0314151
0.0329246
0.0345265
0.0361822
0.0184726
0.0190073
0.0195828
0.0201918
0.0208355
0.0215164
0.022236
0.0229952
0.0237945
0.0246335
0.0255112
0.0264256
0.0273735
0.0283507
0.0293514
0.0303683
0.0313925
0.032413
0.0334162
0.0343855
0.0191607
0.0196512
0.0201548
0.0206748
0.0212114
0.0217645
0.022334
0.0229199
0.0235218
0.0241391
0.0247711
0.0254165
0.0260736
0.0267399
0.0274124
0.028087
0.0287586
0.0294211
0.0300671
0.0306885
0.0191568
0.0195922
0.0200389
0.0204964
0.0209643
0.021442
0.0219285
0.0224229
0.0229239
0.02343
0.0239393
0.0244496
0.0249587
0.0254637
0.0259616
0.0264491
0.0269226
0.0273782
0.027812
0.0282199
0.018822
0.0191848
0.0195514
0.019922
0.0202961
0.0206731
0.021052
0.0214322
0.0218126
0.0221922
0.0225696
0.0229435
0.0233123
0.0236742
0.0240275
0.0243701
0.0246998
0.0250142
0.0253111
0.025588
0.0183228
0.018633
0.0189436
0.0192551
0.019567
0.0198787
0.0201892
0.0204979
0.0208037
0.0211057
0.0214028
0.0216939
0.0219777
0.022253
0.0225184
0.0227726
0.0230141
0.0232416
0.0234535
0.0236485
0.0177009
0.017957
0.0182118
0.0184653
0.0187172
0.0189668
0.0192135
0.0194567
0.0196957
0.0199299
0.0201585
0.0203808
0.0205958
0.0208028
0.0210008
0.0211891
0.0213667
0.0215327
0.0216862
0.0218263
0.0170814
0.0172997
0.017515
0.0177279
0.0179381
0.0181452
0.0183485
0.0185477
0.0187421
0.0189313
0.0191147
0.0192917
0.0194618
0.0196242
0.0197785
0.0199241
0.0200602
0.0201864
0.0203021
0.0204067
0.0164561
0.0166394
0.0168195
0.0169968
0.0171709
0.0173414
0.0175079
0.01767
0.0178275
0.0179799
0.0181268
0.0182679
0.0184026
0.0185306
0.0186515
0.0187649
0.0188704
0.0189676
0.0190561
0.0191355
0.0158853
0.0160437
0.0161985
0.0163501
0.0164983
0.0166428
0.0167833
0.0169195
0.0170512
0.017178
0.0172997
0.0174159
0.0175264
0.0176308
0.017729
0.0178205
0.0179052
0.0179827
0.0180528
0.0181153
0.0153576
0.0154943
0.0156276
0.0157577
0.0158844
0.0160075
0.0161267
0.0162418
0.0163526
0.016459
0.0165606
0.0166573
0.0167489
0.0168351
0.0169157
0.0169907
0.0170597
0.0171225
0.0171791
0.0172292
0.0148986
0.0150197
0.0151373
0.0152516
0.0153627
0.0154702
0.015574
0.0156739
0.0157698
0.0158615
0.0159489
0.0160317
0.0161099
0.0161832
0.0162516
0.0163149
0.0163729
0.0164255
0.0164726
0.016514
0.0145001
0.0146082
0.0147129
0.0148146
0.014913
0.015008
0.0150996
0.0151874
0.0152716
0.0153518
0.015428
0.0155
0.0155678
0.0156313
0.0156902
0.0157446
0.0157943
0.0158392
0.0158792
0.0159143
0.0141724
0.0142711
0.0143665
0.0144589
0.0145482
0.0146343
0.0147169
0.0147962
0.0148718
0.0149438
0.0150121
0.0150764
0.0151369
0.0151933
0.0152456
0.0152937
0.0153375
0.015377
0.015412
0.0154426
0.0139101
0.0140015
0.0140897
0.0141751
0.0142574
0.0143366
0.0144126
0.0144852
0.0145545
0.0146203
0.0146826
0.0147412
0.0147962
0.0148473
0.0148947
0.0149382
0.0149777
0.0150132
0.0150447
0.015072
0.0137175
0.013804
0.0138875
0.0139681
0.0140458
0.0141204
0.0141919
0.0142601
0.0143252
0.0143868
0.0144451
0.0145
0.0145513
0.014599
0.0146431
0.0146835
0.0147201
0.014753
0.0147821
0.0148072
0.0135911
0.0136741
0.0137542
0.0138315
0.013906
0.0139774
0.0140459
0.0141112
0.0141734
0.0142323
0.014288
0.0143403
0.0143892
0.0144347
0.0144766
0.014515
0.0145499
0.0145811
0.0146086
0.0146324
0.0135364
0.0136185
0.0136976
0.0137739
0.0138473
0.0139177
0.0139851
0.0140494
0.0141105
0.0141685
0.0142231
0.0142745
0.0143225
0.0143671
0.0144083
0.0144459
0.01448
0.0145106
0.0145375
0.0145608
0.00611657
0.00826111
0.00929768
0.00996097
0.0104017
0.0106598
0.010783
0.0108144
0.0107852
0.0107173
0.0106267
0.0105256
0.0104232
0.0103262
0.0102399
0.0101689
0.0101155
0.0100784
0.0100657
0.0100793
0.00715003
0.00802737
0.00851018
0.00885981
0.00912503
0.00931249
0.00943597
0.00951083
0.00954938
0.00956112
0.00955357
0.00953269
0.00950312
0.00946837
0.00943084
0.00939201
0.00935368
0.00931991
0.0092844
0.00924458
0.0074546
0.00797466
0.00835756
0.00865274
0.00887747
0.00903979
0.00914911
0.00921541
0.00924775
0.00925398
0.00924076
0.00921361
0.00917705
0.0091346
0.00908898
0.00904222
0.00899585
0.0089504
0.00890386
0.00885586
0.00757131
0.00784734
0.00806457
0.00823585
0.008367
0.00846188
0.00852502
0.00856136
0.00857574
0.00857262
0.00855598
0.00852933
0.00849562
0.00845729
0.00841629
0.00837421
0.00833241
0.00829141
0.00824902
0.00820354
0.00729796
0.00746765
0.00761191
0.00772893
0.00781997
0.00788701
0.00793228
0.00795836
0.00796797
0.00796389
0.00794875
0.00792502
0.0078949
0.00786033
0.00782293
0.0077841
0.00774508
0.00770638
0.00766623
0.00762372
0.00690249
0.00701156
0.00710533
0.00717995
0.00723606
0.00727517
0.00729882
0.00730868
0.00730659
0.00729447
0.00727419
0.00724756
0.00721622
0.00718165
0.00714514
0.00710781
0.00707074
0.00703434
0.00699686
0.00695717
0.00637336
0.00644638
0.0065114
0.00656195
0.0065982
0.00662148
0.0066329
0.0066336
0.00662492
0.00660825
0.00658503
0.00655667
0.00652447
0.00648964
0.00645325
0.00641626
0.00637961
0.00634364
0.00630659
0.00626745
0.00578916
0.00583719
0.00588095
0.00591286
0.00593299
0.00594257
0.00594251
0.0059337
0.00591722
0.00589424
0.00586595
0.00583355
0.00579818
0.00576088
0.00572261
0.00568423
0.0056466
0.00561001
0.00557269
0.00553355
0.00514914
0.00517656
0.00520311
0.00521981
0.00522656
0.00522456
0.00521452
0.00519717
0.00517338
0.00514415
0.00511052
0.00507356
0.00503429
0.00499366
0.00495255
0.00491177
0.00487215
0.00483396
0.00479536
0.00475526
0.00447771
0.00448551
0.00449473
0.00449566
0.00448814
0.00447332
0.00445181
0.00442419
0.00439122
0.00435378
0.00431282
0.00426931
0.00422422
0.00417846
0.00413284
0.00408818
0.00404529
0.00400444
0.00396371
0.00392197
0.00378042
0.00376634
0.00375538
0.00373757
0.00371283
0.00368228
0.00364645
0.00360581
0.00356104
0.0035129
0.00346226
0.00341001
0.00335703
0.00330418
0.00325225
0.00320205
0.00315439
0.00310951
0.00306543
0.00302097
0.00307331
0.00303148
0.00299327
0.00294972
0.00290096
0.00284809
0.00279164
0.00273208
0.00267
0.0026061
0.00254113
0.0024759
0.0024112
0.00234785
0.00228659
0.00222821
0.00217355
0.00212285
0.002074
0.00202561
0.00238262
0.00230468
0.00222904
0.0021497
0.0020672
0.00198269
0.00189683
0.00181018
0.00172333
0.00163688
0.00155147
0.00146773
0.00138633
0.00130791
0.00123313
0.00116272
0.00109751
0.0010377
0.000980964
0.000926003
0.00173602
0.00160611
0.00147441
0.00134045
0.00120541
0.00107058
0.000937041
0.000805754
0.000677542
0.000553112
0.00043308
0.000318001
0.000208402
0.000104808
7.77034e-06
-8.20328e-05
-0.000163707
-0.000236976
-0.000304578
-0.000368566
0.0012234
0.00103012
0.000826666
0.000621183
0.000415904
0.000212464
1.28387e-05
-0.000181131
-0.00036795
-0.000546486
-0.000715955
-0.000875871
-0.00102597
-0.00116613
-0.00129622
-0.00141592
-0.00152458
-0.00162223
-0.00171203
-0.00179496
0.000886306
0.000596094
0.000283175
-3.52754e-05
-0.000356498
-0.000678289
-0.000997126
-0.00130931
-0.00161146
-0.00190067
-0.00217458
-0.00243147
-0.00267021
-0.00289017
-0.00309096
-0.00327202
-0.00343211
-0.00357044
-0.00369099
-0.00379843
0.00104742
0.000686335
0.000282649
-0.000136956
-0.000568771
-0.00101004
-0.00145552
-0.001899
-0.00233419
-0.00275508
-0.00315639
-0.00353397
-0.00388525
-0.00420926
-0.00450651
-0.00477822
-0.00502553
-0.00525059
-0.00545983
-0.00565054
0.00152986
0.00101498
0.000439196
-0.000175055
-0.000828399
-0.00152026
-0.00224612
-0.00299903
-0.00377003
-0.00454834
-0.00532179
-0.00607757
-0.00680316
-0.00748744
-0.00812156
-0.00869892
-0.00921362
-0.00966176
-0.0100518
-0.0103941
0.00374716
0.00339517
0.00295649
0.00245361
0.00188623
0.00125102
0.000547578
-0.000221561
-0.0010509
-0.00193168
-0.00285186
-0.00379667
-0.00474986
-0.00569583
-0.0066215
-0.00751632
-0.0083748
-0.00922295
-0.01017
-0.0112858
0.00535919
0.00475164
0.00407966
0.00330735
0.00241383
0.00138082
0.000188234
-0.00118481
-0.00275868
-0.0045521
-0.00658065
-0.00885528
-0.011381
-0.0141559
-0.0171673
-0.0203838
-0.0237602
-0.02731
-0.0312219
-0.0354122
0.000236256
0.000722532
0.0012129
0.00170752
0.00220761
0.00271397
0.00322728
0.00374819
0.00427727
0.00481502
0.00536185
0.00591808
0.00648402
0.00706008
0.00764717
0.00824743
0.00886672
0.0095214
0.010252
0.011191
0.000251606
0.000767233
0.00128742
0.00181269
0.00234471
0.00288484
0.00343449
0.00399526
0.00456894
0.00515768
0.00576415
0.00639178
0.00704522
0.00773089
0.00845764
0.00923725
0.0100854
0.0110274
0.0121167
0.013413
0.000266259
0.000809882
0.00135844
0.00191283
0.0024751
0.00304712
0.00363097
0.00422902
0.00484412
0.00547978
0.00614047
0.00683205
0.00756245
0.00834278
0.00918902
0.010125
0.0111879
0.0124333
0.0139345
0.0158147
0.000280036
0.000849944
0.00142505
0.00200659
0.00259691
0.00319832
0.00381337
0.00444509
0.00509709
0.00577385
0.00648105
0.00722606
0.00801861
0.00887172
0.0098031
0.0108372
0.012008
0.0133652
0.014989
0.0169999
0.000292781
0.000886969
0.00148649
0.00209285
0.00270862
0.0033364
0.00397909
0.00464012
0.00532358
0.00603448
0.00677913
0.00756559
0.00840433
0.00930922
0.0102988
0.0113979
0.0126397
0.0140678
0.0157383
0.0177213
0.000304377
0.000920611
0.00154217
0.00217078
0.00280911
0.00345993
0.00412634
0.00481192
0.00552093
0.00625853
0.00703108
0.00784648
0.0087147
0.00964836
0.0106635
0.0117802
0.0130242
0.0144287
0.016035
0.0178844
0.000314746
0.00095065
0.00159175
0.00223988
0.00289774
0.00356815
0.0042542
0.00495946
0.00568811
0.0064451
0.0072364
0.00806929
0.00895267
0.00989746
0.0109169
0.0120268
0.0132456
0.0145941
0.0160911
0.017743
0.000323855
0.00097699
0.00163506
0.00229997
0.00297433
0.00366087
0.00436259
0.00508285
0.00582552
0.00659508
0.00739681
0.00823688
0.00912258
0.0100623
0.0110658
0.0121438
0.0133077
0.0145687
0.0159324
0.0173927
0.000331711
0.000999661
0.0016722
0.0023512
0.00303912
0.00373853
0.00445219
0.00518313
0.00593478
0.00671099
0.00751614
0.00835519
0.00923371
0.0101578
0.0111339
0.0121684
0.0132665
0.014431
0.0156571
0.0169278
0.000338358
0.0010188
0.0017034
0.00239396
0.00309272
0.00380199
0.00452424
0.00526209
0.00601841
0.00679632
0.00759922
0.00843078
0.0092948
0.0101951
0.0111352
0.0121177
0.0131435
0.0142099
0.0153077
0.0164177
0.000343873
0.00103463
0.00172908
0.00242888
0.00313602
0.00385252
0.00458048
0.00532206
0.00607956
0.00685534
0.00765184
0.00847148
0.00931653
0.0101889
0.0110896
0.0120185
0.0129729
0.0139469
0.0149282
0.0158967
0.000348354
0.00104746
0.00174976
0.00245675
0.00317013
0.00389161
0.00462291
0.00536572
0.00612173
0.00689259
0.00767982
0.00848472
0.0093082
0.0101505
0.0110108
0.0118869
0.0127741
0.0136647
0.0145459
0.0153992
0.000351916
0.00105762
0.00176603
0.00247844
0.00319628
0.00392092
0.0046537
0.00539585
0.00614853
0.00691269
0.00768904
0.00847794
0.00927915
0.0100917
0.0109133
0.0117404
0.0125669
0.0133844
0.0141801
0.0149369
0.000354684
0.00106548
0.00177852
0.00249489
0.00321573
0.00394212
0.00467503
0.00541526
0.00616346
0.00692
0.00768489
0.00845766
0.00923722
0.0100216
0.0108076
0.0115906
0.0123641
0.0131194
0.0138446
0.0145247
0.000356782
0.00107142
0.00178786
0.00250701
0.00322975
0.00395687
0.004689
0.00542659
0.00616983
0.00691858
0.00767229
0.00842985
0.00918946
0.00994843
0.010703
0.0114479
0.0121765
0.0128801
0.0135477
0.0141659
0.00035833
0.00107577
0.00179465
0.00251567
0.0032395
0.00396668
0.00469755
0.00543225
0.00617058
0.006912
0.0076555
0.00839947
0.0091416
0.00987871
0.0106066
0.0113198
0.0120115
0.0126735
0.0132956
0.0138663
0.000359435
0.00107886
0.00179942
0.00252165
0.00324604
0.00397292
0.0047024
0.00543435
0.0061683
0.00690337
0.0076382
0.00837082
0.00909854
0.00981785
0.0105243
0.0112122
0.011875
0.0125046
0.0130918
0.0136263
0.000360189
0.00108096
0.00180261
0.00252559
0.00325023
0.0039767
0.00470495
0.00543465
0.0061651
0.00689521
0.00762336
0.00834731
0.00906413
0.00977009
0.0104605
0.0111299
0.0117715
0.0123777
0.0129398
0.0134485
0.000360652
0.00108224
0.00180454
0.00252794
0.00325268
0.00397883
0.00470621
0.00543437
0.00616249
0.0068893
0.00761304
0.00833131
0.00904103
0.00973833
0.0104185
0.0110759
0.0117039
0.0122952
0.0128413
0.0133333
0.00036086
0.00108281
0.00180541
0.002529
0.00325377
0.00397974
0.0047067
0.00543413
0.00616114
0.0068864
0.00760806
0.00832367
0.00903006
0.00972332
0.0103987
0.0110505
0.0116723
0.0122568
0.0127958
0.0132809
-9.57861e-05
-0.000245676
-0.000401642
-0.000564514
-0.000734662
-0.000913679
-0.00110335
-0.00130553
-0.00152214
-0.0017553
-0.0020071
-0.00227886
-0.0025701
-0.0028786
-0.00319946
-0.00350384
-0.00365208
-0.00334839
-0.00275544
-0.00554569
-7.75121e-05
-0.000192384
-0.000312226
-0.000436016
-0.000563963
-0.000696589
-0.000834153
-0.000976538
-0.00112301
-0.00127185
-0.00141955
-0.00155964
-0.00168151
-0.0017692
-0.00179328
-0.00167837
-0.0012447
-0.000270869
0.00119771
0.00277378
-5.94444e-05
-0.000138388
-0.000221233
-0.000305873
-0.000391691
-0.000478367
-0.000564924
-0.000649613
-0.000729521
-0.000799911
-0.000853189
-0.000877486
-0.000854903
-0.0007578
-0.000537765
-0.000104202
0.000677803
0.00189625
0.00350364
0.00550118
-4.11902e-05
-8.45055e-05
-0.000130375
-0.000176303
-0.000220971
-0.000263325
-0.000301483
-0.000332531
-0.00035206
-0.000353447
-0.000326867
-0.000258057
-0.000126506
9.86708e-05
0.000467887
0.00106095
0.00197103
0.00324204
0.00482746
0.00658618
-2.30134e-05
-3.12845e-05
-4.0855e-05
-4.90996e-05
-5.42423e-05
-5.47238e-05
-4.80991e-05
-3.07843e-05
2.4121e-06
5.89631e-05
0.000149496
0.000288898
0.000498035
0.000807012
0.00125986
0.00191433
0.00282234
0.00399331
0.00536205
0.00673311
-5.16968e-06
2.08043e-05
4.6474e-05
7.44742e-05
0.000106804
0.000145266
0.000192525
0.000252355
0.000330045
0.000432956
0.000571185
0.000758429
0.00101333
0.00136161
0.00183804
0.00248292
0.00332538
0.00435611
0.00549456
0.00654775
1.22255e-05
7.14694e-05
0.000131141
0.00019375
0.00026133
0.000335678
0.000419375
0.000515975
0.000630345
0.000769077
0.000940984
0.00115771
0.00143455
0.00179143
0.0022527
0.00284297
0.00357523
0.00443267
0.00534422
0.00615258
2.91244e-05
0.000120608
0.00021301
0.000308591
0.000409257
0.000516596
0.000632842
0.000761008
0.000905118
0.00107049
0.00126406
0.00149475
0.00177393
0.00211567
0.00253588
0.00304854
0.00365756
0.00434439
0.00505195
0.00565917
4.55498e-05
0.000168302
0.000292264
0.000419343
0.000551189
0.00068903
0.000834568
0.000990053
0.00115842
0.00134345
0.00154995
0.00178391
0.00205269
0.00236477
0.00272862
0.00315004
0.00362793
0.00414733
0.00466779
0.00509674
6.15707e-05
0.000214777
0.000369335
0.000526718
0.000688241
0.000854666
0.00102705
0.00120673
0.00139541
0.00159518
0.00180861
0.00203873
0.00228906
0.00256323
0.00286383
0.00319084
0.00354028
0.00390086
0.00424342
0.00449616
7.72939e-05
0.000260366
0.00044483
0.000631692
0.000821882
0.00101566
0.00121338
0.00141544
0.00162226
0.00183425
0.00205175
0.00227496
0.00250378
0.00273736
0.00297315
0.00320645
0.00343139
0.00363924
0.00380571
0.00387291
9.28443e-05
0.000305451
0.000519446
0.000735361
0.000953745
0.00117436
0.00139686
0.00162074
0.0018452
0.00206902
0.00229045
0.00250703
0.00271533
0.00291045
0.00308527
0.00323083
0.00333878
0.00339936
0.00338545
0.00324959
0.000108351
0.000350424
0.000593885
0.000838826
0.00108545
0.00133308
0.00158076
0.00182716
0.00207038
0.00230777
0.00253568
0.00274923
0.00294193
0.00310503
0.003227
0.00329446
0.00329512
0.0032139
0.00301366
0.00265475
0.000123927
0.000395628
0.000668765
0.000943054
0.00121843
0.00149388
0.00176795
0.00203866
0.00230321
0.00255774
0.00279703
0.00301409
0.00319968
0.00334155
0.00342388
0.00342832
0.00333642
0.00312316
0.00273468
0.00213
0.000139658
0.00044132
0.000744547
0.00104877
0.00135378
0.00165832
0.00196067
0.00225839
0.00254807
0.00282499
0.00308272
0.00331261
0.00350308
0.00363875
0.00369973
0.00366226
0.00349963
0.00317262
0.00260528
0.00174937
0.000155588
0.00048763
0.000821464
0.00115636
0.00149207
0.0018273
0.00216024
0.00248829
0.00280778
0.00311357
0.00339859
0.00365313
0.00386396
0.00401322
0.0040774
0.00402714
0.0038261
0.00341849
0.00270458
0.00161484
0.000171711
0.000534537
0.000899491
0.0012658
0.00163332
0.00200089
0.00236685
0.00272876
0.00308311
0.00342493
0.00374721
0.00404014
0.00429
0.00447767
0.00457713
0.00455403
0.00436235
0.00393088
0.00314047
0.00189995
0.000187967
0.000581865
0.000978318
0.00137664
0.00177691
0.00217829
0.00257948
0.00297851
0.00337248
0.00375718
0.00412657
0.004472
0.00478102
0.00503568
0.00521027
0.0052682
0.00515617
0.00479177
0.00404607
0.00274912
0.000204249
0.000629289
0.00105738
0.00148804
0.00192165
0.00235787
0.00279594
0.00323462
0.00367199
0.00410512
0.00452977
0.00493967
0.00532569
0.00567437
0.00596556
0.00616799
0.00623026
0.00606472
0.00553392
0.00452059
0.000220405
0.000676357
0.00113588
0.00159879
0.00206588
0.00253734
0.00301311
0.00349287
0.00397588
0.00446089
0.00494589
0.00542782
0.0059022
0.00636247
0.00679899
0.00719616
0.0075244
0.00772258
0.00766411
0.00700435
-0.000207675
-0.000557139
-0.000934152
-0.00131827
-0.00171666
-0.00213103
-0.0025636
-0.00301621
-0.00348999
-0.00398482
-0.00449833
-0.00502449
-0.00555202
-0.00606326
-0.00653469
-0.00694102
-0.00727024
-0.00753791
-0.00773302
-0.00820363
-0.000208065
-0.000558097
-0.000934951
-0.0013205
-0.00172094
-0.00213854
-0.00257589
-0.00303533
-0.0035186
-0.00402637
-0.00455721
-0.00510617
-0.00566296
-0.00621033
-0.00672378
-0.00717507
-0.00754741
-0.00784934
-0.00806311
-0.0083964
-0.000207882
-0.000557631
-0.000933863
-0.00131978
-0.00172143
-0.00214143
-0.00258279
-0.00304836
-0.00354058
-0.00406097
-0.00460914
-0.00518133
-0.00576831
-0.00635333
-0.00691094
-0.00740925
-0.00782371
-0.00815341
-0.00838434
-0.00864289
-0.000207294
-0.000555627
-0.000930547
-0.00131581
-0.00171769
-0.00213909
-0.00258347
-0.00305426
-0.00355461
-0.00408696
-0.0046521
-0.00524757
-0.00586538
-0.0064894
-0.00709324
-0.00764087
-0.00809866
-0.00845645
-0.00870569
-0.00894533
-0.000206293
-0.000552064
-0.000924776
-0.00130833
-0.00170934
-0.00213102
-0.00257728
-0.00305214
-0.00355952
-0.00410287
-0.00468423
-0.00530261
-0.00595145
-0.00661557
-0.00726788
-0.00786809
-0.00837322
-0.00876365
-0.00903354
-0.00927964
-0.000204767
-0.000546905
-0.000916336
-0.00129706
-0.00169597
-0.00211665
-0.00256346
-0.003041
-0.00355402
-0.00410703
-0.00470343
-0.0053439
-0.00602361
-0.0067287
-0.00743188
-0.00808895
-0.00864786
-0.00907858
-0.00937354
-0.00964093
-0.00020267
-0.00054007
-0.000905054
-0.00128171
-0.0016772
-0.00209547
-0.00254129
-0.00301988
-0.00353683
-0.00409774
-0.00470754
-0.00536874
-0.0060786
-0.0068252
-0.0075817
-0.00830072
-0.00892192
-0.00940341
-0.00972921
-0.0100308
-0.000199964
-0.000531479
-0.000890772
-0.00126205
-0.00165269
-0.00206696
-0.00251006
-0.00298781
-0.00350661
-0.00407326
-0.00469426
-0.00537419
-0.00611285
-0.00690092
-0.00771297
-0.00849953
-0.00919325
-0.00973902
-0.0101024
-0.0104528
-0.000196621
-0.000521055
-0.000873355
-0.00123786
-0.0016221
-0.00203066
-0.00246911
-0.00294385
-0.00346209
-0.00403181
-0.00466119
-0.00535711
-0.00612236
-0.00695102
-0.00782024
-0.00867997
-0.00945791
-0.0100849
-0.0104936
-0.0109119
-0.00019262
-0.000508737
-0.000852689
-0.00120896
-0.00158517
-0.00198618
-0.00241786
-0.00288715
-0.00340202
-0.00397164
-0.00460589
-0.00531414
-0.00610267
-0.00696988
-0.00789679
-0.00883476
-0.00970967
-0.0104386
-0.0109022
-0.0114144
-0.000187948
-0.000494485
-0.000828694
-0.00117522
-0.00154169
-0.00193317
-0.00235581
-0.00281696
-0.0033253
-0.00389107
-0.0045259
-0.00524176
-0.00604886
-0.00695085
-0.00793418
-0.00895425
-0.00993941
-0.0107944
-0.0113254
-0.0119668
-0.000182598
-0.000478275
-0.000801327
-0.00113657
-0.00149152
-0.00187144
-0.00228259
-0.00273268
-0.00323094
-0.00378861
-0.00441887
-0.00513637
-0.00595557
-0.00688621
-0.00792183
-0.0090254
-0.0101335
-0.011141
-0.0117577
-0.012574
-0.00017657
-0.000460109
-0.000770583
-0.00109299
-0.00143463
-0.00180086
-0.00219799
-0.0026339
-0.00311824
-0.00366298
-0.00428272
-0.00499458
-0.00581735
-0.00676741
-0.00784695
-0.00903071
-0.0102711
-0.0114575
-0.0121892
-0.0132352
-0.000169871
-0.000440013
-0.000736507
-0.00104455
-0.00137108
-0.00172148
-0.00210198
-0.00252046
-0.00298676
-0.00351333
-0.0041158
-0.00481349
-0.00562927
-0.00658615
-0.00769591
-0.00894906
-0.0103224
-0.0117081
-0.0126005
-0.0139395
-0.000162527
-0.000418051
-0.0006992
-0.000991394
-0.00130105
-0.00163352
-0.00199479
-0.00239256
-0.00283656
-0.00333936
-0.00391718
-0.00459103
-0.00538737
-0.00633531
-0.00745643
-0.0087598
-0.0102535
-0.011844
-0.0129534
-0.0146541
-0.000154632
-0.000394339
-0.000658806
-0.000933764
-0.0012249