/*--------------------------------*- C++ -*----------------------------------*\
| =========                 |                                                 |
| \\      /  F ield         | OpenFOAM: The Open Source CFD Toolbox           |
|  \\    /   O peration     | Version:  v1806                                 |
|   \\  /    A nd           | Web:      www.OpenFOAM.com                      |
|    \\/     M anipulation  |                                                 |
\*---------------------------------------------------------------------------*/
FoamFile
{
    version     2.0;
    format      ascii;
    class       volScalarField;
    location    "70";
    object      p;
}
// * * * * * * * * * * * * * * * * * * * * * * * * * * * * * * * * * * * * * //

dimensions      [0 2 -2 0 0 0 0];


internalField   nonuniform List<scalar> 
2400
(
0.000865891
0.000863527
0.000858411
0.00085041
0.000839339
0.000824922
0.000806812
0.000784628
0.000757998
0.000726586
0.00069013
0.000648475
0.00060161
0.000549697
0.000493102
0.000432402
0.000368386
0.000302011
0.000234362
0.000166771
0.00260042
0.00259383
0.00257955
0.00255709
0.00252589
0.00248516
0.00243389
0.00237098
0.00229536
0.00220605
0.00210226
0.00198351
0.00184974
0.00170134
0.00153933
0.0013653
0.00118148
0.000990702
0.000796317
0.000602029
0.00434259
0.00433221
0.00430971
0.00427414
0.00422451
0.00415945
0.00407722
0.00397592
0.00385362
0.00370854
0.00353918
0.00334455
0.00312426
0.00287879
0.00260956
0.00231907
0.00201096
0.00168987
0.0013614
0.00103168
0.00609689
0.00608323
0.00605353
0.00600643
0.00594042
0.00585346
0.00574299
0.00560615
0.00543998
0.00524172
0.00500891
0.00473981
0.00443347
0.00409019
0.00371165
0.00330111
0.00286359
0.00240568
0.00193554
0.00146238
0.00786712
0.00785079
0.00781522
0.00775863
0.00767891
0.00757325
0.00743808
0.00726944
0.00706307
0.00681501
0.00652146
0.00617965
0.00578765
0.00534533
0.00485425
0.00431835
0.00374397
0.0031398
0.002517
0.00188834
0.00965632
0.00963811
0.00959834
0.00953482
0.00944475
0.00932441
0.00916901
0.0089733
0.00873139
0.00843784
0.00808701
0.00767478
0.00719757
0.00665458
0.00604667
0.00537833
0.00465705
0.00389391
0.00310357
0.00230316
0.0114666
0.0114475
0.0114056
0.0113383
0.011242
0.0111119
0.0109419
0.010725
0.0104535
0.0101201
0.00971653
0.00923707
0.00867553
0.00803018
0.00730011
0.00649045
0.00560927
0.00467047
0.00369289
0.00269911
0.013299
0.0132801
0.0132385
0.0131712
0.0130737
0.01294
0.0127622
0.0125317
0.0122382
0.0118721
0.011422
0.01088
0.0102358
0.0094868
0.00862831
0.00766672
0.00660903
0.00547309
0.00428228
0.00306629
0.015153
0.0151357
0.0150975
0.0150347
0.014942
0.014812
0.0146349
0.0144
0.0140941
0.0137049
0.0132167
0.0126189
0.0118952
0.0110423
0.0100484
0.00892274
0.00766743
0.00630726
0.0048689
0.00339197
0.0170266
0.0170126
0.0169811
0.0169282
0.0168474
0.0167298
0.0165637
0.0163359
0.0160298
0.0156299
0.0151149
0.0144712
0.0136737
0.0127188
0.0115819
0.0102792
0.00879914
0.00718145
0.00544962
0.00366002
0.0189161
0.0189071
0.0188862
0.0188493
0.0187887
0.0186939
0.0185511
0.0183443
0.0180534
0.0176585
0.0171325
0.0164566
0.0155951
0.0145431
0.0132567
0.0117639
0.0100239
0.00810868
0.00601978
0.00384988
0.0208152
0.0208133
0.0208075
0.0207935
0.0207626
0.0207024
0.0205975
0.0204283
0.0201717
0.0198019
0.019286
0.0185968
0.0176878
0.0165483
0.0151095
0.0134145
0.0113701
0.00910992
0.00657015
0.00393373
0.0227156
0.022723
0.0227372
0.0227535
0.0227628
0.0227508
0.0227004
0.0225886
0.0223895
0.0220698
0.0215919
0.0209151
0.0199847
0.0187731
0.017189
0.0152808
0.0128822
0.0102215
0.00708585
0.00387256
0.0246062
0.0246253
0.0246645
0.0247193
0.02478
0.0248309
0.0248537
0.024822
0.0247079
0.0244691
0.0240653
0.0234355
0.0225231
0.0212631
0.0195587
0.0174245
0.0146324
0.0115022
0.00755831
0.00362519
0.0264733
0.0265064
0.0265758
0.0266774
0.0268011
0.0269305
0.0270466
0.0271204
0.0271224
0.0270019
0.0267168
0.0261811
0.025342
0.024072
0.0222977
0.0199211
0.0167308
0.0130211
0.00801794
0.00318712
0.0283003
0.0283496
0.0284542
0.0286105
0.0288088
0.0290324
0.0292623
0.0294685
0.0296206
0.0296621
0.0295484
0.0291707
0.0284774
0.0272641
0.0254995
0.0228751
0.0193289
0.0148256
0.00858455
0.00257106
0.030068
0.0301357
0.0302798
0.0304981
0.0307814
0.0311138
0.0314771
0.0318425
0.0321793
0.0324304
0.0325471
0.0324094
0.0319548
0.0309153
0.0292711
0.0264502
0.0226208
0.0169737
0.00946005
0.00143831
0.031755
0.0318426
0.0320298
0.0323158
0.0326927
0.0331462
0.03366
0.0342084
0.0347624
0.0352697
0.0356783
0.0358734
0.0357717
0.0350869
0.0337399
0.0309391
0.0269205
0.0197647
0.0107199
-0.00204202
0.0333381
0.0334466
0.0336789
0.0340365
0.0345126
0.0350959
0.0357726
0.0365223
0.0373196
0.0381217
0.0388782
0.0394932
0.0398691
0.0397578
0.0389863
0.0367365
0.0328902
0.0242863
0.0126287
-0.0102804
0.0347929
0.0349226
0.0352007
0.0356309
0.0362085
0.0369252
0.0377712
0.0387321
0.0397888
0.04091
0.0420538
0.0431496
0.044107
0.0447502
0.0448733
0.0438931
0.0413291
0.0338307
0.0203897
-0.019227
9.6383e-05
2.27902e-05
-4.6791e-05
-0.000110043
-0.000164809
-0.000212512
-0.000251853
-0.000286341
-0.000316493
-0.000346419
0.000391909
0.000173102
-2.98205e-05
-0.000213425
-0.000373883
-0.000512751
-0.000629
-0.000729185
-0.000812825
-0.000886142
0.000675142
0.000303427
-4.19587e-05
-0.000354012
-0.000626779
-0.000861365
-0.00105787
-0.00122533
-0.00136618
-0.00149262
0.000949949
0.000415241
-8.132e-05
-0.000528325
-0.00091739
-0.00124913
-0.00152567
-0.00175891
-0.00195475
-0.00212879
0.00120643
0.000494944
-0.00016425
-0.000754282
-0.00126383
-0.00169332
-0.00204788
-0.0023431
-0.00258907
-0.00280609
0.00143374
0.000527494
-0.000308788
-0.00105114
-0.00168465
-0.00221041
-0.00263799
-0.00298815
-0.00327618
-0.00352793
0.00161826
0.000493708
-0.00053797
-0.00144314
-0.00220273
-0.00282025
-0.00331203
-0.00370607
-0.00402381
-0.0042982
0.00174223
0.000368447
-0.000881667
-0.00196078
-0.0028459
-0.00354611
-0.00408817
-0.00450968
-0.00483934
-0.00511924
0.00178219
0.000117835
-0.00137952
-0.00264299
-0.0036482
-0.00441537
-0.00498719
-0.0054125
-0.00572927
-0.00599009
0.00170679
-0.000304894
-0.00208512
-0.00354003
-0.0046515
-0.00546053
-0.00603296
-0.00642886
-0.00669856
-0.00690431
0.00147367
-0.000965214
-0.00307102
-0.00471682
-0.00590771
-0.00672077
-0.00725311
-0.00757392
-0.0077499
-0.00784895
0.00102168
-0.00195595
-0.00443337
-0.00625478
-0.00747981
-0.00824217
-0.00867723
-0.0088609
-0.00888111
-0.00880555
0.000249308
-0.00341322
-0.00629634
-0.00824988
-0.00943747
-0.0100703
-0.0103261
-0.0102894
-0.0100756
-0.00974868
-0.00103661
-0.00555262
-0.00882547
-0.0108088
-0.0118402
-0.012225
-0.012185
-0.0118208
-0.011283
-0.0106349
-0.00321401
-0.00874607
-0.0122639
-0.0140392
-0.0146988
-0.0146529
-0.0141572
-0.0133452
-0.0124039
-0.0113935
-0.00694154
-0.0135548
-0.0169176
-0.0179793
-0.0178924
-0.0171443
-0.0160163
-0.0146832
-0.0133264
-0.011973
-0.0131301
-0.0202433
-0.0228553
-0.0223807
-0.0210151
-0.0192936
-0.0174861
-0.0157113
-0.0140359
-0.0124279
-0.0224828
-0.0279935
-0.0292524
-0.0262483
-0.0234398
-0.0208248
-0.018529
-0.0164694
-0.0145923
-0.0128652
-0.0361751
-0.0339365
-0.0339392
-0.0282686
-0.0251239
-0.0218514
-0.0191981
-0.0169361
-0.0149657
-0.0133194
-0.076212
-0.0385372
-0.0415769
-0.0298458
-0.0263412
-0.0222863
-0.0194877
-0.017134
-0.015178
-0.0138358
-0.000384193
-0.000431936
-0.000490422
-0.000615431
-0.000672545
-0.000498786
-0.000188821
0.000316315
0.00134622
0.00265216
0.00320671
0.00273272
0.00185574
0.00112494
0.000671616
0.000414696
0.000263197
0.000164785
9.37844e-05
2.94771e-05
-0.00102579
-0.00120446
-0.00141216
-0.00171557
-0.00188385
-0.00154802
-0.000652311
0.000964352
0.00332031
0.005453
0.00605595
0.00512452
0.00371539
0.00249283
0.00162509
0.00106325
0.000698732
0.000446398
0.000256489
8.06213e-05
-0.00171808
-0.00202905
-0.00239489
-0.00290163
-0.00321693
-0.00271401
-0.00118428
0.00143609
0.00489303
0.0079891
0.00897764
0.00762106
0.00551461
0.003736
0.00248283
0.0016534
0.00109975
0.000707286
0.000406984
0.000127677
-0.00243974
-0.00289059
-0.00343479
-0.00417731
-0.004679
-0.00402046
-0.00184653
0.00174903
0.00619213
0.00985635
0.010857
0.00925435
0.00683532
0.00474127
0.00321929
0.00217984
0.00146606
0.000948565
0.000546454
0.000171254
-0.0031946
-0.00378841
-0.00453104
-0.00555245
-0.00630271
-0.00551585
-0.00266986
0.00188618
0.00714909
0.0112007
0.0122365
0.0104817
0.00785303
0.00555025
0.00383943
0.00263914
0.00179344
0.00116713
0.000673158
0.000210787
-0.00398025
-0.00471603
-0.00567876
-0.00703769
-0.00811957
-0.00723562
-0.00369322
0.00179624
0.00776565
0.0120825
0.0131121
0.0112945
0.00858915
0.00618181
0.00435106
0.00303292
0.00208132
0.00136206
0.000786534
0.00024609
-0.00479261
-0.00566303
-0.0068667
-0.00863086
-0.0101388
-0.00919712
-0.00494887
0.00144653
0.00803212
0.0125422
0.0135781
0.011779
0.00909104
0.00665755
0.00476326
0.00336452
0.0023307
0.00153362
0.000886777
0.000277264
-0.00562387
-0.00661148
-0.0080709
-0.0103082
-0.0123377
-0.0113851
-0.00644313
0.000812487
0.00794517
0.0126295
0.0137045
0.0119925
0.00939543
0.00699738
0.00508557
0.00363812
0.0025433
0.00168259
0.00097437
0.000304496
-0.00645993
-0.00753138
-0.00924746
-0.0120126
-0.0146454
-0.0137376
-0.00815205
-9.28315e-05
0.00753439
0.0123954
0.0135538
0.0119866
0.00953562
0.00722017
0.00532773
0.00385841
0.00272134
0.00181008
0.00104995
0.000328015
-0.00727648
-0.00837612
-0.010327
-0.0136457
-0.0169316
-0.0161257
-0.009989
-0.00122354
0.00685369
0.0119047
0.0131829
0.0118066
0.0095416
0.00734366
0.00549941
0.00403044
0.00286738
0.00191744
0.00111428
0.000348074
-0.008036
-0.00908455
-0.0112211
-0.0150796
-0.0190231
-0.0183648
-0.0118295
-0.00248857
0.00598112
0.0112217
0.0126481
0.0114921
0.0094404
0.00738436
0.00561005
0.00415937
0.00298422
0.00200617
0.00116817
0.000364945
-0.00869133
-0.00959916
-0.0118565
-0.0161989
-0.0207452
-0.0202901
-0.0135232
-0.00376438
0.00501448
0.0104184
0.011997
0.0110679
0.00925622
0.0073575
0.00566866
0.00425039
0.00307475
0.00207788
0.0012125
0.000378904
-0.00919896
-0.00989676
-0.0122222
-0.0169589
-0.0219797
-0.021754
-0.0149201
-0.00491728
0.00405424
0.00956151
0.0112781
0.0105927
0.00901119
0.00727698
0.00568374
0.00430853
0.00314188
0.00213422
0.00124816
0.000390229
-0.00953442
-0.0100023
-0.012374
-0.0173901
-0.0226964
-0.0226622
-0.015895
-0.00583151
0.00318533
0.00870645
0.0105321
0.0100799
0.00872361
0.00715523
0.00566318
0.00433862
0.00318847
0.00217684
0.00127601
0.00039919
-0.00969927
-0.0100064
-0.0124282
-0.0175584
-0.0229171
-0.0229859
-0.0163735
-0.00643169
0.00246471
0.00789373
0.0097916
0.00955216
0.0084096
0.00700328
0.00561419
0.00434522
0.00321729
0.00220735
0.00129691
0.00040605
-0.00973557
-0.0100437
-0.0124803
-0.0175189
-0.0226871
-0.0227409
-0.0163419
-0.00669352
0.00191617
0.00714875
0.00908095
0.00902812
0.00808305
0.00683069
0.00554332
0.00433254
0.00323097
0.00222731
0.00131169
0.000411059
-0.00975022
-0.0101914
-0.0125454
-0.0172986
-0.0220643
-0.0219859
-0.0158381
-0.00663967
0.0015336
0.00648407
0.008417
0.00852192
0.00775498
0.00664548
0.00545632
0.00430447
0.00323196
0.00223817
0.00132113
0.000414454
-0.00985319
-0.0104425
-0.0125913
-0.0169161
-0.0211258
-0.0208326
-0.0149588
-0.00633656
0.00128964
0.00590281
0.00780984
0.00804366
0.00743326
0.00645449
0.00535827
0.00426455
0.00322249
0.0022413
0.00132595
0.000416452
-0.0100641
-0.0107115
-0.0125767
-0.0164053
-0.0199745
-0.0193958
-0.0138376
-0.00587783
0.00114683
0.00540219
0.00726445
0.0076003
0.00712484
0.00626338
0.00525355
0.00421595
0.00320461
0.00223795
0.00132683
0.000417266
-0.0101978
-0.0108546
-0.0124837
-0.0158133
-0.0187073
-0.0178537
-0.0126096
-0.0053394
0.00106824
0.00497667
0.00678238
0.00719644
0.00683515
0.00607751
0.0051459
0.00416147
0.00318008
0.00222926
0.00132431
0.000417142
-0.0100568
-0.010797
-0.0123031
-0.0151174
-0.0173155
-0.0161941
-0.0112898
-0.00472668
0.00101042
0.00458381
0.00632113
0.00679875
0.00654142
0.00588255
0.00502763
0.00409791
0.00314746
0.00221495
0.00131838
0.000416188
-0.00995347
-0.0106778
-0.0120461
-0.0143856
-0.0159371
-0.0145865
-0.0100164
-0.00412653
0.000990619
0.00424671
0.00590655
0.00642878
0.0062586
0.00568712
0.00490274
0.00402742
0.00310657
0.00219441
0.00130885
0.000413907
-0.00983184
-0.010535
-0.0117761
-0.0137405
-0.0147851
-0.0132712
-0.00897513
-0.00362882
0.000997455
0.00399215
0.00557692
0.00612342
0.00601642
0.00551271
0.00478501
0.00393656
0.00306186
0.00217027
0.00129689
0.000410673
-0.00971188
-0.0103991
-0.0115307
-0.0132126
-0.0138843
-0.0122609
-0.00817586
-0.00323666
0.00102375
0.00381344
0.00532876
0.00588267
0.00581692
0.00536218
0.0046786
0.00386903
0.00301669
0.00214363
0.00128298
0.000406724
-0.00961899
-0.0102898
-0.0113308
-0.0128121
-0.0132335
-0.0115424
-0.00760266
-0.00293937
0.00106858
0.00370633
0.00515918
0.00570595
0.00566113
0.00523727
0.00458485
0.00380432
0.00297168
0.00211536
0.00126763
0.000402197
-0.00956821
-0.0102189
-0.0111863
-0.01254
-0.0128188
-0.0110902
-0.00723255
-0.00272441
0.00113327
0.00366826
0.00506588
0.00559235
0.00554923
0.00513872
0.00450451
0.00374376
0.00292724
0.00208585
0.00125106
0.000397171
-0.00956769
-0.0101928
-0.0111001
-0.0123935
-0.0126276
-0.0108851
-0.00704987
-0.00258318
0.00121958
0.00369819
0.00504735
0.00554083
0.00548078
0.0050665
0.00443766
0.00368795
0.00288354
0.00205529
0.00123338
0.000391684
-0.00961975
-0.0102122
-0.0110717
-0.0123695
-0.0126551
-0.0109231
-0.00704941
-0.0025123
0.00132904
0.00379642
0.00510288
0.0055503
0.00545472
0.0050198
0.00438376
0.00363679
0.00284044
0.00202365
0.0012146
0.000385734
-0.00971317
-0.0102692
-0.0110901
-0.0124628
-0.0129007
-0.0112088
-0.00723614
-0.00251359
0.00146375
0.00396453
0.00523249
0.00561951
0.00546936
0.00499704
0.00434156
0.00358952
0.0027974
0.00199063
0.00119457
0.000379269
-0.00981384
-0.0103462
-0.0111357
-0.0126632
-0.0133627
-0.0117483
-0.00761864
-0.00259174
0.00162643
0.00420601
0.00543691
0.00574699
0.00552225
0.00499574
0.00430908
0.00354479
0.00275349
0.00195562
0.00117307
0.000372127
-0.0100899
-0.0104218
-0.0111698
-0.0129138
-0.013952
-0.0124505
-0.00813588
-0.00273323
0.001801
0.00449119
0.00568707
0.00591114
0.00560079
0.00501094
0.00428648
0.00350553
0.00271247
0.00192193
0.00115231
0.00036495
-0.0100884
-0.0103628
-0.0111665
-0.0131601
-0.0145651
-0.0132044
-0.00870559
-0.00290834
0.00197994
0.00479293
0.00595406
0.00608827
0.00568871
0.00503299
0.00426898
0.00347007
0.00267419
0.00189019
0.00113245
0.000358315
-0.00995562
-0.0101881
-0.0111232
-0.0134072
-0.0152354
-0.0140504
-0.00935831
-0.0031061
0.00217633
0.00514853
0.00626869
0.00629654
0.00579292
0.00506122
0.00425183
0.00343221
0.00263273
0.00185571
0.0011107
0.000351223
-0.00984185
-0.00995949
-0.0110409
-0.0136245
-0.0158989
-0.0149199
-0.0100376
-0.00330387
0.00240374
0.0055612
0.00663093
0.00653343
0.00591016
0.00509265
0.00423274
0.00339037
0.00258707
0.00181783
0.00108678
0.00034349
-0.00974806
-0.00973604
-0.010926
-0.013792
-0.016479
-0.01571
-0.0106608
-0.00346616
0.00267701
0.00603404
0.0070398
0.0067953
0.00603623
0.00512367
0.004209
0.00334269
0.00253604
0.00177584
0.00106033
0.000334985
-0.00961905
-0.0095446
-0.0107982
-0.0138748
-0.0169057
-0.0163152
-0.0111339
-0.00354313
0.00301392
0.00656888
0.00749273
0.00707703
0.00616587
0.00514995
0.0041775
0.00328709
0.00247832
0.00172897
0.00103094
0.000325582
-0.009385
-0.0093763
-0.010668
-0.0138482
-0.0171061
-0.016642
-0.0113618
-0.0034719
0.00343364
0.00716453
0.00798452
0.00737161
0.00629261
0.00516646
0.0041347
0.00322131
0.00241251
0.00167638
0.000998145
0.000315143
-0.00901624
-0.00917993
-0.0105129
-0.0136837
-0.01702
-0.0166102
-0.0112713
-0.00320278
0.0039514
0.00781452
0.00850585
0.00766955
0.00640847
0.0051673
0.00407667
0.00314286
0.00233708
0.00161719
0.000961491
0.000303521
-0.00851775
-0.00889072
-0.0102707
-0.0133389
-0.0166024
-0.0161764
-0.0108305
-0.00271424
0.0045708
0.00850477
0.00904142
0.00795815
0.00650377
0.0051457
0.00399908
0.00304908
0.00225047
0.00155048
0.000920488
0.00029056
-0.00790522
-0.00846551
-0.00987391
-0.0127676
-0.01583
-0.0153352
-0.010047
-0.00201905
0.00527547
0.00921105
0.00956894
0.00822089
0.00656684
0.00509394
0.0038972
0.00293718
0.00215105
0.00147534
0.000874634
0.000276103
-0.00719995
-0.00789233
-0.00928686
-0.0119439
-0.0147071
-0.0141235
-0.0089751
-0.00116991
0.00602337
0.00989613
0.0100606
0.0084371
0.00658381
0.00500336
0.00376592
0.00280424
0.00203718
0.00139083
0.00082343
0.000259989
-0.006431
-0.00718636
-0.0085117
-0.0108788
-0.0132818
-0.0126162
-0.00771392
-0.000256062
0.00674572
0.0105077
0.0104792
0.00858142
0.00653838
0.00486438
0.00359986
0.00264732
0.00190726
0.00129608
0.000766386
0.000242056
-0.00562995
-0.00638281
-0.00758687
-0.00962759
-0.0116413
-0.0109201
-0.00636004
0.000617251
0.00735337
0.0109805
0.0107709
0.00862199
0.00641167
0.00466655
0.00339343
0.00246351
0.00175978
0.00119026
0.000703037
0.000222151
-0.00482239
-0.00552182
-0.00656794
-0.00826768
-0.00989003
-0.00915591
-0.0050448
0.00136855
0.0077592
0.0112539
0.0108767
0.00852062
0.00618221
0.00439862
0.00314094
0.00225006
0.00159337
0.00107265
0.000632966
0.000200128
-0.00402463
-0.00463701
-0.00550689
-0.00687283
-0.00812599
-0.00742194
-0.00383985
0.00188929
0.00786275
0.0112086
0.0107264
0.00823264
0.00582589
0.00404875
0.00283688
0.00200447
0.0014069
0.000942676
0.000555824
0.000175862
-0.00324575
-0.00375188
-0.00444228
-0.00549816
-0.00642187
-0.00578409
-0.0027987
0.0021425
0.00758682
0.0107608
0.0102353
0.00770564
0.00531599
0.00360471
0.00247603
0.00172469
0.00119957
0.000799971
0.000471354
0.000149248
-0.00249032
-0.00288116
-0.00339824
-0.00417609
-0.00481949
-0.00427708
-0.00193356
0.00211038
0.00687666
0.00980601
0.00929506
0.00687382
0.00462248
0.00305419
0.0020538
0.00140927
0.000971044
0.000644476
0.000379489
0.000120248
-0.00176168
-0.00203456
-0.00238885
-0.0029204
-0.00333183
-0.00291133
-0.00123208
0.00181425
0.00566403
0.00825791
0.00787532
0.00570206
0.00371785
0.00238547
0.00156715
0.00105832
0.000722195
0.000476992
0.000280696
8.90276e-05
-0.00105563
-0.00121434
-0.00142054
-0.00173565
-0.00195352
-0.00166837
-0.000679152
0.00128166
0.00399566
0.00576777
0.00541923
0.00391537
0.00253333
0.00158859
0.0010184
0.00067567
0.000456085
0.000299522
0.000176068
5.59529e-05
-0.000396033
-0.000437756
-0.000501613
-0.000628781
-0.000691249
-0.000534308
-0.000214557
0.00045225
0.001833
0.0031377
0.00314189
0.00219646
0.00126803
0.000702063
0.000412531
0.000259774
0.000170086
0.000109743
6.39758e-05
2.03484e-05
-0.0749221
-0.0369419
-0.0387299
-0.0280161
-0.0246309
-0.0209503
-0.0183535
-0.0162011
-0.0144375
-0.0131017
-0.0377204
-0.0327872
-0.0323672
-0.0267692
-0.0236723
-0.0205565
-0.0181086
-0.0160362
-0.0142729
-0.0128099
-0.0239156
-0.0278155
-0.0283286
-0.0250278
-0.0222689
-0.0197538
-0.017573
-0.0156548
-0.0139618
-0.0124782
-0.0143937
-0.0208787
-0.0228841
-0.0219452
-0.0203391
-0.0185279
-0.0167351
-0.0150561
-0.0135232
-0.0121268
-0.00793448
-0.0144753
-0.0174637
-0.0181553
-0.0177819
-0.0168259
-0.0155812
-0.0142424
-0.0129511
-0.0117369
-0.00394806
-0.0096447
-0.0129926
-0.0145185
-0.0149607
-0.0147276
-0.014077
-0.0131759
-0.0122092
-0.0112388
-0.00157971
-0.00632249
-0.00956489
-0.011407
-0.0122891
-0.0125353
-0.012361
-0.0118834
-0.0112664
-0.0105705
-0.000171626
-0.00406389
-0.00699249
-0.00887581
-0.0099632
-0.0104924
-0.0106411
-0.0104942
-0.0101811
-0.00975198
0.00067815
-0.00250646
-0.00506616
-0.0068639
-0.0080216
-0.00870311
-0.00905101
-0.009134
-0.00905311
-0.00885569
0.00118495
-0.00143048
-0.00363105
-0.00528359
-0.00643224
-0.00718108
-0.00764072
-0.00787235
-0.00795416
-0.00793803
0.00146222
-0.000697216
-0.002571
-0.00405085
-0.00513995
-0.00589969
-0.00641113
-0.00673068
-0.00691681
-0.00702608
0.00157571
-0.000211915
-0.00179507
-0.00309266
-0.00409011
-0.00482173
-0.00534335
-0.0057055
-0.00595009
-0.00613322
0.00156926
9.27638e-05
-0.0012328
-0.00234896
-0.00323596
-0.00391229
-0.00441436
-0.0047849
-0.00505364
-0.00527009
0.00147483
0.000265329
-0.00083075
-0.00177183
-0.00253889
-0.00314151
-0.00360268
-0.0039562
-0.00422398
-0.0044455
0.00131653
0.000341142
-0.000548612
-0.00132327
-0.00196683
-0.00248402
-0.0028892
-0.00320761
-0.00345616
-0.00366431
0.00111276
0.000346541
-0.000355607
-0.000972917
-0.00149301
-0.00191803
-0.00225701
-0.00252806
-0.00274418
-0.00292691
0.000877816
0.000301699
-0.000227752
-0.000696271
-0.00109491
-0.00142463
-0.00169097
-0.00190672
-0.00208116
-0.0022302
0.000623071
0.000222412
-0.000146224
-0.000473724
-0.000754102
-0.00098799
-0.00117839
-0.00133429
-0.00146099
-0.00157124
0.000359419
0.000123541
-9.32145e-05
-0.000285985
-0.000451302
-0.000589947
-0.000703048
-0.000796772
-0.000872435
-0.000937074
8.22596e-05
2.7669e-06
-7.17615e-05
-0.000138134
-0.000194681
-0.00024224
-0.000280468
-0.000312798
-0.000339842
-0.000368098
0.0344831
0.0346151
0.0348988
0.0353377
0.0359271
0.0366587
0.0375224
0.0385041
0.0395846
0.0407326
0.0419065
0.0430363
0.0440324
0.0447228
0.0449036
0.0440186
0.0415722
0.034425
0.0214542
-0.0174774
0.0330667
0.0331791
0.0334203
0.0337919
0.034287
0.0348945
0.0356007
0.0363857
0.0372243
0.0380746
0.0388865
0.0395672
0.0400182
0.0400026
0.0393365
0.037241
0.0335378
0.0250762
0.0133069
-0.010913
0.0315328
0.0316258
0.0318249
0.0321299
0.0325323
0.0330185
0.0335721
0.0341684
0.0347782
0.0353509
0.0358339
0.0361161
0.03611
0.0355379
0.0343031
0.0316116
0.0276642
0.0203325
0.0111336
-0.00267886
0.0299013
0.0299757
0.0301344
0.0303755
0.0306898
0.0310617
0.0314729
0.0318954
0.0322983
0.0326256
0.0328272
0.0327843
0.0324301
0.0314912
0.0299428
0.0271538
0.0233492
0.0174672
0.00976558
0.00123753
0.0281915
0.0282485
0.0283696
0.0285517
0.0287849
0.0290525
0.0293356
0.0296043
0.029828
0.0299495
0.0299234
0.0296367
0.0290375
0.0279002
0.0262075
0.0235705
0.020005
0.0152962
0.00878603
0.0025478
0.0264214
0.0264627
0.0265498
0.0266789
0.0268398
0.0270156
0.0271874
0.0273254
0.0273999
0.0273578
0.0271567
0.0267019
0.0259436
0.0247264
0.0229959
0.0205871
0.0173323
0.0134692
0.00814603
0.00312985
0.0246074
0.0246349
0.0246923
0.0247752
0.0248736
0.0249713
0.0250496
0.0250808
0.0250365
0.0248706
0.0245428
0.0239815
0.0231331
0.0219083
0.0202192
0.0180476
0.0151566
0.0119007
0.00765074
0.00351585
0.0227639
0.0227796
0.0228118
0.0228558
0.022902
0.0229353
0.0229381
0.0228856
0.022751
0.0224966
0.0220842
0.0214637
0.0205796
0.01939
0.0177984
0.0158494
0.0133372
0.0105558
0.00716385
0.00374743
0.020903
0.0209091
0.0209206
0.0209329
0.020937
0.0209195
0.0208639
0.0207488
0.0205497
0.0202369
0.019775
0.0191306
0.0182523
0.0171239
0.0156624
0.0139215
0.011765
0.00938499
0.00664086
0.00381633
0.0190348
0.0190334
0.0190286
0.0190161
0.0189879
0.0189321
0.0188337
0.018675
0.0184339
0.0180873
0.0176045
0.0169628
0.0161197
0.0150694
0.0137519
0.0122086
0.0103665
0.00833616
0.0060832
0.00374621
0.0171675
0.0171603
0.0171434
0.0171127
0.017061
0.0169782
0.0168512
0.0166651
0.0164011
0.016041
0.0155597
0.0149408
0.0141524
0.0131915
0.0120203
0.010665
0.00909499
0.00737099
0.005504
0.00357034
0.0153069
0.0152958
0.0152705
0.0152274
0.0151603
0.0150606
0.0149172
0.0147177
0.0144465
0.0140894
0.0136266
0.0130458
0.0123246
0.0114603
0.0104318
0.00925443
0.00792054
0.00646537
0.00491383
0.00331539
0.0134574
0.0134439
0.0134136
0.0133633
0.0132878
0.01318
0.0130305
0.0128294
0.012564
0.0122231
0.0117917
0.0112604
0.0106142
0.00985045
0.00895891
0.00794869
0.00682284
0.00560429
0.00431855
0.00300152
0.0116216
0.011607
0.0115746
0.0115217
0.0114439
0.0113354
0.0111888
0.0109957
0.0107466
0.0104323
0.010042
0.00956849
0.00900213
0.00834073
0.00758014
0.0067266
0.005787
0.00477807
0.00372157
0.00264476
0.00980047
0.00978601
0.00975413
0.00970245
0.00962753
0.00952477
0.00938819
0.00921134
0.0089867
0.00870738
0.00836561
0.00795592
0.00747242
0.00691357
0.00627845
0.00557198
0.00480164
0.0039804
0.00312558
0.00225797
0.00799412
0.00798079
0.00795153
0.00790439
0.00783669
0.00774489
0.00762439
0.00747023
0.00727681
0.00703898
0.0067513
0.00640986
0.00601113
0.00555431
0.00504
0.00447229
0.00385796
0.00320712
0.00253306
0.00185134
0.00620141
0.00619004
0.00616515
0.00612525
0.00606836
0.00599184
0.0058923
0.0057661
0.00560924
0.005418
0.00518874
0.0049188
0.00460619
0.00425065
0.00385334
0.00341765
0.00294911
0.00245537
0.00194625
0.00143296
0.00442038
0.00441163
0.00439253
0.00436204
0.00431881
0.00426102
0.00418636
0.00409231
0.00397622
0.00383561
0.00366818
0.00347227
0.00324686
0.002992
0.00270889
0.00240011
0.00206976
0.00172322
0.0013673
0.00100945
0.00264837
0.00264277
0.00263055
0.00261114
0.00258377
0.00254736
0.00250054
0.00244185
0.00236977
0.00228287
0.00217993
0.00206006
0.00192282
0.00176841
0.00159772
0.00141244
0.00121511
0.001009
0.000798195
0.000587203
0.000882101
0.000880084
0.000875686
0.000868743
0.000858991
0.000846052
0.00082945
0.000808671
0.000783187
0.000752512
0.000716219
0.000674014
0.000625766
0.000571556
0.000511729
0.000446891
0.000377955
0.00030604
0.000232481
0.000158846
0.0362245
0.0363773
0.0367048
0.0372128
0.0378997
0.0387607
0.039791
0.0409835
0.0423275
0.043805
0.0453887
0.0470344
0.0486784
0.0502178
0.0515083
0.0523109
0.0523159
0.0507203
0.0475196
0.0219959
0.037528
0.0377035
0.0380798
0.0386652
0.0394605
0.0404654
0.0416801
0.0431053
0.04474
0.0465789
0.0486112
0.0508158
0.0531571
0.0555754
0.0579735
0.0601929
0.0619491
0.0629255
0.0618663
0.0609237
0.0385354
0.0387296
0.0391462
0.0397954
0.0406807
0.0418048
0.0431729
0.0447918
0.0466684
0.0488076
0.0512105
0.0538707
0.0567695
0.0598674
0.0630916
0.0663161
0.0693342
0.0717921
0.0731307
0.0736657
0.0392156
0.039423
0.0398684
0.0405634
0.041513
0.0427226
0.0442005
0.0459582
0.0480076
0.0503604
0.0530246
0.0560019
0.059281
0.0628288
0.0665749
0.0703911
0.0740575
0.0772399
0.0793572
0.0812946
0.0395461
0.0397606
0.0402212
0.0409403
0.0419238
0.0431783
0.0447141
0.0465445
0.0486843
0.051148
0.053947
0.057086
0.060556
0.0643244
0.0683184
0.0724034
0.076352
0.0798199
0.0822884
0.0842697
0.0395153
0.03973
0.040191
0.0409107
0.0418951
0.0431507
0.0446876
0.0465193
0.0486604
0.0511253
0.0539253
0.057065
0.0605351
0.0643028
0.0682953
0.0723776
0.0763223
0.0797848
0.0822471
0.0842267
0.0391229
0.039331
0.0397777
0.0404746
0.0414268
0.0426395
0.044121
0.0458825
0.0479359
0.0502924
0.0529598
0.0559392
0.059219
0.0627655
0.0665076
0.070317
0.0739753
0.0771481
0.0792617
0.0811824
0.03838
0.0385751
0.0389938
0.0396463
0.0405358
0.0416651
0.0430392
0.0446646
0.0465479
0.0486937
0.0511025
0.0537673
0.0566687
0.0597663
0.062986
0.0662009
0.0692016
0.0716405
0.0729488
0.0735014
0.037308
0.0374848
0.037864
0.0384538
0.0392551
0.0402672
0.0414904
0.0429248
0.0445692
0.0464181
0.0484599
0.0506729
0.0530207
0.0554428
0.0578409
0.0600573
0.0618106
0.062786
0.0617616
0.0607924
0.0359378
0.0360921
0.0364232
0.0369369
0.0376313
0.0385016
0.0395426
0.0407471
0.0421042
0.0435954
0.045193
0.0468525
0.0485094
0.0500605
0.0513604
0.0521667
0.0521663
0.0505442
0.0472379
0.0223047
)
;

boundaryField
{
    inlet
    {
        type            zeroGradient;
    }
    outlet
    {
        type            fixedValue;
        value           uniform 0;
    }
    upAndBottom
    {
        type            empty;
    }
    obstacle
    {
        type            zeroGradient;
    }
}


// ************************************************************************* //
