x,y,z,U_0,U_1,U_2
0,0,0,3.00013,-0.0159804,0
0,0.1,0,3.00008,-0.00958824,0
0,0.2,0,3.00003,-0.00319608,0
0,0.3,0,3,0,0
0,0.4,0,3,0,0
0,0.5,0,3,0,0
0,0.6,0,3,0,0
0,0.7,0,3,0,0
0,0.8,0,3,0,0
0,0.9,0,3,0,0
0,1,0,3,0,0
0,1.1,0,3,0,0
0,1.2,0,3,0,0
0,1.3,0,3,0,0
0,1.4,0,3,0,0
0,1.5,0,3,0,0
0,1.6,0,3,0,0
0,1.7,0,3,0,0
0,1.8,0,3,0,0
0,1.9,0,3,0,0
0,2,0,3,0,0
0,2.1,0,3,0,0
0,2.2,0,3,0,0
0,2.3,0,3,0,0
0,2.4,0,3,0,0
0,2.5,0,3,0,0
0,2.6,0,3,0,0
0,2.7,0,3,0,0
0,2.8,0,3,0,0
0,2.9,0,3,0,0
0,3,0,3,0,0
0,3.1,0,3,0,0
0,3.2,0,3,0,0
0,3.3,0,3,0,0
0,3.4,0,3,0,0
0,3.5,0,3,8.38075e-18,0
0,3.6,0,3,0,0
0,3.7,0,3,0,0
0,3.8,0,3,0,0
0,3.9,0,3,0,0
0,4,0,3,7.52129e-18,0
0,4.1,0,3,0,0
0,4.2,0,3,0,0
0,4.3,0,3,0,0
0,4.4,0,3,0,0
0,4.5,0,3,0,0
0,4.6,0,3,0,0
0,4.7,0,3,0,0
0,4.8,0,3,0,0
0,4.9,0,3,0,0
0,5,0,3,0,0
0,5.1,0,3,0,0
0,5.2,0,3,0,0
0,5.3,0,3,0,0
0,5.4,0,3,0,0
0,5.5,0,3,0,0
0,5.6,0,3,2.08262e-18,0
0,5.7,0,3,0,0
0,5.8,0,3,0,0
0,5.9,0,3,0,0
0,6,0,3,0,0
0,6.1,0,3,0,0
0,6.2,0,3,-5.08897e-20,0
0,6.3,0,3,0,0
0,6.4,0,3,-7.78094e-19,0
0,6.5,0,3,0,0
0,6.6,0,3,-1.48323e-18,0
0,6.7,0,3,0,0
0,6.8,0,3,0,0
0,6.9,0,3,0,0
0,7,0,3,0,0
0,7.1,0,3,0,0
0,7.2,0,3,0,0
0,7.3,0,3,0,0
0,7.4,0,3,0,0
0,7.5,0,3,0,0
0,7.6,0,3,0,0
0,7.7,0,3,0,0
0,7.8,0,3,0,0
0,7.9,0,3,0,0
0,8,0,3,0,0
0,8.1,0,3,0,0
0,8.2,0,3,0,0
0,8.3,0,3,0,0
0,8.4,0,3,0,0
0,8.5,0,3,0,0
0,8.6,0,3,0,0
0,8.7,0,3,0,0
0,8.8,0,3,0,0
0,8.9,0,3,0,0
0,9,0,3,0,0
0,9.1,0,3,0,0
0,9.2,0,3,0,0
0,9.3,0,3,0,0
0,9.4,0,3,0,0
0,9.5,0,3,0,0
0,9.6,0,3,0,0
0,9.7,0,3,0,0
0,9.8,0,3,0,0
0,9.9,0,3,0,0
0,10,0,3,0,0
0,10.1,0,3,0,0
0,10.2,0,3,0,0
0,10.3,0,3,0,0
0,10.4,0,3,0,0
0,10.5,0,3,0,0
0,10.6,0,3,0,0
0,10.7,0,3,0,0
0,10.8,0,3,0,0
0,10.9,0,3,0,0
0,11,0,3,0,0
0,11.1,0,3,0,0
0,11.2,0,3,0,0
0,11.3,0,3,0,0
0,11.4,0,3,0,0
0,11.5,0,3,0,0
0,11.6,0,3,0,0
0,11.7,0,3,0,0
0,11.8,0,3,0,0
0,11.9,0,3,0,0
0,12,0,3,0,0
0,12.1,0,3,0,0
0,12.2,0,3,0,0
0,12.3,0,3,0,0
0,12.4,0,3,0,0
0,12.5,0,2.99983,0.00461624,0
0,12.6,0,2.99964,0.0100471,0
0,12.7,0,2.99944,0.015478,0
0.1,0,0,2.99968,-0.0261409,0
0.1,0.1,0,3.0002,-0.02354,0
0.1,0.2,0,2.99991,-0.0173433,0
0.1,0.3,0,2.99937,-0.0163748,0
0.1,0.4,0,2.99939,-0.0171341,0
0.1,0.5,0,2.99918,-0.014553,0
0.1,0.6,0,2.99655,-0.0152573,0
0.1,0.7,0,2.99754,-0.0151626,0
0.1,0.8,0,2.99743,-0.0144978,0
0.1,0.9,0,2.99639,-0.0143075,0
0.1,1,0,3.0003,-0.0151333,0
0.1,1.1,0,2.99872,-0.0155095,0
0.1,1.2,0,2.99905,-0.0152539,0
0.1,1.3,0,2.998,-0.0139452,0
0.1,1.4,0,2.99722,-0.0136401,0
0.1,1.5,0,2.99967,-0.0143128,0
0.1,1.6,0,2.99396,-0.0122265,0
0.1,1.7,0,2.99588,-0.0128624,0
0.1,1.8,0,2.99515,-0.0123848,0
0.1,1.9,0,2.99292,-0.0115442,0
0.1,2,0,3.00083,-0.0142392,0
0.1,2.1,0,2.99402,-0.0133602,0
0.1,2.2,0,2.99595,-0.013439,0
0.1,2.3,0,2.99541,-0.0127158,0
0.1,2.4,0,2.99325,-0.012327,0
0.1,2.5,0,3.00038,-0.0131545,0
0.1,2.6,0,2.99324,-0.0132064,0
0.1,2.7,0,2.99534,-0.013064,0
0.1,2.8,0,2.99876,-0.0139671,0
0.1,2.9,0,2.99813,-0.0144965,0
0.1,3,0,2.9992,-0.011957,0
0.1,3.1,0,3.00339,-0.0143593,0
0.1,3.2,0,3.00179,-0.0134535,0
0.1,3.3,0,3.00666,-0.0130107,0
0.1,3.4,0,3.01035,-0.0137266,0
0.1,3.5,0,2.99678,-0.0107839,0
0.1,3.6,0,3.01834,-0.0113046,0
0.1,3.7,0,3.0116,-0.0109913,0
0.1,3.8,0,3.01448,-0.0084106,0
0.1,3.9,0,3.02246,-0.00761783,0
0.1,4,0,2.99593,-0.00967796,0
0.1,4.1,0,3.0221,-0.00388981,0
0.1,4.2,0,3.01454,-0.00539081,0
0.1,4.3,0,3.01039,-0.00365869,0
0.1,4.4,0,3.01617,-0.00141535,0
0.1,4.5,0,2.99829,-0.00784101,0
0.1,4.6,0,3.00827,-0.00101166,0
0.1,4.7,0,3.00555,-0.00268633,0
0.1,4.8,0,3.00202,-0.00336701,0
0.1,4.9,0,3.00322,-0.00198407,0
0.1,5,0,2.99924,-0.00543633,0
0.1,5.1,0,3.00331,-0.00239545,0
0.1,5.2,0,2.99902,-0.00450747,0
0.1,5.3,0,3.00335,-0.00192665,0
0.1,5.4,0,2.99916,-0.00361726,0
0.1,5.5,0,3.00167,-0.00182342,0
0.1,5.6,0,2.99933,-0.0026798,0
0.1,5.7,0,3.00109,-0.0018057,0
0.1,5.8,0,2.99927,-0.00174838,0
0.1,5.9,0,3.00149,-0.00167102,0
0.1,6,0,2.99922,-0.000852735,0
0.1,6.1,0,3.00155,-0.00125781,0
0.1,6.2,0,2.99923,6.5482e-05,0
0.1,6.3,0,3.00195,-0.00126029,0
0.1,6.4,0,2.99913,0.00100121,0
0.1,6.5,0,3.00316,-0.000974909,0
0.1,6.6,0,2.99907,0.00190854,0
0.1,6.7,0,3.00361,-0.000746817,0
0.1,6.8,0,2.99917,0.00285171,0
0.1,6.9,0,3.00451,-0.000938183,0
0.1,7,0,2.99874,0.00400017,0
0.1,7.1,0,3.01098,-0.00142086,0
0.1,7.2,0,3.01098,-0.00142086,0
0.1,7.3,0,3.00117,0.00448092,0
0.1,7.4,0,3.01775,0.00113532,0
0.1,7.5,0,3.01476,0.00184332,0
0.1,7.6,0,3.00435,0.00579294,0
0.1,7.7,0,3.01795,0.00512967,0
0.1,7.8,0,3.01102,0.00570817,0
0.1,7.9,0,3.00563,0.00779899,0
0.1,8,0,3.01295,0.00851697,0
0.1,8.1,0,3.00514,0.00808023,0
0.1,8.2,0,3.00388,0.00962577,0
0.1,8.3,0,3.00613,0.0103283,0
0.1,8.4,0,3.00101,0.0090637,0
0.1,8.5,0,3.00037,0.0104575,0
0.1,8.6,0,3.00051,0.010625,0
0.1,8.7,0,2.99974,0.00954337,0
0.1,8.8,0,2.99673,0.0102489,0
0.1,8.9,0,2.99673,0.0102489,0
0.1,9,0,2.99979,0.0101809,0
0.1,9.1,0,2.99559,0.00978686,0
0.1,9.2,0,2.99567,0.00980696,0
0.1,9.3,0,2.99902,0.0106575,0
0.1,9.4,0,2.9953,0.00981229,0
0.1,9.5,0,2.99627,0.0101566,0
0.1,9.6,0,2.99818,0.0107165,0
0.1,9.7,0,2.99558,0.00965206,0
0.1,9.8,0,2.99724,0.0104956,0
0.1,9.9,0,2.99866,0.0113946,0
0.1,10,0,2.9979,0.0111162,0
0.1,10.1,0,2.99913,0.0118953,0
0.1,10.2,0,2.99762,0.011621,0
0.1,10.3,0,2.997,0.0114033,0
0.1,10.4,0,2.99905,0.0123448,0
0.1,10.5,0,2.99751,0.0113439,0
0.1,10.6,0,2.99747,0.0113205,0
0.1,10.7,0,2.99917,0.0125139,0
0.1,10.8,0,3.00066,0.0148084,0
0.1,10.9,0,3.00066,0.0148084,0
0.1,11,0,2.99986,0.0133463,0
0.1,11.1,0,2.99981,0.0139449,0
0.1,11.2,0,2.99983,0.0139239,0
0.1,11.3,0,2.99942,0.0138074,0
0.1,11.4,0,2.99796,0.0140967,0
0.1,11.5,0,2.99833,0.0139412,0
0.1,11.6,0,2.99908,0.0139948,0
0.1,11.7,0,2.99879,0.0145012,0
0.1,11.8,0,2.99888,0.0140113,0
0.1,11.9,0,3.00061,0.0164491,0
0.1,12,0,3.00139,0.0179113,0
0.1,12.1,0,3.00025,0.015392,0
0.1,12.2,0,3.00052,0.0170195,0
0.1,12.3,0,3.00067,0.0175251,0
0.1,12.4,0,3.00012,0.014802,0
0.1,12.5,0,2.99935,0.0180503,0
0.1,12.6,0,2.99915,0.0234812,0
0.1,12.7,0,2.99955,0.0251444,0
0.2,0,0,2.99923,-0.0363014,0
0.2,0.1,0,2.99997,-0.035217,0
0.2,0.2,0,2.99924,-0.0319465,0
0.2,0.3,0,2.9987,-0.0309781,0
0.2,0.4,0,2.99865,-0.0327196,0
0.2,0.5,0,2.99835,-0.0291061,0
0.2,0.6,0,2.99468,-0.030092,0
0.2,0.7,0,2.99739,-0.0301043,0
0.2,0.8,0,2.99727,-0.0294395,0
0.2,0.9,0,2.99512,-0.0291105,0
0.2,1,0,3.0006,-0.0302665,0
0.2,1.1,0,2.99839,-0.0307933,0
0.2,1.2,0,2.99887,-0.0299112,0
0.2,1.3,0,2.99782,-0.0286025,0
0.2,1.4,0,2.99591,-0.0276838,0
0.2,1.5,0,2.99934,-0.0286256,0
0.2,1.6,0,2.99135,-0.0257047,0
0.2,1.7,0,2.99624,-0.0272086,0
0.2,1.8,0,2.99551,-0.0267311,0
0.2,1.9,0,2.99059,-0.0247054,0
0.2,2,0,3.00167,-0.0284784,0
0.2,2.1,0,2.99212,-0.0272478,0
0.2,2.2,0,2.99643,-0.0270618,0
0.2,2.3,0,2.99589,-0.0263386,0
0.2,2.4,0,2.99077,-0.0251505,0
0.2,2.5,0,3.00077,-0.026309,0
0.2,2.6,0,2.99077,-0.0263817,0
0.2,2.7,0,2.99557,-0.0257958,0
0.2,2.8,0,2.999,-0.0266988,0
0.2,2.9,0,2.99691,-0.0274692,0
0.2,3,0,2.99841,-0.0239139,0
0.2,3.1,0,3.00427,-0.0272771,0
0.2,3.2,0,2.99983,-0.0247938,0
0.2,3.3,0,3.00471,-0.0243509,0
0.2,3.4,0,3.01256,-0.0256876,0
0.2,3.5,0,2.99356,-0.0215677,0
0.2,3.6,0,3.02375,-0.0222967,0
0.2,3.7,0,3.00747,-0.0212517,0
0.2,3.8,0,3.01035,-0.018671,0
0.2,3.9,0,3.02901,-0.0164717,0
0.2,4,0,2.99187,-0.0193559,0
0.2,4.1,0,3.0285,-0.0112525,0
0.2,4.2,0,3.01143,-0.014284,0
0.2,4.3,0,3.00728,-0.0125519,0
0.2,4.4,0,3.02162,-0.0066861,0
0.2,4.5,0,2.99659,-0.015682,0
0.2,4.6,0,3.01056,-0.00612094,0
0.2,4.7,0,3.00476,-0.0092802,0
0.2,4.8,0,3.00123,-0.00996089,0
0.2,4.9,0,3.00406,-0.0060395,0
0.2,5,0,2.99848,-0.0108727,0
0.2,5.1,0,3.00453,-0.00607913,0
0.2,5.2,0,2.99804,-0.00901494,0
0.2,5.3,0,3.00458,-0.00492116,0
0.2,5.4,0,2.99832,-0.00723452,0
0.2,5.5,0,3.00213,-0.00430939,0
0.2,5.6,0,2.99866,-0.00535959,0
0.2,5.7,0,3.00129,-0.0038156,0
0.2,5.8,0,2.99854,-0.00349676,0
0.2,5.9,0,3.00186,-0.00315681,0
0.2,6,0,2.99844,-0.00170547,0
0.2,6.1,0,3.00194,-0.00208352,0
0.2,6.2,0,2.99846,0.000130964,0
0.2,6.3,0,3.00251,-0.00162377,0
0.2,6.4,0,2.99827,0.00200241,0
0.2,6.5,0,3.00429,-0.000734926,0
0.2,6.6,0,2.99814,0.00381708,0
0.2,6.7,0,3.00497,6.98373e-05,0
0.2,6.8,0,2.99835,0.00570342,0
0.2,6.9,0,3.00624,0.000305695,0
0.2,7,0,2.99748,0.00800033,0
0.2,7.1,0,3.01251,0.00134293,0
0.2,7.2,0,3.00899,0.00352353,0
0.2,7.3,0,2.99859,0.0097173,0
0.2,7.4,0,3.02356,0.00468091,0
0.2,7.5,0,3.01118,0.00802318,0
0.2,7.6,0,3.00077,0.0119728,0
0.2,7.7,0,3.02516,0.0108551,0
0.2,7.8,0,3.00761,0.0126203,0
0.2,7.9,0,3.00223,0.0147111,0
0.2,8,0,3.01801,0.016441,0
0.2,8.1,0,3.00273,0.0157388,0
0.2,8.2,0,3.00148,0.0172843,0
0.2,8.3,0,3.00853,0.0197146,0
0.2,8.4,0,2.99975,0.0175671,0
0.2,8.5,0,2.99911,0.018961,0
0.2,8.6,0,3.00045,0.0204496,0
0.2,8.7,0,2.99937,0.0189353,0
0.2,8.8,0,2.99605,0.019731,0
0.2,8.9,0,2.99623,0.0204626,0
0.2,9,0,2.99985,0.0203877,0
0.2,9.1,0,2.99436,0.019872,0
0.2,9.2,0,2.9959,0.0207396,0
0.2,9.3,0,2.99925,0.0215902,0
0.2,9.4,0,2.99319,0.0202143,0
0.2,9.5,0,2.99641,0.0216756,0
0.2,9.6,0,2.99832,0.0222355,0
0.2,9.7,0,2.99339,0.0202879,0
0.2,9.8,0,2.99711,0.0223332,0
0.2,9.9,0,2.99854,0.0232323,0
0.2,10,0,2.99685,0.0228138,0
0.2,10.1,0,2.99918,0.024378,0
0.2,10.2,0,2.99767,0.0241037,0
0.2,10.3,0,2.99543,0.0234634,0
0.2,10.4,0,2.99876,0.0249962,0
0.2,10.5,0,2.99722,0.0239952,0
0.2,10.6,0,2.99623,0.0235444,0
0.2,10.7,0,2.99846,0.0251059,0
0.2,10.8,0,3.00018,0.0277698,0
0.2,10.9,0,3.00062,0.0282337,0
0.2,11,0,2.99973,0.0266089,0
0.2,11.1,0,2.99966,0.0274468,0
0.2,11.2,0,2.99989,0.0276031,0
0.2,11.3,0,2.99948,0.0274866,0
0.2,11.4,0,2.99695,0.0279786,0
0.2,11.5,0,2.99767,0.0274471,0
0.2,11.6,0,2.99842,0.0275007,0
0.2,11.7,0,2.99778,0.0284829,0
0.2,11.8,0,2.99786,0.0274175,0
0.2,11.9,0,2.99959,0.0298553,0
0.2,12,0,3.00182,0.0337783,0
0.2,12.1,0,2.99982,0.0293143,0
0.2,12.2,0,3.0001,0.0309418,0
0.2,12.3,0,3.00095,0.0330885,0
0.2,12.4,0,3.00012,0.0289891,0
0.2,12.5,0,2.99932,0.0322044,0
0.2,12.6,0,2.99912,0.0340069,0
0.2,12.7,0,2.99965,0.0348108,0
0.3,0,0,2.99878,-0.0464619,0
0.3,0.1,0,2.99882,-0.0459639,0
0.3,0.2,0,2.99846,-0.0457915,0
0.3,0.3,0,2.99799,-0.0450651,0
0.3,0.4,0,2.99778,-0.0449948,0
0.3,0.5,0,2.99753,-0.0436591,0
0.3,0.6,0,2.99682,-0.0443611,0
0.3,0.7,0,2.99776,-0.0449052,0
0.3,0.8,0,2.9979,-0.0445464,0
0.3,0.9,0,2.99854,-0.0448146,0
0.3,1,0,3.0009,-0.0453998,0
0.3,1.1,0,2.99968,-0.0451596,0
0.3,1.2,0,2.999,-0.0444932,0
0.3,1.3,0,2.99813,-0.0433944,0
0.3,1.4,0,2.99792,-0.0429121,0
0.3,1.5,0,2.99901,-0.0429384,0
0.3,1.6,0,2.99678,-0.0419253,0
0.3,1.7,0,2.99775,-0.0419721,0
0.3,1.8,0,2.99746,-0.0416163,0
0.3,1.9,0,2.99812,-0.0414664,0
0.3,2,0,3.0025,-0.0427176,0
0.3,2.1,0,2.99877,-0.0417233,0
0.3,2.2,0,2.99827,-0.0408604,0
0.3,2.3,0,2.9978,-0.0401269,0
0.3,2.4,0,2.99766,-0.0394713,0
0.3,2.5,0,3.00115,-0.0394635,0
0.3,2.6,0,2.99744,-0.039109,0
0.3,2.7,0,2.99724,-0.0385172,0
0.3,2.8,0,2.99945,-0.0389227,0
0.3,2.9,0,2.998,-0.037838,0
0.3,3,0,2.99761,-0.0358709,0
0.3,3.1,0,2.99866,-0.036517,0
0.3,3.2,0,2.99704,-0.0356535,0
0.3,3.3,0,3.00004,-0.0351026,0
0.3,3.4,0,2.99827,-0.0343237,0
0.3,3.5,0,2.99034,-0.0323516,0
0.3,3.6,0,3.0003,-0.0321408,0
0.3,3.7,0,2.99903,-0.031408,0
0.3,3.8,0,3.00092,-0.0293434,0
0.3,3.9,0,3.00101,-0.028528,0
0.3,4,0,2.9878,-0.0290339,0
0.3,4.1,0,3.00175,-0.0254335,0
0.3,4.2,0,3.00309,-0.0243348,0
0.3,4.3,0,3.0006,-0.0227302,0
0.3,4.4,0,3.00256,-0.0212571,0
0.3,4.5,0,2.99488,-0.023523,0
0.3,4.6,0,3.00069,-0.0189859,0
0.3,4.7,0,3.00197,-0.0172399,0
0.3,4.8,0,2.99964,-0.0172452,0
0.3,4.9,0,2.99968,-0.0156246,0
0.3,5,0,2.99772,-0.016309,0
0.3,5.1,0,2.99948,-0.0136275,0
0.3,5.2,0,2.99707,-0.0135224,0
0.3,5.3,0,2.99941,-0.0111192,0
0.3,5.4,0,2.99748,-0.0108518,0
0.3,5.5,0,2.99895,-0.00878303,0
0.3,5.6,0,2.99799,-0.00803939,0
0.3,5.7,0,2.9988,-0.00643807,0
0.3,5.8,0,2.99782,-0.00524514,0
0.3,5.9,0,2.99886,-0.00408691,0
0.3,6,0,2.99766,-0.00255821,0
0.3,6.1,0,2.99884,-0.00161297,0
0.3,6.2,0,2.99769,0.000196446,0
0.3,6.3,0,2.99893,0.000703215,0
0.3,6.4,0,2.9974,0.00300362,0
0.3,6.5,0,2.99934,0.00314973,0
0.3,6.6,0,2.99721,0.00572562,0
0.3,6.7,0,2.99961,0.00557691,0
0.3,6.8,0,2.99752,0.00855513,0
0.3,6.9,0,2.99964,0.00809576,0
0.3,7,0,2.99621,0.0120005,0
0.3,7.1,0,3.00138,0.01019,0
0.3,7.2,0,2.99976,0.0117082,0
0.3,7.3,0,2.99601,0.0149537,0
0.3,7.4,0,3.00152,0.0145193,0
0.3,7.5,0,3.00029,0.015678,0
0.3,7.6,0,2.9972,0.0181527,0
0.3,7.7,0,3.00022,0.0188174,0
0.3,7.8,0,3.00043,0.0197166,0
0.3,7.9,0,2.99801,0.021578,0
0.3,8,0,2.99924,0.0224947,0
0.3,8.1,0,3.00032,0.0233973,0
0.3,8.2,0,2.99732,0.0245107,0
0.3,8.3,0,2.99873,0.0255482,0
0.3,8.4,0,2.99849,0.0260705,0
0.3,8.5,0,2.99748,0.0269452,0
0.3,8.6,0,2.99858,0.0280363,0
0.3,8.7,0,2.99901,0.0283273,0
0.3,8.8,0,2.99771,0.0290974,0
0.3,8.9,0,2.99824,0.0300981,0
0.3,9,0,2.99992,0.0305944,0
0.3,9.1,0,2.99809,0.0309834,0
0.3,9.2,0,2.99829,0.0318749,0
0.3,9.3,0,2.99948,0.0325229,0
0.3,9.4,0,2.99814,0.0328087,0
0.3,9.5,0,2.99803,0.0335287,0
0.3,9.6,0,2.99846,0.0337545,0
0.3,9.7,0,2.99783,0.0339924,0
0.3,9.8,0,2.99751,0.0343838,0
0.3,9.9,0,2.99866,0.0352257,0
0.3,10,0,2.99888,0.0360179,0
0.3,10.1,0,2.99924,0.0368608,0
0.3,10.2,0,2.99854,0.0369587,0
0.3,10.3,0,2.99812,0.0371658,0
0.3,10.4,0,2.99848,0.0376475,0
0.3,10.5,0,2.99781,0.03726,0
0.3,10.6,0,2.99729,0.0371871,0
0.3,10.7,0,2.99775,0.0376979,0
0.3,10.8,0,2.99894,0.0393312,0
0.3,10.9,0,2.99965,0.0401547,0
0.3,11,0,2.9996,0.0398714,0
0.3,11.1,0,2.99974,0.0404833,0
0.3,11.2,0,2.99998,0.040995,0
0.3,11.3,0,2.99954,0.0411658,0
0.3,11.4,0,2.9984,0.041067,0
0.3,11.5,0,2.99752,0.0408541,0
0.3,11.6,0,2.99777,0.0410065,0
0.3,11.7,0,2.99732,0.0408937,0
0.3,11.8,0,2.99687,0.0407713,0
0.3,11.9,0,2.99825,0.0425616,0
0.3,12,0,2.99898,0.0431955,0
0.3,12.1,0,2.9994,0.0432367,0
0.3,12.2,0,2.99943,0.0436637,0
0.3,12.3,0,2.99995,0.0439888,0
0.3,12.4,0,3.00012,0.0431762,0
0.3,12.5,0,2.99964,0.0443424,0
0.3,12.6,0,2.99958,0.0442215,0
0.3,12.7,0,2.99976,0.0444772,0
0.4,0,0,2.99852,-0.0539769,0
0.4,0.1,0,2.99784,-0.0568989,0
0.4,0.2,0,2.99748,-0.0567266,0
0.4,0.3,0,2.99676,-0.0568912,0
0.4,0.4,0,2.99654,-0.0568209,0
0.4,0.5,0,2.99757,-0.0541686,0
0.4,0.6,0,2.99882,-0.0583557,0
0.4,0.7,0,2.99976,-0.0588999,0
0.4,0.8,0,3.00235,-0.0607539,0
0.4,0.9,0,3.00298,-0.0610221,0
0.4,1,0,3.00042,-0.055922,0
0.4,1.1,0,3.00133,-0.0596681,0
0.4,1.2,0,3.00066,-0.0590017,0
0.4,1.3,0,2.99982,-0.0583655,0
0.4,1.4,0,2.99961,-0.0578833,0
0.4,1.5,0,2.99832,-0.053506,0
0.4,1.6,0,3.0026,-0.0583389,0
0.4,1.7,0,3.00356,-0.0583857,0
0.4,1.8,0,3.00621,-0.0588169,0
0.4,1.9,0,3.00687,-0.0586671,0
0.4,2,0,3.00163,-0.0527716,0
0.4,2.1,0,3.00642,-0.0565751,0
0.4,2.2,0,3.00592,-0.0557122,0
0.4,2.3,0,3.00479,-0.0540791,0
0.4,2.4,0,3.00466,-0.0534235,0
0.4,2.5,0,3.00052,-0.0490935,0
0.4,2.6,0,3.0055,-0.0522414,0
0.4,2.7,0,3.00529,-0.0516495,0
0.4,2.8,0,3.00097,-0.0490146,0
0.4,2.9,0,2.99952,-0.0479298,0
0.4,3,0,2.99736,-0.0445996,0
0.4,3.1,0,2.99243,-0.0453972,0
0.4,3.2,0,2.99081,-0.0445338,0
0.4,3.3,0,2.9847,-0.0434974,0
0.4,3.4,0,2.98293,-0.0427185,0
0.4,3.5,0,2.99087,-0.0402398,0
0.4,3.6,0,2.97406,-0.0418503,0
0.4,3.7,0,2.97279,-0.0411174,0
0.4,3.8,0,2.96982,-0.0417531,0
0.4,3.9,0,2.96992,-0.0409377,0
0.4,4,0,2.98809,-0.035953,0
0.4,4.1,0,2.97201,-0.040228,0
0.4,4.2,0,2.97335,-0.0391293,0
0.4,4.3,0,2.97964,-0.0382031,0
0.4,4.4,0,2.98159,-0.0367301,0
0.4,4.5,0,2.9942,-0.0292846,0
0.4,4.6,0,2.99038,-0.03245,0
0.4,4.7,0,2.99166,-0.030704,0
0.4,4.8,0,2.99528,-0.0271609,0
0.4,4.9,0,2.99533,-0.0255404,0
0.4,5,0,2.99677,-0.0206091,0
0.4,5.1,0,2.99426,-0.0210873,0
0.4,5.2,0,2.99606,-0.0171019,0
0.4,5.3,0,2.99405,-0.0173671,0
0.4,5.4,0,2.99631,-0.0137482,0
0.4,5.5,0,2.99592,-0.0132541,0
0.4,5.6,0,2.99672,-0.0102352,0
0.4,5.7,0,2.99638,-0.00905708,0
0.4,5.8,0,2.99655,-0.00672265,0
0.4,5.9,0,2.99579,-0.0049847,0
0.4,6,0,2.99641,-0.00329833,0
0.4,6.1,0,2.99575,-0.00119729,0
0.4,6.2,0,2.99644,0.000185906,0
0.4,6.3,0,2.99543,0.00306756,0
0.4,6.4,0,2.99622,0.00370916,0
0.4,6.5,0,2.99426,0.00702541,0
0.4,6.6,0,2.99613,0.00714718,0
0.4,6.7,0,2.9942,0.0110571,0
0.4,6.8,0,2.99643,0.0106669,0
0.4,6.9,0,2.99363,0.0157074,0
0.4,7,0,2.99525,0.0147938,0
0.4,7.1,0,2.98684,0.0209614,0
0.4,7.2,0,2.98522,0.0224796,0
0.4,7.3,0,2.98667,0.0210422,0
0.4,7.4,0,2.97701,0.024979,0
0.4,7.5,0,2.97578,0.0261376,0
0.4,7.6,0,2.9784,0.0251852,0
0.4,7.7,0,2.9747,0.0268121,0
0.4,7.8,0,2.97491,0.0277113,0
0.4,7.9,0,2.97899,0.0275849,0
0.4,8,0,2.98022,0.0285016,0
0.4,8.1,0,2.98164,0.0294018,0
0.4,8.2,0,2.98762,0.0302927,0
0.4,8.3,0,2.98903,0.0313302,0
0.4,8.4,0,2.99243,0.0321462,0
0.4,8.5,0,2.9955,0.0342235,0
0.4,8.6,0,2.99659,0.0353147,0
0.4,8.7,0,2.99806,0.0355096,0
0.4,8.8,0,3.00099,0.038513,0
0.4,8.9,0,3.00152,0.0395136,0
0.4,9,0,2.99978,0.03877,0
0.4,9.1,0,3.00275,0.042359,0
0.4,9.2,0,3.00295,0.0432505,0
0.4,9.3,0,3.00165,0.0429617,0
0.4,9.4,0,3.00351,0.0455647,0
0.4,9.5,0,3.0034,0.0462847,0
0.4,9.6,0,3.00205,0.0468934,0
0.4,9.7,0,3.00214,0.0478481,0
0.4,9.8,0,3.00182,0.0482394,0
0.4,9.9,0,3.00037,0.0479524,0
0.4,10,0,3.00059,0.0487446,0
0.4,10.1,0,3.0006,0.0491081,0
0.4,10.2,0,3.00214,0.0516434,0
0.4,10.3,0,3.00173,0.0518506,0
0.4,10.4,0,3.00011,0.0499,0
0.4,10.5,0,2.99859,0.050457,0
0.4,10.6,0,2.99807,0.050384,0
0.4,10.7,0,2.99736,0.0479266,0
0.4,10.8,0,2.99717,0.0503732,0
0.4,10.9,0,2.99788,0.0511967,0
0.4,11,0,2.99921,0.0505208,0
0.4,11.1,0,3.00051,0.0537381,0
0.4,11.2,0,3.00075,0.0542498,0
0.4,11.3,0,3.00053,0.0533556,0
0.4,11.4,0,3.00011,0.0544874,0
0.4,11.5,0,2.99923,0.0542746,0
0.4,11.6,0,2.99672,0.052983,0
0.4,11.7,0,2.99624,0.0528988,0
0.4,11.8,0,2.99579,0.0527764,0
0.4,11.9,0,2.99506,0.0517687,0
0.4,12,0,2.99579,0.0524026,0
0.4,12.1,0,2.99692,0.0525066,0
0.4,12.2,0,2.99885,0.0547096,0
0.4,12.3,0,2.99937,0.0550347,0
0.4,12.4,0,2.99984,0.0531948,0
0.4,12.5,0,3.00018,0.0546634,0
0.4,12.6,0,3.00012,0.0545425,0
0.4,12.7,0,2.99999,0.0515361,0
0.5,0,0,2.99845,-0.0588464,0
0.5,0.1,0,2.99718,-0.0673383,0
0.5,0.2,0,2.99748,-0.0633691,0
0.5,0.3,0,2.99658,-0.0636481,0
0.5,0.4,0,2.9952,-0.0679346,0
0.5,0.5,0,2.99848,-0.0606346,0
0.5,0.6,0,3.00029,-0.0713789,0
0.5,0.7,0,3.00047,-0.0669093,0
0.5,0.8,0,3.00378,-0.0693425,0
0.5,0.9,0,3.00748,-0.076596,0
0.5,1,0,2.99914,-0.0618331,0
0.5,1.1,0,3.00292,-0.0735215,0
0.5,1.2,0,2.99965,-0.0668715,0
0.5,1.3,0,2.99865,-0.0662106,0
0.5,1.4,0,3.0005,-0.0717165,0
0.5,1.5,0,2.99728,-0.0603284,0
0.5,1.6,0,3.0075,-0.0737763,0
0.5,1.7,0,3.0036,-0.0670074,0
0.5,1.8,0,3.00698,-0.0676316,0
0.5,1.9,0,3.01492,-0.074878,0
0.5,2,0,2.99906,-0.0586405,0
0.5,2.1,0,3.01337,-0.0708435,0
0.5,2.2,0,3.00549,-0.0633802,0
0.5,2.3,0,3.00404,-0.0613977,0
0.5,2.4,0,3.01023,-0.0661429,0
0.5,2.5,0,2.99888,-0.0551988,0
0.5,2.6,0,3.01318,-0.0650783,0
0.5,2.7,0,3.00606,-0.0587704,0
0.5,2.8,0,3.00034,-0.0554167,0
0.5,2.9,0,3.00111,-0.0574722,0
0.5,3,0,2.99766,-0.0501001,0
0.5,3.1,0,2.98678,-0.0538876,0
0.5,3.2,0,2.99151,-0.0506416,0
0.5,3.3,0,2.98363,-0.0495191,0
0.5,3.4,0,2.96973,-0.0507706,0
0.5,3.5,0,2.99513,-0.0452325,0
0.5,3.6,0,2.95038,-0.0510609,0
0.5,3.7,0,2.97164,-0.0467296,0
0.5,3.8,0,2.96773,-0.0479292,0
0.5,3.9,0,2.94201,-0.0526027,0
0.5,4,0,2.99273,-0.0401134,0
0.5,4.1,0,2.9453,-0.054061,0
0.5,4.2,0,2.96949,-0.0452042,0
0.5,4.3,0,2.97762,-0.0444219,0
0.5,4.4,0,2.96278,-0.0511628,0
0.5,4.5,0,2.99456,-0.0329667,0
0.5,4.6,0,2.98155,-0.0449726,0
0.5,4.7,0,2.98884,-0.0362277,0
0.5,4.8,0,2.99365,-0.0319407,0
0.5,4.9,0,2.99167,-0.0346635,0
0.5,5,0,2.99563,-0.0237731,0
0.5,5.1,0,2.98887,-0.0284587,0
0.5,5.2,0,2.99503,-0.0197534,0
0.5,5.3,0,2.98851,-0.0236649,0
0.5,5.4,0,2.99481,-0.0159237,0
0.5,5.5,0,2.99305,-0.0177226,0
0.5,5.6,0,2.99485,-0.0119469,0
0.5,5.7,0,2.99403,-0.0116726,0
0.5,5.8,0,2.99475,-0.00792927,0
0.5,5.9,0,2.99264,-0.0058502,0
0.5,6,0,2.99467,-0.00392583,0
0.5,6.1,0,2.99269,-0.000836475,0
0.5,6.2,0,2.99471,9.93438e-05,0
0.5,6.3,0,2.99201,0.00546926,0
0.5,6.4,0,2.99474,0.00411903,0
0.5,6.5,0,2.98908,0.0108921,0
0.5,6.6,0,2.99488,0.00808174,0
0.5,6.7,0,2.98874,0.0165105,0
0.5,6.8,0,2.99509,0.0120386,0
0.5,6.9,0,2.98821,0.0231406,0
0.5,7,0,2.99458,0.0163804,0
0.5,7.1,0,2.97627,0.0293182,0
0.5,7.2,0,2.97819,0.0292394,0
0.5,7.3,0,2.98828,0.022883,0
0.5,7.4,0,2.95426,0.0348457,0
0.5,7.5,0,2.9691,0.0315624,0
0.5,7.6,0,2.98206,0.0276818,0
0.5,7.7,0,2.9486,0.0348394,0
0.5,7.8,0,2.97352,0.031881,0
0.5,7.9,0,2.98164,0.0310712,0
0.5,8,0,2.96096,0.0344618,0
0.5,8.1,0,2.98418,0.0334798,0
0.5,8.2,0,2.98728,0.034762,0
0.5,8.3,0,2.97943,0.0370606,0
0.5,8.4,0,2.99315,0.0367286,0
0.5,8.5,0,2.99514,0.0399443,0
0.5,8.6,0,2.99491,0.0422466,0
0.5,8.7,0,2.99723,0.0404197,0
0.5,8.8,0,3.00283,0.0461899,0
0.5,8.9,0,3.00334,0.047584,0
0.5,9,0,2.99808,0.0440184,0
0.5,9.1,0,3.00604,0.0524629,0
0.5,9.2,0,3.00411,0.0515813,0
0.5,9.3,0,2.99959,0.0484325,0
0.5,9.4,0,3.00898,0.0582424,0
0.5,9.5,0,3.00388,0.0543196,0
0.5,9.6,0,3.00032,0.0528724,0
0.5,9.7,0,3.00633,0.0618548,0
0.5,9.8,0,3.00085,0.0554453,0
0.5,9.9,0,2.99908,0.0549579,0
0.5,10,0,3.00198,0.0609937,0
0.5,10.1,0,2.99901,0.0552489,0
0.5,10.2,0,3.00235,0.0606169,0
0.5,10.3,0,3.00605,0.067266,0
0.5,10.4,0,2.99986,0.0570566,0
0.5,10.5,0,2.99848,0.0601775,0
0.5,10.6,0,2.99801,0.0617105,0
0.5,10.7,0,2.99696,0.0549611,0
0.5,10.8,0,2.99569,0.0600767,0
0.5,10.9,0,2.9961,0.0603802,0
0.5,11,0,2.9978,0.0568607,0
0.5,11.1,0,3.0015,0.0661813,0
0.5,11.2,0,3.0011,0.0638674,0
0.5,11.3,0,3.00011,0.0601403,0
0.5,11.4,0,3.00209,0.06824,0
0.5,11.5,0,3.00043,0.0630518,0
0.5,11.6,0,2.99767,0.0602161,0
0.5,11.7,0,2.99455,0.0644982,0
0.5,11.8,0,2.99619,0.0594554,0
0.5,11.9,0,2.99486,0.0586289,0
0.5,12,0,2.99225,0.0613994,0
0.5,12.1,0,2.99636,0.057476,0
0.5,12.2,0,2.99848,0.0620304,0
0.5,12.3,0,2.99931,0.0659408,0
0.5,12.4,0,2.99964,0.0578464,0
0.5,12.5,0,3.00035,0.0623448,0
0.5,12.6,0,3.00057,0.0631958,0
0.5,12.7,0,3.00035,0.0559877,0
0.6,0,0,2.99838,-0.0637158,0
0.6,0.1,0,2.99747,-0.0699999,0
0.6,0.2,0,2.99765,-0.0689076,0
0.6,0.3,0,2.99676,-0.0691866,0
0.6,0.4,0,2.99682,-0.071964,0
0.6,0.5,0,2.99939,-0.0671006,0
0.6,0.6,0,3.00079,-0.0749737,0
0.6,0.7,0,3.00098,-0.0734832,0
0.6,0.8,0,3.00429,-0.0759164,0
0.6,0.9,0,3.00435,-0.0784776,0
0.6,1,0,2.99786,-0.0677443,0
0.6,1.1,0,3.00018,-0.0759996,0
0.6,1.2,0,2.99791,-0.0730248,0
0.6,1.3,0,2.99691,-0.0723639,0
0.6,1.4,0,2.99831,-0.0751552,0
0.6,1.5,0,2.99623,-0.0671507,0
0.6,1.6,0,3.00369,-0.0767122,0
0.6,1.7,0,3.00224,-0.0736857,0
0.6,1.8,0,3.00562,-0.07431,0
0.6,1.9,0,3.00811,-0.0764742,0
0.6,2,0,2.99648,-0.0645093,0
0.6,2.1,0,3.00657,-0.0729455,0
0.6,2.2,0,3.00295,-0.0691649,0
0.6,2.3,0,3.0015,-0.0671823,0
0.6,2.4,0,3.00503,-0.0691803,0
0.6,2.5,0,2.99724,-0.0613041,0
0.6,2.6,0,3.00757,-0.0679516,0
0.6,2.7,0,3.00485,-0.0642751,0
0.6,2.8,0,2.99913,-0.0609215,0
0.6,2.9,0,3.00024,-0.061178,0
0.6,3,0,2.99797,-0.0556005,0
0.6,3.1,0,2.99059,-0.0580307,0
0.6,3.2,0,2.99396,-0.0560708,0
0.6,3.3,0,2.98608,-0.0549482,0
0.6,3.4,0,2.98103,-0.0545781,0
0.6,3.5,0,2.9994,-0.0502251,0
0.6,3.6,0,2.96747,-0.05402,0
0.6,3.7,0,2.9769,-0.051325,0
0.6,3.8,0,2.97299,-0.0525246,0
0.6,3.9,0,2.96137,-0.0536016,0
0.6,4,0,2.99737,-0.0442737,0
0.6,4.1,0,2.96311,-0.0538049,0
0.6,4.2,0,2.97221,-0.0490708,0
0.6,4.3,0,2.98034,-0.0482886,0
0.6,4.4,0,2.9726,-0.0501407,0
0.6,4.5,0,2.99491,-0.0366488,0
0.6,4.6,0,2.98542,-0.0446641,0
0.6,4.7,0,2.98778,-0.0397562,0
0.6,4.8,0,2.99259,-0.0354692,0
0.6,4.9,0,2.99169,-0.0353247,0
0.6,5,0,2.99449,-0.026937,0
0.6,5.1,0,2.98994,-0.0291346,0
0.6,5.2,0,2.994,-0.0224049,0
0.6,5.3,0,2.98938,-0.0241363,0
0.6,5.4,0,2.99331,-0.0180993,0
0.6,5.5,0,2.99196,-0.0184038,0
0.6,5.6,0,2.99298,-0.0136587,0
0.6,5.7,0,2.99245,-0.0125536,0
0.6,5.8,0,2.99295,-0.0091359,0
0.6,5.9,0,2.99156,-0.00679305,0
0.6,6,0,2.99293,-0.00455333,0
0.6,6.1,0,2.99162,-0.00155243,0
0.6,6.2,0,2.99298,1.27816e-05,0
0.6,6.3,0,2.99131,0.00451089,0
0.6,6.4,0,2.99324,0.00452891,0
0.6,6.5,0,2.98962,0.00996709,0
0.6,6.6,0,2.99364,0.0090163,0
0.6,6.7,0,2.98952,0.0155135,0
0.6,6.8,0,2.99374,0.0134104,0
0.6,6.9,0,2.98941,0.0216427,0
0.6,7,0,2.9939,0.0179669,0
0.6,7.1,0,2.97922,0.0288419,0
0.6,7.2,0,2.98039,0.0306724,0
0.6,7.3,0,2.98988,0.0247239,0
0.6,7.4,0,2.96771,0.0333298,0
0.6,7.5,0,2.97276,0.0340591,0
0.6,7.6,0,2.98572,0.0301785,0
0.6,7.7,0,2.96726,0.0350791,0
0.6,7.8,0,2.97738,0.0352299,0
0.6,7.9,0,2.9855,0.0344202,0
0.6,8,0,2.97535,0.0370742,0
0.6,8.1,0,2.98672,0.0375578,0
0.6,8.2,0,2.98983,0.03884,0
0.6,8.3,0,2.98628,0.040799,0
0.6,8.4,0,2.99387,0.0413109,0
0.6,8.5,0,2.99586,0.0445267,0
0.6,8.6,0,2.99497,0.046208,0
0.6,8.7,0,2.99639,0.0453299,0
0.6,8.8,0,3.00143,0.0506545,0
0.6,8.9,0,3.00091,0.0520706,0
0.6,9,0,2.99639,0.0492669,0
0.6,9.1,0,3.00241,0.0559954,0
0.6,9.2,0,3.00205,0.0570521,0
0.6,9.3,0,2.99753,0.0539033,0
0.6,9.4,0,3.00341,0.0604478,0
0.6,9.5,0,3.00215,0.0602986,0
0.6,9.6,0,2.99859,0.0588514,0
0.6,9.7,0,3.00171,0.0640512,0
0.6,9.8,0,2.99923,0.0617759,0
0.6,9.9,0,2.99746,0.0612885,0
0.6,10,0,2.99887,0.0642052,0
0.6,10.1,0,2.99741,0.0613897,0
0.6,10.2,0,3.00076,0.0667577,0
0.6,10.3,0,3.00294,0.0699236,0
0.6,10.4,0,2.99961,0.0642132,0
0.6,10.5,0,2.99823,0.0673341,0
0.6,10.6,0,2.99753,0.0672066,0
0.6,10.7,0,2.99657,0.0619956,0
0.6,10.8,0,2.9954,0.0663282,0
0.6,10.9,0,2.99487,0.0662986,0
0.6,11,0,2.99639,0.0632005,0
0.6,11.1,0,2.99945,0.0701603,0
0.6,11.2,0,3.00068,0.0706521,0
0.6,11.3,0,2.9997,0.066925,0
0.6,11.4,0,3.00121,0.0717807,0
0.6,11.5,0,3.00139,0.070285,0
0.6,11.6,0,2.99863,0.0674493,0
0.6,11.7,0,2.99651,0.068953,0
0.6,11.8,0,2.9967,0.065861,0
0.6,11.9,0,2.99537,0.0650345,0
0.6,12,0,2.99382,0.0652118,0
0.6,12.1,0,2.9958,0.0624455,0
0.6,12.2,0,2.99792,0.0669999,0
0.6,12.3,0,2.9989,0.0678969,0
0.6,12.4,0,2.99944,0.062498,0
0.6,12.5,0,3.00015,0.0667433,0
0.6,12.6,0,3.00078,0.0663768,0
0.6,12.7,0,3.00072,0.0604392,0
0.7,0,0,2.99831,-0.0685853,0
0.7,0.1,0,2.9983,-0.0693497,0
0.7,0.2,0,2.99829,-0.070114,0
0.7,0.3,0,2.99869,-0.0711103,0
0.7,0.4,0,2.99949,-0.0723384,0
0.7,0.5,0,3.0003,-0.0735666,0
0.7,0.6,0,3.00068,-0.0742618,0
0.7,0.7,0,3.00106,-0.0749569,0
0.7,0.8,0,3.00031,-0.0749747,0
0.7,0.9,0,2.99845,-0.074315,0
0.7,1,0,2.99658,-0.0736554,0
0.7,1.1,0,2.99527,-0.0733281,0
0.7,1.2,0,2.99395,-0.0730007,0
0.7,1.3,0,2.99367,-0.0730643,0
0.7,1.4,0,2.99443,-0.0735186,0
0.7,1.5,0,2.99519,-0.073973,0
0.7,1.6,0,2.99573,-0.0738183,0
0.7,1.7,0,2.99627,-0.0736635,0
0.7,1.8,0,2.99601,-0.0729446,0
0.7,1.9,0,2.99496,-0.0716614,0
0.7,2,0,2.9939,-0.0703782,0
0.7,2.1,0,2.99346,-0.0693973,0
0.7,2.2,0,2.99301,-0.0684165,0
0.7,2.3,0,2.99335,-0.0678228,0
0.7,2.4,0,2.99448,-0.0676161,0
0.7,2.5,0,2.9956,-0.0674094,0
0.7,2.6,0,2.99599,-0.0659768,0
0.7,2.7,0,2.99638,-0.0645443,0
0.7,2.8,0,2.99691,-0.0632826,0
0.7,2.9,0,2.99759,-0.0621918,0
0.7,3,0,2.99827,-0.061101,0
0.7,3.1,0,2.99965,-0.0601377,0
0.7,3.2,0,3.00104,-0.0591744,0
0.7,3.3,0,3.00212,-0.0579978,0
0.7,3.4,0,3.00289,-0.0566078,0
0.7,3.5,0,3.00366,-0.0552178,0
0.7,3.6,0,3.00378,-0.0539287,0
0.7,3.7,0,3.0039,-0.0526397,0
0.7,3.8,0,3.00357,-0.051283,0
0.7,3.9,0,3.00279,-0.0498585,0
0.7,4,0,3.00202,-0.048434,0
0.7,4.1,0,3.00066,-0.0469242,0
0.7,4.2,0,2.99931,-0.0454143,0
0.7,4.3,0,2.99796,-0.0437937,0
0.7,4.4,0,2.99662,-0.0420623,0
0.7,4.5,0,2.99527,-0.0403309,0
0.7,4.6,0,2.99457,-0.0383698,0
0.7,4.7,0,2.99387,-0.0364086,0
0.7,4.8,0,2.99349,-0.0343626,0
0.7,4.9,0,2.99342,-0.0322318,0
0.7,5,0,2.99336,-0.0301009,0
0.7,5.1,0,2.99316,-0.0275787,0
0.7,5.2,0,2.99296,-0.0250564,0
0.7,5.3,0,2.99239,-0.0226656,0
0.7,5.4,0,2.99181,-0.0202748,0
0.7,5.5,0,2.99146,-0.0178226,0
0.7,5.6,0,2.99112,-0.0153704,0
0.7,5.7,0,2.99113,-0.0128565,0
0.7,5.8,0,2.99115,-0.0103425,0
0.7,5.9,0,2.99117,-0.00776168,0
0.7,6,0,2.9912,-0.00518084,0
0.7,6.1,0,2.99122,-0.00262731,0
0.7,6.2,0,2.99125,-7.37805e-05,0
0.7,6.3,0,2.9915,0.0024325,0
0.7,6.4,0,2.99175,0.00493878,0
0.7,6.5,0,2.99207,0.00744482,0
0.7,6.6,0,2.99239,0.00995086,0
0.7,6.7,0,2.9924,0.0123665,0
0.7,6.8,0,2.9924,0.0147822,0
0.7,6.9,0,2.99282,0.0171678,0
0.7,7,0,2.99323,0.0195534,0
0.7,7.1,0,2.99441,0.0213839,0
0.7,7.2,0,2.99559,0.0232144,0
0.7,7.3,0,2.99678,0.025065,0
0.7,7.4,0,2.99807,0.027029,0
0.7,7.5,0,2.99937,0.0289929,0
0.7,7.6,0,3.00042,0.0309515,0
0.7,7.7,0,3.00088,0.0328974,0
0.7,7.8,0,3.00134,0.0348433,0
0.7,7.9,0,3.00142,0.0367289,0
0.7,8,0,3.00102,0.038541,0
0.7,8.1,0,3.00063,0.040353,0
0.7,8.2,0,2.99997,0.042072,0
0.7,8.3,0,2.99915,0.043729,0
0.7,8.4,0,2.99832,0.045386,0
0.7,8.5,0,2.9975,0.0469205,0
0.7,8.6,0,2.99668,0.0484143,0
0.7,8.7,0,2.99587,0.049908,0
0.7,8.8,0,2.99532,0.0513318,0
0.7,8.9,0,2.9948,0.0527479,0
0.7,9,0,2.99429,0.0541514,0
0.7,9.1,0,2.99404,0.0553159,0
0.7,9.2,0,2.99379,0.0564805,0
0.7,9.3,0,2.99365,0.057681,0
0.7,9.4,0,2.99394,0.0590251,0
0.7,9.5,0,2.99424,0.0603692,0
0.7,9.6,0,2.99436,0.061531,0
0.7,9.7,0,2.99416,0.0623541,0
0.7,9.8,0,2.99397,0.0631772,0
0.7,9.9,0,2.994,0.0638683,0
0.7,10,0,2.99426,0.0644274,0
0.7,10.1,0,2.99452,0.0649866,0
0.7,10.2,0,2.99541,0.0661278,0
0.7,10.3,0,2.99665,0.0675823,0
0.7,10.4,0,2.99788,0.0690369,0
0.7,10.5,0,2.99756,0.0691495,0
0.7,10.6,0,2.99686,0.0689266,0
0.7,10.7,0,2.99615,0.0687037,0
0.7,10.8,0,2.99562,0.0686644,0
0.7,10.9,0,2.99509,0.0686349,0
0.7,11,0,2.99476,0.068714,0
0.7,11.1,0,2.99622,0.0697721,0
0.7,11.2,0,2.99767,0.0708301,0
0.7,11.3,0,2.99897,0.0717081,0
0.7,11.4,0,2.99977,0.072046,0
0.7,11.5,0,3.00058,0.0723839,0
0.7,11.6,0,3.00066,0.0721312,0
0.7,11.7,0,2.99966,0.0709924,0
0.7,11.8,0,2.99867,0.0698537,0
0.7,11.9,0,2.9979,0.0687199,0
0.7,12,0,2.99732,0.0675901,0
0.7,12.1,0,2.99673,0.0664603,0
0.7,12.2,0,2.99723,0.0660757,0
0.7,12.3,0,2.99819,0.0660105,0
0.7,12.4,0,2.99915,0.0659453,0
0.7,12.5,0,2.99983,0.0656239,0
0.7,12.6,0,3.00045,0.0652574,0
0.7,12.7,0,3.00108,0.0648908,0
0.8,0,0,3.00008,-0.0826826,0
0.8,0.1,0,2.99915,-0.0676075,0
0.8,0.2,0,2.99947,-0.0730178,0
0.8,0.3,0,3.00032,-0.0757963,0
0.8,0.4,0,3.00099,-0.0731423,0
0.8,0.5,0,3.00148,-0.0864248,0
0.8,0.6,0,3.00234,-0.0738818,0
0.8,0.7,0,3.00216,-0.078245,0
0.8,0.8,0,2.99712,-0.0767374,0
0.8,0.9,0,2.99397,-0.0717559,0
0.8,1,0,2.99715,-0.0857585,0
0.8,1.1,0,2.98815,-0.0685783,0
0.8,1.2,0,2.98961,-0.0735454,0
0.8,1.3,0,2.99105,-0.0764613,0
0.8,1.4,0,2.98977,-0.0728436,0
0.8,1.5,0,2.9969,-0.0867096,0
0.8,1.6,0,2.98885,-0.070833,0
0.8,1.7,0,2.99161,-0.0753213,0
0.8,1.8,0,2.9878,-0.0745155,0
0.8,1.9,0,2.983,-0.068552,0
0.8,2,0,2.99464,-0.0833576,0
0.8,2.1,0,2.97828,-0.0637137,0
0.8,2.2,0,2.98287,-0.0685376,0
0.8,2.3,0,2.98631,-0.0715481,0