/*--------------------------------*- C++ -*----------------------------------*\
| =========                 |                                                 |
| \\      /  F ield         | OpenFOAM: The Open Source CFD Toolbox           |
|  \\    /   O peration     | Version:  v1806                                 |
|   \\  /    A nd           | Web:      www.OpenFOAM.com                      |
|    \\/     M anipulation  |                                                 |
\*---------------------------------------------------------------------------*/
FoamFile
{
    version     2.0;
    format      ascii;
    class       surfaceScalarField;
    location    "14";
    object      phi;
}
// * * * * * * * * * * * * * * * * * * * * * * * * * * * * * * * * * * * * * //

dimensions      [0 3 -1 0 0 0 0];
oriented        oriented;


internalField   nonuniform List<scalar> 
4680
(
0.750191
-0.00296865
0.749752
-0.00264318
0.750182
-0.0101541
0.749661
-0.0088429
0.750168
-0.0166442
0.749698
-0.0160167
0.750133
-0.0220564
0.749938
-0.023759
0.75013
-0.0265213
0.750378
-0.0315535
0.750217
-0.0304328
0.750943
-0.0388118
0.750474
-0.0339364
0.751567
-0.0443587
0.750964
-0.0374743
0.752164
-0.0474051
0.751702
-0.041108
0.752705
-0.0471874
0.752648
-0.044725
-0.043838
0.753207
0.750331
-0.0033001
0.749683
-0.00199469
0.750328
-0.0107991
0.749568
-0.00808326
0.750328
-0.0174043
0.749691
-0.015379
0.750353
-0.0227185
0.750173
-0.0235793
0.750523
-0.0268712
0.751024
-0.0320546
0.750935
-0.0303437
0.752133
-0.040009
0.751702
-0.0335063
0.753447
-0.046103
0.752923
-0.036951
0.754848
-0.0493295
0.754573
-0.0408336
0.756289
-0.0489027
0.756549
-0.0449856
-0.0450081
0.757719
0.750318
-0.00361833
0.749692
-0.00136799
0.750309
-0.0114163
0.749655
-0.00742939
0.750359
-0.0181084
0.749879
-0.0148995
0.750503
-0.0233416
0.750517
-0.0235942
0.750928
-0.0272821
0.751607
-0.0327337
0.751751
-0.0304871
0.753067
-0.0413251
0.753083
-0.0335223
0.754907
-0.0479272
0.75501
-0.0370545
0.757028
-0.0513472
0.757444
-0.04125
0.759371
-0.0508297
0.760245
-0.0458593
-0.0466083
0.761845
0.750221
-0.00383962
0.749726
-0.000873047
0.750242
-0.0119316
0.749738
-0.00692555
0.750347
-0.0187179
0.750043
-0.0145952
0.750635
-0.0239337
0.750821
-0.0237804
0.751304
-0.0277651
0.752122
-0.0335516
0.752497
-0.0308614
0.753927
-0.0427554
0.754355
-0.03395
0.756293
-0.0498657
0.756958
-0.0377193
0.759138
-0.0535274
0.760203
-0.042315
0.762389
-0.0530159
0.763909
-0.0473787
-0.0485827
0.765883
0.750007
-0.00384622
0.749826
-0.000692098
0.750061
-0.0121673
0.749889
-0.00675362
0.750243
-0.0190719
0.750266
-0.014618
0.750724
-0.0243915
0.751133
-0.0241897
0.75165
-0.0282818
0.752555
-0.034457
0.753204
-0.0315097
0.75462
-0.0441717
0.75557
-0.0349003
0.757442
-0.0517378
0.758814
-0.0390907
0.760999
-0.0557125
0.762844
-0.0441602
0.765217
-0.0553893
0.767447
-0.049608
-0.0509914
0.769855
0.749732
-0.00357791
0.749977
-0.000937851
0.749817
-0.0120067
0.750105
-0.00704205
0.750092
-0.0190584
0.750566
-0.0150919
0.75076
-0.0245855
0.751453
-0.0248826
0.751888
-0.0287173
0.752916
-0.0354851
0.75375
-0.0323434
0.755166
-0.0455876
0.756566
-0.0363001
0.758365
-0.053537
0.76042
-0.0411455
0.762592
-0.0578844
0.765264
-0.0468322
0.767793
-0.0579191
0.77084
-0.0526549
-0.0537929
0.773642
0.749425
-0.00300266
0.750173
-0.0016864
0.749506
-0.011339
0.750406
-0.00794202
0.749909
-0.0185615
0.750929
-0.0161126
0.750706
-0.0243619
0.751716
-0.0258927
0.751976
-0.0289773
0.753119
-0.0366286
0.754079
-0.0333033
0.755456
-0.0469649
0.757245
-0.0380889
0.758966
-0.0552578
0.761654
-0.0438339
0.763858
-0.0600884
0.76733
-0.0503037
0.770102
-0.0606916
0.773973
-0.0565257
-0.0570921
0.777272
0.749124
-0.00212686
0.750356
-0.00291839
0.749161
-0.0101437
0.750778
-0.00955866
0.749673
-0.0174568
0.751283
-0.0177225
0.750453
-0.0235325
0.751839
-0.0272781
0.751797
-0.028936
0.753079
-0.03791
0.754044
-0.0342683
0.755362
-0.0482829
0.757455
-0.0401823
0.759115
-0.0569176
0.762384
-0.0471025
0.764693
-0.0623971
0.768948
-0.0545592
0.772084
-0.0638273
0.776822
-0.0612641
-0.0610176
0.780748
0.748807
-0.000934059
0.750504
-0.00461492
0.748828
-0.008468
0.751128
-0.0118582
0.749281
-0.0156107
0.751461
-0.0199016
0.749869
-0.0219408
0.751746
-0.0291553
0.751169
-0.0283593
0.752671
-0.0394116
0.753429
-0.0350268
0.754745
-0.0495985
0.757029
-0.0424663
0.758677
-0.0585656
0.762479
-0.0509043
0.764993
-0.0649108
0.770026
-0.0595931
0.77373
-0.0675308
0.779384
-0.0669178
-0.0658074
0.784173
0.748307
0.000758862
0.750672
-0.0069799
0.748337
-0.00613299
0.751361
-0.0148826
0.748497
-0.0127463
0.751453
-0.0228575
0.748791
-0.0192793
0.7515
-0.0318643
0.749846
-0.0267053
0.751987
-0.0415522
0.75193
-0.0349698
0.753661
-0.0513294
0.755694
-0.0444989
0.757596
-0.0604682
0.761788
-0.0550956
0.76463
-0.067753
0.77055
-0.0655131
0.774963
-0.0719445
0.781735
-0.0736889
-0.0716927
0.78762
0.747428
0.00333108
0.750871
-0.0104229
0.747442
-0.00270453
0.751457
-0.0188973
0.747158
-0.00844686
0.751353
-0.0270527
0.747084
-0.0150105
0.751103
-0.0358831
0.747571
-0.0231733
0.751179
-0.0451602
0.749139
-0.0329304
0.752494
-0.0546837
0.752825
-0.04483
0.756209
-0.0638527
0.759682
-0.0585684
0.763664
-0.071735
0.770213
-0.0720619
0.775652
-0.0773841
0.783755
-0.0817912
-0.0790209
0.791083
0.746258
0.00707349
0.751058
-0.0152234
0.746094
0.00225994
0.75143
-0.0242332
0.745371
-0.00238817
0.751095
-0.0327769
0.744672
-0.00858765
0.750494
-0.0417047
0.744235
-0.0169147
0.750168
-0.0510926
0.74481
-0.0275726
0.751169
-0.0610426
0.747721
-0.0413824
0.754747
-0.0708788
0.754864
-0.0586849
0.762425
-0.0792964
0.767641
-0.0772777
0.77555
-0.0852927
0.78504
-0.0912817
-0.0878807
0.7939
0.745248
0.0118257
0.751008
-0.0209833
0.744752
0.0085156
0.750978
-0.0304593
0.743353
0.00523685
0.750251
-0.0396749
0.741691
-2.7995e-05
0.749206
-0.0492192
0.739967
-0.00767568
0.74842
-0.0595454
0.738969
-0.0181225
0.74903
-0.0711035
0.740289
-0.032641
0.752496
-0.083086
0.746354
-0.0525432
0.760676
-0.0936176
0.760535
-0.0771375
0.775188
-0.0999458
0.78332
-0.0994138
-0.100692
0.796132
0.74474
0.0170854
0.750602
-0.0268453
0.74376
0.0153584
0.749879
-0.0365782
0.741428
0.0136875
0.748559
-0.0468058
0.738483
0.0100479
0.746903
-0.057639
0.735184
0.00404274
0.745441
-0.0698023
0.732236
-0.00491779
0.745323
-0.0841902
0.731204
-0.0185222
0.74842
-0.100301
0.734959
-0.0390828
0.756939
-0.115597
0.748555
-0.0687541
0.77359
-0.12498
0.776437
-0.102261
-0.12231
0.798054
0.744781
0.0223043
0.75008
-0.0321444
0.743371
0.0220672
0.748434
-0.0416404
0.740185
0.0219356
0.746329
-0.0529491
0.736031
0.020346
0.74395
-0.0655585
0.731131
0.0168623
0.741589
-0.0802602
0.726126
0.0105443
0.74022
-0.0982842
0.722171
-0.000472314
0.742062
-0.120193
0.722314
-0.0193347
0.750433
-0.143716
0.733006
-0.0513275
0.769794
-0.161767
0.764403
-0.0968708
-0.160162
0.802256
0.745383
0.0269217
0.750029
-0.0367911
0.743716
0.0283808
0.747627
-0.0455514
0.740132
0.0294304
0.744788
-0.057605
0.735285
0.0298483
0.741492
-0.0717654
0.729075
0.0292793
0.737934
-0.0891192
0.722046
0.0264328
0.734918
-0.111157
0.715135
0.019311
0.734193
-0.139251
0.710704
0.00415466
0.741392
-0.174404
0.716113
-0.026049
0.763939
-0.209593
0.74836
-0.0812918
-0.219906
0.808104
0.747827
0.0290947
0.749595
-0.0385589
0.745925
0.0320503
0.746952
-0.0465776
0.742745
0.0336369
0.743697
-0.0585569
0.737787
0.0357586
0.739285
-0.0732635
0.730716
0.0378483
0.734052
-0.092455
0.721765
0.0387197
0.729034
-0.118426
0.712135
0.0362095
0.726023
-0.153139
0.70332
0.0268579
0.730673
-0.201757
0.703708
0.000916373
0.756367
-0.262252
0.735194
-0.0601192
-0.30046
0.815748
0.751487
0.0276079
0.747958
-0.0350297
0.749849
0.0301586
0.745479
-0.0422069
0.747304
0.0318116
0.740929
-0.0521816
0.742604
0.034083
0.734366
-0.0650252
0.735565
0.0366491
0.72572
-0.0826103
0.725431
0.0390092
0.715243
-0.108238
0.711537
0.039916
0.707384
-0.148986
0.697177
0.0370649
0.708807
-0.213386
0.689409
0.0203146
0.738503
-0.311347
0.715503
-0.0371194
-0.445327
0.86037
0.754059
0.0235486
0.747868
-0.0288388
0.752509
0.0255181
0.745098
-0.0347964
0.749867
0.0270428
0.74022
-0.0425341
0.745306
0.0289972
0.732837
-0.0525565
0.738467
0.0310188
0.722261
-0.0664043
0.728884
0.032386
0.708008
-0.0873623
0.716751
0.031173
0.690762
-0.122997
0.704476
0.0233512
0.681359
-0.190269
0.700052
0.00162084
0.715377
-0.326672
0.741802
-0.0635436
-0.565312
0.861787
0.755943
0.0176057
0.748972
-0.0218677
0.755964
0.0185258
0.747835
-0.0266677
0.755281
0.0195971
0.74536
-0.0326131
0.753407
0.0209506
0.741141
-0.040291
0.750085
0.0220746
0.734481
-0.0508
0.745042
0.0218249
0.724294
-0.066614
0.738242
0.0172248
0.708671
-0.0934258
0.731482
0.00053964
0.686323
-0.145109
0.736523
-0.0485791
0.671727
-0.261876
0.817011
-0.208828
0.88369
-0.631991
0.754004
-0.077213
0.752372
-0.0492434
0.755754
-0.0743713
0.753218
-0.0383435
0.7566
-0.0560247
0.755994
-0.0337625
0.757011
-0.0232828
0.759107
-0.0367173
0.757201
0.00898752
-0.0228265
0.760647
0.759236
-0.0787293
0.758202
-0.0482099
0.762663
-0.0788323
0.760172
-0.0358522
0.764373
-0.0602258
0.763599
-0.0329881
0.765245
-0.0249291
0.766726
-0.0381988
0.76481
0.0109039
-0.0261421
0.768126
0.763906
-0.0807904
0.764357
-0.0486604
0.76841
-0.0828859
0.767571
-0.0350132
0.771004
-0.0636589
0.770931
-0.0329143
0.772663
-0.0266616
0.773241
-0.0387771
0.772168
0.0119771
-0.0279032
0.773929
0.768863
-0.0837702
0.770534
-0.0503311
0.774492
-0.0868444
0.775079
-0.0355996
0.777856
-0.0664361
0.778606
-0.0336644
0.780011
-0.0280668
0.780232
-0.0389975
0.779311
0.0128979
-0.0286741
0.780082
0.773718
-0.0876327
0.776923
-0.0535358
0.7807
-0.0906222
0.782862
-0.0377617
0.784995
-0.0685689
0.786564
-0.0352329
0.787628
-0.0291311
0.787343
-0.0387124
0.786569
0.013672
-0.028187
0.786082
0.778652
-0.0926429
0.783335
-0.0582191
0.787101
-0.0943878
0.790841
-0.0415022
0.792387
-0.0701149
0.794946
-0.0377921
0.795433
-0.0296175
0.794854
-0.0381337
0.79398
0.0145462
-0.0263802
0.792173
0.78351
-0.0988807
0.78971
-0.0644193
0.793696
-0.0983736
0.798954
-0.0467595
0.800233
-0.0713939
0.803724
-0.0412839
0.80375
-0.0296426
0.802925
-0.0373091
0.801776
0.0156946
-0.0232574
0.798654
0.788328
-0.106461
0.796102
-0.072194
0.800473
-0.102744
0.807195
-0.053481
0.808536
-0.0727357
0.812932
-0.0456794
0.81255
-0.0292608
0.811697
-0.036456
0.809991
0.0174
-0.0188178
0.805552
0.793147
-0.115434
0.802626
-0.0816735
0.807462
-0.107579
0.815512
-0.0615315
0.817295
-0.0745187
0.822326
-0.0507105
0.821871
-0.0288056
0.820949
-0.0355335
0.818622
0.0197263
-0.0128506
0.812655
0.798188
-0.126003
0.809373
-0.0928583
0.814514
-0.112721
0.823914
-0.0709311
0.826279
-0.0768837
0.831964
-0.0563954
0.83105
-0.0278911
0.830635
-0.0351191
0.827288
0.0230736
-0.0054969
0.819934
0.803462
-0.138382
0.816205
-0.105601
0.821235
-0.117751
0.831991
-0.0816865
0.835138
-0.0800307
0.841389
-0.062647
0.840516
-0.027018
0.839919
-0.0345222
0.83497
0.028023
0.00239675
0.827076
0.808881
-0.153363
0.821872
-0.118592
0.827151
-0.123031
0.839025
-0.0935598
0.842047
-0.0830528
0.849684
-0.0702842
0.848861
-0.0261947
0.849798
-0.0354592
0.842826
0.034995
0.011396
0.833827
0.813059
-0.17029
0.825022
-0.130555
0.831369
-0.129378
0.844206
-0.106396
0.847325
-0.0861716
0.855084
-0.0780433
0.854379
-0.0254899
0.856629
-0.0377093
0.847177
0.0444464
0.018903
0.83967
0.813806
-0.186042
0.824614
-0.141363
0.834399
-0.139163
0.848074
-0.120072
0.853223
-0.0913207
0.861383
-0.0862033
0.863138
-0.0272448
0.863142
-0.037713
0.853408
0.0541804
0.0268176
0.845493
0.812228
-0.196014
0.823604
-0.152739
0.839953
-0.155511
0.851076
-0.131195
0.856425
-0.0966697
0.86549
-0.0952683
0.871373
-0.0331276
0.872332
-0.0386722
0.862439
0.0640733
0.0342028
0.855054
0.813384
-0.201294
0.837314
-0.17667
0.855232
-0.173429
0.857947
-0.13391
0.866636
-0.105359
0.878121
-0.106753
0.884495
-0.0395017
0.882098
-0.0362755
0.875593
0.0705791
0.0470584
0.862737
0.818865
-0.204411
0.852783
-0.210588
0.860775
-0.181421
0.858078
-0.131213
0.878827
-0.126108
0.883341
-0.111267
0.90002
-0.0561807
0.890206
-0.0264615
0.888132
0.0726527
0.0641618
0.871029
0.859196
-0.203236
0.877476
-0.228867
0.853328
-0.157274
0.845334
-0.123218
0.851442
-0.132217
0.842553
-0.102378
0.849877
-0.063505
0.824007
-0.000590993
0.833936
0.0627238
0.0908518
0.807246
0.832978
-0.174428
0.811331
-0.20722
0.760317
-0.10626
0.729641
-0.0925425
0.701118
-0.103694
0.672719
-0.0739789
0.654486
-0.0452718
0.631318
0.0225773
0.636134
0.0579071
0.096007
0.630979
0.709262
0.502042
0.395782
0.30324
0.199546
0.125567
0.0802957
0.102873
0.16078
0.256787
0.74652
0.101201
0.757718
0.0604606
0.785102
-0.201858
0.76132
0.124856
0.73197
0.375396
0.741406
-0.147682
0.761325
-0.473511
0.774885
-0.00434003
0.77998
0.248864
0.765135
-0.222866
0.742492
-0.74164
0.769816
-0.332105
0.803689
0.177213
0.815195
0.0195894
0.759779
-0.74293
0.727865
-1.23776
0.744585
-0.843577
0.715405
-0.442051
0.734695
0.970895
0.877004
0.752197
0.11713
0.767048
0.0456097
0.787229
-0.222039
0.761152
0.150933
0.737684
0.398864
0.737593
-0.147591
0.743693
-0.479612
0.764771
-0.0254177
0.799091
0.214544
0.800028
-0.223803
0.763769
-0.705381
0.772177
-0.340513
0.7927
0.15669
0.800122
0.0121681
0.760871
-0.70368
0.722852
-1.19974
0.718269
-0.838995
0.690875
-0.414658
0.725956
0.935814
0.838746
0.762314
0.128745
0.77326
0.034664
0.782356
-0.231135
0.761095
0.172195
0.745313
0.414645
0.737493
-0.13977
0.728762
-0.470881
0.750066
-0.0467218
0.805446
0.159163
0.826037
-0.244394
0.787098
-0.666442
0.774922
-0.328337
0.782708
0.148904
0.784598
0.0102777
0.751175
-0.670257
0.709858
-1.15842
0.690237
-0.819374
0.660651
-0.385071
0.709609
0.886856
0.791856
0.770439
0.138388
0.777508
0.0275958
0.780327
-0.233955
0.762039
0.190483
0.753498
0.423186
0.739258
-0.12553
0.711063
-0.442686
0.729721
-0.0653791
0.811324
0.0775601
0.855466
-0.288537
0.811071
-0.622046
0.775255
-0.292522
0.774503
0.149656
0.778984
0.00579707
0.743731
-0.635004
0.694921
-1.10961
0.661378
-0.785831
0.630576
-0.354269
0.69212
0.825312
0.739394
0.778347
0.146123
0.781968
0.0239743
0.776616
-0.228603
0.763213
0.203886
0.762593
0.423806
0.739237
-0.102174
0.69003
-0.39348
0.698986
-0.0743349
0.803995
-0.0274491
0.881928
-0.36647
0.845447
-0.585565
0.78798
-0.235055
0.765687
0.171949
0.76096
0.0105246
0.727369
-0.601413
0.674197
-1.05644
0.633985
-0.745618
0.605402
-0.325687
0.672967
0.757747
0.684635
0.78586
0.152436
0.784534
0.0253003
0.773533
-0.217602
0.765841
0.211578
0.771921
0.417726
0.74129
-0.0715434
0.666159
-0.318348
0.659073
-0.0672496
0.786903
-0.155279
0.898125
-0.477691
0.870191
-0.557631
0.798813
-0.163677
0.766353
0.204409
0.756552
0.0203262
0.717728
-0.56259
0.655161
-0.993876
0.609003
-0.699461
0.584986
-0.30167
0.652788
0.689946
0.63271
0.791994
0.159096
0.787977
0.0293172
0.772372
-0.201997
0.768162
0.215788
0.782029
0.403859
0.741184
-0.0306988
0.638041
-0.215205
0.612324
-0.0415329
0.746454
-0.289408
0.887066
-0.618303
0.882209
-0.552774
0.807866
-0.0893344
0.762106
0.250169
0.74102
0.0414121
0.695729
-0.517298
0.629057
-0.927204
0.581376
-0.65178
0.562352
-0.282646
0.628446
0.623852
0.584416
0.797975
0.166673
0.790987
0.0363052
0.77106
-0.18207
0.773627
0.213222
0.791097
0.386389
0.736399
0.0239994
0.616478
-0.0952847
0.563525
0.0114208
0.66873
-0.394613
0.830094
-0.779668
0.867322
-0.590002
0.808307
-0.0303201
0.759047
0.29943
0.730567
0.0698921
0.682502
-0.469233
0.608613
-0.853315
0.556099
-0.599265
0.538564
-0.265111
0.598447
0.563969
0.54123
0.802834
0.176494
0.794011
0.0451278
0.771124
-0.159184
0.780454
0.203892
0.797781
0.369062
0.73649
0.0852907
0.607907
0.0332981
0.508957
0.110371
0.558365
-0.444022
0.727245
-0.948548
0.814383
-0.67714
0.789434
-0.00537061
0.748288
0.340575
0.712862
0.105318
0.656171
-0.412542
0.579894
-0.777038
0.526968
-0.546339
0.50968
-0.247823
0.562777
0.510873
0.501631
0.807529
0.1889
0.793606
0.0590511
0.772317
-0.137895
0.791264
0.184945
0.801663
0.358663
0.739823
0.147131
0.604749
0.168372
0.461694
0.253427
0.466356
-0.448684
0.624006
-1.1062
0.745313
-0.798446
0.757146
-0.0172041
0.727998
0.369724
0.691219
0.142096
0.637012
-0.358335
0.558136
-0.698163
0.501149
-0.489352
0.479942
-0.226616
0.524597
0.466218
0.464741
0.809453
0.206523
0.79154
0.0769641
0.77882
-0.125176
0.803659
0.160106
0.808193
0.354129
0.755535
0.199789
0.60127
0.322637
0.441278
0.413419
0.446252
-0.453658
0.571051
-1.231
0.683259
-0.910653
0.71268
-0.0466258
0.69819
0.384214
0.665362
0.174925
0.608977
-0.30195
0.53109
-0.620276
0.474527
-0.432789
0.449769
-0.201858
0.4864
0.429587
0.42956
0.807676
0.232674
0.786696
0.097944
0.788463
-0.126942
0.802387
0.146182
0.81127
0.345246
0.781826
0.229233
0.61641
0.488053
0.467712
0.562117
0.470561
-0.456507
0.549525
-1.30996
0.638771
-0.9999
0.673626
-0.0814808
0.664285
0.393555
0.631042
0.208168
0.57923
-0.250138
0.505569
-0.546615
0.450233
-0.377453
0.422147
-0.173772
0.451542
0.400192
0.395471
0.803465
0.268879
0.7818
0.119609
0.799319
-0.144461
0.828751
0.11675
0.839499
0.334497
0.775215
0.293518
0.603391
0.659877
0.492936
0.672571
0.491376
-0.454947
0.539213
-1.3578
0.604684
-1.06537
0.636222
-0.113019
0.632845
0.396931
0.605412
0.235601
0.557255
-0.20198
0.485483
-0.474843
0.430373
-0.322343
0.398828
-0.142227
0.421309
0.377711
0.362765
0.791714
0.322659
0.798101
0.113222
0.809376
-0.155737
0.828242
0.0978852
0.851281
0.311458
0.766674
0.378124
0.607622
0.818929
0.530282
0.749911
0.51637
-0.441035
0.537644
-1.37907
0.58185
-1.10958
0.605764
-0.136933
0.598128
0.404567
0.568514
0.265215
0.524038
-0.157505
0.46055
-0.411355
0.410905
-0.272698
0.378654
-0.109976
0.395886
0.360478
0.331331
0.781456
0.396257
0.796397
0.09828
0.794679
-0.154019
0.814416
0.0781481
0.869835
0.256039
0.810111
0.437848
0.65992
0.969121
0.579356
0.830475
0.552841
-0.414521
0.548408
-1.37464
0.565801
-1.12697
0.578674
-0.149807
0.569357
0.413884
0.541053
0.29352
0.501074
-0.117527
0.442448
-0.352728
0.395772
-0.226022
0.362743
-0.0769464
0.375075
0.348146
0.30168
0.776596
0.482398
0.767285
0.107591
0.772097
-0.158831
0.842802
0.00744298
0.899812
0.199029
0.839802
0.497859
0.697235
1.11169
0.614492
0.913218
0.580149
-0.380177
0.560022
-1.35451
0.558642
-1.12559
0.557901
-0.149066
0.542075
0.429711
0.512513
0.323082
0.475037
-0.080051
0.423077
-0.300768
0.382007
-0.184953
0.349907
-0.0448468
0.358347
0.339706
0.274053
0.773
0.580427
0.718052
0.162539
0.737072
-0.177852
0.875785
-0.13127
0.926746
0.148069
0.858199
0.566405
0.723044
1.24684
0.642436
0.993826
0.597406
-0.335148
0.565633
-1.32274
0.551751
-1.11171
0.541516
-0.138832
0.52192
0.449307
0.490209
0.354793
0.453444
-0.0432862
0.406238
-0.253562
0.370139
-0.148854
0.339798
-0.0145058
0.344875
0.334629
0.248916
0.694953
0.692721
0.53657
0.320921
0.579639
-0.220921
0.844954
-0.396584
0.917125
0.0758979
0.84294
0.64059
0.724592
1.36519
0.657219
1.0612
0.609063
-0.286991
0.572051
-1.28573
0.550239
-1.08989
0.531369
-0.119962
0.506371
0.474305
0.471499
0.389665
0.434732
-0.00651987
0.391477
-0.210306
0.360153
-0.11753
0.332017
0.0136302
0.334023
0.332623
0.226585
0.597942
0.725758
0.260116
0.658747
0.319862
-0.280668
0.728085
-0.804807
0.875683
-0.0716999
0.797647
0.718626
0.706722
1.45612
0.667809
1.10011
0.621511
-0.240693
0.578378
-1.24259
0.550639
-1.06216
0.525661
-0.0949834
0.496745
0.503222
0.458039
0.428371
0.419569
0.03195
0.379325
-0.170063
0.352486
-0.0906912
0.326562
0.0395544
0.325326
0.333859
0.207402
0.172278
0.810267
-0.0616619
0.892687
0.17215
-0.514479
0.560409
-1.19307
0.821656
-0.332947
0.776182
0.7641
0.710608
1.52169
0.680802
1.12992
0.631403
-0.191295
0.584118
-1.19531
0.554683
-1.03272
0.526148
-0.0664489
0.493773
0.535597
0.450151
0.471994
0.408965
0.0731356
0.370519
-0.131617
0.347358
-0.0675296
0.323203
0.0637094
0.318446
0.338615
0.191365
0.0209317
0.789335
0.000748678
0.91287
0.11029
-0.62402
0.199851
-1.28263
0.311989
-0.445086
0.305771
0.770318
0.286942
1.54052
0.275663
1.1412
0.256052
-0.171684
0.236087
-1.17534
0.223615
-1.02025
0.212013
-0.0548467
0.198237
0.549373
0.179468
0.490763
0.161883
0.0907204
0.146825
-0.116559
0.138264
-0.0589689
0.129154
0.0728192
0.12621
0.341559
0.186048
0.00882227
0.780513
0.0232048
0.898488
0.143241
-0.744056
0.209549
-1.34894
0.30468
-0.540216
0.302847
0.77215
0.287535
1.55583
0.277389
1.15134
0.257968
-0.152263
0.23815
-1.15553
0.225113
-1.00721
0.213335
-0.0430685
0.198855
0.563853
0.17948
0.510138
0.161286
0.108914
0.146242
-0.101514
0.138045
-0.0507721
0.129148
0.0817164
0.125765
0.344942
0.181417
0.0146154
0.765898
0.0583316
0.854771
0.166687
-0.852411
0.21634
-1.39859
0.297626
-0.621502
0.301327
0.768449
0.289341
1.56782
0.278849
1.16184
0.26018
-0.133595
0.240342
-1.13569
0.226664
-0.993535
0.214738
-0.0311419
0.199944
0.578647
0.179868
0.530214
0.161034
0.127748
0.145911
-0.0863918
0.138043
-0.0429037
0.129277
0.0904824
0.125416
0.348803
0.177325
0.0260822
0.739815
0.112929
0.767924
0.201938
-0.94142
0.227811
-1.42446
0.291865
-0.685557
0.300003
0.760311
0.290817
1.577
0.280121
1.17253
0.262882
-0.116356
0.243199
-1.116
0.228557
-0.978892
0.216431
-0.0190163
0.201346
0.593732
0.18062
0.55094
0.161114
0.147254
0.145863
-0.0711407
0.138246
-0.0352869
0.129551
0.0991778
0.125288
0.353066
0.173661
0.0360952
0.70372
0.163915
0.640104
0.220491
-0.997995
0.234443
-1.43841
0.286576
-0.73769
0.299013
0.747875
0.292075
1.58394
0.281201
1.18341
0.265766
-0.100921
0.246402
-1.09664
0.230677
-0.963166
0.218274
-0.00661364
0.202936
0.609071
0.181687
0.572188
0.16152
0.167421
0.146115
-0.0557361
0.138666
-0.0278372
0.129985
0.107858
0.125417
0.357633
0.170313
0.0493791
0.654341
0.218736
0.470747
0.244845
-1.0241
0.241818
-1.43539
0.281752
-0.777624
0.29757
0.732056
0.292595
1.58892
0.281999
1.194
0.269105
-0.0880263
0.250189
-1.07772
0.233156
-0.946134
0.220408
0.00613484
0.204824
0.624654
0.183091
0.593922
0.162295
0.188217
0.146688
-0.040129
0.139314
-0.0204638
0.130604
0.116569
0.125845
0.362393
0.16719
0.0576943
0.596647
0.258673
0.269768
0.26008
-1.02551
0.245464
-1.42077
0.276989
-0.80915
0.295897
0.713149
0.292377
1.59244
0.282482
1.2039
0.272731
-0.0782753
0.254441
-1.05943
0.235896
-0.927589
0.22255
0.019481
0.206752
0.640452
0.18473
0.615943
0.16345
0.209497
0.147597
-0.0242752
0.14021
-0.0130775
0.13144
0.125339
0.126615
0.367217
0.164219
0.0350615
0.561585
0.280478
0.0243521
0.271153
-1.01619
0.247072
-1.39669
0.271444
-0.833522
0.293276
0.691316
0.291476
1.59424
0.282591
1.21278
0.27666
-0.0723444
0.259296
-1.04207
0.239041
-0.907333
0.225081
0.0334404
0.209021
0.656512
0.186688
0.638277
0.164979
0.231206
0.148857
-0.0081529
0.141373
-0.0055938
0.132531
0.134181
0.127775
0.371973
0.161346
0.0390164
0.522569
0.284485
-0.221117
0.279869
-1.01157
0.247418
-1.36424
0.265906
-0.85201
0.28963
0.667592
0.288763
1.5951
0.282263
1.21928
0.280835
-0.0709166
0.264719
-1.02595
0.242306
-0.88492
0.227345
0.0484013
0.211093
0.672764
0.188761
0.660609
0.166831
0.253136
0.150448
0.00823061
0.142837
0.00201707
0.133915
0.143103
0.129366
0.376522
0.158526
0.142379
0.38019
0.289914
-0.368652
0.285247
-1.0069
0.247033
-1.32602
0.259094
-0.86407
0.285618
0.641068
0.285268
1.59545
0.281898
1.22265
0.284689
-0.0737073
0.270158
-1.01142
0.246461
-0.861223
0.23024
0.0646224
0.213532
0.689472
0.19123
0.682911
0.169051
0.275314
0.152394
0.024888
0.144526
0.00988468
0.135649
0.151981
0.13146
0.380711
0.155767
0.771533
0.196535
-0.587879
1.02298
-0.620098
0.992417
-0.976341
0.810303
-1.14391
0.815712
-0.86948
0.907704
0.549076
0.920258
1.5829
0.942153
1.20076
0.990277
-0.121831
0.948075
-0.969222
0.852197
-0.765344
0.785024
0.131795
0.730011
0.744484
0.656381
0.756541
0.582731
0.348964
0.526871
0.080748
0.496996
0.0397603
0.466758
0.182219
0.457601
0.389868
0.145638
1.19905
0.0794394
-1.08196
1.17943
-0.600478
0.974532
-0.771438
0.706195
-0.875573
0.676103
-0.839388
0.791968
0.433211
0.854789
1.52008
0.95901
1.09654
1.0559
-0.218725
1.03294
-0.946257
0.927471
-0.659876
0.838873
0.220394
0.765171
0.818186
0.686046
0.835667
0.621671
0.413338
0.576767
0.125653
0.549127
0.0673996
0.520799
0.210547
0.51372
0.396948
0.14037
1.2323
-0.0337475
-1.11911
1.07084
-0.439023
0.851311
-0.551909
0.63106
-0.655322
0.522019
-0.730346
0.612482
0.342748
0.783724
1.34884
0.99938
0.880879
1.10112
-0.320462
1.06972
-0.914864
0.954077
-0.544229
0.84853
0.32594
0.776394
0.890322
0.703142
0.908919
0.644011
0.472469
0.609515
0.160149
0.587417
0.0894977
0.568435
0.229529
0.577869
0.387513
0.131634
1.18753
-0.05695
-1.16433
1.12628
-0.377773
1.12166
-0.547292
0.955078
-0.488738
0.639999
-0.415267
0.608865
0.373882
0.859627
1.09807
1.08166
0.658844
1.10576
-0.344558
1.07645
-0.88556
1.00907
-0.476846
0.911481
0.42353
0.810821
0.990982
0.713008
1.00673
0.660818
0.52466
0.660904
0.160063
0.660502
0.0898994
0.656906
0.233125
0.68338
0.361039
0.123101
1.16961
-0.0813845
-1.14517
1.08555
-0.293717
0.963663
-0.425404
0.83465
-0.359725
0.653814
-0.234431
0.715283
0.312412
1.009
0.80436
1.15041
0.517427
1.09279
-0.286937
1.02578
-0.818543
0.9685
-0.41957
0.89633
0.495699
0.799206
1.08811
0.698172
1.10777
0.651247
0.571586
0.675727
0.135583
0.707372
0.0582539
0.735067
0.205431
0.787495
0.308611
0.109438
1.17053
-0.110371
-1.14154
1.09668
-0.219869
0.971243
-0.299968
0.893903
-0.282385
0.813403
-0.153931
0.896632
0.229183
1.11367
0.587322
1.17451
0.456592
1.09875
-0.211177
1.02806
-0.747861
0.983072
-0.374578
0.910476
0.568295
0.798841
1.19974
0.712412
1.19419
0.687915
0.596083
0.717782
0.105716
0.762282
0.0137538
0.812085
0.155629
0.878317
0.242379
0.0955907
1.12269
-0.10101
-1.13205
1.08367
-0.180852
1.01323
-0.229519
0.945221
-0.214381
0.88467
-0.0933803
0.969698
0.144156
1.13133
0.42569
1.19555
0.392372
1.13614
-0.151764
1.02469
-0.636412
0.941529
-0.29142
0.86977
0.640054
0.778898
1.29061
0.742068
1.23102
0.748704
0.589447
0.762034
0.092385
0.800081
-0.0242932
0.872305
0.0834049
0.942627
0.172057
0.0884118
1.10947
-0.0928762
-1.1176
1.08312
-0.154501
1.00331
-0.149709
0.950302
-0.161375
0.947285
-0.0903627
0.979047
0.112394
1.06869
0.336052
1.16516
0.295895
1.16068
-0.147281
1.06246
-0.538195
0.959983
-0.18894
0.854696
0.74534
0.779441
1.36587
0.787767
1.2227
0.818634
0.55858
0.833333
0.0776855
0.859112
-0.0500721
0.917027
0.0254902
0.978692
0.110392
0.0820306
1.09125
-0.0784183
-1.10571
1.06637
-0.129616
1.00985
-0.0931896
0.981571
-0.133098
0.978177
-0.0869686
0.975548
0.115023
1.02348
0.288122
1.08966
0.229713
1.04542
-0.103041
0.945852
-0.438627
0.861752
-0.10484
0.799601
0.807492
0.771166
1.3943
0.824519
1.16934
0.887051
0.496048
0.908253
0.0564839
0.91987
-0.0616895
0.95629
-0.0109294
1.00303
0.0636552
0.0787975
1.07393
-0.0606548
-1.09169
1.05335
-0.109039
1.02377
-0.0636074
0.984335
-0.0936638
0.974758
-0.0773912
0.987838
0.101943
1.02336
0.252596
1.07188
0.181197
1.03447
-0.0656282
0.90814
-0.3123
0.799499
0.00380079
0.739
0.867991
0.760159
1.37314
0.864247
1.06526
0.947156
0.413139
0.970064
0.033576
0.972097
-0.0637225
0.988304
-0.027137
1.01829
0.0336708
0.0788081
1.06631
-0.0463457
-1.08062
1.04344
-0.0861713
1.02256
-0.0427242
0.997721
-0.0688235
0.983145
-0.0628147
0.987634
0.0974532
1.00188
0.238354
1.0475
0.135573
1.03
-0.0481286
0.886057
-0.168357
0.72657
0.163287
0.679181
0.91538
0.766224
1.2861
0.913602
0.917879
1.0071
0.319639
1.02745
0.0132281
1.01899
-0.0552632
1.01484
-0.0229876
1.0299
0.0186102
0.0823891
1.05595
-0.0337224
-1.06857
1.03593
-0.0661504
1.02269
-0.0294898
0.999555
-0.0456856
0.98147
-0.0447297
0.993675
0.0852488
1.01102
0.22101
1.02202
0.12457
0.98968
-0.0157862
0.862193
-0.0408702
0.698603
0.326877
0.676029
0.937954
0.818985
1.14315
0.988107
0.748757
1.0678
0.239948
1.06772
0.0133064
1.04837
-0.0359161
1.0353
-0.00991136
1.0373
0.0166094
0.0910045
1.04958
-0.0239021
-1.0594
1.03249
-0.0490585
1.01951
-0.0165046
1.00517
-0.0313537
0.984964
-0.0245193
0.990907
0.0793056
1.0079
0.204016
1.01287
0.119601
0.973174
0.0239097
0.86299
0.0693132
0.734544
0.455323
0.755757
0.916741
0.923806
0.975097
1.06806
0.604504
1.11224
0.195763
1.09544
0.0301111
1.06874
-0.00921394
1.0452
0.0136231
1.04045
0.0213575
0.101545
1.04044
-0.014456
-1.04989
1.02785
-0.0364694
1.01859
-0.00723923
1.00458
-0.0173484
0.9882
-0.00813828
0.99296
0.0745454
1.009
0.187974
1.00448
0.124124
0.958433
0.0699571
0.878656
0.14909
0.811614
0.522366
0.879286
0.849069
1.03215
0.822231
1.12909
0.507569
1.13825
0.186603
1.1031
0.0652584
1.07546
0.0184248
1.05367
0.0354099
1.04063
0.0344032
0.116018
1.03444
-0.00651267
-1.04238
1.02506
-0.0270884
1.01692
0.000897039
1.00595
-0.0063815
0.990324
0.00749073
0.993446
0.0714241
1.00695
0.174471
1.00097
0.130106
0.955663
0.11526
0.899047
0.205706
0.887249
0.534163
0.978828
0.75749
1.09818
0.702881
1.15235
0.453393
1.13687
0.202086
1.10175
0.100385
1.07898
0.0411866
1.05076
0.0636373
1.03731
0.047853
0.129068
1.02753
0.000465637
-1.03451
1.02057
-0.0201276
1.01625
0.00521485
1.0063
0.00356714
0.993893
0.0198981
0.996207
0.0691106
1.00528
0.165395
0.999555
0.135833
0.960068
0.154747
0.922862
0.242912
0.938214
0.518811
1.02904
0.666666
1.11584
0.616082
1.14474
0.424494
1.126
0.220823
1.09122
0.135165
1.07383
0.0585743
1.05123
0.0862338
1.03446
0.0646293
0.143216
1.02218
0.00646304
-1.02818
1.01679
-0.014733
1.01478
0.0072191
1.0072
0.0111528
0.99667
0.0304278
0.998034
0.0677463
1.00481
0.158617
0.999105
0.14154
0.968392
0.185459
0.944672
0.266633
0.967103
0.49638
1.04247
0.591298
1.10491
0.553643
1.12443
0.404976
1.10655
0.238702
1.08023
0.161479
1.06808
0.0707325
1.04465
0.109661
1.03185
0.0774303
0.155444
1.01723
0.0107847
-1.02155
1.01271
-0.0102146
1.01275
0.00718249
1.0084
0.0155004
0.999818
0.039012
1.00089
0.0666746
1.00518
0.154324
1.00063
0.146096
0.977565
0.208521
0.963768
0.28043
0.982509
0.477639
1.04001
0.533799
1.08314
0.510508
1.09722
0.390896
1.08742
0.248508
1.06523
0.18366
1.05999
0.0759814
1.03964
0.130008
1.02691
0.0901625
0.165463
1.01351
0.0128503
-1.01558
1.00898
-0.00567889
1.01026
0.00590176
1.00968
0.0160759
1.00241
0.0462882
1.00338
0.0656982
1.00679
0.150916
1.00393
0.148955
0.986688
0.225765
0.977575
0.289543
0.990331
0.464882
1.03225
0.49188
1.06519
0.477571
1.07665
0.379431
1.07048