x,y,z,p
0,0,0,8.48763e-05
0,0.1,0,0.000182533
0,0.2,0,0.000280189
0,0.3,0,0.000394589
0,0.4,0,0.000525732
0,0.5,0,0.000656876
0,0.6,0,0.0007871
0,0.7,0,0.000917325
0,0.8,0,0.00104687
0,0.9,0,0.00117572
0,1,0,0.00130458
0,1.1,0,0.00143162
0,1.2,0,0.00155865
0,1.3,0,0.00168456
0,1.4,0,0.00180934
0,1.5,0,0.00193411
0,1.6,0,0.00205617
0,1.7,0,0.00217822
0,1.8,0,0.00229869
0,1.9,0,0.00241758
0,2,0,0.00253647
0,2.1,0,0.00265175
0,2.2,0,0.00276702
0,2.3,0,0.00288025
0,2.4,0,0.00299144
0,2.5,0,0.00310264
0,2.6,0,0.00320932
0,2.7,0,0.00331599
0,2.8,0,0.00342018
0,2.9,0,0.00352189
0,3,0,0.0036236
0,3.1,0,0.00371989
0,3.2,0,0.00381618
0,3.3,0,0.00390956
0,3.4,0,0.00400001
0,3.5,0,0.00409046
0,3.6,0,0.00417465
0,3.7,0,0.00425884
0,3.8,0,0.00433971
0,3.9,0,0.00441724
0,4,0,0.00449477
0,4.1,0,0.00456526
0,4.2,0,0.00463575
0,4.3,0,0.00470253
0,4.4,0,0.00476559
0,4.5,0,0.00482866
0,4.6,0,0.00488394
0,4.7,0,0.00493923
0,4.8,0,0.00498632
0,4.9,0,0.00502521
0,5,0,0.00506411
0,5.1,0,0.005127
0,5.2,0,0.0051651
0,5.3,0,0.00519984
0,5.4,0,0.00523115
0,5.5,0,0.00525902
0,5.6,0,0.0052834
0,5.7,0,0.0053043
0,5.8,0,0.00532167
0,5.9,0,0.00533553
0,6,0,0.00534584
0,6.1,0,0.00535259
0,6.2,0,0.00535581
0,6.3,0,0.0053555
0,6.4,0,0.00535164
0,6.5,0,0.00534426
0,6.6,0,0.00533336
0,6.7,0,0.00531898
0,6.8,0,0.00530113
0,6.9,0,0.00527986
0,7,0,0.00523963
0,7.1,0,0.00521362
0,7.2,0,0.00518761
0,7.3,0,0.00515942
0,7.4,0,0.00511882
0,7.5,0,0.00507823
0,7.6,0,0.00503491
0,7.7,0,0.00498523
0,7.8,0,0.00493554
0,7.9,0,0.00488199
0,8,0,0.00482371
0,8.1,0,0.00476544
0,8.2,0,0.00470231
0,8.3,0,0.00463595
0,8.4,0,0.00456959
0,8.5,0,0.00449756
0,8.6,0,0.00442364
0,8.7,0,0.00434973
0,8.8,0,0.0042695
0,8.9,0,0.00418858
0,9,0,0.00410733
0,9.1,0,0.00401997
0,9.2,0,0.0039326
0,9.3,0,0.00384406
0,9.4,0,0.00375082
0,9.5,0,0.00365758
0,9.6,0,0.00356248
0,9.7,0,0.00346393
0,9.8,0,0.00336537
0,9.9,0,0.00326444
0,10,0,0.00316112
0,10.1,0,0.00305781
0,10.2,0,0.00295175
0,10.3,0,0.00284422
0,10.4,0,0.00273668
0,10.5,0,0.00262619
0,10.6,0,0.00251496
0,10.7,0,0.00240373
0,10.8,0,0.00228946
0,10.9,0,0.00217504
0,11,0,0.00206035
0,11.1,0,0.00194323
0,11.2,0,0.00182611
0,11.3,0,0.00170844
0,11.4,0,0.0015891
0,11.5,0,0.00146976
0,11.6,0,0.00134971
0,11.7,0,0.0012286
0,11.8,0,0.00110749
0,11.9,0,0.00098566
0,12,0,0.000863234
0,12.1,0,0.000740807
0,12.2,0,0.000617768
0,12.3,0,0.000494465
0,12.4,0,0.000371163
0,12.5,0,0.000274505
0,12.6,0,0.000182549
0,12.7,0,9.05928e-05
0.1,0,0,6.60149e-05
0.1,0.1,0,0.000163738
0.1,0.2,0,0.000263313
0.1,0.3,0,0.000394799
0.1,0.4,0,0.000525923
0.1,0.5,0,0.000657634
0.1,0.6,0,0.00078742
0.1,0.7,0,0.000917725
0.1,0.8,0,0.00104738
0.1,0.9,0,0.00117616
0.1,1,0,0.00130607
0.1,1.1,0,0.00143218
0.1,1.2,0,0.00155935
0.1,1.3,0,0.00168537
0.1,1.4,0,0.00181003
0.1,1.5,0,0.00193636
0.1,1.6,0,0.00205698
0.1,1.7,0,0.00217922
0.1,1.8,0,0.0022998
0.1,1.9,0,0.00241853
0.1,2,0,0.00253947
0.1,2.1,0,0.00265281
0.1,2.2,0,0.00276832
0.1,2.3,0,0.00288166
0.1,2.4,0,0.00299264
0.1,2.5,0,0.00310639
0.1,2.6,0,0.00321063
0.1,2.7,0,0.00331759
0.1,2.8,0,0.00342189
0.1,2.9,0,0.00352333
0.1,3,0,0.00362806
0.1,3.1,0,0.00372145
0.1,3.2,0,0.00381807
0.1,3.3,0,0.00391155
0.1,3.4,0,0.00400169
0.1,3.5,0,0.00409557
0.1,3.6,0,0.00417645
0.1,3.7,0,0.004261
0.1,3.8,0,0.00434196
0.1,3.9,0,0.00441914
0.1,4,0,0.00450041
0.1,4.1,0,0.00456727
0.1,4.2,0,0.00463814
0.1,4.3,0,0.00470502
0.1,4.4,0,0.00476771
0.1,4.5,0,0.00483469
0.1,4.6,0,0.00488615
0.1,4.7,0,0.00494183
0.1,4.8,0,0.00499315
0.1,4.9,0,0.00503211
0.1,5,0,0.00507034
0.1,5.1,0,0.00513323
0.1,5.2,0,0.00517137
0.1,5.3,0,0.00520613
0.1,5.4,0,0.00523747
0.1,5.5,0,0.00526535
0.1,5.6,0,0.00528975
0.1,5.7,0,0.00531064
0.1,5.8,0,0.00532802
0.1,5.9,0,0.00534187
0.1,6,0,0.00535216
0.1,6.1,0,0.00535891
0.1,6.2,0,0.00536211
0.1,6.3,0,0.00536176
0.1,6.4,0,0.00535787
0.1,6.5,0,0.00535045
0.1,6.6,0,0.00533951
0.1,6.7,0,0.00532507
0.1,6.8,0,0.00530716
0.1,6.9,0,0.00528582
0.1,7,0,0.00524557
0.1,7.1,0,0.0052199
0.1,7.2,0,0.00519389
0.1,7.3,0,0.00516459
0.1,7.4,0,0.00512178
0.1,7.5,0,0.00508119
0.1,7.6,0,0.00503919
0.1,7.7,0,0.00498803
0.1,7.8,0,0.00493869
0.1,7.9,0,0.00488543
0.1,8,0,0.00482635
0.1,8.1,0,0.00476902
0.1,8.2,0,0.00470493
0.1,8.3,0,0.00463843
0.1,8.4,0,0.00457358
0.1,8.5,0,0.00449987
0.1,8.6,0,0.00442595
0.1,8.7,0,0.00435409
0.1,8.8,0,0.00427163
0.1,8.9,0,0.00419071
0.1,9,0,0.00411161
0.1,9.1,0,0.00402192
0.1,9.2,0,0.00393455
0.1,9.3,0,0.00384748
0.1,9.4,0,0.00375259
0.1,9.5,0,0.00365935
0.1,9.6,0,0.00356509
0.1,9.7,0,0.00346552
0.1,9.8,0,0.00336737
0.1,9.9,0,0.0032663
0.1,10,0,0.00316255
0.1,10.1,0,0.00306
0.1,10.2,0,0.002953
0.1,10.3,0,0.00284547
0.1,10.4,0,0.00273898
0.1,10.5,0,0.00262728
0.1,10.6,0,0.00251605
0.1,10.7,0,0.00240603
0.1,10.8,0,0.0022904
0.1,10.9,0,0.00217598
0.1,11,0,0.00206219
0.1,11.1,0,0.00194401
0.1,11.2,0,0.00182689
0.1,11.3,0,0.0017097
0.1,11.4,0,0.00158973
0.1,11.5,0,0.00147042
0.1,11.6,0,0.0013505
0.1,11.7,0,0.00122909
0.1,11.8,0,0.00110813
0.1,11.9,0,0.000986093
0.1,12,0,0.000863582
0.1,12.1,0,0.000741319
0.1,12.2,0,0.000617975
0.1,12.3,0,0.000494672
0.1,12.4,0,0.000371466
0.1,12.5,0,0.000254445
0.1,12.6,0,0.000162489
0.1,12.7,0,7.04611e-05
0.2,0,0,4.71535e-05
0.2,0.1,0,0.00014493
0.2,0.2,0,0.000263698
0.2,0.3,0,0.000395184
0.2,0.4,0,0.000526228
0.2,0.5,0,0.000658392
0.2,0.6,0,0.000787827
0.2,0.7,0,0.000918854
0.2,0.8,0,0.0010485
0.2,0.9,0,0.00117681
0.2,1,0,0.00130757
0.2,1.1,0,0.00143293
0.2,1.2,0,0.00156122
0.2,1.3,0,0.00168724
0.2,1.4,0,0.00181103
0.2,1.5,0,0.0019386
0.2,1.6,0,0.00205809
0.2,1.7,0,0.00218184
0.2,1.8,0,0.00230243
0.2,1.9,0,0.00241988
0.2,2,0,0.00254247
0.2,2.1,0,0.00265427
0.2,2.2,0,0.00277169
0.2,2.3,0,0.00288504
0.2,2.4,0,0.00299434
0.2,2.5,0,0.00311014
0.2,2.6,0,0.00321244
0.2,2.7,0,0.0033217
0.2,2.8,0,0.003426
0.2,2.9,0,0.00352538
0.2,3,0,0.00363252
0.2,3.1,0,0.0037236
0.2,3.2,0,0.00382287
0.2,3.3,0,0.00391635
0.2,3.4,0,0.00400406
0.2,3.5,0,0.00410068
0.2,3.6,0,0.00417891
0.2,3.7,0,0.00426639
0.2,3.8,0,0.00434735
0.2,3.9,0,0.00442179
0.2,4,0,0.00450604
0.2,4.1,0,0.00457
0.2,4.2,0,0.00464399
0.2,4.3,0,0.00471086
0.2,4.4,0,0.00477061
0.2,4.5,0,0.00484072
0.2,4.6,0,0.00488912
0.2,4.7,0,0.00494803
0.2,4.8,0,0.00499934
0.2,4.9,0,0.00503888
0.2,5,0,0.00507657
0.2,5.1,0,0.00513946
0.2,5.2,0,0.00517764
0.2,5.3,0,0.00521243
0.2,5.4,0,0.00524378
0.2,5.5,0,0.00527168
0.2,5.6,0,0.00529609
0.2,5.7,0,0.00531699
0.2,5.8,0,0.00533437
0.2,5.9,0,0.00534821
0.2,6,0,0.00535849
0.2,6.1,0,0.00536522
0.2,6.2,0,0.0053684
0.2,6.3,0,0.00536803
0.2,6.4,0,0.0053641
0.2,6.5,0,0.00535664
0.2,6.6,0,0.00534565
0.2,6.7,0,0.00533116
0.2,6.8,0,0.00531319
0.2,6.9,0,0.00529177
0.2,7,0,0.00525152
0.2,7.1,0,0.00522604
0.2,7.2,0,0.0051999
0.2,7.3,0,0.00517045
0.2,7.4,0,0.00512527
0.2,7.5,0,0.00508651
0.2,7.6,0,0.00504479
0.2,7.7,0,0.00499083
0.2,7.8,0,0.00494409
0.2,7.9,0,0.00489083
0.2,8,0,0.00482899
0.2,8.1,0,0.00477422
0.2,8.2,0,0.00471013
0.2,8.3,0,0.00464097
0.2,8.4,0,0.00457857
0.2,8.5,0,0.00450436
0.2,8.6,0,0.0044289
0.2,8.7,0,0.00435883
0.2,8.8,0,0.00427528
0.2,8.9,0,0.00419401
0.2,9,0,0.00411609
0.2,9.1,0,0.00402473
0.2,9.2,0,0.00393814
0.2,9.3,0,0.00385166
0.2,9.4,0,0.00375462
0.2,9.5,0,0.00366316
0.2,9.6,0,0.00356895
0.2,9.7,0,0.00346711
0.2,9.8,0,0.00337088
0.2,9.9,0,0.00326981
0.2,10,0,0.00316397
0.2,10.1,0,0.00306316
0.2,10.2,0,0.00295611
0.2,10.3,0,0.00284688
0.2,10.4,0,0.00274176
0.2,10.5,0,0.00262961
0.2,10.6,0,0.00251759
0.2,10.7,0,0.00240844
0.2,10.8,0,0.00229207
0.2,10.9,0,0.00217755
0.2,11,0,0.00206423
0.2,11.1,0,0.00194512
0.2,11.2,0,0.00182841
0.2,11.3,0,0.00171138
0.2,11.4,0,0.00159038
0.2,11.5,0,0.00147175
0.2,11.6,0,0.00135183
0.2,11.7,0,0.00122958
0.2,11.8,0,0.00110912
0.2,11.9,0,0.000987083
0.2,12,0,0.00086393
0.2,12.1,0,0.000741979
0.2,12.2,0,0.000618587
0.2,12.3,0,0.000494902
0.2,12.4,0,0.000371798
0.2,12.5,0,0.000247802
0.2,12.6,0,0.000142399
0.2,12.7,0,5.03293e-05
0.3,0,0,2.82921e-05
0.3,0.1,0,0.000131823
0.3,0.2,0,0.000264083
0.3,0.3,0,0.00039557
0.3,0.4,0,0.000527044
0.3,0.5,0,0.00065915
0.3,0.6,0,0.000788828
0.3,0.7,0,0.000919982
0.3,0.8,0,0.00104963
0.3,0.9,0,0.00117852
0.3,1,0,0.00130907
0.3,1.1,0,0.00143483
0.3,1.2,0,0.00156309
0.3,1.3,0,0.00168911
0.3,1.4,0,0.00181363
0.3,1.5,0,0.00194085
0.3,1.6,0,0.00206087
0.3,1.7,0,0.00218446
0.3,1.8,0,0.00230505
0.3,1.9,0,0.00242338
0.3,2,0,0.00254547
0.3,2.1,0,0.00265796
0.3,2.2,0,0.00277507
0.3,2.3,0,0.00288841
0.3,2.4,0,0.00299874
0.3,2.5,0,0.00311388
0.3,2.6,0,0.00321702
0.3,2.7,0,0.00332581
0.3,2.8,0,0.00343012
0.3,2.9,0,0.00353064
0.3,3,0,0.00363699
0.3,3.1,0,0.00372903
0.3,3.2,0,0.00382767
0.3,3.3,0,0.00392115
0.3,3.4,0,0.0040101
0.3,3.5,0,0.00410579
0.3,3.6,0,0.00418509
0.3,3.7,0,0.00427178
0.3,3.8,0,0.00435274
0.3,3.9,0,0.00442848
0.3,4,0,0.00451168
0.3,4.1,0,0.00457679
0.3,4.2,0,0.00464983
0.3,4.3,0,0.00471671
0.3,4.4,0,0.00477776
0.3,4.5,0,0.00484675
0.3,4.6,0,0.00489635
0.3,4.7,0,0.00495423
0.3,4.8,0,0.00500554
0.3,4.9,0,0.0050449
0.3,5,0,0.0050828
0.3,5.1,0,0.00514569
0.3,5.2,0,0.00518391
0.3,5.3,0,0.00521872
0.3,5.4,0,0.0052501
0.3,5.5,0,0.00527801
0.3,5.6,0,0.00530243
0.3,5.7,0,0.00532334
0.3,5.8,0,0.00534072
0.3,5.9,0,0.00535455
0.3,6,0,0.00536483
0.3,6.1,0,0.00537154
0.3,6.2,0,0.0053747
0.3,6.3,0,0.00537429
0.3,6.4,0,0.00537033
0.3,6.5,0,0.00536283
0.3,6.6,0,0.0053518
0.3,6.7,0,0.00533725
0.3,6.8,0,0.00531922
0.3,6.9,0,0.00529772
0.3,7,0,0.00525746
0.3,7.1,0,0.00523195
0.3,7.2,0,0.00520576
0.3,7.3,0,0.00517631
0.3,7.4,0,0.00513197
0.3,7.5,0,0.00509212
0.3,7.6,0,0.0050504
0.3,7.7,0,0.00499772
0.3,7.8,0,0.00494949
0.3,7.9,0,0.00489623
0.3,8,0,0.00483562
0.3,8.1,0,0.00477942
0.3,8.2,0,0.00471533
0.3,8.3,0,0.00464724
0.3,8.4,0,0.00458355
0.3,8.5,0,0.00450934
0.3,8.6,0,0.00443428
0.3,8.7,0,0.00436357
0.3,8.8,0,0.00428002
0.3,8.9,0,0.00419849
0.3,9,0,0.00412056
0.3,9.1,0,0.00402956
0.3,9.2,0,0.00394233
0.3,9.3,0,0.00385584
0.3,9.4,0,0.00375962
0.3,9.5,0,0.00366702
0.3,9.6,0,0.0035728
0.3,9.7,0,0.00347189
0.3,9.8,0,0.0033744
0.3,9.9,0,0.00327333
0.3,10,0,0.00316821
0.3,10.1,0,0.00306631
0.3,10.2,0,0.00295926
0.3,10.3,0,0.00285041
0.3,10.4,0,0.00274454
0.3,10.5,0,0.00263239
0.3,10.6,0,0.00252026
0.3,10.7,0,0.00241085
0.3,10.8,0,0.00229447
0.3,10.9,0,0.00217959
0.3,11,0,0.00206627
0.3,11.1,0,0.00194737
0.3,11.2,0,0.00183008
0.3,11.3,0,0.00171306
0.3,11.4,0,0.00159239
0.3,11.5,0,0.00147308
0.3,11.6,0,0.00135316
0.3,11.7,0,0.00123108
0.3,11.8,0,0.00111011
0.3,11.9,0,0.000988073
0.3,12,0,0.000864928
0.3,12.1,0,0.000742639
0.3,12.2,0,0.000619247
0.3,12.3,0,0.000495378
0.3,12.4,0,0.000372131
0.3,12.5,0,0.000248134
0.3,12.6,0,0.000123877
0.3,12.7,0,3.01976e-05
0.4,0,0,9.4307e-06
0.4,0.1,0,0.000132141
0.4,0.2,0,0.000264441
0.4,0.3,0,0.000396181
0.4,0.4,0,0.000527996
0.4,0.5,0,0.000659908
0.4,0.6,0,0.000790395
0.4,0.7,0,0.000921285
0.4,0.8,0,0.00105118
0.4,0.9,0,0.00118071
0.4,1,0,0.00131057
0.4,1.1,0,0.00143763
0.4,1.2,0,0.00156534
0.4,1.3,0,0.00169161
0.4,1.4,0,0.00181705
0.4,1.5,0,0.00194309
0.4,1.6,0,0.00206492
0.4,1.7,0,0.00218766
0.4,1.8,0,0.00230849
0.4,1.9,0,0.00242806
0.4,2,0,0.00254847
0.4,2.1,0,0.00266327
0.4,2.2,0,0.00277921
0.4,2.3,0,0.00289281
0.4,2.4,0,0.00300467
0.4,2.5,0,0.00311763
0.4,2.6,0,0.00322357
0.4,2.7,0,0.0033309
0.4,2.8,0,0.00343544
0.4,2.9,0,0.00353778
0.4,3,0,0.00364145
0.4,3.1,0,0.00373673
0.4,3.2,0,0.00383362
0.4,3.3,0,0.00392731
0.4,3.4,0,0.00401833
0.4,3.5,0,0.0041109
0.4,3.6,0,0.0041938
0.4,3.7,0,0.0042785
0.4,3.8,0,0.00435962
0.4,3.9,0,0.0044376
0.4,4,0,0.00451732
0.4,4.1,0,0.00458627
0.4,4.2,0,0.00465713
0.4,4.3,0,0.00472412
0.4,4.4,0,0.00478752
0.4,4.5,0,0.00485278
0.4,4.6,0,0.00490637
0.4,4.7,0,0.00496196
0.4,4.8,0,0.00501147
0.4,4.9,0,0.00505043
0.4,5,0,0.00508903
0.4,5.1,0,0.00515192
0.4,5.2,0,0.00519017
0.4,5.3,0,0.00522502
0.4,5.4,0,0.00525642
0.4,5.5,0,0.00528434
0.4,5.6,0,0.00530877
0.4,5.7,0,0.00532968
0.4,5.8,0,0.00534706
0.4,5.9,0,0.00536089
0.4,6,0,0.00537115
0.4,6.1,0,0.00537785
0.4,6.2,0,0.00538099
0.4,6.3,0,0.00538056
0.4,6.4,0,0.00537657
0.4,6.5,0,0.00536902
0.4,6.6,0,0.00535794
0.4,6.7,0,0.00534334
0.4,6.8,0,0.00532525
0.4,6.9,0,0.00530367
0.4,7,0,0.00526341
0.4,7.1,0,0.00523748
0.4,7.2,0,0.00521134
0.4,7.3,0,0.00518217
0.4,7.4,0,0.00514048
0.4,7.5,0,0.00509948
0.4,7.6,0,0.00505601
0.4,7.7,0,0.00500593
0.4,7.8,0,0.00495592
0.4,7.9,0,0.00490217
0.4,8,0,0.00484358
0.4,8.1,0,0.00478498
0.4,8.2,0,0.00472165
0.4,8.3,0,0.00465495
0.4,8.4,0,0.00458853
0.4,8.5,0,0.00451599
0.4,8.6,0,0.00444169
0.4,8.7,0,0.00436831
0.4,8.8,0,0.00428692
0.4,8.9,0,0.00420558
0.4,9,0,0.00412504
0.4,9.1,0,0.00403627
0.4,9.2,0,0.00394844
0.4,9.3,0,0.00386003
0.4,9.4,0,0.00376589
0.4,9.5,0,0.00367214
0.4,9.6,0,0.00357676
0.4,9.7,0,0.00347766
0.4,9.8,0,0.00337857
0.4,9.9,0,0.00327734
0.4,10,0,0.00317345
0.4,10.1,0,0.00306957
0.4,10.2,0,0.00296321
0.4,10.3,0,0.00285509
0.4,10.4,0,0.00274732
0.4,10.5,0,0.00263618
0.4,10.6,0,0.00252436
0.4,10.7,0,0.00241325
0.4,10.8,0,0.00229799
0.4,10.9,0,0.00218299
0.4,11,0,0.00206831
0.4,11.1,0,0.00195031
0.4,11.2,0,0.00183263
0.4,11.3,0,0.00171474
0.4,11.4,0,0.00159477
0.4,11.5,0,0.00147488
0.4,11.6,0,0.00135456
0.4,11.7,0,0.00123292
0.4,11.8,0,0.00111127
0.4,11.9,0,0.000989178
0.4,12,0,0.00086623
0.4,12.1,0,0.000743299
0.4,12.2,0,0.000619982
0.4,12.3,0,0.000496163
0.4,12.4,0,0.000372464
0.4,12.5,0,0.000248406
0.4,12.6,0,0.000124138
0.4,12.7,0,1.00659e-05
0.5,0,0,0
0.5,0.1,0,0.000132535
0.5,0.2,0,0.000264835
0.5,0.3,0,0.000397328
0.5,0.4,0,0.000529142
0.5,0.5,0,0.000661445
0.5,0.6,0,0.000792281
0.5,0.7,0,0.000923172
0.5,0.8,0,0.00105381
0.5,0.9,0,0.00118333
0.5,1,0,0.00131361
0.5,1.1,0,0.001441
0.5,1.2,0,0.00156871
0.5,1.3,0,0.00169572
0.5,1.4,0,0.00182117
0.5,1.5,0,0.00194764
0.5,1.6,0,0.00206979
0.5,1.7,0,0.00219252
0.5,1.8,0,0.00231412
0.5,1.9,0,0.00243369
0.5,2,0,0.00255455
0.5,2.1,0,0.00266964
0.5,2.2,0,0.00278559
0.5,2.3,0,0.00289993
0.5,2.4,0,0.0030118
0.5,2.5,0,0.00312524
0.5,2.6,0,0.00323143
0.5,2.7,0,0.00333876
0.5,2.8,0,0.00344402
0.5,2.9,0,0.00354636
0.5,3,0,0.00365055
0.5,3.1,0,0.003746
0.5,3.2,0,0.00384289
0.5,3.3,0,0.00393723
0.5,3.4,0,0.00402825
0.5,3.5,0,0.00412142
0.5,3.6,0,0.00420431
0.5,3.7,0,0.00428901
0.5,3.8,0,0.00437067
0.5,3.9,0,0.00444865
0.5,4,0,0.00452912
0.5,4.1,0,0.00459777
0.5,4.2,0,0.00466863
0.5,4.3,0,0.004736
0.5,4.4,0,0.0047994
0.5,4.5,0,0.00486566
0.5,4.6,0,0.00491861
0.5,4.7,0,0.00497419
0.5,4.8,0,0.00502403
0.5,4.9,0,0.00506298
0.5,5,0,0.00510272
0.5,5.1,0,0.00516582
0.5,5.2,0,0.00520422
0.5,5.3,0,0.00523918
0.5,5.4,0,0.00527068
0.5,5.5,0,0.0052987
0.5,5.6,0,0.0053232
0.5,5.7,0,0.00534417
0.5,5.8,0,0.00536159
0.5,5.9,0,0.00537544
0.5,6,0,0.00538572
0.5,6.1,0,0.00539241
0.5,6.2,0,0.00539553
0.5,6.3,0,0.00539506
0.5,6.4,0,0.00539102
0.5,6.5,0,0.0053834
0.5,6.6,0,0.00537223
0.5,6.7,0,0.00535753
0.5,6.8,0,0.00533931
0.5,6.9,0,0.00531759
0.5,7,0,0.00527708
0.5,7.1,0,0.00524948
0.5,7.2,0,0.00522334
0.5,7.3,0,0.00519457
0.5,7.4,0,0.00515191
0.5,7.5,0,0.00511092
0.5,7.6,0,0.00506709
0.5,7.7,0,0.00501692
0.5,7.8,0,0.00496691
0.5,7.9,0,0.00491277
0.5,8,0,0.00485418
0.5,8.1,0,0.00479559
0.5,8.2,0,0.00473184
0.5,8.3,0,0.00466514
0.5,8.4,0,0.00459886
0.5,8.5,0,0.00452573
0.5,8.6,0,0.00445143
0.5,8.7,0,0.00437832
0.5,8.8,0,0.00429616
0.5,8.9,0,0.00421481
0.5,9,0,0.00413431
0.5,9.1,0,0.00404494
0.5,9.2,0,0.00395711
0.5,9.3,0,0.00386829
0.5,9.4,0,0.00377394
0.5,9.5,0,0.00368019
0.5,9.6,0,0.00358415
0.5,9.7,0,0.00348505
0.5,9.8,0,0.00338595
0.5,9.9,0,0.00328401
0.5,10,0,0.00318013
0.5,10.1,0,0.00307624
0.5,10.2,0,0.00296915
0.5,10.3,0,0.00286102
0.5,10.4,0,0.00275309
0.5,10.5,0,0.00264137
0.5,10.6,0,0.00252955
0.5,10.7,0,0.00241806
0.5,10.8,0,0.00230243
0.5,10.9,0,0.00218743
0.5,11,0,0.00207222
0.5,11.1,0,0.00195403
0.5,11.2,0,0.00183634
0.5,11.3,0,0.0017178
0.5,11.4,0,0.00159777
0.5,11.5,0,0.00147788
0.5,11.6,0,0.00135687
0.5,11.7,0,0.00123523
0.5,11.8,0,0.00111359
0.5,11.9,0,0.000990824
0.5,12,0,0.000867876
0.5,12.1,0,0.000744927
0.5,12.2,0,0.000620975
0.5,12.3,0,0.000497156
0.5,12.4,0,0.000373278
0.5,12.5,0,0.000248744
0.5,12.6,0,0.000124476
0.5,12.7,0,0
0.6,0,0,0
0.6,0.1,0,0.000133005
0.6,0.2,0,0.000265728
0.6,0.3,0,0.000398569
0.6,0.4,0,0.000530483
0.6,0.5,0,0.00066376
0.6,0.6,0,0.000794486
0.6,0.7,0,0.000926121
0.6,0.8,0,0.0010571
0.6,0.9,0,0.0011864
0.6,1,0,0.00131819
0.6,1.1,0,0.00144493
0.6,1.2,0,0.00157371
0.6,1.3,0,0.00170107
0.6,1.4,0,0.00182598
0.6,1.5,0,0.0019545
0.6,1.6,0,0.00207547
0.6,1.7,0,0.0021996
0.6,1.8,0,0.00232154
0.6,1.9,0,0.00244025
0.6,2,0,0.00256371
0.6,2.1,0,0.00267709
0.6,2.2,0,0.00279476
0.6,2.3,0,0.00290945
0.6,2.4,0,0.00302012
0.6,2.5,0,0.0031367
0.6,2.6,0,0.00324062
0.6,2.7,0,0.00335
0.6,2.8,0,0.0034556
0.6,2.9,0,0.00355639
0.6,3,0,0.00366429
0.6,3.1,0,0.00375684
0.6,3.2,0,0.00385614
0.6,3.3,0,0.00395079
0.6,3.4,0,0.00403986
0.6,3.5,0,0.00413735
0.6,3.6,0,0.00421664
0.6,3.7,0,0.00430413
0.6,3.8,0,0.00438604
0.6,3.9,0,0.00446162
0.6,4,0,0.00454708
0.6,4.1,0,0.0046113
0.6,4.2,0,0.00468538
0.6,4.3,0,0.00475294
0.6,4.4,0,0.0048134
0.6,4.5,0,0.0048854
0.6,4.6,0,0.00493306
0.6,4.7,0,0.00499229
0.6,4.8,0,0.00504418
0.6,4.9,0,0.00508257
0.6,5,0,0.00512387
0.6,5.1,0,0.00518741
0.6,5.2,0,0.00522603
0.6,5.3,0,0.00526121
0.6,5.4,0,0.0052929
0.6,5.5,0,0.00532107
0.6,5.6,0,0.00534571
0.6,5.7,0,0.00536679
0.6,5.8,0,0.0053843
0.6,5.9,0,0.00539821
0.6,6,0,0.00540852
0.6,6.1,0,0.00541522
0.6,6.2,0,0.00541832
0.6,6.3,0,0.0054178
0.6,6.4,0,0.00541368
0.6,6.5,0,0.00540597
0.6,6.6,0,0.00539467
0.6,6.7,0,0.00537981
0.6,6.8,0,0.00536141
0.6,6.9,0,0.00533948
0.6,7,0,0.00529849
0.6,7.1,0,0.00526798
0.6,7.2,0,0.00524218
0.6,7.3,0,0.00521525
0.6,7.4,0,0.00516627
0.6,7.5,0,0.00512742
0.6,7.6,0,0.00508689
0.6,7.7,0,0.0050307
0.6,7.8,0,0.00498389
0.6,7.9,0,0.00493044
0.6,8,0,0.00486744
0.6,8.1,0,0.00481279
0.6,8.2,0,0.00474736
0.6,8.3,0,0.00467782
0.6,8.4,0,0.00461555
0.6,8.5,0,0.00453925
0.6,8.6,0,0.00446349
0.6,8.7,0,0.00439383
0.6,8.8,0,0.00430786
0.6,8.9,0,0.00422619
0.6,9,0,0.00414861
0.6,9.1,0,0.00405558
0.6,9.2,0,0.00396832
0.6,9.3,0,0.00388135
0.6,9.4,0,0.00378378
0.6,9.5,0,0.00369097
0.6,9.6,0,0.00359582
0.6,9.7,0,0.00349403
0.6,9.8,0,0.00339607
0.6,9.9,0,0.00329388
0.6,10,0,0.00318822
0.6,10.1,0,0.00308555
0.6,10.2,0,0.00297737
0.6,10.3,0,0.00286821
0.6,10.4,0,0.00276129
0.6,10.5,0,0.0026481
0.6,10.6,0,0.00253582
0.6,10.7,0,0.00242512
0.6,10.8,0,0.00230781
0.6,10.9,0,0.00219285
0.6,11,0,0.00207818
0.6,11.1,0,0.00195851
0.6,11.2,0,0.00184096
0.6,11.3,0,0.00172271
0.6,11.4,0,0.0016014
0.6,11.5,0,0.00148165
0.6,11.6,0,0.00136061
0.6,11.7,0,0.00123802
0.6,11.8,0,0.00111646
0.6,11.9,0,0.000993386
0.6,12,0,0.000869868
0.6,12.1,0,0.000746857
0.6,12.2,0,0.000622463
0.6,12.3,0,0.000498355
0.6,12.4,0,0.000374252
0.6,12.5,0,0.000249248
0.6,12.6,0,0.000124891
0.6,12.7,0,0
0.7,0,0,0
0.7,0.1,0,0.000133146
0.7,0.2,0,0.000266904
0.7,0.3,0,0.000399745
0.7,0.4,0,0.000532505
0.7,0.5,0,0.000666076
0.7,0.6,0,0.000796769
0.7,0.7,0,0.000929567
0.7,0.8,0,0.00106055
0.7,0.9,0,0.00119052
0.7,1,0,0.00132276
0.7,1.1,0,0.00144932
0.7,1.2,0,0.00157942
0.7,1.3,0,0.00170679
0.7,1.4,0,0.00183222
0.7,1.5,0,0.00196136
0.7,1.6,0,0.00208198
0.7,1.7,0,0.00220761
0.7,1.8,0,0.00232955
0.7,1.9,0,0.00244863
0.7,2,0,0.00257287
0.7,2.1,0,0.00268573
0.7,2.2,0,0.00280507
0.7,2.3,0,0.00291976
0.7,2.4,0,0.00303065
0.7,2.5,0,0.00314817
0.7,2.6,0,0.0032514
0.7,2.7,0,0.00336261
0.7,2.8,0,0.00346821
0.7,2.9,0,0.00356902
0.7,3,0,0.00367804
0.7,3.1,0,0.00376972
0.7,3.2,0,0.003871
0.7,3.3,0,0.00396565
0.7,3.4,0,0.0040545
0.7,3.5,0,0.00415328
0.7,3.6,0,0.00423149
0.7,3.7,0,0.0043211
0.7,3.8,0,0.00440302
0.7,3.9,0,0.00447808
0.7,4,0,0.00456505
0.7,4.1,0,0.00462793
0.7,4.2,0,0.00470427
0.7,4.3,0,0.00477183
0.7,4.4,0,0.00483143
0.7,4.5,0,0.00490515
0.7,4.6,0,0.00495121
0.7,4.7,0,0.00501282
0.7,4.8,0,0.00506471
0.7,4.9,0,0.00510325
0.7,5,0,0.00514502
0.7,5.1,0,0.00520899
0.7,5.2,0,0.00524785
0.7,5.3,0,0.00528323
0.7,5.4,0,0.00531511
0.7,5.5,0,0.00534345
0.7,5.6,0,0.00536823
0.7,5.7,0,0.00538942
0.7,5.8,0,0.00540701
0.7,5.9,0,0.00542098
0.7,6,0,0.00543132
0.7,6.1,0,0.00543803
0.7,6.2,0,0.00544111
0.7,6.3,0,0.00544054
0.7,6.4,0,0.00543635
0.7,6.5,0,0.00542854
0.7,6.6,0,0.00541711
0.7,6.7,0,0.00540209
0.7,6.8,0,0.00538351
0.7,6.9,0,0.00536137
0.7,7,0,0.0053199
0.7,7.1,0,0.00528916
0.7,7.2,0,0.00526287
0.7,7.3,0,0.00523593
0.7,7.4,0,0.00518495
0.7,7.5,0,0.00514722
0.7,7.6,0,0.00510669
0.7,7.7,0,0.00504744
0.7,7.8,0,0.00500274
0.7,7.9,0,0.00494929
0.7,8,0,0.00488318
0.7,8.1,0,0.0048306
0.7,8.2,0,0.00476516
0.7,8.3,0,0.00469262
0.7,8.4,0,0.00463224
0.7,8.5,0,0.00455594
0.7,8.6,0,0.00447818
0.7,8.7,0,0.00440934
0.7,8.8,0,0.00432337
0.7,8.9,0,0.00424049
0.7,9,0,0.00416291
0.7,9.1,0,0.0040693
0.7,9.2,0,0.00398138
0.7,9.3,0,0.00389441
0.7,9.4,0,0.00379557
0.7,9.5,0,0.00370279
0.7,9.6,0,0.00360764
0.7,9.7,0,0.00350427
0.7,9.8,0,0.00340666
0.7,9.9,0,0.00330447
0.7,10,0,0.00319712
0.7,10.1,0,0.00309493
0.7,10.2,0,0.00298675
0.7,10.3,0,0.00287601
0.7,10.4,0,0.0027695
0.7,10.5,0,0.0026563
0.7,10.6,0,0.00254276
0.7,10.7,0,0.00243219
0.7,10.8,0,0.00231487
0.7,10.9,0,0.00219881
0.7,11,0,0.00208415
0.7,11.1,0,0.00196413
0.7,11.2,0,0.00184586
0.7,11.3,0,0.00172761
0.7,11.4,0,0.0016057
0.7,11.5,0,0.00148553
0.7,11.6,0,0.00136449
0.7,11.7,0,0.00124116
0.7,11.8,0,0.00111935
0.7,11.9,0,0.00099628
0.7,12,0,0.000871879
0.7,12.1,0,0.000748787
0.7,12.2,0,0.000624393
0.7,12.3,0,0.000499401
0.7,12.4,0,0.000375226
0.7,12.5,0,0.000250222
0.7,12.6,0,0.000124924
0.7,12.7,0,0
0.8,0,0,0
0.8,0.1,0,0.00013371
0.8,0.2,0,0.000268079
0.8,0.3,0,0.00040092
0.8,0.4,0,0.000534689
0.8,0.5,0,0.000668391
0.8,0.6,0,0.000800077
0.8,0.7,0,0.000933013
0.8,0.8,0,0.001064
0.8,0.9,0,0.0011954
0.8,1,0,0.00132734
0.8,1.1,0,0.00145532
0.8,1.2,0,0.00158514
0.8,1.3,0,0.0017125
0.8,1.4,0,0.0018398
0.8,1.5,0,0.00196821
0.8,1.6,0,0.00209069
0.8,1.7,0,0.00221561
0.8,1.8,0,0.00233755
0.8,1.9,0,0.00245894
0.8,2,0,0.00258202
0.8,2.1,0,0.00269718
0.8,2.2,0,0.00281538
0.8,2.3,0,0.00293008
0.8,2.4,0,0.0030437
0.8,2.5,0,0.00315963
0.8,2.6,0,0.0032656
0.8,2.7,0,0.00337522
0.8,2.8,0,0.00348082
0.8,2.9,0,0.00358482
0.8,3,0,0.00369178
0.8,3.1,0,0.00378666
0.8,3.2,0,0.00388585
0.8,3.3,0,0.0039805
0.8,3.4,0,0.00407302
0.8,3.5,0,0.00416922
0.8,3.6,0,0.00425114
0.8,3.7,0,0.00433808
0.8,3.8,0,0.00441999
0.8,3.9,0,0.00449925
0.8,4,0,0.00458301
0.8,4.1,0,0.00465018
0.8,4.2,0,0.00472316
0.8,4.3,0,0.00479072
0.8,4.4,0,0.00485507
0.8,4.5,0,0.00492489
0.8,4.6,0,0.00497582
0.8,4.7,0,0.00503335
0.8,4.8,0,0.00508524
0.8,4.9,0,0.00512516
0.8,5,0,0.00516617
0.8,5.1,0,0.00523057
0.8,5.2,0,0.00526967
0.8,5.3,0,0.00530526
0.8,5.4,0,0.00533733
0.8,5.5,0,0.00536583
0.8,5.6,0,0.00539074
0.8,5.7,0,0.00541204
0.8,5.8,0,0.00542972
0.8,5.9,0,0.00544375
0.8,6,0,0.00545413
0.8,6.1,0,0.00546084
0.8,6.2,0,0.0054639
0.8,6.3,0,0.00546329
0.8,6.4,0,0.00545902
0.8,6.5,0,0.00545111
0.8,6.6,0,0.00543955
0.8,6.7,0,0.00542438
0.8,6.8,0,0.0054056
0.8,6.9,0,0.00538325
0.8,7,0,0.0053413
0.8,7.1,0,0.00531183
0.8,7.2,0,0.00528454
0.8,7.3,0,0.00525662
0.8,7.4,0,0.00521007
0.8,7.5,0,0.00516768
0.8,7.6,0,0.00512649
0.8,7.7,0,0.00507231
0.8,7.8,0,0.00502159
0.8,7.9,0,0.00496814
0.8,8,0,0.00490658
0.8,8.1,0,0.0048484
0.8,8.2,0,0.00478297
0.8,8.3,0,0.00471429
0.8,8.4,0,0.00464892
0.8,8.5,0,0.00457326
0.8,8.6,0,0.00449711
0.8,8.7,0,0.00442486
0.8,8.8,0,0.00434012
0.8,8.9,0,0.00425685
0.8,9,0,0.00417721
0.8,9.1,0,0.00408519
0.8,9.2,0,0.00399541
0.8,9.3,0,0.00390748
0.8,9.4,0,0.00381041
0.8,9.5,0,0.0037147
0.8,9.6,0,0.00361946
0.8,9.7,0,0.0035177
0.8,9.8,0,0.00341725
0.8,9.9,0,0.00331506
0.8,10,0,0.003209
0.8,10.1,0,0.00310432
0.8,10.2,0,0.00299616
0.8,10.3,0,0.00288618
0.8,10.4,0,0.0027777
0.8,10.5,0,0.00266471
0.8,10.6,0,0.00255109
0.8,10.7,0,0.00243925
0.8,10.8,0,0.00232223
0.8,10.9,0,0.00220549
0.8,11,0,0.00209011
0.8,11.1,0,0.0019704
0.8,11.2,0,0.00185104
0.8,11.3,0,0.00173252
0.8,11.4,0,0.00161085
0.8,11.5,0,0.00148941
0.8,11.6,0,0.00136838
0.8,11.7,0,0.00124514
0.8,11.8,0,0.00112225
0.8,11.9,0,0.000999174
0.8,12,0,0.000874712
0.8,12.1,0,0.000750717
0.8,12.2,0,0.000626299
0.8,12.3,0,0.000500971
0.8,12.4,0,0.000376201
0.8,12.5,0,0.000251054
0.8,12.6,0,0.000125248
0.8,12.7,0,0
0.9,0,0,0
0.9,0.1,0,0.000134416
0.9,0.2,0,0.000268832
0.9,0.3,0,0.000402974
0.9,0.4,0,0.00053684
0.9,0.5,0,0.000670707
0.9,0.6,0,0.000803632
0.9,0.7,0,0.000936558
0.9,0.8,0,0.0010688
0.9,0.9,0,0.00120036
0.9,1,0,0.00133192
0.9,1.1,0,0.00146167
0.9,1.2,0,0.00159143
0.9,1.3,0,0.00172006
0.9,1.4,0,0.00184756
0.9,1.5,0,0.00197507
0.9,1.6,0,0.00209987
0.9,1.7,0,0.00222467
0.9,1.8,0,0.00234789
0.9,1.9,0,0.00246954
0.9,2,0,0.00259118
0.9,2.1,0,0.00270921
0.9,2.2,0,0.00282723
0.9,2.3,0,0.00294322
0.9,2.4,0,0.00305716
0.9,2.5,0,0.0031711
0.9,2.6,0,0.00328049
0.9,2.7,0,0.00338988
0.9,2.8,0,0.00349677
0.9,2.9,0,0.00360114
0.9,3,0,0.00370552
0.9,3.1,0,0.00380442
0.9,3.2,0,0.00390331
0.9,3.3,0,0.00399924
0.9,3.4,0,0.0040922
0.9,3.5,0,0.00418515
0.9,3.6,0,0.00427172
0.9,3.7,0,0.0043583
0.9,3.8,0,0.00444146
0.9,3.9,0,0.00452122
0.9,4,0,0.00460097
0.9,4.1,0,0.0046735
0.9,4.2,0,0.00474604
0.9,4.3,0,0.00481477
0.9,4.4,0,0.0048797
0.9,4.5,0,0.00494463
0.9,4.6,0,0.00500164
0.9,4.7,0,0.00505864
0.9,4.8,0,0.00510718
0.9,4.9,0,0.00514725
0.9,5,0,0.00518732
0.9,5.1,0,0.00525216
0.9,5.2,0,0.00529149
0.9,5.3,0,0.00532729
0.9,5.4,0,0.00535954
0.9,5.5,0,0.0053882
0.9,5.6,0,0.00541325
0.9,5.7,0,0.00543466
0.9,5.8,0,0.00545242
0.9,5.9,0,0.00546651
0.9,6,0,0.00547693
0.9,6.1,0,0.00548365
0.9,6.2,0,0.00548669
0.9,6.3,0,0.00548603
0.9,6.4,0,0.00548169
0.9,6.5,0,0.00547367
0.9,6.6,0,0.00546199
0.9,6.7,0,0.00544666
0.9,6.8,0,0.0054277
0.9,6.9,0,0.00540514
0.9,7,0,0.00536271
0.9,7.1,0,0.00533542
0.9,7.2,0,0.00530814
0.9,7.3,0,0.00527859
0.9,7.4,0,0.0052362
0.9,7.5,0,0.00519381
0.9,7.6,0,0.00514868
0.9,7.7,0,0.00509717
0.9,7.8,0,0.00504566
0.9,7.9,0,0.00499022
0.9,8,0,0.00492998
0.9,8.1,0,0.00486974
0.9,8.2,0,0.00480457
0.9,8.3,0,0.0047361
0.9,8.4,0,0.00466763
0.9,8.5,0,0.0045934
0.9,8.6,0,0.00451725
0.9,8.7,0,0.0044411
0.9,8.8,0,0.00435855
0.9,8.9,0,0.00427529
0.9,9,0,0.0041917
0.9,9.1,0,0.00410192
0.9,9.2,0,0.00401213
0.9,9.3,0,0.00392117
0.9,9.4,0,0.00382546
0.9,9.5,0,0.00372975
0.9,9.6,0,0.00363217
0.9,9.7,0,0.00353113
0.9,9.8,0,0.00343008
0.9,9.9,0,0.00332666
0.9,10,0,0.00322087
0.9,10.1,0,0.00311507
0.9,10.2,0,0.00300656
0.9,10.3,0,0.00289658
0.9,10.4,0,0.0027866
0.9,10.5,0,0.0026737
0.9,10.6,0,0.00256008
0.9,10.7,0,0.00244646
0.9,10.8,0,0.00232988
0.9,10.9,0,0.00221314
0.9,11,0,0.00209614
0.9,11.1,0,0.00197678
0.9,11.2,0,0.00185742
0.9,11.3,0,0.00173752
0.9,11.4,0,0.00161601
0.9,11.5,0,0.00149451
0.9,11.6,0,0.00137232
0.9,11.7,0,0.00124912
0.9,11.8,0,0.00112592
0.9,11.9,0,0.00100202
0.9,12,0,0.000877545
0.9,12.1,0,0.000753074
0.9,12.2,0,0.000628004
0.9,12.3,0,0.000502676
0.9,12.4,0,0.000377348
0.9,12.5,0,0.000251613
0.9,12.6,0,0.000125807
0.9,12.7,0,0
1,0,0,0
1,0.1,0,0.000135325
1,0.2,0,0.00026985
1,0.3,0,0.000405475
1,0.4,0,0.000539398
1,0.5,0,0.000674636
1,0.6,0,0.000807827
1,0.7,0,0.000940918
1,0.8,0,0.00107464
1,0.9,0,0.0012062
1,1,0,0.00133971
1,1.1,0,0.00146916
1,1.2,0,0.00159914
1,1.3,0,0.00172926
1,1.4,0,0.0018567
1,1.5,0,0.00198675
1,1.6,0,0.00211067
1,1.7,0,0.00223576
1,1.8,0,0.00236049
1,1.9,0,0.00248202
1,2,0,0.00260681
1,2.1,0,0.00272337
1,2.2,0,0.00284174
1,2.3,0,0.00295924
1,2.4,0,0.00307301
1,2.5,0,0.00319071
1,2.6,0,0.00329803
1,2.7,0,0.00340783
1,2.8,0,0.00351624
1,2.9,0,0.00362038
1,3,0,0.0037291
1,3.1,0,0.00382534
1,3.2,0,0.0039247
1,3.3,0,0.00402213
1,3.4,0,0.00411479
1,3.5,0,0.00421258
1,3.6,0,0.00429597
1,3.7,0,0.00438305
1,3.8,0,0.00446767
1,3.9,0,0.00454709
1,4,0,0.00463199
1,4.1,0,0.00470095
1,4.2,0,0.004774
1,4.3,0,0.00484409
1,4.4,0,0.00490865
1,4.5,0,0.00497878
1,4.6,0,0.00503194
1,4.7,0,0.00508946
1,4.8,0,0.00514352
1,4.9,0,0.00518368
1,5,0,0.00522366
1,5.1,0,0.00528903
1,5.2,0,0.00532869
1,5.3,0,0.00536479
1,5.4,0,0.00539731
1,5.5,0,0.00542621
1,5.6,0,0.00545146
1,5.7,0,0.00547303
1,5.8,0,0.00549091
1,5.9,0,0.00550508
1,6,0,0.00551555
1,6.1,0,0.00552228
1,6.2,0,0.00552529
1,6.3,0,0.00552456
1,6.4,0,0.00552012
1,6.5,0,0.00551196
1,6.6,0,0.0055001
1,6.7,0,0.00548456
1,6.8,0,0.00546536
1,6.9,0,0.00544251
1,7,0,0.00539965
1,7.1,0,0.00537227
1,7.2,0,0.00534498
1,7.3,0,0.00531369
1,7.4,0,0.00526821
1,7.5,0,0.00522582
1,7.6,0,0.00518138
1,7.7,0,0.00512771
1,7.8,0,0.00507651
1,7.9,0,0.0050202
1,8,0,0.00495875
1,8.1,0,0.00489936
1,8.2,0,0.00483164
1,8.3,0,0.00476295
1,8.4,0,0.0046958
1,8.5,0,0.00461823
1,8.6,0,0.00454208
1,8.7,0,0.00446765
1,8.8,0,0.0043813
1,8.9,0,0.00429804
1,9,0,0.00421605
1,9.1,0,0.00412258
1,9.2,0,0.0040328
1,9.3,0,0.0039424
1,9.4,0,0.00384407
1,9.5,0,0.00374836
1,9.6,0,0.0036504
1,9.7,0,0.00354775
1,9.8,0,0.003447
1,9.9,0,0.00334207
1,10,0,0.00323557
1,10.1,0,0.00313032
1,10.2,0,0.00301943
1,10.3,0,0.00290945
1,10.4,0,0.00280015
1,10.5,0,0.00268483
1,10.6,0,0.00257121
1,10.7,0,0.0024583
1,10.8,0,0.00233935
1,10.9,0,0.00222261
1,11,0,0.00210582
1,11.1,0,0.00198466
1,11.2,0,0.0018653
1,11.3,0,0.00174501
1,11.4,0,0.00162239
1,11.5,0,0.00150089
1,11.6,0,0.00137782
1,11.7,0,0.00125403
1,11.8,0,0.00113081
1,11.9,0,0.00100569
1,12,0,0.000881048
1,12.1,0,0.000756427
1,12.2,0,0.000630124
1,12.3,0,0.000504796
1,12.4,0,0.000379087
1,12.5,0,0.000252363
1,12.6,0,0.000126556
1,12.7,0,0
1.1,0,0,0
1.1,0.1,0,0.000136053
1.1,0.2,0,0.00027184
1.1,0.3,0,0.000407466
1.1,0.4,0,0.00054223
1.1,0.5,0,0.000678565
1.1,0.6,0,0.000811968
1.1,0.7,0,0.000946773
1.1,0.8,0,0.00108049
1.1,0.9,0,0.00121242
1.1,1,0,0.00134749
1.1,1.1,0,0.0014767
1.1,1.2,0,0.00160886
1.1,1.3,0,0.00173898
1.1,1.4,0,0.00186635
1.1,1.5,0,0.00199843
1.1,1.6,0,0.00212165
1.1,1.7,0,0.00224941
1.1,1.8,0,0.00237414
1.1,1.9,0,0.00249513
1.1,2,0,0.00262244
1.1,2.1,0,0.00273783
1.1,2.2,0,0.00285936
1.1,2.3,0,0.00297686
1.1,2.4,0,0.00308961
1.1,2.5,0,0.00321032
1.1,2.6,0,0.00331599
1.1,2.7,0,0.00342943
1.1,2.8,0,0.00353784
1.1,2.9,0,0.00364048
1.1,3,0,0.00375267
1.1,3.1,0,0.0038468
1.1,3.2,0,0.00395022
1.1,3.3,0,0.00404765
1.1,3.4,0,0.00413836
1.1,3.5,0,0.00424001
1.1,3.6,0,0.00432086
1.1,3.7,0,0.00441232
1.1,3.8,0,0.00449694
1.1,3.9,0,0.00457399
1.1,4,0,0.00466302
1.1,4.1,0,0.00472911
1.1,4.2,0,0.00480666
1.1,4.3,0,0.00487675
1.1,4.4,0,0.00493864
1.1,4.5,0,0.00501294
1.1,4.6,0,0.00506301
1.1,4.7,0,0.00512493