/*--------------------------------*- C++ -*----------------------------------*\
| =========                 |                                                 |
| \\      /  F ield         | OpenFOAM: The Open Source CFD Toolbox           |
|  \\    /   O peration     | Version:  v1806                                 |
|   \\  /    A nd           | Web:      www.OpenFOAM.com                      |
|    \\/     M anipulation  |                                                 |
\*---------------------------------------------------------------------------*/
FoamFile
{
    version     2.0;
    format      ascii;
    class       surfaceScalarField;
    location    "140";
    object      phi;
}
// * * * * * * * * * * * * * * * * * * * * * * * * * * * * * * * * * * * * * //

dimensions      [0 3 -1 0 0 0 0];
oriented        oriented;


internalField   nonuniform List<scalar> 
13443
(
-1.24406e-07
0.0585748
-0.0500622
0.0091303
-0.0176428
-1.18498e-14
0.0585661
-0.0500523
0.00913154
-0.0176455
1.24406e-07
0.0585661
-0.0500523
0.00913154
-0.0176455
0.0585748
-0.0500622
0.0091303
-0.0176428
-3.09771e-08
0.0552586
-0.00342341
0.00673962
-1.66134e-13
0.0552522
-0.00342348
0.00673743
3.09764e-08
0.0552522
-0.00342348
0.00673743
0.0552586
-0.00342341
0.00673962
-8.87636e-08
-0.00410809
-0.0541099
0.00815587
-1.44496e-13
-0.00410472
-0.0541014
0.00815371
8.87633e-08
-0.00410472
-0.0541014
0.00815371
-0.00410809
-0.0541099
0.00815587
-2.3404e-08
0.00589396
-0.0546107
0.0446086
-7.9146e-14
0.0058915
-0.054608
0.0446118
2.34037e-08
0.0058915
-0.054608
0.0446118
0.00589396
-0.0546107
0.0446086
-1.04973e-07
0.0406778
-0.0445164
0.000731846
0.00310688
2.51016e-13
0.0406831
-0.0445219
0.000732858
0.00310589
1.04974e-07
0.0406831
-0.0445219
0.000732858
0.00310589
0.0406778
-0.0445164
0.000731846
0.00310688
-6.03883e-08
0.0228952
0.0188181
-0.00103541
-4.60708e-12
0.0228992
0.0188159
-0.00103217
6.03807e-08
0.0228992
0.0188159
-0.00103217
0.0228952
0.0188181
-0.00103541
-1.12509e-07
0.0143957
-0.0195318
-0.016804
0.0219402
3.29589e-14
0.0143967
-0.0195307
-0.0168067
0.0219406
1.12509e-07
0.0143967
-0.0195307
-0.0168067
0.0219406
0.0143957
-0.0195318
-0.016804
0.0219402
-1.35057e-08
-0.00415833
0.0119452
0.00660878
5.26559e-12
-0.00415775
0.0119418
0.00661258
1.35179e-08
-0.00415775
0.0119418
0.00661258
-0.00415833
0.0119452
0.00660878
2.05301e-08
0.0125361
-0.0095187
-0.0225491
-7.0242e-12
0.0125385
-0.00952281
-0.0225464
-2.05399e-08
0.0125385
-0.00952281
-0.0225464
0.0125361
-0.0095187
-0.0225491
-3.28656e-09
0.00512545
-0.00147692
-0.00364853
5.6037e-12
0.00512572
-0.0014772
-0.00364852
3.29038e-09
0.00512572
-0.0014772
-0.00364852
0.00512545
-0.00147692
-0.00364853
1.08213e-09
0.00110667
0.00401878
5.58392e-12
0.00110806
0.00401767
-1.07838e-09
0.00110806
0.00401767
0.00110667
0.00401878
-6.86185e-09
0.00482805
-0.00140062
-0.00342743
-5.52376e-13
0.00482624
-0.00139976
-0.00342649
6.8612e-09
0.00482624
-0.00139976
-0.00342649
0.00482805
-0.00140062
-0.00342743
-2.87806e-08
0.00101522
0.00381286
-3.48331e-13
0.00101368
0.00381253
2.87843e-08
0.00101368
0.00381253
0.00101522
0.00381286
-5.43169e-09
-0.00752759
-0.00307847
0.00920545
-6.10663e-12
-0.0075258
-0.00307858
0.00920461
5.42984e-09
-0.0075258
-0.00307858
0.00920461
-0.00752759
-0.00307847
0.00920545
-2.33414e-08
-0.00328732
-0.00303884
0.00448622
0.00183997
-1.6347e-12
-0.00328625
-0.00303822
0.00448474
0.00183971
2.33376e-08
-0.00328625
-0.00303822
0.00448474
0.00183971
-0.00328732
-0.00303884
0.00448622
0.00183997
-1.09084e-08
-0.00320377
-0.00422418
0.00414063
-1.06572e-12
-0.0032021
-0.00422357
0.00413942
1.09047e-08
-0.0032021
-0.00422357
0.00413942
-0.00320377
-0.00422418
0.00414063
-7.89547e-09
0.00310742
-0.00303669
-0.00327449
-5.11038e-12
0.00310776
-0.00303513
-0.00327475
7.8904e-09
0.00310776
-0.00303513
-0.00327475
0.00310742
-0.00303669
-0.00327449
-9.67549e-09
0.00179668
-0.00172809
-6.42495e-12
0.0017963
-0.00172677
9.67026e-09
0.0017963
-0.00172677
0.00179668
-0.00172809
-7.91067e-09
-0.00225385
-0.00375561
0.00536024
0.000649225
5.09744e-13
-0.00225339
-0.00375432
0.00535891
0.00064879
7.90643e-09
-0.00225339
-0.00375432
0.00535891
0.00064879
-0.00225385
-0.00375561
0.00536024
0.000649225
-2.07148e-08
-0.0035053
0.00573768
8.20125e-13
-0.00350483
0.00573615
2.07112e-08
-0.00350483
0.00573615
-0.0035053
0.00573768
-1.66625e-08
0.0053432
0.0010007
-0.00272774
-0.00361615
-1.98797e-12
0.00534125
0.00100114
-0.00272766
-0.00361474
1.6657e-08
0.00534125
0.00100114
-0.00272766
-0.00361474
0.0053432
0.0010007
-0.00272774
-0.00361615
-2.33e-09
-0.000295271
0.00528269
0.00035578
3.05783e-13
-0.000296145
0.00528154
0.000355852
2.32701e-09
-0.000296145
0.00528154
0.000355852
-0.000295271
0.00528269
0.00035578
-1.86748e-08
-0.00426168
-0.00207304
0.00603946
-1.91886e-13
-0.00426128
-0.00207277
0.00603788
1.86726e-08
-0.00426128
-0.00207277
0.00603788
-0.00426168
-0.00207304
0.00603946
-7.79468e-09
0.00151296
-0.000819176
-0.000693777
-1.00915e-11
0.00151282
-0.000818591
-0.000694237
7.7889e-09
0.00151282
-0.000818591
-0.000694237
0.00151296
-0.000819176
-0.000693777
-2.03681e-08
0.00251369
-3.81342e-12
0.00251394
2.03604e-08
0.00251394
0.00251369
-6.37438e-09
-0.00124742
0.0025718
0.000472302
-7.93898e-12
-0.0012469
0.002571
0.000472193
6.36751e-09
-0.0012469
0.002571
0.000472193
-0.00124742
0.0025718
0.000472302
-2.66975e-09
-0.00165063
-0.000297761
0.00070098
-1.18931e-11
-0.001651
-0.000297093
0.000701192
2.66294e-09
-0.001651
-0.000297093
0.000701192
-0.00165063
-0.000297761
0.00070098
-1.42541e-08
-0.0137703
-0.00709272
0.0150924
0.00577061
1.15017e-12
-0.0137665
-0.00709193
0.0150911
0.00576732
1.42553e-08
-0.0137665
-0.00709193
0.0150911
0.00576732
-0.0137703
-0.00709272
0.0150924
0.00577061
-1.79755e-08
-0.00995649
-0.0172121
0.0133984
-1.56506e-11
-0.00995649
-0.0172071
0.0133971
1.79525e-08
-0.00995649
-0.0172071
0.0133971
-0.00995649
-0.0172121
0.0133984
-4.09635e-08
0.0477215
-0.00717595
-0.0514485
0.010903
-6.77873e-13
0.047708
-0.00717553
-0.0514412
0.0109087
4.09628e-08
0.047708
-0.00717553
-0.0514412
0.0109087
0.0477215
-0.00717595
-0.0514485
0.010903
-7.15004e-08
-0.00697487
0.0373865
0.0173099
-9.56368e-13
-0.00697851
0.0373746
0.0173118
7.15012e-08
-0.00697851
0.0373746
0.0173118
-0.00697487
0.0373865
0.0173099
-4.14589e-09
-0.0232169
-0.038507
0.0559688
0.00575517
-1.97947e-12
-0.0232269
-0.0384979
0.0559641
0.00576069
4.14371e-09
-0.0232269
-0.0384979
0.0559641
0.00576069
-0.0232169
-0.038507
0.0559688
0.00575517
-2.484e-08
-0.0305701
-0.0332981
0.0406512
-1.63494e-12
-0.0305774
-0.0332917
0.0406422
2.48443e-08
-0.0305774
-0.0332917
0.0406422
-0.0305701
-0.0332981
0.0406512
-1.16555e-07
0.0179362
-0.0153565
-3.7476e-12
0.0179381
-0.0153562
1.16534e-07
0.0179381
-0.0153562
0.0179362
-0.0153565
1.32343e-08
0.00668514
6.36229e-11
0.00668843
-1.30986e-08
0.00668843
0.00668514
-1.24547e-08
0.000656172
-3.15878e-12
0.000656384
1.24473e-08
0.000656384
0.000656172
-1.62362e-08
-0.00228433
-0.00109438
-6.37558e-12
-0.00228341
-0.00109438
1.62308e-08
-0.00228341
-0.00109438
-0.00228433
-0.00109438
-1.89378e-08
0.050173
0.00183273
0.00325288
-3.41493e-13
0.0501711
0.00183246
0.00324855
1.89364e-08
0.0501711
0.00183246
0.00324855
0.050173
0.00183273
0.00325288
-4.62507e-08
0.00432752
0.00132914
-8.05017e-13
0.00432771
0.00132144
4.62464e-08
0.00432771
0.00132144
0.00432752
0.00132914
1.2283e-09
-0.0084524
0.0218289
-1.22779e-11
-0.00845572
0.0218322
-1.25783e-09
-0.00845572
0.0218322
-0.0084524
0.0218289
9.60809e-10
-0.00310425
0.000186829
0.000633089
-7.44033e-12
-0.00310294
0.000186715
0.000632819
-9.66758e-10
-0.00310294
0.000186715
0.000632819
-0.00310425
0.000186829
0.000633089
-9.90689e-08
0.0222395
-0.0259705
6.18189e-12
0.0222381
-0.0259686
9.90831e-08
0.0222381
-0.0259686
0.0222395
-0.0259705
-1.35169e-08
-0.00398014
-0.000148626
0.00102454
-6.26657e-12
-0.00397983
-0.000147819
0.00102469
1.35117e-08
-0.00397983
-0.000147819
0.00102469
-0.00398014
-0.000148626
0.00102454
-4.94813e-09
-0.00498483
-5.69703e-05
0.00106166
-4.10551e-12
-0.00498445
-5.70552e-05
0.00106168
4.94404e-09
-0.00498445
-5.70552e-05
0.00106168
-0.00498483
-5.69703e-05
0.00106166
-4.07031e-09
-0.0054459
-0.000191829
0.000652904
-1.95797e-12
-0.00544559
-0.000191902
0.000653035
4.06776e-09
-0.00544559
-0.000191902
0.000653035
-0.0054459
-0.000191829
0.000652904
-2.21163e-09
-0.00574749
-0.000122768
0.000424365
-6.88498e-13
-0.00574715
-0.000122864
0.000424422
2.21058e-09
-0.00574715
-0.000122864
0.000424422
-0.00574749
-0.000122768
0.000424365
-1.44367e-09
-0.00553087
-6.04243e-06
-0.000210579
-2.4769e-13
-0.00553064
-6.03199e-06
-0.00021048
1.4435e-09
-0.00553064
-6.03199e-06
-0.00021048
-0.00553087
-6.04242e-06
-0.000210579
-9.20861e-10
-0.00560689
0.000505746
-0.000429721
-3.93849e-13
-0.00560661
0.000505912
-0.000429938
9.20415e-10
-0.00560661
0.000505912
-0.000429938
-0.00560689
0.000505746
-0.000429721
-7.12142e-10
0.000461749
-0.000272818
-0.00579582
-1.24704e-12
0.000461949
-0.00027289
-0.00579567
7.10023e-10
0.000461949
-0.00027289
-0.00579567
0.000461749
-0.000272818
-0.00579582
-1.09086e-09
0.00557778
0.000211978
-0.00532801
-2.22527e-12
0.00557752
0.000212176
-0.00532775
1.08902e-09
0.00557752
0.000212176
-0.00532775
0.00557778
0.000211978
-0.00532801
-1.41725e-09
0.00598217
0.000101357
-1.42986e-12
0.00598195
0.000101479
1.41701e-09
0.00598195
0.000101479
0.00598217
0.000101357
-9.32786e-10
0.00582804
0.000148085
-1.16099e-12
0.00582768
0.000148237
9.33196e-10
0.00582768
0.000148237
0.00582804
0.000148085
-2.70268e-09
0.00528308
0.000422199
-1.55861e-12
0.00528237
0.000422447
2.70227e-09
0.00528237
0.000422447
0.00528308
0.000422199
-6.6229e-09
0.00474286
0.000348398
-2.57219e-12
0.00474181
0.000348648
6.62098e-09
0.00474181
0.000348648
0.00474286
0.000348398
-8.96726e-09
0.00392586
0.00076004
-4.12906e-12
0.00392482
0.000759922
8.96347e-09
0.00392482
0.000759922
0.00392586
0.00076004
-1.04759e-08
0.00306274
0.000714496
-7.05854e-12
0.00306235
0.000714642
1.04695e-08
0.00306235
0.000714642
0.00306274
0.000714496
-2.37908e-08
0.00220385
0.00104575
-1.0778e-11
0.00220348
0.00104557
2.37807e-08
0.00220348
0.00104557
0.00220385
0.00104575
-1.10552e-08
0.0011836
0.000722499
-1.21658e-11
0.00118374
0.000722635
1.10444e-08
0.00118374
0.000722635
0.0011836
0.000722499
-5.01618e-09
-0.00349798
-4.33304e-12
-0.00349669
5.01092e-09
-0.00349669
-0.00349798
5.88996e-10
-0.00236332
-8.46841e-12
-0.00236252
-6.02388e-10
-0.00236252
-0.00236332
2.64719e-09
-0.00337917
0.00206159
-5.33284e-12
-0.00337905
0.0020621
-2.65881e-09
-0.00337905
0.0020621
-0.00337917
0.00206159
-9.98775e-09
-0.00438688
0.00172222
-3.55534e-12
-0.00438676
0.00172234
9.98006e-09
-0.00438676
0.00172234
-0.00438688
0.00172222
-5.36313e-09
-0.00506206
0.00143523
-2.49367e-12
-0.00506171
0.00143487
5.35864e-09
-0.00506171
0.00143487
-0.00506206
0.00143523
-4.5883e-09
-0.00574469
0.00103103
-1.7601e-12
-0.00574434
0.00103127
4.58599e-09
-0.00574434
0.00103127
-0.00574469
0.00103103
-2.28659e-09
-0.00589991
0.000577418
-1.80342e-12
-0.00589974
0.000577854
2.28577e-09
-0.00589974
0.000577854
-0.00589991
0.000577418
-7.69568e-10
-0.00614541
0.000393589
-1.3737e-12
-0.00614536
0.000393856
7.69494e-10
-0.00614536
0.000393856
-0.00614541
0.000393589
-1.07352e-09
-0.00603273
-1.13229e-05
-1.44e-12
-0.00603263
-1.12583e-05
1.07292e-09
-0.00603263
-1.12583e-05
-0.00603273
-1.13229e-05
-3.44047e-10
-0.00565043
-0.00017032
-1.56883e-12
-0.00565015
-0.0001703
3.41988e-10
-0.00565015
-0.0001703
-0.00565043
-0.00017032
-2.25479e-08
0.0342876
-0.0288521
-3.59165e-12
0.0342842
-0.0288529
2.25484e-08
0.0342842
-0.0288529
0.0342876
-0.0288521
-1.35868e-08
-0.00438689
0.00191347
-4.72736e-12
-0.00438625
0.00191423
1.35797e-08
-0.00438625
0.00191423
-0.00438689
0.00191347
-6.70985e-09
-0.00494918
0.00162395
-2.82734e-12
-0.00494858
0.00162401
6.70368e-09
-0.00494858
0.00162401
-0.00494918
0.00162395
-5.31643e-09
-0.00557566
0.00127939
-1.1392e-12
-0.00557557
0.00128002
5.31215e-09
-0.00557557
0.00128002
-0.00557566
0.00127939
-1.59794e-09
-0.00574608
0.000594785
-9.70516e-13
-0.00574604
0.000594895
1.59519e-09
-0.00574604
0.000594895
-0.00574608
0.000594785
-3.1466e-10
-0.00587145
-8.52124e-05
-4.8593e-13
-0.00587143
-8.50929e-05
3.1309e-10
-0.00587143
-8.50929e-05
-0.00587145
-8.52124e-05
-1.12683e-09
-0.00579359
-0.000507572
-3.91382e-13
-0.0057935
-0.00050787
1.1251e-09
-0.0057935
-0.00050787
-0.00579359
-0.000507572
-6.44823e-10
-0.00580234
-0.000264074
-6.69901e-13
-0.00580216
-0.000264235
6.4238e-10
-0.00580216
-0.000264235
-0.00580234
-0.000264074
-1.51502e-09
0.000173172
-0.000452535
-0.00552297
-7.76476e-13
0.000173135
-0.000452509
-0.00552278
1.51348e-09
0.000173135
-0.000452509
-0.00552278
0.000173172
-0.000452535
-0.00552297
-1.95969e-09
-0.000263797
-0.00535885
-6.03524e-13
-0.000263858
-0.00535868
1.9584e-09
-0.000263858
-0.00535868
-0.000263797
-0.00535885
-2.02076e-09
-0.000337561
-0.00525424
-1.14829e-12
-0.00033756
-0.00525405
2.01875e-09
-0.00033756
-0.00525405
-0.000337561
-0.00525424
-1.22109e-09
-0.000621401
-0.00536659
-1.53775e-12
-0.000621325
-0.00536639
1.21842e-09
-0.000621325
-0.00536639
-0.000621401
-0.00536659
2.11403e-08
-0.0423925
0.0153866
1.07557e-12
-0.0423869
0.0153862
-2.11325e-08
-0.0423869
0.0153862
-0.0423925
0.0153866
-5.87264e-08
-0.0486354
-2.53293e-12
-0.0486326
5.87259e-08
-0.0486326
-0.0486354
-1.98912e-08
-0.0514838
-1.34601e-12
-0.0514804
1.98881e-08
-0.0514804
-0.0514838
-1.96147e-08
-0.054384
0.00473287
3.13769e-13
-0.054379
0.004731
1.96138e-08
-0.054379
0.004731
-0.054384
0.00473287
-5.7898e-08
-0.0647957
0.00698834
9.36108e-14
-0.0647889
0.00698631
5.78974e-08
-0.0647889
0.00698631
-0.0647957
0.00698834
-1.53567e-07
-0.0456167
0.00778705
-0.0269659
1.00632e-15
-0.045612
0.00778916
-0.0269662
1.53567e-07
-0.045612
0.00778916
-0.0269662
-0.0456167
0.00778705
-0.0269659
-7.59814e-08
-0.0559119
0.0161893
-5.28848e-14
-0.0559038
0.0161832
7.59809e-08
-0.0559038
0.0161832
-0.0559119
0.0161893
-8.5885e-08
-0.0046072
0.00813564
-0.0594402
1.27545e-13
-0.00460642
0.00813974
-0.0594372
8.58847e-08
-0.00460642
0.00813974
-0.0594372
-0.0046072
0.00813564
-0.0594402
-8.3363e-08
0.000569531
-0.0597873
2.18709e-14
0.000571574
-0.0597861
8.33628e-08
0.000571574
-0.0597861
0.000569531
-0.0597873
-9.79192e-08
0.00597696
-0.0595172
-4.54468e-14
0.00598165
-0.0595116
9.7919e-08
0.00598165
-0.0595116
0.00597696
-0.0595172
-6.83917e-08
0.055711
0.0102624
-0.0599964
-1.13212e-14
0.055712
0.0102627
-0.0599931
6.83915e-08
0.055712
0.0102627
-0.0599931
0.055711
0.0102624
-0.0599964
-9.37918e-08
0.0560055
0.00786148
-1.39031e-13
0.0560033
0.00786233
9.37915e-08
0.0560033
0.00786233
0.0560055
0.00786148
-4.58275e-08
0.0557698
0.00936601
-1.07308e-13
0.0557694
0.00936535
4.58268e-08
0.0557694
0.00936535
0.0557698
0.00936601
-8.87092e-08
0.053388
0.00912151
-6.78984e-14
0.0533883
0.00911846
8.87081e-08
0.0533883
0.00911846
0.053388
0.00912151
-1.13021e-07
0.0496045
0.00703654
-1.23778e-13
0.0496001
0.00703662
1.1302e-07
0.0496001
0.00703662
0.0496045
0.00703654
-5.94389e-08
0.0432486
0.00768504
7.43417e-14
0.0432438
0.00767769
5.94385e-08
0.0432438
0.00767769
0.0432486
0.00768504
-7.83332e-08
0.0398844
0.00647118
1.01143e-11
0.03988
0.00646958
7.83546e-08
0.03988
0.00646958
0.0398844
0.00647118
-3.18462e-08
0.0243356
0.00709644
3.98556e-11
0.0243292
0.00709508
3.19401e-08
0.0243292
0.00709508
0.0243356
0.00709644
-2.05305e-08
0.0135959
-0.00647239
-1.14403e-11
0.013598
-0.00647597
2.05137e-08
0.013598
-0.00647597
0.0135959
-0.00647239
-4.0895e-08
0.0180162
-0.0261324
0.0215146
5.5365e-12
0.018021
-0.0261397
0.0215157
4.09002e-08
0.018021
-0.0261397
0.0215157
0.0180162
-0.0261324
0.0215146
-6.18544e-08
0.0251323
0.00797631
-2.37862e-11
0.0251318
0.00798027
6.17998e-08
0.0251318
0.00798027
0.0251323
0.00797631
-1.4526e-08
-0.0120667
0.0184781
0.00553384
-1.23927e-11
-0.0120693
0.0184777
0.00553348
1.44986e-08
-0.0120693
0.0184777
0.00553348
-0.0120667
0.0184781
0.00553384
5.78163e-09
-0.00411934
0.0139929
4.63238e-12
-0.00412134
0.0139926
-5.78364e-09
-0.00412134
0.0139926
-0.00411934
0.0139929
-3.08731e-08
-0.00357627
0.00202175
-2.80489e-12
-0.00357589
0.00202322
3.08641e-08
-0.00357589
0.00202322
-0.00357627
0.00202175
-1.39456e-08
-0.00462691
0.00277287
-2.84013e-12
-0.00462549
0.00277193
1.39393e-08
-0.00462549
0.00277193
-0.00462691
0.00277287
-1.40178e-08
-0.00548612
0.00229446
-1.91117e-12
-0.00548512
0.00229448
1.40133e-08
-0.00548512
0.00229448
-0.00548612
0.00229446
-6.9472e-09
-0.0063566
0.00190151
-1.26169e-12
-0.00635587
0.00190201
6.94432e-09
-0.00635587
0.00190201
-0.0063566
0.00190151
-2.53115e-09
-0.00679137
0.00101219
-1.27631e-12
-0.00679106
0.00101304
2.52933e-09
-0.00679106
0.00101304
-0.00679137
0.00101219
-7.55121e-10
-0.00684729
0.000449514
-8.87572e-13
-0.00684708
0.000449878
7.53912e-10
-0.00684708
0.000449878
-0.00684729
0.000449514
-1.21551e-09
-0.00660918
-0.000249432
-1.06144e-12
-0.00660903
-0.000249312
1.21415e-09
-0.00660903
-0.000249312
-0.00660918
-0.000249432
-7.56571e-10
-0.00611171
-0.000667787
-1.13839e-12
-0.00611156
-0.000667765
7.54788e-10
-0.00611156
-0.000667765
-0.00611171
-0.000667787
-1.55757e-09
-0.00565733
-0.00107578
-9.80744e-13
-0.00565712
-0.00107577
1.5556e-09
-0.00565712
-0.00107577
-0.00565733
-0.00107578
-1.3941e-08
-0.0310968
0.0185603
4.64041e-11
-0.0310927
0.018551
1.40643e-08
-0.0310927
0.018551
-0.0310968
0.0185603
-2.03449e-08
-0.0387679
0.0147676
-9.11331e-12
-0.0387629
0.0147652
2.04207e-08
-0.0387629
0.0147652
-0.0387679
0.0147676
-1.78803e-08
-0.045751
0.0134542
-2.98173e-11
-0.0457478
0.0134544
1.7869e-08
-0.0457478
0.0134544
-0.045751
0.0134542
-1.11898e-07
-0.0498298
0.011764
-8.0739e-12
-0.0498321
0.0117619
1.11883e-07
-0.0498321
0.0117619
-0.0498298
0.011764
-1.50561e-07
-0.0542211
0.011428
1.00671e-12
-0.0542246
0.011429
1.50556e-07
-0.0542246
0.011429
-0.0542211
0.011428
-1.25797e-07
-0.0563288
0.0112293
1.1927e-12
-0.0563347
0.0112284
1.25795e-07
-0.0563347
0.0112284
-0.0563288
0.0112293
-8.93217e-08
-0.0571494
0.0101867
2.75444e-13
-0.0571559
0.0101865
8.93208e-08
-0.0571559
0.0101865
-0.0571494
0.0101867
-7.62767e-08
-0.0599554
0.0106675
-3.051e-15
-0.0599607
0.010667
7.62763e-08
-0.0599607
0.010667
-0.0599554
0.0106675
-6.11104e-08
-0.0602838
0.0105909
3.56205e-14
-0.0602876
0.0105896
6.11103e-08
-0.0602876
0.0105896
-0.0602838
0.0105909
1.52528e-08
0.0203993
0.00976891
-5.95594e-13
0.0204006
0.00976231
-1.52563e-08
0.0204006
0.00976231
0.0203993
0.00976891
-7.23841e-08
0.023921
-2.78584e-12
0.0239079
7.23875e-08
0.0239079
0.023921
-8.56963e-08
-0.0560245
0.00930898
-2.53987e-13
-0.0560244
0.00931414
8.56953e-08
-0.0560244
0.00931414
-0.0560245
0.00930898
-1.0002e-07
-0.0579629
0.00892682
-3.52861e-13
-0.0579667
0.00892854
1.00019e-07
-0.0579667
0.00892854
-0.0579629
0.00892682
-5.78525e-08
-0.0606907
0.0105149
-1.74024e-13
-0.0606916
0.010514
5.78518e-08
-0.0606916
0.010514
-0.0606907
0.0105149
-9.21365e-08
-0.0551134
0.0106121
1.3697e-13
-0.0551191
0.0106106
9.21359e-08
-0.0551191
0.0106106
-0.0551134
0.0106121
-5.77594e-08
-0.0599618
0.0129841
2.91189e-13
-0.0599613
0.0129819
5.77591e-08
-0.0599613
0.0129819
-0.0599618
0.0129841
-7.24276e-08
-0.0071538
0.00944927
-0.0622572
2.90556e-13
-0.00715117
0.00944776
-0.062258
7.24276e-08
-0.00715117
0.00944776
-0.062258
-0.0071538
0.00944927
-0.0622572
-7.19864e-08
-0.00388402
-0.0627099
1.90935e-13
-0.00388103
-0.0627074
7.19865e-08
-0.00388103
-0.0627074
-0.00388402
-0.0627099
-5.43885e-08
0.000557051
-0.0642283
1.15944e-13
0.000555894
-0.0642231
5.43886e-08
0.000555894
-0.0642231
0.000557051
-0.0642283
-7.03807e-08
0.0042989
-0.063259
1.05961e-13
0.00429804
-0.0632538
7.03808e-08
0.00429804
-0.0632538
0.0042989
-0.063259
-5.8998e-08
0.00794503
-0.0636424
1.07926e-13
0.00794421
-0.0636393
5.89981e-08
0.00794421
-0.0636393
0.00794503
-0.0636424
-5.14876e-08
0.00960705
-0.0619457
1.47973e-13
0.00960616
-0.0619496
5.14877e-08
0.00960616
-0.0619496
0.00960705
-0.0619457
-1.03379e-07
-0.0205205
0.00714587
-1.07195e-12
-0.0205037
0.00713746
1.03367e-07
-0.0205037
0.00713746
-0.0205205
0.00714587
-6.64825e-08
-0.0295758
-1.17345e-12
-0.0295654
6.64792e-08
-0.0295654
-0.0295758
-1.03805e-08
-0.00437621
0.0030152
-1.7349e-12
-0.00437535
0.00301482
1.03746e-08
-0.00437535
0.00301482
-0.00437621
0.0030152
-6.16498e-09
-0.00526213
0.00250988
-1.26251e-12
-0.00526168
0.00251033
6.159e-09
-0.00526168
0.00251033
-0.00526213
0.00250988
-3.52633e-09
-0.00586406
0.00188132
-1.49644e-12
-0.00586332
0.00188166
3.52165e-09
-0.00586332
0.00188166
-0.00586406
0.00188132
-2.77881e-09
-0.00623899
0.000969711
-6.69895e-13
-0.00623826
0.000969828
2.77569e-09
-0.00623826
0.000969828
-0.00623899
0.000969711
-6.42924e-10
-0.00683079
0.000506589
-5.57769e-13
-0.0068301
0.000506747
6.40743e-10
-0.0068301
0.000506747
-0.00683079
0.000506589
-2.03265e-09
-0.00695912
-0.000379237
-5.4825e-13
-0.00695869
-0.000379282
2.03049e-09
-0.00695869
-0.000379282
-0.00695912
-0.000379237
-2.47178e-09
-0.00644289
-0.000780306
-5.11949e-13
-0.00644257
-0.00078035
2.47024e-09
-0.00644257
-0.00078035
-0.00644289
-0.000780306
-1.70574e-09
-0.0060491
-0.000846325
1.0417e-12
-0.00604879
-0.000846293
1.70651e-09
-0.00604879
-0.000846293
-0.0060491
-0.000846325
-3.18682e-09
0.000772363
-0.00166667
-0.00515478
1.2865e-12
0.000772381
-0.00166673
-0.00515445
3.18994e-09
0.000772381
-0.00166673
-0.00515445
0.000772362
-0.00166667
-0.00515478
-2.7748e-09
0.000262917
-0.00501352
1.78101e-12
0.000262901
-0.00501331
2.779e-09
0.000262901
-0.00501331
0.000262917
-0.00501352
-2.86978e-09
-0.00017356
-0.00492237
3.49069e-13
-0.000173594
-0.00492219
2.87075e-09
-0.000173594
-0.00492219
-0.00017356
-0.00492237
-3.15804e-09
-0.000473361
-0.00495444
-6.10893e-13
-0.000473395
-0.00495425
3.15629e-09
-0.000473395
-0.00495425
-0.000473361
-0.00495444
-2.31856e-09
-0.000889792
-0.00495016
-1.43342e-12
-0.000889741
-0.00495004
2.31578e-09
-0.000889741
-0.00495004
-0.000889792
-0.00495016
-2.92871e-09
-0.00139317
-0.00515394
-1.11252e-12
-0.00139317
-0.00515369
2.92647e-09
-0.00139317
-0.00515369
-0.00139317
-0.00515394
-3.86678e-08
0.01414
0.0202524
8.79445e-13
0.0141413
0.0202518
3.86657e-08
0.0141413
0.0202518
0.01414
0.0202524
-7.68518e-08
0.0256144
0.00700365
1.51168e-12
0.0256101
0.00700878
7.68498e-08
0.0256101
0.00700878
0.0256144
0.00700365
5.83431e-09
-0.00479423
0.00255429
-2.10448e-12
-0.00479298
0.00255493
-5.839e-09
-0.00479298
0.00255493
-0.00479423
0.00255429
-1.0853e-08
-0.00526976
0.00324841
-3.07091e-12
-0.00526999
0.00324892
1.08486e-08
-0.00526999
0.00324892
-0.00526976
0.00324841
-5.45323e-09
-0.00610925
0.00313396
-3.05034e-12
-0.00610925
0.00313375
5.44999e-09
-0.00610925
0.00313375
-0.00610925
0.00313396
-4.28847e-09
-0.00688609
0.00267836
-2.64663e-12
-0.00688582
0.00267857
4.28626e-09
-0.00688582
0.00267857
-0.00688609
0.00267836
3.78371e-10
-0.00745694
0.00158303
-2.00287e-12
-0.00745658
0.0015838
-3.79433e-10
-0.00745658
0.0015838
-0.00745694
0.00158303
1.07824e-10
-0.00744718
0.000439752
-1.46169e-12
-0.00744681
0.000440115
-1.07708e-10
-0.00744681
0.000440115
-0.00744718
0.000439752
-9.48792e-10
-0.00728978
-0.000406826
-7.32991e-13
-0.00728954
-0.000406586
9.50025e-10
-0.00728954
-0.000406586
-0.00728978
-0.000406826
-7.86045e-10
-0.00673562
-0.00122195
4.01756e-14
-0.00673541
-0.00122189
7.87782e-10
-0.00673541
-0.00122189
-0.00673562
-0.00122195
-1.86483e-09
-0.00601391
-0.00179748
2.74754e-13
-0.00601368
-0.0017975
1.86631e-09
-0.00601368
-0.0017975
-0.00601391
-0.00179748
-3.18096e-09
-0.00521776
-0.00218932
2.90782e-13
-0.00521745
-0.00218941
3.18149e-09
-0.00521745
-0.00218941
-0.00521776
-0.00218932
-3.20801e-08
-0.0352477
0.0242322
-1.01961e-11
-0.0352458
0.0242313
3.21042e-08
-0.0352458
0.0242313
-0.0352477
0.0242322
-6.27537e-08
-0.0415578
0.0210777
-1.63346e-11
-0.0415527
0.0210721
6.27864e-08
-0.0415527
0.0210721
-0.0415578
0.0210777
-7.12229e-08
-0.0463345
0.0182311
-1.2191e-11
-0.046327
0.0182287
7.12308e-08
-0.046327
0.0182287
-0.0463345
0.0182311
-1.41486e-07
-0.0506079
0.0160375
-1.98052e-12
-0.0506096
0.0160444
1.41484e-07
-0.0506096
0.0160444
-0.0506079
0.0160375
-1.33581e-07
-0.0542273
0.0150475
1.60177e-12
-0.0542313
0.0150505
1.33578e-07
-0.0542313
0.0150505
-0.0542273
0.0150475
-9.51543e-08
-0.0573648
0.014367
8.85175e-13
-0.0573701
0.0143671
9.51522e-08
-0.0573701
0.0143671
-0.0573648
0.014367
-8.30687e-08
-0.0603505
0.0131724
2.00044e-13
-0.0603564
0.0131728
8.30676e-08
-0.0603564
0.0131728
-0.0603505
0.0131724
-7.58247e-08
-0.0608481
0.0111652
4.33256e-14
-0.0608548
0.0111653
7.58242e-08
-0.0608548
0.0111653
-0.0608481
0.0111652
-5.7541e-08
-0.0617171
0.0114599
9.48573e-14
-0.0617239
0.0114586
5.75409e-08
-0.0617239
0.0114586
-0.0617171
0.0114599
-4.54844e-08
-0.0629887
0.0108786
1.77576e-13
-0.0629949
0.010877
4.54844e-08
-0.0629949
0.010877
-0.0629887
0.0108786
-2.22103e-08
-0.0288969
0.0195954
0.0295539
1.46601e-14
-0.0288908
0.0195863
0.0295563
2.22075e-08
-0.0288908
0.0195863
0.0295563
-0.0288969
0.0195954
0.0295539
-9.24438e-08
-0.041706
0.0225781
-2.50702e-12
-0.0416998
0.0225712
9.24409e-08
-0.0416998
0.0225712
-0.041706
0.0225781
-1.37288e-07
-0.0406704
0.0228855
-2.23158e-12
-0.0406758
0.0228837
1.37288e-07
-0.0406758
0.0228837
-0.0406704
0.0228855
-4.62052e-08
-0.0461735
0.0228131
-1.26712e-12
-0.0461772
0.0228131
4.62039e-08
-0.0461772
0.0228131
-0.0461735
0.0228131
-3.07223e-08
0.0379399
0.00726998
-4.08208e-12
0.0379331
0.00726325
3.07235e-08
0.0379331
0.00726325
0.0379399
0.00726998
-1.62377e-08
-0.0529447
0.0176742
-6.63071e-13
-0.0529463
0.0176778
1.62368e-08
-0.0529463
0.0176778
-0.0529447
0.0176742
-4.78603e-08
-0.0563591
0.0127234
-2.41627e-13
-0.0563662
0.012734
4.78592e-08
-0.0563662
0.012734
-0.0563591
0.0127234
-7.87086e-08
-0.0579981
0.010566
-1.66739e-13
-0.0580053
0.0105676
7.87078e-08
-0.0580053
0.0105676
-0.0579981
0.010566
-7.29227e-08
-0.0600335
0.0125502
-1.76516e-14
-0.060039
0.0125476
7.2922e-08
-0.060039
0.0125476
-0.0600335
0.0125502
-6.99821e-08
-0.0621392
0.0127179
2.74462e-13
-0.0621445
0.012716
6.99816e-08
-0.0621445
0.012716
-0.0621392
0.0127179
-6.5354e-08
-0.0605445
0.0113895
3.75874e-13
-0.0605508
0.0113882
6.53538e-08
-0.0605508
0.0113882
-0.0605445
0.0113895
-5.74205e-08
-0.063278
0.0121828
3.56849e-13
-0.0632832
0.0121801
5.74205e-08
-0.0632832
0.0121801
-0.063278
0.0121828
-5.14275e-08
-0.00798373
0.00904407
-0.0643383
2.14148e-13
-0.00798311
0.00904187
-0.0643421
5.14276e-08
-0.00798311
0.00904187
-0.0643421
-0.00798373
0.00904407
-0.0643383
-6.06237e-08
-0.00498166
-0.0652592
1.76927e-13
-0.00498209
-0.0652591
6.06239e-08
-0.00498209
-0.0652591
-0.00498166
-0.0652592
-6.4554e-08
-0.00233488
-0.0653567
1.44455e-13
-0.00233492
-0.0653546
6.45543e-08
-0.00233492
-0.0653546
-0.00233488
-0.0653567
-6.28381e-08
-3.3127e-05
-0.06653
1.41445e-13
-3.20938e-05
-0.0665259
6.28384e-08
-3.20938e-05
-0.0665259
-3.3127e-05
-0.06653
-5.76783e-08
0.00326043
-0.0665525
1.77426e-13
0.00326169
-0.0665476
5.76785e-08
0.00326169
-0.0665476
0.00326043
-0.0665525
-5.31423e-08
0.00457071
-0.0649527
1.8766e-13
0.00457229
-0.06495
5.31425e-08
0.00457229
-0.06495
0.00457071
-0.0649527
-4.14703e-08
0.00756588
-0.0649409
1.91154e-13
0.00756542
-0.0649428
4.14704e-08
0.00756542
-0.0649428
0.00756588
-0.0649409
-3.74857e-08
0.00961969
-0.0650424
1.97125e-13
0.00961803
-0.0650475
3.74858e-08
0.00961803
-0.0650475
0.00961969
-0.0650424
-1.17238e-08
-0.0050044
0.00379544
-1.03129e-12
-0.00500362
0.00379485
1.17189e-08
-0.00500362
0.00379485
-0.0050044
0.00379544
-8.4883e-09
-0.0062526
0.00375809
-1.1998e-12
-0.00625117
0.00375787
8.48319e-09
-0.00625117
0.00375787
-0.0062526
0.00375809
-5.2836e-09
-0.00676939
0.00239812
-1.42304e-12
-0.00676811
0.00239859
5.2799e-09
-0.00676811
0.00239859
-0.00676939
0.00239812
-3.53889e-09
-0.00732855
0.00152887
-1.64694e-12
-0.00732771
0.00152943
3.53655e-09
-0.00732771
0.00152943
-0.00732855
0.00152887
3.65595e-10
-0.0074342
0.000612237
-1.68401e-12
-0.00743348
0.000612513
-3.6694e-10
-0.00743348
0.000612513
-0.0074342
0.000612237
-8.17039e-10
-0.00745003
-0.000363409
-9.46986e-13
-0.00744955
-0.000363208
8.16504e-10
-0.00744955
-0.000363208
-0.00745003
-0.000363409
-1.94094e-09
-0.00714037
-0.00108996
2.90263e-13
-0.00714018
-0.00108973
1.94208e-09
-0.00714018
-0.00108973
-0.00714037
-0.00108996
-1.3266e-09
-0.00615459
-0.00183211
2.27752e-12
-0.00615433
-0.00183214
1.33065e-09
-0.00615433
-0.00183214
-0.00615459
-0.00183211
-3.67776e-09
-0.00533591
-0.00248535
3.28581e-12
-0.00533555
-0.00248551
3.68303e-09
-0.00533555
-0.00248551
-0.00533591
-0.00248535
-5.28099e-09
0.00184239
-0.00440633
-0.00277196
-1.58147e-12
0.00184241
-0.00440571
-0.00277226
5.28107e-09
0.00184241
-0.00440571
-0.00277226
0.00184239
-0.00440633
-0.00277196
-4.06997e-09
0.00109679
-0.00440918
-1.62357e-12
0.00109676
-0.0044088
4.07454e-09
0.00109676
-0.0044088
0.00109679
-0.00440918
-3.92339e-09
0.000512882
-0.00442961
-8.28495e-13
0.000512836
-0.00442939
3.92654e-09
0.000512836
-0.00442939
0.000512882
-0.00442961
-3.82798e-09
4.47882e-05
-0.00445427
-1.3702e-12
4.48061e-05
-0.00445417
3.82739e-09
4.48061e-05
-0.00445417
4.47882e-05
-0.00445427
-4.06011e-09
-0.000423259
-0.00448638
-1.32307e-12
-0.000423149
-0.0044863
4.05737e-09
-0.000423149
-0.0044863
-0.000423259
-0.00448638
-3.84868e-09
-0.000869892
-0.00450352
-1.53669e-12
-0.000869808
-0.00450339
3.84554e-09
-0.000869808
-0.00450339
-0.000869892
-0.00450352
-4.23669e-09
-0.00167631
-0.00434753
-1.20805e-12
-0.0016763
-0.0043472
4.23415e-09
-0.0016763
-0.0043472
-0.00167631
-0.00434753
-4.92662e-09
-0.00251814
-0.00437593
3.68693e-13
-0.00251826
-0.00437549
4.9257e-09
-0.00251826
-0.00437549
-0.00251814
-0.00437593
-5.88623e-09
0.00557528
-0.00445427
-0.00363914
3.85402e-12
0.00557483
-0.0044537
-0.0036394
5.88647e-09
0.00557483
-0.0044537
-0.0036394
0.00557528
-0.00445427
-0.00363914
-4.39705e-09
0.00663286
-0.0032469
4.34713e-12
0.00663251
-0.00324709
4.40102e-09
0.00663251
-0.00324709
0.00663286
-0.0032469
-2.4633e-09
0.00745522