/*--------------------------------*- C++ -*----------------------------------*\
| =========                 |                                                 |
| \\      /  F ield         | OpenFOAM: The Open Source CFD Toolbox           |
|  \\    /   O peration     | Version:  v1806                                 |
|   \\  /    A nd           | Web:      www.OpenFOAM.com                      |
|    \\/     M anipulation  |                                                 |
\*---------------------------------------------------------------------------*/
FoamFile
{
    version     2.0;
    format      ascii;
    class       surfaceScalarField;
    location    "10";
    object      phi;
}
// * * * * * * * * * * * * * * * * * * * * * * * * * * * * * * * * * * * * * //

dimensions      [0 3 -1 0 0 0 0];
oriented        oriented;


internalField   nonuniform List<scalar> 
8600
(
0.693857
-0.875307
-0.755971
0.937422
0.584351
-0.86291
0.972417
0.418375
-0.858927
1.0249
0.312155
-0.891473
0.997692
0.251922
-0.91534
0.975574
0.220113
-0.935212
0.967022
0.19875
-0.949207
0.970569
0.177723
-0.951113
0.97214
0.158588
-0.948984
0.96812
0.142221
-0.944996
0.961362
0.128363
-0.939381
0.95324
0.116608
-0.932522
0.944277
0.106696
-0.924808
0.93472
0.0984341
-0.916523
0.924785
0.0916434
-0.907901
0.914692
0.0861621
-0.899122
0.904603
0.0818518
-0.890279
0.894589
0.0786065
-0.881409
0.884654
0.0762733
-0.87275
0.875084
-0.862438
0.863553
0.20093
-0.69107
-0.385167
0.173355
-0.835335
0.212487
-0.898059
0.232552
-0.911538
0.230016
-0.912804
0.213493
-0.918689
0.189497
-0.92521
0.167629
-0.929245
0.150889
-0.932244
0.136871
-0.930978
0.124735
-0.927245
0.114276
-0.922064
0.10532
-0.915852
0.0977163
-0.90892
0.0913466
-0.901532
0.086116
-0.893891
0.0819556
-0.886118
0.0788449
-0.878298
0.0766611
-0.870567
-0.861441
0.440038
-0.75791
-0.373198
0.447586
-0.842883
0.378666
-0.82914
0.302288
-0.83516
0.242083
-0.852599
0.201962
-0.878568
0.177702
-0.90095
0.162615
-0.914158
0.14814
-0.91777
0.13459
-0.917428
0.122705
-0.915359
0.112472
-0.911831
0.103746
-0.907126
0.0963757
-0.90155
0.0902393
-0.895395
0.0852226
-0.888874
0.08126
-0.882156
0.0782672
-0.875306
0.0761749
-0.868474
-0.860516
0.146636
-0.721741
-0.182804
0.0996272
-0.795875
0.110361
-0.839874
0.139105
-0.863903
0.162887
-0.876382
0.171895
-0.887576
0.166977
-0.896032
0.153426
-0.900607
0.138949
-0.903293
0.127117
-0.905596
0.116949
-0.905191
0.108048
-0.90293
0.100279
-0.899357
0.0935956
-0.894866
0.087961
-0.889761
0.0833595
-0.884273
0.0797191
-0.878515
0.0769845
-0.872571
0.0750831
-0.866573
-0.859668
0.283466
-0.771152
-0.234056
0.324494
-0.836902
0.311329
-0.826708
0.267891
-0.820466
0.221322
-0.829813
0.18303
-0.849283
0.157048
-0.87005
0.141395
-0.884955
0.131224
-0.893122
0.121542
-0.895914
0.112353
-0.896002
0.104096
-0.894672
0.0968621
-0.892124
0.0906228
-0.888627
0.0853458
-0.884484
0.0809795
-0.879906
0.0775188
-0.875055
0.0749517
-0.870004
0.0732274
-0.864849
-0.858934
0.101642
-0.761588
-0.111206
0.0669855
-0.802246
0.0585151
-0.818238
0.0790664
-0.841017
0.106438
-0.857184
0.127118
-0.869964
0.135276
-0.878208
0.132457
-0.882136
0.123439
-0.884104
0.113752
-0.886228
0.105497
-0.887747
0.0982809
-0.887456
0.0919522
-0.885795
0.0864921
-0.883167
0.081856
-0.879847
0.0780031
-0.876053
0.0748907
-0.871942
0.0725177
-0.867631
0.0708991
-0.86323
-0.858249
0.194546
-0.797071
-0.159062
0.229841
-0.837542
0.246556
-0.834953
0.225608
-0.820069
0.193462
-0.825038
0.162043
-0.838546
0.137036
-0.853201
0.120808
-0.865908
0.111728
-0.875024
0.105295
-0.879794
0.0989268
-0.881379
0.0928033
-0.881332
0.0872241
-0.880216
0.082299
-0.878242
0.078087
-0.875636
0.0746051
-0.872572
0.0718465
-0.869183
0.0697866
-0.865571
0.0683612
-0.861805
-0.857628
0.0675888
-0.791697
-0.0729628
0.0449846
-0.814937
0.0297531
-0.819721
0.0421734
-0.832489
0.0655841
-0.848449
0.0879207
-0.860882
0.102776
-0.868056
0.107841
-0.870974
0.105035
-0.872218
0.0984645
-0.873223
0.0921055
-0.87502
0.086528
-0.875755
0.0815833
-0.875271
0.0772189
-0.873877
0.0734357
-0.871852
0.0702879
-0.869424
0.0678161
-0.866712
0.0660139
-0.863769
0.0648773
-0.860668
-0.857186
0.138803
-0.818183
-0.112317
0.167177
-0.843311
0.189473
-0.842018
0.184386
-0.827402
0.164238
-0.828301
0.139997
-0.836642
0.117852
-0.84591
0.102036
-0.855158
0.0928527
-0.863035
0.088032
-0.868403
0.0839972
-0.870985
0.079865
-0.871623
0.0758548
-0.871261
0.0721669
-0.87019
0.0689191
-0.868605
0.0661487
-0.866653
0.0638868
-0.86445
0.062183
-0.862065
0.0610794
-0.859565
-0.856761
0.044334
-0.81368
-0.0488374
0.0283777
-0.827355
0.0134278
-0.827068
0.0192251
-0.833199
0.0374865
-0.846562
0.0576626
-0.856818
0.0741575
-0.862405
0.0834618
-0.864462
0.0853851
-0.864958
0.0823636
-0.865381
0.0777094
-0.866331
0.0734734
-0.867387
0.0697332
-0.867521
0.0664659
-0.866922
0.0636664
-0.865805
0.0613281
-0.864315
0.0594346
-0.862556
0.0579799
-0.86061
0.0569643
-0.858549
-0.856331
0.101843
-0.834345
-0.081178
0.123941
-0.849453
0.145167
-0.848293
0.148401
-0.836434
0.136027
-0.834188
0.117775
-0.838566
0.0993294
-0.843959
0.084675
-0.849808
0.0756678
-0.855951
0.0712091
-0.860922
0.0685622
-0.863684
0.0659433
-0.864768
0.0632554
-0.864833
0.0606724
-0.864339
0.0583312
-0.863464
0.056334
-0.862318
0.054727
-0.860949
0.0535493
-0.859433
0.0527841
-0.857784
-0.856014
0.0273334
-0.82959
-0.0320887
0.0153393
-0.837459
0.00216344
-0.835117
0.00374988
-0.83802
0.0175531
-0.847991
0.0345315
-0.855545
0.0500874
-0.859515
0.0610757
-0.860796
0.0659231
-0.860798
0.0656873
-0.860687
0.0629209
-0.860918
0.0598855
-0.861732
0.0571852
-0.862133
0.0548024
-0.861956
0.0527136
-0.861375
0.0509228
-0.860527
0.0494844
-0.859511
0.0484264
-0.858375
0.0477963
-0.857154
-0.855806
0.0756459
-0.846075
-0.059161
0.0926643
-0.854477
0.11095
-0.853403
0.118125
-0.845196
0.110591
-0.840457
0.0968392
-0.841793
0.0816169
-0.844292
0.0685272
-0.847707
0.0598958
-0.852167
0.0554991
-0.85629
0.0534874
-0.858906
0.0519095
-0.860154
0.0502454
-0.860468
0.0485689
-0.86028
0.0469965
-0.859803
0.0456096
-0.85914
0.0444464
-0.858348
0.0435427
-0.857471
0.0429269
-0.856538
-0.855559
0.0143546
-0.840829
-0.0195998
0.00479819
-0.844921
-0.00617565
-0.842429
-0.0074664
-0.843905
0.00266248
-0.850586
0.0165323
-0.855663
0.0303407
-0.858101
0.0413485
-0.858715
0.0475515
-0.85837
0.0491059
-0.857844
0.0479081
-0.857708
0.0459738
-0.85822
0.0441143
-0.858609
0.0424392
-0.858605
0.0409845
-0.858348
0.0397805
-0.857936
0.0388451
-0.857412
0.038174
-0.8568
0.0377381
-0.856102
-0.85538
0.0558616
-0.854085
-0.0426057
0.0690491
-0.858108
0.0840394
-0.857419
0.0920092
-0.851875
0.0874937
-0.84607
0.0768191
-0.844988
0.0641973
-0.845479
0.0526989
-0.847216
0.0446164
-0.850287
0.0403872
-0.853615
0.0388554
-0.856176
0.0380153
-0.85738
0.0370033
-0.857597
0.0358767
-0.857478
0.0347784
-0.85725
0.0338082
-0.856966
0.033026
-0.85663
0.0324629
-0.856237
0.0321669
-0.855806
-0.855305
0.00394416
-0.848332
-0.00969793
-0.00419012
-0.849974
-0.0134509
-0.848158
-0.0164573
-0.848869
-0.009419
-0.853108
0.00184457
-0.856252
0.0136821
-0.857317
0.023857
-0.857391
0.030493
-0.856923
0.0332765
-0.856399
0.0332969
-0.856197
0.0321442
-0.856227
0.0308294
-0.856282
0.0296907
-0.856339
0.0287465
-0.856306
0.0279488
-0.856168
0.027287
-0.855968
0.0267788
-0.855729
0.0264407
-0.855468
-0.855179
0.0399419
-0.858712
-0.0295613
0.0501375
-0.860169
0.0619587
-0.85998
0.068984
-0.855894
0.0663876
-0.850512
0.0579134
-0.847777
0.0473952
-0.846798
0.0374686
-0.847464
0.0302195
-0.849674
0.0263309
-0.85251
0.0247636
-0.854629
0.0239932
-0.855457
0.0234053
-0.855694
0.0228616
-0.855796
0.0223419
-0.855786
0.0218723
-0.855698
0.0214651
-0.855561
0.0211361
-0.8554
0.0208852
-0.855217
-0.855059
-0.00511492
-0.8525
-0.00109787
-0.0124019
-0.852882
-0.0205053
-0.851876
-0.0243561
-0.852043
-0.0195901
-0.855278
-0.0106723
-0.856695
-0.000641791
-0.856829
0.00844247
-0.856549
0.0148327
-0.856065
0.0178115
-0.855489
0.0182604
-0.855078
0.017679
-0.854875
0.0170669
-0.855082
0.0165311
-0.85526
0.0160655
-0.85532
0.0156756
-0.855309
0.0153751
-0.855261
0.0151714
-0.855196
0.0150646
-0.85511
-0.855028
0.0261139
-0.861055
-0.0175589
0.0341619
-0.86093
0.0435212
-0.861236
0.0501508
-0.858673
0.0481101
-0.853237
0.0404251
-0.84901
0.0309434
-0.847347
0.0219359
-0.847541
0.015132
-0.849261
0.0113148
-0.851672
0.00990705
-0.853671
0.00977975
-0.854748
0.00981103
-0.855113
0.00971193
-0.855161
0.00952159
-0.85513
0.00930955
-0.855097
0.00912688
-0.855078
0.00899061
-0.85506
0.00892941
-0.855049
-0.855026
-0.0139684
0.00791388
-0.0198989
-0.0261345
-0.0298073
-0.0280445
-0.0220547
-0.0144019
-0.00694298
-0.00120374
0.00212474
0.00345404
0.00370597
0.00359256
0.00343169
0.00330176
0.00320517
0.00312725
0.00306766
0.00301843
-0.21348
-0.0593419
0.272822
-0.157233
-0.0562468
-0.106689
-0.0505441
-0.0597677
-0.0469211
-0.0154522
-0.0443155
0.027053
-0.0425052
0.0683634
-0.0413104
0.109013
-0.0406497
0.1495
-0.0404868
0.190293
-0.0407932
0.232005
-0.0417118
0.27525
-0.0432454
0.320921
-0.0456711
0.368603
-0.0476817
0.420606
-0.0520025
0.474927
-0.0543208
0.536968
-0.062041
0.601066
-0.064098
0.678731
-0.0776658
-0.07724
-0.0423457
-0.0760399
0.0590437
-0.0253366
-0.0732559
-0.00469983
-0.0711809
0.0178978
-0.0695188
0.0418743
-0.0682921
0.0668211
-0.067452
0.0924729
-0.0669622
0.118623
-0.0668
0.145088
-0.0669515
0.171712
-0.0674177
0.198179
-0.0681782
0.224234
-0.0693004
0.24924
-0.0706774
0.2741
-0.0725414
0.296659
-0.0745619
0.31969
-0.0773517
0.337872
-0.0802235
0.357853
-0.0840783
0.368787
-0.0886002
-0.0936196
-0.0371768
-0.0915958
0.0527328
-0.019498
-0.0909347
-0.0005163
-0.0901626
0.0194055
-0.0894406
0.0399883
-0.0888748
0.0610508
-0.0885145
0.0824835
-0.0883949
0.104223
-0.0885393
0.126234
-0.088963
0.148491
-0.0896748
0.171001
-0.0906877
0.193698
-0.0919976
0.216646
-0.0936248
0.239665
-0.0955612
0.262904
-0.0978009
0.286004
-0.100451
0.309003
-0.103222
0.331721
-0.106796
0.353072
-0.109952
-0.113745
0.0141093
-0.102278
-0.00342703
0.0248459
-0.101671
0.0358548
-0.101171
0.0472109
-0.100797
0.058888
-0.100552
0.0708129
-0.100439
0.082875
-0.100457
0.0949392
-0.100603
0.106855
-0.100879
0.118465
-0.101285
0.1296
-0.101822
0.1401
-0.102497
0.149786
-0.103312
0.158502
-0.104277
0.166108
-0.105407
0.172357
-0.1067
0.177334
-0.1082
0.180465
-0.109926
0.182323
-0.11181
-0.114227
0.00309431
-0.111987
0.00661421
0.0133432
-0.11192
0.0240601
-0.111888
0.0351567
-0.111893
0.0465569
-0.111952
0.0582028
-0.112085
0.070056
-0.11231
0.082092
-0.112639
0.0942955
-0.113083
0.106656
-0.113646
0.119168
-0.114334
0.13182
-0.115149
0.144601
-0.116093
0.157492
-0.117168
0.170448
-0.118364
0.183461
-0.119712
0.196387
-0.121126
0.209286
-0.122825
0.22171
-0.124233
-0.126573
0.0234727
-0.118939
-0.0165203
0.0303351
-0.118783
0.0371134
-0.118667
0.0438227
-0.118603
0.0504651
-0.118594
0.0570227
-0.118643
0.0634606
-0.118748
0.0697304
-0.118909
0.0757752
-0.119127
0.0815329
-0.119404
0.0869388
-0.11974
0.0919289
-0.120139
0.0964422
-0.120606
0.100419
-0.121145
0.103821
-0.121766
0.106578
-0.122469
0.108737
-0.123285
0.110094
-0.124182
0.111104
-0.125243
-0.126675
0.0118707
-0.125332
-0.00547776
0.0184862
-0.125398
0.025317
-0.125498
0.0323394
-0.125625
0.0395276
-0.125783
0.0468606
-0.125976
0.0543241
-0.126211
0.0619092
-0.126494
0.0696112
-0.126829
0.077427
-0.127219
0.0853538
-0.127666
0.0933866
-0.128172
0.101517
-0.128736
0.109731
-0.12936
0.118006
-0.130041
0.12632
-0.130783
0.134609
-0.131574
0.142886
-0.132459
0.15097
-0.133328
-0.134767
0.0215313
-0.129887
-0.0169766
0.0259817
-0.129849
0.0303124
-0.129828
0.0345181
-0.129831
0.038595
-0.129859
0.0425352
-0.129916
0.0463255
-0.130002
0.0499476
-0.130117
0.0533797
-0.130261
0.0565976
-0.130437
0.0595771
-0.130646
0.0622946
-0.130889
0.0647292
-0.131171
0.0668627
-0.131493
0.0686839
-0.131862
0.0701811
-0.132281
0.0713683
-0.132761
0.0722158
-0.133306
0.0728689
-0.133981
-0.134861
0.0121536
-0.134284
-0.00775668
0.0166722
-0.134367
0.021317
-0.134473
0.0260839
-0.134598
0.0309644
-0.13474
0.0359494
-0.134901
0.0410314
-0.135084
0.0462046
-0.13529
0.0514644
-0.135521
0.0568069
-0.13578
0.0622272
-0.136066
0.0677189
-0.136381
0.073273
-0.136725
0.0788767
-0.137097
0.0845121
-0.137497
0.0901579
-0.137926
0.0957819
-0.138385
0.101364
-0.138888
0.106834
-0.139451
-0.140344
0.0171895
-0.137308
-0.0141656
0.0201226
-0.1373
0.0229502
-0.137301
0.025664
-0.137311
0.028259
-0.137335
0.0307308
-0.137373
0.0330738
-0.137427
0.035281
-0.137497
0.0373441
-0.137584
0.0392544
-0.13769
0.0410031
-0.137815
0.0425827
-0.137961
0.0439872
-0.138129
0.0452132
-0.138323
0.0462604
-0.138544
0.0471317
-0.138798
0.0478362
-0.13909
0.0483806
-0.139432
0.0487949
-0.139865
-0.140387
0.0101678
-0.140424
-0.00705091
0.013364
-0.140496
0.016646
-0.140583
0.0200149
-0.14068
0.0234686
-0.140789
0.0270026
-0.140907
0.0306122
-0.141036
0.0342926
-0.141177
0.0380393
-0.141331
0.0418471
-0.141498
0.0457105
-0.141678
0.0496226
-0.141873
0.0535744
-0.142081
0.057555
-0.142303
0.0615502
-0.14254
0.065543
-0.142791
0.0695127
-0.143059
0.0734375
-0.143357
0.0772852
-0.143713
-0.144279
0.0128696
-0.142427
-0.0108669
0.0147985
-0.142425
0.0166423
-0.142426
0.0183941
-0.142432
0.0200494
-0.142444
0.0216055
-0.142463
0.02306
-0.142491
0.0244106
-0.142528
0.0256546
-0.142575
0.0267896
-0.142633
0.0278135
-0.142702
0.028725
-0.142784
0.0295241
-0.14288
0.0302122
-0.142992
0.0307928
-0.14312
0.0312715
-0.143269
0.0316555
-0.143443
0.0319512
-0.143653
0.0321606
-0.143922
-0.144208
0.00779808
-0.14466
-0.00556557
0.0100882
-0.144715
0.0124417
-0.14478
0.014861
-0.144851
0.017346
-0.144929
0.0198943
-0.145012
0.0225029
-0.145099
0.0251678
-0.145193
0.0278846
-0.145292
0.0306485
-0.145397
0.033454
-0.145508
0.0362946
-0.145625
0.0391627
-0.145748
0.0420492
-0.145878
0.044943
-0.146014
0.0478314
-0.146158
0.0507
-0.146312
0.0535328
-0.146486
0.0563078
-0.146697
-0.147061
0.0091365
-0.145939
-0.00785686
0.0103574
-0.145936
0.0115116
-0.145934
0.0125936
-0.145933
0.0136003
-0.145935
0.0145297
-0.145941
0.0153811
-0.145951
0.016154
-0.145966
0.0168484
-0.145986
0.0174643
-0.146013
0.0180025
-0.146046
0.0184641
-0.146087
0.0188511
-0.146135
0.0191665
-0.146193
0.0194145
-0.146262
0.0196
-0.146343
0.0197281
-0.14644
0.0198009
-0.146559
0.0198189
-0.146715
-0.146842
0.0055043
-0.147514
-0.00392958
0.00712388
-0.147556
0.00879294
-0.147603
0.010514
-0.147654
0.0122874
-0.147709
0.0141122
-0.147766
0.015986
-0.147825
0.0179055
-0.147885
0.0198672
-0.147948
0.0218667
-0.148012
0.0238991
-0.148078
0.025959
-0.148146
0.0280398
-0.148216
0.0301345
-0.148288
0.0322345
-0.148362
0.0343307
-0.148439
0.0364127
-0.148522
0.0384699
-0.148616
0.0404828
-0.148728
-0.148965
0.00597301
-0.148245
-0.00524221
0.00665794
-0.148241
0.00729137
-0.148237
0.00786943
-0.148233
0.00838982
-0.148229
0.00885151
-0.148227
0.00925437
-0.148227
0.0095989
-0.14823
0.009886
-0.148235
0.010117
-0.148243
0.0102934
-0.148255
0.0104174
-0.14827
0.0104916
-0.14829
0.010519
-0.148315
0.0105035
-0.148347
0.010449
-0.148385
0.0103585
-0.148432
0.0102326
-0.14849
0.010074
-0.148569
-0.148588
0.00340032
-0.149288
-0.00235715
0.00448043
-0.149321
0.00560131
-0.149357
0.00676531
-0.149397
0.00797331
-0.149437
0.00922488
-0.149479
0.0105185
-0.149521
0.0118521
-0.149563
0.0132225
-0.149605
0.0146267
-0.149647
0.0160606
-0.149689
0.01752
-0.14973
0.0190001
-0.14977
0.0204955
-0.149811
0.0220001
-0.149851
0.0235075
-0.149892
0.0250109
-0.149935
0.0265028
-0.149982
0.027967
-0.150033
-0.150183
0.00322176
-0.149565
-0.00294497
0.00346214
-0.149561
0.00366219
-0.149558
0.00381925
-0.149554
0.0039319
-0.14955
0.00399974
-0.149547
0.00402326
-0.149545
0.00400357
-0.149544
0.00394228
-0.149544
0.00384143
-0.149546
0.00370342
-0.149551
0.00353099
-0.149557
0.00332729
-0.149567
0.00309578
-0.149579
0.00284015
-0.149596
0.00256407
-0.149616
0.00227051
-0.149641
0.00196093
-0.149672
0.00163926
-0.149712
-0.149641
0.0012552
-0.15014
-0.000679555
0.00186167
-0.150168
0.00250194
-0.150198
0.00317787
-0.15023
0.00389017
-0.150262
0.00463846
-0.150295
0.00542149
-0.150328
0.00623727
-0.150359
0.00708328
-0.15039
0.00795655
-0.15042
0.00885379
-0.150448
0.00977143
-0.150475
0.0107057
-0.150501
0.0116525
-0.150526
0.0126081
-0.150551
0.0135684
-0.150576
0.0145297
-0.150603
0.0154878
-0.15063
0.0164326
-0.150657
-0.150768
0.000470558
-0.000610928
0.000302765
0.00010498
-0.000124555
-0.000386784
-0.000681925
-0.00100962
-0.00136909
-0.00175927
-0.00217898
-0.00262696
-0.00310199
-0.00360299
-0.00412917
-0.00468023
-0.00525655
-0.00585924
-0.00648968
-0.00714627
-0.26467
-0.108461
0.105175
0.267956
-0.2615
-0.106526
0.103357
-0.25812
-0.104681
0.101301
-0.25461
-0.102763
0.0992522
-0.251156
-0.100729
0.0972754
-0.248046
-0.0985684
0.0954587
-0.245669
-0.0962785
0.0939017
-0.244498
-0.0938845
0.0927131
-0.245042
-0.0914404
0.0919844
-0.247776
-0.0890286
0.0917626
-0.253042
-0.0867501
0.0920168
-0.260945
-0.0847066
0.0926089
-0.271235
-0.0829798
0.0932702
-0.283208
-0.081613
0.0935857
-0.295602
-0.0805931
0.0929879
-0.306546
-0.0798119
0.0907559
-0.313537
-0.0789642
0.0859548
-0.313358
-0.0774196
0.0772411
-0.301971
-0.0739022
0.0625147
-0.0664027
0.0372533
-0.210037
-0.112493
0.214068
-0.205308
-0.111255
-0.200044
-0.109945
-0.194146
-0.10866
-0.187482
-0.107394
-0.179929
-0.106121
-0.1714
-0.104808
-0.161878
-0.103406
-0.151459
-0.101859
-0.140374
-0.100113
-0.129
-0.0981247
-0.117827
-0.0958794
-0.107401
-0.0934054
-0.0982425
-0.090772
-0.0908255
-0.0880101
-0.0851789
-0.0854585
-0.0808046
-0.0833385
-0.0766619
-0.0815623
-0.0706787
-0.0798855
-0.0780377
-0.185626
-0.115769
0.188902
-0.182506
-0.114375
-0.179418
-0.113034
-0.176395
-0.111683
-0.173452
-0.110337
-0.170562
-0.109011
-0.167648
-0.107722
-0.164573
-0.106481
-0.161137
-0.105295
-0.157087
-0.104163
-0.152136
-0.103075
-0.146003
-0.102012
-0.138461
-0.100948
-0.129382
-0.0998511
-0.118688
-0.0987039
-0.106673
-0.097473
-0.0938844
-0.0961273
-0.0806989
-0.0947479
-0.0671144
-0.09347
-0.0924193
-0.136398
-0.120426
0.141055
-0.131185
-0.119587
-0.12551
-0.118709
-0.119384
-0.117808
-0.112851
-0.116871
-0.105976
-0.115885
-0.0988563
-0.114842
-0.0916026
-0.113735
-0.0843318
-0.112566
-0.0771469
-0.111348
-0.0701145
-0.110108
-0.063226
-0.108901
-0.0564016
-0.107772
-0.0494938
-0.106759
-0.0423135
-0.105884
-0.0346381
-0.105148
-0.0262384
-0.104527
-0.0170095
-0.103977
-0.00703574
-0.103444
-0.102882
-0.127863
-0.123758
0.131195
-0.124503
-0.122947
-0.121058
-0.122155
-0.117483
-0.121383
-0.113717
-0.120637
-0.109684
-0.119918
-0.105299
-0.119228
-0.100468
-0.118565
-0.0951061
-0.117928
-0.0891419
-0.117312
-0.082535
-0.116715
-0.0753085
-0.116127
-0.067543
-0.115538
-0.0593578
-0.114944
-0.0508914
-0.114351
-0.0422701
-0.11377
-0.0335716
-0.113226
-0.0247969
-0.112751
-0.0158606
-0.11238
-0.112128
-0.089291
-0.127991
0.0935243
-0.084798
-0.12744
-0.080076
-0.126877
-0.0751632
-0.126296
-0.0701039
-0.125696
-0.0649453
-0.125076
-0.0597326
-0.12444
-0.0545032
-0.123795
-0.0492786
-0.123153
-0.0440607
-0.12253
-0.0388313
-0.121944
-0.0335494
-0.121409
-0.0281502
-0.120937
-0.0225618
-0.120532
-0.0167176
-0.120195
-0.0105708
-0.119916
-0.00411215
-0.119684
0.00261874
-0.119482
0.00953426
-0.119296
-0.119114
-0.0883902
-0.131044
0.0914429
-0.0852322
-0.130598
-0.0819525
-0.130157
-0.0785163
-0.129732
-0.0748856
-0.129327
-0.0710227
-0.128939
-0.0668931
-0.12857
-0.0624705
-0.128217
-0.057744
-0.127879
-0.0527223
-0.127552
-0.0474322
-0.127234
-0.0419168
-0.126925
-0.0362299
-0.126624
-0.0304279
-0.126334
-0.0245606
-0.126062
-0.0186611
-0.125816
-0.0127381
-0.125607
-0.00677219
-0.125448
-0.000719064
-0.125349
-0.125311
-0.0596845
-0.13446
0.0631003
-0.0561597
-0.134123
-0.0525329
-0.133783
-0.0488281
-0.133437
-0.0450696
-0.133085
-0.0412795
-0.13273
-0.0374744
-0.132375
-0.0336637
-0.132028
-0.0298478
-0.131695
-0.0260158
-0.131384
-0.0221485
-0.131101
-0.0182205
-0.130853
-0.0142037
-0.130641
-0.0100727
-0.130465
-0.00581031
-0.130325
-0.0014129
-0.130213
0.00310501
-0.130125
0.00770984
-0.130053
0.0123523
-0.129991
-0.129936
-0.0620804
-0.137024
0.0646445
-0.0594209
-0.136783
-0.0566591
-0.136545
-0.0537776
-0.136319
-0.0507592
-0.136103
-0.0475896
-0.135899
-0.0442603
-0.135704
-0.0407699
-0.135518
-0.0371251
-0.13534
-0.0333404
-0.135169
-0.0294375
-0.135004
-0.0254429
-0.134847
-0.0213845
-0.134699
-0.0172878
-0.134562
-0.0131723
-0.13444
-0.00904749
-0.134338
-0.00491096
-0.134262
-0.000748268
-0.134216
0.00346467
-0.134204
-0.134228
-0.0406002
-0.139642
0.0432185
-0.0379354
-0.139447
-0.0352288
-0.139252
-0.0324934
-0.139054
-0.0297408
-0.138856
-0.0269805
-0.138659
-0.0242178
-0.138467
-0.0214535
-0.138283
-0.0186839
-0.13811
-0.0159008
-0.137952
-0.0130931
-0.137812
-0.0102478
-0.137693
-0.00735303
-0.137594
-0.00439974
-0.137515
-0.00138461
-0.137455
0.00168792
-0.137411
0.00480438
-0.137378
0.00794251
-0.137354
0.0110735
-0.137335
-0.13732
-0.0442587
-0.141671
0.0462871
-0.0421618
-0.141544
-0.0399901
-0.141423
-0.0377354
-0.141309
-0.0353911
-0.1412
-0.0329533
-0.141097
-0.0304213
-0.140999
-0.0277984
-0.140905
-0.0250923
-0.140816
-0.0223141
-0.14073
-0.0194779
-0.140648
-0.016599
-0.140571
-0.013692
-0.140501
-0.0107695
-0.140438
-0.00783948
-0.140385
-0.00490437
-0.140346
-0.00196014
-0.140322
0.00100349
-0.140318
0.00400146
-0.140333
-0.140369
-0.0276302
-0.14361
0.0295698
-0.0256702
-0.143504
-0.0236968
-0.143397
-0.0217164
-0.143289
-0.0197347
-0.143182
-0.0177552
-0.143077
-0.0157794
-0.142975
-0.0138063
-0.142879
-0.0118324
-0.14279
-0.00985241
-0.14271
-0.00785991
-0.142641
-0.00584827
-0.142583
-0.00381202
-0.142537
-0.00174806
-0.142502
0.000343053
-0.142476
0.00245623
-0.142459
0.0045814
-0.142447
0.00670385
-0.14244
0.00880548
-0.142435
-0.14243
-0.0315572
-0.145134
0.0330807
-0.029988
-0.145073
-0.0283656
-0.145019
-0.0266861
-0.144969
-0.0249472
-0.144921
-0.0231482
-0.144876
-0.0212906
-0.144833
-0.0193781
-0.144791
-0.0174167
-0.144751
-0.0154141
-0.144713
-0.0133791
-0.144676
-0.0113208
-0.144641
-0.00924734
-0.14461
-0.00716508
-0.144584
-0.00507751
-0.144564
-0.00298458
-0.144552
-0.000882422
-0.14455
0.00123639
-0.144559
0.00338195
-0.14458
-0.144614
-0.0182134
-0.14651
0.0195896
-0.0168285
-0.146458
-0.0154434
-0.146404
-0.0140616
-0.14635
-0.0126858
-0.146297
-0.0113174
-0.146244
-0.00995644
-0.146194
-0.00860143
-0.146146
-0.00724977
-0.146103
-0.00589794
-0.146064
-0.004542
-0.146032
-0.0031783
-0.146005
-0.00180417
-0.145985
-0.000418693
-0.14597
0.000976692
-0.145959
0.00237768
-0.145953
0.00377701
-0.145949
0.00516471
-0.145946
0.00652888
-0.145944
-0.145942
-0.0219817
-0.147579
0.0230506
-0.020883
-0.147557
-0.0197458
-0.147542
-0.0185683
-0.147528
-0.0173495
-0.147515
-0.01609
-0.147504
-0.0147914
-0.147492
-0.0134569
-0.147481
-0.0120909
-0.147469
-0.0106984
-0.147457
-0.00928528
-0.147445
-0.00785699
-0.147433
-0.00641832
-0.147423
-0.00497262
-0.147415
-0.00352131
-0.147411
-0.00206347
-0.147411
-0.000595749
-0.147417
0.000887399
-0.14743
0.00239318
-0.14745
-0.147478
-0.0108392
-0.148476
0.0117363
-0.00993854
-0.148458
-0.00904427
-0.148436
-0.00815849
-0.148414
-0.00728246
-0.148392
-0.00641659
-0.14837
-0.00556036
-0.148348
-0.0047124
-0.148329
-0.00387065
-0.148311
-0.00303259
-0.148295
-0.00219562
-0.148282
-0.00135751
-0.148272
-0.000516793
-0.148264
0.000326733
-0.148259
0.00117165
-0.148256
0.00201468
-0.148254
0.00285063
-0.148253
0.00367265
-0.148252
0.00447269
-0.14825
-0.148248
-0.0142014
-0.149136
0.0148616
-0.0135215
-0.149138
-0.0128137
-0.149144
-0.012077
-0.14915
-0.011311
-0.149158
-0.0105162
-0.149164
-0.0096942
-0.14917
-0.0088473
-0.149175
-0.00797857
-0.149179
-0.00709159
-0.149182
-0.00619008
-0.149183
-0.00527751
-0.149184
-0.00435672
-0.149185
-0.00342949
-0.149186
-0.00249619
-0.149189
-0.00155559
-0.149194
-0.000604818
-0.149203
0.000360502
-0.149217
0.00134583
-0.149236
-0.149259
-0.00466331
-0.149616
0.0051436
-0.00418238
-0.149618
-0.00371207
-0.149614
-0.00325353
-0.149609
-0.00280731
-0.149604
-0.0023733
-0.149598
-0.00195073
-0.149593
-0.00153829
-0.149588
-0.00113425
-0.149583
-0.000736648
-0.149579
-0.000343577
-0.149576
4.65405e-05
-0.149574
0.000434641
-0.149573
0.000820735
-0.149572
0.00120367
-0.149572
0.00158099
-0.149572
0.00194898
-0.149571
0.00230276
-0.149571
0.00263674
-0.149569
-0.149567
-0.00754598
-0.149903
0.00783298
-0.00725038
-0.149914
-0.00693564
-0.149929
-0.00660097
-0.149944
-0.00624607
-0.149959
-0.00587134
-0.149973
-0.00547779
-0.149986
-0.00506702
-0.149999
-0.00464108
-0.150009
-0.00420227
-0.150018
-0.00375294
-0.150026
-0.00329519
-0.150032
-0.00283059
-0.150037
-0.00235994
-0.150043
-0.00188301
-0.150049
-0.00139845
-0.150056
-0.000903748
-0.150066
-0.000395399
-0.150079
0.00013084
-0.150096
-0.150116
0.000941796
-0.000845276
0.00102777
0.00109906
0.00115534
0.00119669
0.00122364
0.00123714
0.0012385
0.00122924
0.00121096
0.00118521
0.00115322
0.00111579
0.00107304
0.00102431
0.000968087
0.000901976
0.000822865
0.000727127
-0.0853257
-0.0193602
0.104686
-0.0611446
-0.024181
-0.0491492
-0.0119954
-0.0355162
-0.013633
-0.0262374
-0.00927878
-0.0175777
-0.00865965
-0.0109018
-0.00667589
-0.00557706
-0.00532478
-0.00165478
-0.00392228
0.00101186
-0.00266664
0.00258352
-0.00157166
0.00327019
-0.000686664
0.00332012
-4.99285e-05
0.00296107
0.000359043
0.00238451
0.000576566
0.00172727
0.000657237
0.00108141
0.00064586
0.000517588
0.000563822
0.000121421
0.000396166
0.000121421
-0.110966
-0.0415923
0.133198
-0.0919746
-0.0431725
-0.0746382
-0.0293318
-0.0587376
-0.0295337
-0.0453602
-0.0226562
-0.0330985
-0.0209214
-0.0227501
-0.0170242
-0.0139698
-0.0141051
-0.00694625
-0.0109458
-0.00165359
-0.0079593
0.00200514
-0.00523039
0.0041835
-0.00286503
0.00512743
-0.00099386
0.00514582
0.000340659
0.00452139
0.001201
0.00352604
0.00165258
0.00238379
0.00178811
0.0012839
0.00166371
0.000411997
0.00126807
0.000533418
-0.11181
-0.0589621
0.12918
-0.0985031
-0.0564793
-0.0824399
-0.045395
-0.0688889
-0.0430846
-0.0551936
-0.0363514
-0.042968
-0.0331471
-0.0317749
-0.0282173
-0.0219068
-0.0239732
-0.0135326
-0.01932
-0.00676138
-0.0147305
-0.00165798
-0.0103338
0.00185145
-0.00637446
0.00390444
-0.00304684
0.00473427
-0.000489174
0.00462478
0.00131049
0.00387263
0.00240473
0.00276341
0.00289733
0.0015622
0.00286492
0.000533361
0.00229691
0.00106678
-0.110951
-0.0711358
0.123125
-0.100452
-0.0669782
-0.0873427
-0.0585047
-0.0757365
-0.0546909
-0.0632075
-0.0488804
-0.0516801
-0.0446745
-0.0404672
-0.0394302
-0.0302045
-0.0342359
-0.0210306
-0.028494
-0.0132064
-0.0225547
-0.00690956
-0.0166306
-0.00220945
-0.0110746
0.000954792
-0.00621109
0.00273402
-0.0022684
0.00338493
0.00065958
0.00318327
0.00260639
0.00243155
0.00364905
0.00143257
0.0038639
0.00049941
0.00323007
0.00156619
-0.108068
-0.0791867
0.116119
-0.100089
-0.0749571
-0.0901657
-0.0684284
-0.0804216
-0.064435
-0.0697709
-0.0595311
-0.0592635
-0.0551819
-0.0486313
-0.0500623
-0.0383878
-0.0444794
-0.0287632
-0.0381186
-0.0201293
-0.0311886
-0.0127966
-0.0239634
-0.00697688
-0.0168943
-0.00273304
-0.0104549
2.40843e-05
-0.00502552
0.00149449
-0.000810827
0.00195596
0.00214492
0.00170947
0.00389554
0.00107349
0.00449987
0.000381248
0.00392231
0.00194744
-0.103649
-0.0844874
0.10895
-0.0978562
-0.0807496
-0.0906379
-0.0756467
-0.082942
-0.0721309
-0.0743353
-0.0681377
-0.065278
-0.0642392
-0.055709
-0.0596314
-0.0459534
-0.054235
-0.0362817
-0.0477904
-0.0271117
-0.0403586
-0.0188809
-0.0321941
-0.0119768
-0.0237984
-0.00663306
-0.0157987
-0.00287833
-0.00878025
-0.000557197
-0.00313196
0.000593666
0.000994056
0.000887711
0.0036015
0.000659529
0.00472805
0.000247908
0.00433394
0.00219534
-0.0986133
-0.0881088
0.102235
-0.0944916
-0.0848713
-0.0893122
-0.0808261
-0.0835221
-0.0779211
-0.0768689
-0.0747909
-0.0694922
-0.071616
-0.0613354
-0.0677881
-0.0525347
-0.0630357
-0.0432908
-0.0570342
-0.0339751
-0.0496743
-0.0250818
-0.0410875
-0.0171567
-0.0317235
-0.0106549
-0.0223005
-0.00580523
-0.0136299
-0.00256621
-0.00637098
-0.000695606
-0.000876548
0.000142869
0.00276302
0.000304347
0.00456657
0.000144295
0.00449399
0.00233964
-0.0935903
-0.0907367
0.0962181
-0.0906057
-0.0878559
-0.086873
-0.0845587
-0.0826245
-0.0821696
-0.0776485
-0.0797669
-0.0719264
-0.0773381
-0.0653285
-0.074386
-0.0578264
-0.0705379
-0.0494746
-0.065386
-0.0405043
-0.0586446
-0.0313469
-0.0502448
-0.0226109
-0.0404595
-0.0149546
-0.0299567
-0.00888275
-0.0197018
-0.00457786
-0.0106759
-0.00189257
-0.00356184
-0.000485956
0.00135641
4.32939e-05
0.00403732
8.54565e-05
0.00445182
0.0024251
-0.0888975
-0.0927933
0.0909541
-0.0866353
-0.0901181
-0.0838785
-0.0873155
-0.080765
-0.085283
-0.0771116
-0.0834203
-0.0728262
-0.0816234
-0.0677266
-0.0794856
-0.061662
-0.0766025
-0.0545346
-0.0725133
-0.0463871
-0.0667921
-0.0374793
-0.0591526
-0.0283373
-0.0496015
-0.0197056
-0.0385884
-0.012356
-0.0270515
-0.00680469
-0.0162271
-0.00313378
-0.00723275
-0.00106242
-0.000714956
-0.000148854
0.00312376
6.24139e-05
0.00424056
0.00248751
-0.0846485
-0.0945182
0.0863734
-0.0828258
-0.0919408
-0.0807029
-0.0894384
-0.0783735
-0.0876124
-0.0756959
-0.086098
-0.0725541
-0.0847652
-0.0687501
-0.0832896
-0.0640688
-0.0812838
-0.0583014
-0.0782807
-0.0513172
-0.0737762
-0.0431583
-0.0673115
-0.0341452
-0.0586147
-0.0249338
-0.0477998
-0.0164318
-0.0355534
-0.00951002
-0.0231489
-0.00463421
-0.0121086
-0.00172319
-0.00362597
-0.000341438
0.00174201
5.35799e-05
0.00384554
0.00254109
-0.0808619
-0.0960495
0.0823932
-0.0792971
-0.0935057
-0.0775697
-0.0911658
-0.0757562
-0.0894259
-0.0737597
-0.0880945
-0.0714714
-0.0870535
-0.0687052
-0.0860558
-0.0652288
-0.0847602
-0.0607788
-0.0827308
-0.0551065
-0.0794485
-0.0480601
-0.0743579
-0.0397058
-0.066969
-0.0304628
-0.0570428
-0.0211649
-0.0448514
-0.0129079
-0.0314059
-0.00662093
-0.0183955
-0.00262502
-0.00762189
-0.000611446
-0.000271562
3.78021e-05
0.00319629
0.00257889
-0.0774982
-0.0974482
0.0788969
-0.0760874
-0.0949165
-0.0746004
-0.0926529
-0.0731107
-0.0909156
-0.0715664
-0.0896388
-0.0698819
-0.0887381
-0.0678994
-0.0880383
-0.0653998