/*--------------------------------*- C++ -*----------------------------------*\
| =========                 |                                                 |
| \\      /  F ield         | OpenFOAM: The Open Source CFD Toolbox           |
|  \\    /   O peration     | Version:  v1806                                 |
|   \\  /    A nd           | Web:      www.OpenFOAM.com                      |
|    \\/     M anipulation  |                                                 |
\*---------------------------------------------------------------------------*/
FoamFile
{
    version     2.0;
    format      ascii;
    class       volScalarField;
    location    "420";
    object      p;
}
// * * * * * * * * * * * * * * * * * * * * * * * * * * * * * * * * * * * * * //

dimensions      [0 2 -2 0 0 0 0];


internalField   nonuniform List<scalar> 
2400
(
0.000101075
0.000102289
0.000104657
0.000108289
0.000112973
0.000118758
0.000125237
0.000132412
0.000139566
0.000146531
0.000152122
0.000155853
0.00015602
0.000151745
0.000141043
0.000122891
9.60116e-05
6.04286e-05
1.71141e-05
-3.30217e-05
0.000302821
0.00030637
0.000313271
0.000323952
0.00033772
0.000354834
0.000373967
0.000395306
0.000416556
0.000437479
0.000454318
0.000465961
0.000467033
0.000455258
0.000424459
0.000371928
0.000293464
0.000188857
5.97437e-05
-8.79919e-05
0.000503428
0.000509286
0.000520664
0.000538351
0.000561174
0.00058965
0.000621518
0.000657262
0.000692934
0.000728446
0.00075727
0.000778038
0.00078125
0.000763738
0.000714334
0.000629027
0.000499656
0.000325775
0.000109467
-0.000138352
0.000702128
0.000710307
0.000726191
0.000750966
0.000782958
0.000823036
0.000867939
0.000918663
0.000969423
0.0010207
0.00106275
0.00109465
0.00110187
0.00108132
0.00101523
0.000899242
0.000719201
0.000474917
0.000167882
-0.000187239
0.000898173
0.000908699
0.000929138
0.000961117
0.00100243
0.00105443
0.00111277
0.00117925
0.001246
0.00131464
0.0013716
0.00141747
0.00143124
0.00141158
0.00133143
0.00118809
0.000957705
0.000641848
0.000238539
-0.000233275
0.00109081
0.0011037
0.00112876
0.00116807
0.00121889
0.00128319
0.00135546
0.00143864
0.0015225
0.00161053
0.00168456
0.00174804
0.00177169
0.00175825
0.00166753
0.00150187
0.00122156
0.000833406
0.000326349
-0.000274276
0.00127928
0.00129455
0.00132428
0.00137105
0.0014316
0.00150859
0.00159539
0.00169631
0.00179865
0.00190844
0.00200216
0.00208776
0.0021254
0.00212512
0.00202827
0.00184769
0.00151793
0.00105811
0.000437249
-0.000307757
0.00146281
0.00148044
0.00151494
0.00156926
0.00163978
0.00172984
0.00183183
0.00195161
0.00207399
0.00220813
0.00232468
0.0024376
0.00249432
0.00251586
0.00241856
0.00223351
0.00185492
0.00132693
0.000578304
-0.000330139
0.00164064
0.00166057
0.00169992
0.00176186
0.00184261
0.00194605
0.00206395
0.00220364
0.00234784
0.00250902
0.00265206
0.00279803
0.00288005
0.00293375
0.00284341
0.00266815
0.00224185
0.00165427
0.000758089
-0.000335545
0.001812
0.00183413
0.00187842
0.00194798
0.00203921
0.00215622
0.0022908
0.00245128
0.00261926
0.00281004
0.0029838
0.00316881
0.00328378
0.00338137
0.00330801
0.00316096
0.00268967
0.00205899
0.000987266
-0.000313539
0.00197612
0.00200031
0.00204962
0.0021267
0.00222864
0.00235924
0.00251126
0.00269315
0.00288703
0.00310963
0.00331897
0.0035488
0.00370615
0.00386012
0.00381762
0.00372111
0.00321159
0.00256475
0.00127907
-0.000244469
0.00213223
0.00215828
0.00221269
0.0022971
0.00240992
0.0025539
0.00272411
0.00292765
0.00314961
0.00340567
0.00365604
0.00393582
0.00414706
0.00436977
0.00437738
0.00435632
0.00382388
0.00319935
0.00165099
-9.23129e-05
0.0022796
0.00230727
0.0023668
0.00245822
0.00258204
0.00273895
0.00292797
0.00315291
0.00340514
0.00369547
0.00399282
0.0043265
0.00460551
0.00490809
0.00499211
0.00507128
0.00454624
0.00399194
0.00212897
0.000203821
0.00241748
0.0024465
0.00251113
0.00260913
0.00274392
0.00291305
0.00312131
0.0033669
0.00365133
0.00397576
0.00432623
0.00471618
0.00507917
0.00547063
0.00566622
0.00586678
0.005402
0.00496666
0.00275479
0.000734406
0.00254517
0.00257525
0.00264487
0.00274891
0.00289447
0.00307488
0.00330248
0.00356744
0.0038855
0.00424279
0.00465204
0.00509879
0.00556356
0.00605063
0.00640337
0.00674099
0.00642018
0.00613496
0.00359593
0.00160528
0.00266197
0.00269286
0.00276724
0.00287671
0.00303257
0.00322316
0.00346972
0.00375234
0.00410459
0.00449246
0.00496478
0.00546665
0.00605061
0.00663793
0.00720374
0.00769296
0.0076426
0.00749802
0.00476227
0.00289768
0.00276725
0.00279872
0.00287752
0.00299172
0.00315715
0.00335665
0.00362119
0.00391948
0.00430517
0.0047206
0.00525778
0.0058108
0.00652754
0.00721533
0.00805698
0.0087204
0.00912954
0.00907153
0.00643582
0.00463362
0.0028604
0.00289232
0.00297502
0.00309322
0.00326712
0.00347428
0.00375504
0.00406689
0.00448356
0.00492326
0.00552308
0.00612251
0.00697718
0.00776065
0.00893002
0.00978997
0.0109325
0.0109379
0.00891934
0.00660966
0.00294082
0.00297327
0.00305912
0.00318063
0.00336146
0.00357515
0.00386942
0.00419296
0.00463592
0.00509699
0.00575178
0.00639361
0.00737656
0.0082537
0.00976865
0.0108418
0.0130069
0.0132251
0.0129582
0.00600773
0.00300805
0.00304111
0.00312955
0.0032532
0.00343975
0.00365802
0.00396358
0.00429535
0.00476052
0.00523702
0.00593898
0.00661332
0.00770919
0.0086666
0.0105033
0.0118121
0.0151805
0.015898
0.0208133
0.00103594
-7.2724e-05
-8.8323e-05
-0.000100492
-0.000110821
-0.000120951
-0.000131138
-0.000141123
-0.000150687
-0.000159634
-0.000167834
-0.000184281
-0.000217837
-0.000250183
-0.000281819
-0.000313024
-0.000343703
-0.000373608
-0.000402546
-0.000430412
-0.000457225
-0.000300988
-0.000359654
-0.000416399
-0.000471566
-0.000525612
-0.00057849
-0.000629908
-0.000679593
-0.000727319
-0.00077296
-0.0004235
-0.00050869
-0.00059041
-0.000669552
-0.000747141
-0.000823162
-0.000897119
-0.000968558
-0.00103714
-0.00110265
-0.000549747
-0.000663747
-0.000772998
-0.00087883
-0.000982657
-0.00108441
-0.00118335
-0.00127884
-0.00137039
-0.00145771
-0.000680705
-0.000827314
-0.000967905
-0.00110408
-0.0012376
-0.00136833
-0.0014953
-0.00161763
-0.0017347
-0.00184609
-0.000817572
-0.0010019
-0.00117888
-0.00135023
-0.00151804
-0.00168209
-0.00184112
-0.00199398
-0.00213987
-0.00227824
-0.000961278
-0.00119031
-0.0014107
-0.00162393
-0.00183228
-0.00203542
-0.00223176
-0.00241987
-0.00259871
-0.00276759
-0.00111272
-0.00139638
-0.00167023
-0.00193464
-0.00219196
-0.00244176
-0.00268217
-0.00291139
-0.00312816
-0.00333163
-0.00127334
-0.00162659
-0.00196847
-0.00229695
-0.00261439
-0.00292063
-0.00321355
-0.003491
-0.00375144
-0.0039939
-0.00144688
-0.00189374
-0.00232494
-0.00273466
-0.00312652
-0.00350141
-0.0038571
-0.00419095
-0.00450115
-0.00478677
-0.00164359
-0.00222434
-0.00277532
-0.00328774
-0.00377102
-0.00422905
-0.00465934
-0.00505828
-0.00542377
-0.00575536
-0.00188841
-0.00267084
-0.0033839
-0.00402332
-0.00461607
-0.00517278
-0.00568975
-0.00616135
-0.00658515
-0.00696205
-0.00223475
-0.0033274
-0.00425921
-0.00505177
-0.00577191
-0.0064423
-0.00705569
-0.00760267
-0.00808091
-0.00849404
-0.00279615
-0.00435215
-0.00556726
-0.00653787
-0.00740411
-0.00820373
-0.0089198
-0.00953626
-0.0100523
-0.0104762
-0.00384499
-0.00605815
-0.00759995
-0.00874407
-0.00975619
-0.010688
-0.0114993
-0.0121609
-0.0126749
-0.0130572
-0.00590244
-0.00908761
-0.0110123
-0.0122796
-0.0133744
-0.0143748
-0.0152064
-0.0158237
-0.0162324
-0.0164631
-0.00931691
-0.0138366
-0.0162881
-0.0177275
-0.0188813
-0.0198489
-0.0205468
-0.020952
-0.0210938
-0.0210259
-0.0149319
-0.0198105
-0.0220706
-0.0235546
-0.0247582
-0.0255557
-0.0258943
-0.0258691
-0.0255944
-0.0251591
-0.0349673
-0.0354215
-0.0326686
-0.0316436
-0.0315532
-0.0313953
-0.0309935
-0.0304352
-0.0298243
-0.0291212
-0.000194897
-0.000227369
-0.000230117
-0.000210954
-0.00018209
-0.000150843
-0.000119588
-9.13341e-05
-6.61779e-05
-4.53148e-05
-2.94071e-05
-1.79992e-05
-1.18741e-05
-7.98767e-06
-6.34602e-06
-4.75511e-06
-2.91045e-06
-1.13107e-06
5.50814e-07
5.58343e-07
-0.000570364
-0.00067181
-0.000680439
-0.000624817
-0.000539878
-0.000447298
-0.000356639
-0.000273508
-0.000199019
-0.000136822
-8.904e-05
-5.45224e-05
-3.50033e-05
-2.32013e-05
-1.78418e-05
-1.36692e-05
-9.12479e-06
-4.34891e-06
-9.39334e-07
2.26657e-07
-0.000960226
-0.00112836
-0.00113997
-0.00104475
-0.000901113
-0.000745742
-0.000594249
-0.000455454
-0.000331383
-0.000227486
-0.000147635
-8.97816e-05
-5.68777e-05
-3.75831e-05
-2.88346e-05
-2.28392e-05
-1.58435e-05
-8.30042e-06
-3.14593e-06
-2.37128e-08
-0.00137259
-0.00160678
-0.00161638
-0.00147587
-0.00126881
-0.0010473
-0.000832755
-0.000636923
-0.000462201
-0.000315926
-0.000203769
-0.000122678
-7.71862e-05
-5.10188e-05
-3.96349e-05
-3.21767e-05
-2.25363e-05
-1.21097e-05
-4.77825e-06
1.47949e-07
-0.00181678
-0.00211389
-0.00211367
-0.00192004
-0.00164346
-0.00135181
-0.00107181
-0.000817399
-0.000590768
-0.000401336
-0.000256589
-0.000152452
-9.53818e-05
-6.31121e-05
-5.00553e-05
-4.15415e-05
-2.90685e-05
-1.56591e-05
-5.82734e-06
6.37131e-07
-0.00230308
-0.00265721
-0.00263631
-0.00237933
-0.0020256
-0.00165914
-0.00131102
-0.000996339
-0.000716368
-0.000482842
-0.000305126
-0.000178154
-0.000110772
-7.3427e-05
-5.99862e-05
-5.10372e-05
-3.55235e-05
-1.90554e-05
-6.26769e-06
1.56706e-06
-0.00284399
-0.00324524
-0.00318929
-0.00285587
-0.00241568
-0.00196903
-0.00154986
-0.0011731
-0.000838149
-0.000559415
-0.000348236
-0.000198707
-0.000122654
-8.15665e-05
-6.94492e-05
-6.08542e-05
-4.19896e-05
-2.23312e-05
-5.85609e-06
3.18389e-06
-0.00345487
-0.00388741
-0.00377784
-0.00335152
-0.00281375
-0.00228093
-0.00178762
-0.00134692
-0.000955157
-0.000629927
-0.000384662
-0.000212968
-0.000130303
-8.71418e-05
-7.85296e-05
-7.12064e-05
-4.85518e-05
-2.54824e-05
-4.27356e-06
5.78398e-06
-0.00415467
-0.00459417
-0.00440751
-0.00386777
-0.00321943
-0.00259401
-0.00202345
-0.00151699
-0.00106638
-0.000693181
-0.000413037
-0.000219712
-0.000132946
-8.97533e-05
-8.7364e-05
-8.23468e-05
-5.53352e-05
-2.85293e-05
-1.16489e-06
9.73848e-06
-0.0049668
-0.00537708
-0.00508413
-0.00440553
-0.00363183
-0.00290695
-0.00225638
-0.00168244
-0.00117077
-0.000747916
-0.00043189
-0.000217646
-0.00012975
-8.89841e-05
-9.61273e-05
-9.45528e-05
-6.25105e-05
-3.15225e-05
3.85895e-06
1.55074e-05
-0.00592019
-0.00624887
-0.00581378
-0.00496487
-0.00404925
-0.00321808
-0.00248515
-0.00184232
-0.00126723
-0.000792842
-0.000439694
-0.000205465
-0.000119826
-8.43747e-05
-0.000104956
-0.000108042
-7.02626e-05
-3.45374e-05
1.11649e-05
2.3615e-05
-0.00705026
-0.00722344
-0.00660264
-0.00554457
-0.00446896
-0.00352469
-0.00270804
-0.00199548
-0.00135465
-0.000826744
-0.000435036
-0.000182006
-0.000102261
-7.53702e-05
-0.00011377
-0.000122795
-7.87144e-05
-3.76611e-05
2.09732e-05
3.45734e-05
-0.00840004
-0.00831588
-0.00745645
-0.00614093
-0.00488774
-0.0038228
-0.00292248
-0.00214032
-0.00143193
-0.000848771
-0.000417049
-0.000146614
-7.62399e-05
-6.12597e-05
-0.000121994
-0.000138264
-8.77762e-05
-4.09493e-05
3.31904e-05
4.87384e-05
-0.0100215
-0.00954167
-0.00837863
-0.00674542
-0.00529638
-0.00410586
-0.00312429
-0.00227438
-0.00149811
-0.000858941
-0.00038618
-9.9831e-05
-4.13721e-05
-4.118e-05
-0.000128208
-0.000152986
-9.68979e-05
-4.4318e-05
4.72279e-05
6.61067e-05
-0.0119698
-0.0109097
-0.0093653
-0.00734338
-0.00568251
-0.00436288
-0.00330635
-0.00239358
-0.00155238
-0.000858755
-0.00034522
-4.43627e-05
1.61383e-06
-1.4339e-05
-0.000129909
-0.000164249
-0.000104757
-4.73288e-05
6.19243e-05
8.61074e-05
-0.0142685
-0.0124058
-0.0103884
-0.00790067
-0.00602714
-0.00457747
-0.00345789
-0.00249171
-0.00159413
-0.000851837
-0.000300344
1.3882e-05
4.99459e-05
1.93259e-05
-0.000123708
-0.000168052
-0.000108976
-4.88266e-05
7.57142e-05
0.000107474
-0.0168788
-0.0139368
-0.011406
-0.00836411
-0.00630817
-0.00473132
-0.00356606
-0.00256071
-0.00162262
-0.000843611
-0.000261107
6.53876e-05
9.79463e-05
5.8049e-05
-0.000106188
-0.000159555
-0.000105992
-4.64863e-05
8.71164e-05
0.00012826
-0.0196824
-0.0153425
-0.0122765
-0.00870567
-0.00651552
-0.00481577
-0.0036215
-0.00259235
-0.00163617
-0.000839302
-0.00023863
9.78921e-05
0.000136742
9.73902e-05
-7.52709e-05
-0.000134071
-9.12635e-05
-3.65404e-05
9.54929e-05
0.000145989
-0.0216844
-0.0162419
-0.0129136
-0.0089244
-0.00665559
-0.00483938
-0.00362441
-0.00258126
-0.00163161
-0.000841132
-0.000242085
9.89419e-05
0.000155398
0.000130084
-3.16597e-05
-8.83841e-05
-6.01669e-05
-1.41991e-05
0.000101713
0.000158203
-0.0234185
-0.0167996
-0.0132938
-0.00905653
-0.00675639
-0.00482752
-0.00358376
-0.00252646
-0.00160508
-0.000847261
-0.000274354
6.18898e-05
0.000145505
0.000149975
2.15477e-05
-2.11332e-05
-9.61892e-06
2.47601e-05
0.000107262
0.000164797
-0.0233461
-0.016664
-0.0133735
-0.00910145
-0.00681312
-0.00479944
-0.00352801
-0.00245613
-0.00156784
-0.000851409
-0.000314895
1.10815e-05
0.000118326
0.000156262
6.47726e-05
4.23274e-05
4.06154e-05
6.57202e-05
0.00010999
0.000169246
-0.0230221
-0.0166334
-0.0134058
-0.00913847
-0.00684772
-0.00479034
-0.00349385
-0.00241248
-0.00154415
-0.000854121
-0.000342271
-2.41245e-05
9.8097e-05
0.000155234
8.97668e-05
7.99641e-05
7.16583e-05
9.18795e-05
0.000112113
0.000167681
-0.0228171
-0.0166112
-0.0134285
-0.0091833
-0.00688439
-0.00478629
-0.00345751
-0.00236568
-0.00151803
-0.000856972
-0.00037299
-6.44385e-05
7.38434e-05
0.00015088
0.000115021
0.000119138
0.000104918
0.000120529
0.000114793
0.000162519
-0.0226796
-0.0165865
-0.0134411
-0.00922905
-0.00692259
-0.00478394
-0.00341927
-0.00231602
-0.00148979
-0.000859998
-0.00040624
-0.000108553
4.63524e-05
0.000144404
0.000140387
0.000159968
0.000140093
0.000151229
0.00011768
0.000155403
-0.0226116
-0.0165593
-0.0134496
-0.00927476
-0.00696173
-0.00478268
-0.00338009
-0.00226484
-0.00146048
-0.000863488
-0.000441411
-0.00015534
1.65445e-05
0.000136307
0.000165629
0.00020185
0.000176585
0.000183327
0.000120718
0.000146784
-0.0226229
-0.0165359
-0.0134584
-0.00932035
-0.00700029
-0.0047823
-0.003341
-0.00221381
-0.00143139
-0.000867826
-0.00047791
-0.000203657
-1.46556e-05
0.000127049
0.000190506
0.000243982
0.000213695
0.000216047
0.000123892
0.000136816
-0.0227099
-0.0165165
-0.0134674
-0.00936402
-0.00703652
-0.00478222
-0.00330286
-0.00216459
-0.00140382
-0.0008734
-0.000515109
-0.000253789
-4.62586e-05
0.000117171
0.000214767
0.000285546
0.000250664
0.00024859
0.000127122
0.000125762
-0.0228588
-0.0164927
-0.0134688
-0.00940228
-0.00706809
-0.00478152
-0.00326635
-0.00211865
-0.00137894
-0.000880514
-0.000552309
-0.000301595
-7.72501e-05
0.000107207
0.00023815
0.00032577
0.000286658
0.000280212
0.000130281
0.000114005
-0.023082
-0.0164571
-0.0134584
-0.00943383
-0.0070925
-0.00478027
-0.00323217
-0.00207762
-0.00135791
-0.000889565
-0.000589012
-0.000347563
-0.000106829
9.76788e-05
0.000260415
0.000363877
0.000320938
0.000309945
0.000133372
0.000101671
-0.0235234
-0.0164187
-0.0134478
-0.00946954
-0.00710802
-0.00478216
-0.0032016
-0.00204431
-0.00134284
-0.00090196
-0.000625672
-0.000391495
-0.000134916
8.91439e-05
0.000281323
0.000399
0.000353467
0.000335664
0.000136837
8.75546e-05
-0.0224238
-0.0168158
-0.0134628
-0.00957458
-0.00712119
-0.00479669
-0.00314596
-0.00199218
-0.00132639
-0.000940668
-0.000706841
-0.000482812
-0.00019308
7.32096e-05
0.000322641
0.000467473
0.000420095
0.000379548
0.000144836
5.14327e-05
-0.0199993
-0.0153169
-0.0126938
-0.00938001
-0.00696338
-0.00474874
-0.0030962
-0.00197207
-0.00134805
-0.00100507
-0.000796309
-0.000572572
-0.000245239
5.90129e-05
0.00035766
0.000529093
0.000474298
0.000418724
0.000147836
1.98004e-05
-0.0165621
-0.0138838
-0.0116861
-0.00894332
-0.00667223
-0.00464598
-0.00308326
-0.00201485
-0.00141548
-0.00107602
-0.0008563
-0.000618993
-0.00027108
4.69138e-05
0.000358203
0.000535496
0.000477917
0.000410794
0.000142645
-4.92946e-07
-0.0129896
-0.0117947
-0.0102646
-0.00822786
-0.00626711
-0.00448369
-0.00306716
-0.00207205
-0.00148641
-0.00113221
-0.000884523
-0.000632661
-0.000283794
2.78365e-05
0.000323793
0.000493966
0.000441363
0.000370584
0.000134543
-8.71345e-06
-0.0103581
-0.0100395
-0.00901638
-0.00745636
-0.00580624
-0.00427131
-0.00301755
-0.00210346
-0.00153232
-0.00116211
-0.000887479
-0.000627249
-0.000293016
-9.78485e-07
0.000266196
0.00042401
0.000384127
0.000318798
0.000125892
-7.15033e-06
-0.00823559
-0.00848001
-0.00782719
-0.00665088
-0.00531137
-0.00401773
-0.00292525
-0.00209521
-0.00154433
-0.00116597
-0.000874469
-0.000612658
-0.000302027
-3.46875e-05
0.000200355
0.000343996
0.000321131
0.000264798
0.000116784
-2.8004e-07
-0.00660723
-0.00714835
-0.00678008
-0.00590795
-0.00482793
-0.00374115
-0.00279465
-0.00204792
-0.00152478
-0.00114896
-0.000851578
-0.000593845
-0.00030969
-6.74848e-05
0.000137466
0.000266866
0.000260968
0.000215671
0.000107153
7.66227e-06
-0.00534702
-0.00602449
-0.00586463
-0.00522269
-0.00435534
-0.00344711
-0.00263309
-0.0019678
-0.00147894
-0.00111491
-0.000821235
-0.000572083
-0.000314149
-9.56608e-05
8.32254e-05
0.000199158
0.000207468
0.00017336
9.55678e-05
1.38027e-05
-0.00435989
-0.00507372
-0.00505856
-0.00459287
-0.0039008
-0.00314585
-0.0024501
-0.00186195
-0.00141182
-0.00106663
-0.000784113
-0.000547078
-0.000314064
-0.000117521
3.93244e-05
0.000142878
0.000161819
0.000137884
8.27907e-05
1.71288e-05
-0.00357663
-0.00426733
-0.00434685
-0.00401648
-0.00346787
-0.00284318
-0.00224919
-0.00173601
-0.00132754
-0.00100625
-0.000740319
-0.000518214
-0.000308683
-0.000132494
5.58699e-06
9.78276e-05
0.00012376
0.000108447
6.9635e-05
1.79129e-05
-0.00294498
-0.00358074
-0.00371676
-0.00348933
-0.00305717
-0.00254308
-0.00204071
-0.00159504
-0.00122949
-0.000935562
-0.000690029
-0.000485067
-0.0002978
-0.000140755
-1.9082e-05
6.27713e-05
9.25671e-05
8.42155e-05
5.70648e-05
1.69414e-05
-0.00242679
-0.00299266
-0.00315672
-0.00300618
-0.00266821
-0.00224792
-0.00182581
-0.00144244
-0.00112043
-0.000856157
-0.000633622
-0.00044752
-0.000281584
-0.000142782
-3.59138e-05
3.62908e-05
6.74534e-05
6.44516e-05
4.56932e-05
1.49843e-05
-0.00199401
-0.00248475
-0.00265637
-0.00256184
-0.00229993
-0.00195913
-0.00160788
-0.00128238
-0.0010028
-0.000769469
-0.00057165
-0.000405694
-0.000260401
-0.000139163
-4.60554e-05
1.70371e-05
4.76518e-05
4.85071e-05
3.5806e-05
1.26224e-05
-0.00162586
-0.00204144
-0.00220648
-0.00215141
-0.00195078
-0.0016775
-0.00138901
-0.00111675
-0.000878344
-0.000676817
-0.00050478
-0.000359894
-0.000234737
-0.000130549
-5.05438e-05
3.79696e-06
3.24256e-05
3.58031e-05
2.74576e-05
1.02326e-05
-0.00130677
-0.00164973
-0.00179875
-0.00177021
-0.00161886
-0.00140325
-0.00117062
-0.000947564
-0.000749171
-0.000579403
-0.000433725
-0.00031055
-0.000205158
-0.00011762
-5.03118e-05
-4.50162e-06
2.1074e-05
2.58203e-05
2.0555e-05
8.02018e-06
-0.00102486
-0.0012987
-0.00142564
-0.00141373
-0.00130208
-0.00113614
-0.000953638
-0.000776282
-0.000616472
-0.000478291
-0.000359222
-0.000258175
-0.000172273
-0.00010107
-4.62115e-05
-8.80973e-06
1.29331e-05
1.80882e-05
1.49294e-05
6.06725e-06
-0.000770884
-0.000979187
-0.00108029
-0.00107767
-0.000998216
-0.000875617
-0.000738574
-0.000603925
-0.000481333
-0.000374443
-0.000282015
-0.000203324
-0.000136706
-8.15947e-05
-3.90415e-05
-9.996e-06
7.35965e-06
1.21538e-05
1.03784e-05
4.3909e-06
-0.000537632
-0.00068355
-0.000756599
-0.000757986
-0.000705054
-0.000620907
-0.000525674
-0.000431287
-0.000344649
-0.000268633
-0.000202784
-0.000146543
-9.90459e-05
-5.98493e-05
-2.95269e-05
-8.86354e-06
3.70741e-06
7.53024e-06
6.61499e-06
2.95006e-06
-0.000318215
-0.000404945
-0.000449096
-0.000451067
-0.000420612
-0.000371289
-0.000315091
-0.000259082
-0.000207429
-0.000161685
-0.000122231
-8.84185e-05
-5.98661e-05
-3.64386e-05
-1.82699e-05
-6.04749e-06
1.41539e-06
3.79252e-06
3.26343e-06
1.54437e-06
-0.000108625
-0.000136593
-0.000151481
-0.000152096
-0.000141745
-0.000125024
-0.000106122
-8.7284e-05
-7.00902e-05
-5.48191e-05
-4.10494e-05
-2.96379e-05
-1.9947e-05
-1.21307e-05
-6.02212e-06
-2.07134e-06
2.09387e-07
9.32201e-07
4.76117e-07
1.26988e-07
-0.031996
-0.0322342
-0.0283451
-0.0261867
-0.0256073
-0.0255258
-0.0255203
-0.0255449
-0.0256136
-0.0256161
-0.0051482
-0.00912497
-0.0115111
-0.0133975
-0.0152084
-0.0168387
-0.0181374
-0.0190727
-0.0196735
-0.0200107
-0.00505706
-0.00834011
-0.0102757
-0.0114666
-0.0124671
-0.0134047
-0.0142234
-0.0148779
-0.0153656
-0.0157138
-0.00239354
-0.00421444
-0.00552917
-0.00653949
-0.00746525
-0.00835843
-0.00918583
-0.00991542
-0.0105388
-0.0110631
-0.00151289
-0.00272556
-0.00377253
-0.00466326
-0.00547204
-0.00622846
-0.00692613
-0.0075536
-0.00810646
-0.00858715
-0.0012502
-0.00204946
-0.00278952
-0.00345515
-0.00407177
-0.00465356
-0.00519982
-0.00570568
-0.00616841
-0.0065883
-0.00108539
-0.00163565
-0.00216767
-0.0026701
-0.00314891
-0.00360761
-0.00404452
-0.00445632
-0.00484039
-0.0051955
-0.000960579
-0.00136905
-0.00176834
-0.00215314
-0.00252552
-0.00288582
-0.00323214
-0.00356207
-0.00387372
-0.00416595
-0.000853426
-0.00116984
-0.00147741
-0.00177531
-0.00206621
-0.00235017
-0.00262539
-0.00288993
-0.0031423
-0.00338152
-0.000753457
-0.00100349
-0.00124533
-0.00147998
-0.00171035
-0.00193652
-0.00215699
-0.00237017
-0.00257489
-0.00277038
-0.00065941
-0.0008592
-0.00105212
-0.00123955
-0.00142399
-0.00160561
-0.00178324
-0.00195568
-0.00212206
-0.00228178
-0.000571623
-0.000732159
-0.00088722
-0.00103803
-0.00118662
-0.00133314
-0.00147674
-0.00161654
-0.00175188
-0.00188231
-0.000489944
-0.000619048
-0.000743871
-0.000865416
-0.000985242
-0.0011035
-0.00121956
-0.00133277
-0.00144265
-0.00154885
-0.000413813
-0.000517183
-0.00061723
-0.000714754
-0.000810947
-0.000905929
-0.000999231
-0.00109037
-0.001179
-0.00126485
-0.000342513
-0.000424341
-0.000503603
-0.000580939
-0.000657252
-0.000732629
-0.000806722
-0.000879175
-0.000949728
-0.00101819
-0.000275263
-0.000338642
-0.000400062
-0.000460032
-0.000519231
-0.000577724
-0.000635251
-0.000691551
-0.000746431
-0.000799748
-0.000211173
-0.000258373
-0.000304196
-0.000348946
-0.000393087
-0.000436676
-0.000479545
-0.000521521
-0.000562474
-0.000602309
-0.000149341
-0.000181801
-0.000213706
-0.000245015
-0.000275852
-0.000306223
-0.000336045
-0.000365221
-0.00039366
-0.000421286
-9.08481e-05
-0.000109028
-0.000126973
-0.000144817
-0.00016255
-0.00018011
-0.00019742
-0.000214428
-0.000231116
-0.000247485
-3.88522e-05
-4.78022e-05
-5.46287e-05
-6.02226e-05
-6.5676e-05
-7.12313e-05
-7.67427e-05
-8.20566e-05
-8.70624e-05
-9.16799e-05
0.00314046
0.00317416
0.0032609
0.00338605
0.00356984
0.00379038
0.00408991
0.00442564
0.00487922
0.00536352
0.00604299
0.00673218
0.00778224
0.00876385
0.0104942
0.011812
0.0148158
0.0152825
0.0179953
-0.00221287
0.00311544
0.00314807
0.00323135
0.00335268
0.00352865
0.00374129
0.00402514
0.0043464
0.004769
0.00522638
0.00584018
0.00647581
0.00736883
0.00823136
0.00951301
0.0105507
0.0120213
0.0123613
0.0114283
0.00948223
0.00306702
0.00309921
0.00317773
0.00329384
0.00345928
0.00366182
0.00392529
0.00422809
0.0046114
0.00503494
0.005569
0.00613842
0.00685534
0.00757734
0.0084396
0.00916736
0.00971176
0.00979624
0.00780866
0.00562164
0.00299669
0.00302819
0.00310109
0.00321064
0.00336366
0.00355371
0.00379382
0.00407398
0.00441373
0.0047963
0.0052468
0.00573866
0.00628817
0.00685583
0.00738272
0.0078426
0.00784343
0.00764764
0.0053623
0.00310592
0.00290584
0.00293616
0.00300302
0.00310482
0.00324445
0.00341977
0.00363531
0.00388919
0.00418485
0.00452092
0.0048918
0.00529968
0.00570487
0.00612471
0.00640978
0.00664558
0.00634836
0.00591321
0.00386911
0.00172694
0.00279598
0.00282461
0.00288525
0.00297844
0.00310426
0.00326324
0.00345409
0.00367941
0.00393256
0.00421978
0.00451867
0.0048439
0.0051316
0.00541854
0.00553631
0.00558841
0.00515593
0.00455232
0.0028611
0.000852737
0.00266872
0.00269518
0.00274961
0.00283367
0.00294573
0.00308747
0.0032543
0.00345025
0.00366381
0.00390283
0.00413891
0.00438755
0.00458247
0.00475628
0.00476204
0.00467605
0.0041984
0.00351159
0.00212495
0.000377097
0.00252566
0.00254963
0.00259798
0.00267271
0.0027714
0.00289572
0.00303974
0.00320691
0.00338444
0.00357829
0.00376074
0.0039421
0.004065
0.00414857
0.00408151
0.0039039
0.00342601
0.0027301
0.00158674
0.000136922
0.00236845
0.00238974
0.00243226
0.00249778
0.00258369
0.00269106
0.00281383
0.00295389
0.00309922
0.00325252
0.0033899
0.003515
0.00358286
0.00359915
0.00348679
0.00325768
0.00280142
0.0021449
0.00119328
5.74378e-06
0.0021987
0.00221729
0.00225425
0.00231094
0.00238485
0.00247624
0.00257952
0.00269488
0.0028119
0.00293014
0.00303029
0.00311041
0.00313718
0.00310687
0.00296853
0.00271813
0.00229439
0.00170069
0.000902687
-6.94586e-05
0.00201799
0.00203396
0.00206571
0.00211412
0.00217691
0.0022536
0.0023393
0.00243279
0.00252536
0.00261423
0.00268425
0.00272994
0.00272717
0.00266721
0.00251685
0.00226567
0.00188012
0.00135662
0.000685852
-0.000110665
0.00182782
0.00184133
0.00186825
0.00190903
0.00196168
0.00202514
0.00209523
0.00216978
0.00224162
0.0023066
0.0023529
0.00237341
0.00235059
0.00227411
0.00212203
0.00188311
0.00153868
0.00108509
0.000522809
-0.000129718
0.0016296
0.00164085
0.00166335
0.00169721
0.00174071
0.00179246
0.00184891
0.00190739
0.001962
0.00200807
0.00203633
0.00203939
0.00200428
0.00192111
0.00177497
0.00155624
0.00125428
0.000867173
0.000399016
-0.000134038
0.00142463
0.00143384
0.00145232
0.00147998
0.00151533
0.00155685
0.00160153
0.0016466
0.0016872
0.00171874
0.00173386
0.00172575
0.00168463
0.00160198
0.00146745
0.00127362
0.00101433
0.000689335
0.000303801
-0.00012852
0.0012141
0.00122148
0.00123635
0.00125848
0.00128662
0.00131927
0.00135392
0.00138796
0.00141741
0.00143811
0.00144426
0.00142996
0.00138783
0.001311
0.00119213
0.00102591
0.000808775
0.000541563
0.000229394
-0.000116439
0.000999074
0.00100484
0.00101646
0.00103368
0.00105546
0.00108046
0.00110662
0.00113166
0.0011524
0.00116533
0.0011659
0.00114934
0.00111009
0.00104289
0.000942563
0.000805452
0.00062957
0.000416249
0.000170085
-0.000100004
0.000780534
0.000784844
0.000793545
0.000806384
0.000822544
0.000840908
0.000859883
0.000877613
0.000891657
0.000899236
0.000896932
0.000881097
0.000847681
0.000792852
0.000713042
0.000605838
0.000470186
0.000307484
0.000121523
-8.0787e-05
0.000559351
0.000562346
0.000568391
0.000577279
0.000588415
0.000600965
0.000613786
0.000625519
0.000634429
0.000638515
0.000635383
0.000622478
0.000597039
0.000556483
0.000498486
0.000421576
0.000325226
0.000210602
8.03742e-05
-6.01388e-05
0.00033633
0.000338102
0.000341684
0.000346933
0.000353481
0.000360813
0.000368236
0.000374923
0.000379829
0.000381742
0.000379235
0.000370791
0.000354798
0.00032977
0.000294398
0.000247911
0.000190123
0.000121836
4.45296e-05
-3.89727e-05
0.000112231
0.00011283
0.000114038
0.000115799
0.000117986
0.000120422
0.000122877
0.000125067
0.000126642
0.000127189
0.000126221
0.000123223
0.000117658
0.000109029
9.69168e-05
8.10839e-05
6.15347e-05
3.86764e-05
1.3217e-05
-1.5613e-05
0.00304601
0.00307862
0.00316974
0.00329238
0.00348424
0.00370109
0.00401714
0.00434578
0.0048317
0.00530167
0.00604686
0.00670956
0.00790241
0.00885118
0.0109337
0.0123299
0.0164843
0.0181837
0.0284321
0.0212847
0.00306541
0.00309806
0.00319003
0.00331266
0.00350636
0.0037234
0.0040431
0.0043719
0.00486514
0.00533517
0.00609608
0.00675932
0.00798937
0.00894537
0.0111299
0.0125931
0.0170965
0.0194359
0.0308225
0.030207
0.00308257
0.00311541
0.00320775
0.00333073
0.00352532
0.00374317
0.00406469
0.00439486
0.00489184
0.00536436
0.00613371
0.00680214
0.00805378
0.00902484
0.0112749
0.0128118
0.0175592
0.0204491
0.0323919
0.0361656
0.00309756
0.00313053
0.00322308
0.00334633
0.00354149
0.00375993
0.00408256
0.00441376
0.00491305
0.00538743
0.0061621
0.00683442
0.00809995
0.00908223
0.0113753
0.012967
0.017877
0.0211575
0.033448
0.0398587
0.00311036
0.0031434
0.00323605
0.00335945
0.00355488
0.00377361
0.00409678
0.00442846
0.00492887
0.00540415
0.0061814
0.00685565
0.00812801
0.00911597
0.0114305
0.0130506
0.0180439
0.0215329
0.0340028
0.0417228
0.00312098
0.00315404
0.00324664
0.00337008
0.00356545
0.00378424
0.00410726
0.00443903
0.00493915
0.00541462
0.00619134
0.00686599
0.00813736
0.00912604
0.0114387
0.0130597
0.018054
0.0215579
0.0340587
0.0419532
0.0031294
0.00316243
0.00325484
0.00337824
0.00357322
0.00379183
0.00411402
0.00444547
0.00494389
0.00541884
0.00619191
0.00686547
0.00812803
0.00911246
0.0114
0.0129942
0.0179065
0.0212294
0.0336157
0.0405677
0.00313563
0.00316858
0.00326068
0.0033839
0.00357821
0.00379634
0.00411713
0.00444772
0.00494325
0.0054167
0.00618342
0.00685387
0.00810071
0.00907519
0.0113162
0.0128564
0.0176068
0.020558
0.0326792
0.0374191
0.0031397
0.00317248
0.00326416
0.00338708
0.00358042
0.00379779
0.00411656
0.00444585
0.00493725
0.00540833
0.00616587
0.00683146
0.00805531
0.00901597
0.0111878
0.0126542
0.0171581
0.0195577
0.0312702
0.0321649
0.00314154
0.00317431
0.00326504
0.00338803
0.00357946
0.00379672
0.00411154
0.0044409
0.00492424
0.00539596
0.00613617
0.00680302
0.00798626
0.00894361
0.0110055
0.0124092
0.0165382
0.0182694
0.0290417
0.0240897
)
;

boundaryField
{
    inlet
    {
        type            zeroGradient;
    }
    outlet
    {
        type            fixedValue;
        value           uniform 0;
    }
    upAndBottom
    {
        type            empty;
    }
    obstacle
    {
        type            zeroGradient;
    }
}


// ************************************************************************* //
