/*--------------------------------*- C++ -*----------------------------------*\
| =========                 |                                                 |
| \\      /  F ield         | OpenFOAM: The Open Source CFD Toolbox           |
|  \\    /   O peration     | Version:  v1806                                 |
|   \\  /    A nd           | Web:      www.OpenFOAM.com                      |
|    \\/     M anipulation  |                                                 |
\*---------------------------------------------------------------------------*/
FoamFile
{
    version     2.0;
    format      ascii;
    class       surfaceScalarField;
    location    "410";
    object      phi;
}
// * * * * * * * * * * * * * * * * * * * * * * * * * * * * * * * * * * * * * //

dimensions      [0 3 -1 0 0 0 0];
oriented        oriented;


internalField   nonuniform List<scalar> 
8600
(
0.0531984
-0.0760973
-0.0535898
0.0764887
0.0418773
-0.082804
0.0941251
0.0307573
-0.0862815
0.0974015
0.0238576
-0.0894926
0.0963924
0.0198668
-0.091341
0.0953317
0.0172458
-0.0921196
0.0947406
0.0153
-0.0923301
0.0942758
0.0137622
-0.092227
0.0937648
0.0125075
-0.0919397
0.0931944
0.0114661
-0.0915407
0.0925821
0.0105941
-0.0910718
0.0919439
0.00986127
-0.0905587
0.0912915
0.00924561
-0.090018
0.0906336
0.00873078
-0.0894612
0.089976
0.00830449
-0.0888961
0.0893224
0.00795746
-0.0883275
0.0886745
0.00768268
-0.0877585
0.0880333
0.0074744
-0.0871927
0.087401
0.00732658
-0.0866449
0.0867927
-0.0861905
0.0862903
0.0293592
-0.0684038
-0.0370527
0.0244347
-0.0778796
0.0221964
-0.0840432
0.0202788
-0.087575
0.0183104
-0.0893726
0.0164449
-0.0902541
0.0147939
-0.0906791
0.0133902
-0.0908232
0.0122131
-0.0907626
0.0112251
-0.0905527
0.0103922
-0.090239
0.00968864
-0.0898551
0.00909517
-0.0894245
0.00859751
-0.0889636
0.0081848
-0.0884834
0.00784875
-0.0879915
0.00758302
-0.0874928
0.0073826
-0.0869923
0.00724209
-0.0865044
-0.0860961
0.0267986
-0.0692051
-0.0259974
0.0256641
-0.0767451
0.023008
-0.0813871
0.0200602
-0.0846272
0.0175608
-0.0868732
0.0156191
-0.0883124
0.0140865
-0.0891464
0.0128271
-0.0895639
0.0117656
-0.0897011
0.0108617
-0.0896487
0.0100896
-0.0894669
0.00943071
-0.0891962
0.00887091
-0.0888647
0.00839907
-0.0884917
0.00800646
-0.0880908
0.00768624
-0.0876713
0.00743313
-0.0872397
0.00724287
-0.086802
0.00711055
-0.086372
-0.0860096
0.0188263
-0.0706397
-0.0173917
0.0183095
-0.0762283
0.0174223
-0.0804999
0.016453
-0.0836579
0.0153813
-0.0858014
0.0142496
-0.0871808
0.0131423
-0.0880391
0.0121187
-0.0885403
0.0112039
-0.0887863
0.0104005
-0.0888453
0.00970156
-0.088768
0.00909771
-0.0885924
0.00857994
-0.0883469
0.00814056
-0.0880523
0.00777322
-0.0877234
0.00747279
-0.0873708
0.00723516
-0.0870021
0.00705694
-0.0866238
0.00693401
-0.0862491
-0.0859309
0.0155674
-0.0730499
-0.0131572
0.0163396
-0.0770004
0.0161265
-0.0802868
0.0153025
-0.0828339
0.0142458
-0.0847446
0.0131895
-0.0861246
0.0122177
-0.0870673
0.0113425
-0.087665
0.0105582
-0.088002
0.00985927
-0.0881464
0.00924111
-0.0881498
0.00869935
-0.0880506
0.00822957
-0.0878772
0.00782752
-0.0876503
0.00748935
-0.0873853
0.0072117
-0.0870932
0.00699176
-0.0867821
0.00682708
-0.0864591
0.00671436
-0.0861364
-0.0858603
0.0120036
-0.0750831
-0.00997032
0.0128654
-0.0778623
0.0130237
-0.0804451
0.012803
-0.0826132
0.0123615
-0.0843032
0.0117833
-0.0855464
0.0111375
-0.0864215
0.0104797
-0.0870073
0.00984664
-0.0873689
0.0092583
-0.0875581
0.00872408
-0.0876156
0.00824736
-0.0875739
0.00782853
-0.0874583
0.00746659
-0.0872883
0.00715999
-0.0870787
0.00690707
-0.0868403
0.0067063
-0.0865814
0.00655613
-0.086309
0.00645406
-0.0860343
-0.0857976
0.00981055
-0.0769826
-0.00791109
0.010926
-0.0789777
0.0113984
-0.0809174
0.0114015
-0.0826163
0.0111101
-0.0840117
0.0106642
-0.0851005
0.0101527
-0.08591
0.00962521
-0.0864798
0.00910862
-0.0868523
0.00861854
-0.087068
0.00816452
-0.0871616
0.00775232
-0.0871617
0.00738509
-0.0870911
0.00706431
-0.0869676
0.0067904
-0.0868048
0.00656324
-0.0866131
0.0063824
-0.0864005
0.00624723
-0.0861738
0.00615596
-0.085943
-0.0857427
0.00794394
-0.0785476
-0.00637895
0.00895244
-0.0799862
0.00949401
-0.081459
0.00968916
-0.0828115
0.00964112
-0.0839637
0.00942962
-0.084889
0.00911426
-0.0855946
0.00874138
-0.0861069
0.00834574
-0.0864567
0.00795147
-0.0866737
0.00757435
-0.0867845
0.00722432
-0.0868117
0.00690743
-0.0867742
0.00662731
-0.0866874
0.00638603
-0.0865635
0.00618472
-0.0864118
0.00602395
-0.0862397
0.00590381
-0.0860537
0.0058232
-0.0858624
-0.085695
0.00657543
-0.0799093
-0.00521377
0.00754982
-0.0809606
0.00815223
-0.0820614
0.00844291
-0.0831022
0.00849651
-0.0840173
0.00838567
-0.0847781
0.00817071
-0.0853797
0.00789515
-0.0858313
0.00758932
-0.0861508
0.00727438
-0.0863588
0.00696525
-0.0864753
0.00667235
-0.0865188
0.00640288
-0.0865048
0.0061617
-0.0864463
0.00595203
-0.0863538
0.00577598
-0.0862357
0.00563487
-0.0860986
0.00552941
-0.0859482
0.00545908
-0.0857921
-0.0856543
0.00545335
-0.081041
-0.00432161
0.00630306
-0.0818103
0.0068767
-0.0826351
0.00721076
-0.0834362
0.00735234
-0.0841589
0.00734765
-0.0847734
0.00723782
-0.0852699
0.00705779
-0.0856513
0.00683546
-0.0859285
0.00659237
-0.0861157
0.00634455
-0.0862275
0.00610364
-0.0862778
0.00587788
-0.086279
0.00567309
-0.0862415
0.0054933
-0.086174
0.0053413
-0.0860837
0.005219
-0.0859763
0.00512757
-0.0858568
0.00506696
-0.0857315
-0.0856198
0.00455027
-0.0820086
-0.00358263
0.00531076
-0.0825708
0.00585607
-0.0831804
0.00620325
-0.0837834
0.00638295
-0.0843386
0.0064307
-0.0848212
0.00638086
-0.08522
0.00626328
-0.0855337
0.00610214
-0.0857674
0.00591625
-0.0859298
0.00572006
-0.0860313
0.00552455
-0.0860823
0.00533797
-0.0860924
0.00516638
-0.0860699
0.00501422
-0.0860218
0.00488467
-0.0859542
0.00478001
-0.0858717
0.00470174
-0.0857785
0.00465016
-0.0856799
-0.0855912
0.00379716
-0.0828155
-0.00299027
0.00444896
-0.0832226
0.00493789
-0.0836693
0.00527244
-0.0841179
0.00547162
-0.0845378
0.00555908
-0.0849087
0.00555909
-0.08522
0.00549437
-0.085469
0.00538492
-0.0856579
0.0052475
-0.0857924
0.00509552
-0.0858793
0.00493951
-0.0859263
0.00478755
-0.0859405
0.00464576
-0.0859281
0.0045187
-0.0858948
0.00440975
-0.0858452
0.00432136
-0.0857833
0.00425523
-0.0857124
0.0042119
-0.0856366
-0.0855676
0.00315571
-0.0834954
-0.00247583
0.00371792
-0.0837848
0.00415307
-0.0841045
0.00446418
-0.0844291
0.00466319
-0.0847368
0.00476703
-0.0850125
0.00479445
-0.0852475
0.00476372
-0.0854383
0.00469126
-0.0855855
0.00459117
-0.0856923
0.00447505
-0.0857632
0.00435228
-0.0858036
0.00423025
-0.0858184
0.00411473
-0.0858126
0.00401013
-0.0857902
0.0039198
-0.0857549
0.00384621
-0.0857097
0.00379111
-0.0856573
0.00375524
-0.0856007
-0.0855486
0.0026027
-0.0840556
-0.00204253
0.00307361
-0.0842557
0.00344746
-0.0844783
0.00372469
-0.0847063
0.00391243
-0.0849245
0.00402211
-0.0851222
0.00406707
-0.0852924
0.00406107
-0.0854322
0.00401707
-0.0855415
0.00394672
-0.0856219
0.00385998
-0.0856765
0.00376509
-0.0857087
0.0036687
-0.085722
0.00357609
-0.08572
0.00349136
-0.0857055
0.00341767
-0.0856812
0.0033574
-0.0856494
0.00331225
-0.0856121
0.00328304
-0.0855715
-0.0855335
0.0021117
-0.0845139
-0.00165337
0.00250202
-0.084646
0.00281734
-0.0847936
0.00305687
-0.0849458
0.003225
-0.0850927
0.00332962
-0.0852268
0.00338064
-0.0853434
0.00338859
-0.0854402
0.00336372
-0.0855166
0.00331536
-0.0855735
0.0032517
-0.0856128
0.00317964
-0.0856366
0.00310491
-0.0856473
0.00303207
-0.0856471
0.00296478
-0.0856382
0.00290587
-0.0856223
0.0028575
-0.0856011
0.00282124
-0.0855759
0.00279793
-0.0855482
-0.0855219
0.00167185
-0.0848764
-0.00130938
0.00198358
-0.0849578
0.00223913
-0.0850492
0.00243717
-0.0851438
0.00258016
-0.0852357
0.0026734
-0.08532
0.00272387
-0.0853939
0.00273927
-0.0854556
0.00272735
-0.0855047
0.00269541
-0.0855416
0.00264996
-0.0855674
0.00259664
-0.0855833
0.00254015
-0.0855908
0.00248435
-0.0855913
0.00243233
-0.0855862
0.00238651
-0.0855765
0.00234875
-0.0855633
0.00232043
-0.0855475
0.00230235
-0.0855301
-0.0855132
0.00126641
-0.0851525
-0.000990321
0.00150566
-0.085197
0.00170362
-0.0852472
0.00185899
-0.0852992
0.00197324
-0.0853499
0.00204991
-0.0853967
0.00209391
-0.0854379
0.00211082
-0.0854725
0.00210634
-0.0855002
0.00208591
-0.0855212
0.00205449
-0.0855359
0.00201638
-0.0855452
0.00197527
-0.0855497
0.00193419
-0.0855502
0.00189559
-0.0855476
0.00186141
-0.0855423
0.00183317
-0.0855351
0.00181197
-0.0855263
0.00179851
-0.0855166
-0.085507
0.000888355
-0.085346
-0.000694802
0.00105718
-0.0853658
0.00119779
-0.0853878
0.00130919
-0.0854106
0.00139219
-0.0854329
0.00144904
-0.0854536
0.00148292
-0.0854718
0.00149757
-0.0854871
0.00149684
-0.0854995
0.00148453
-0.0855089
0.00146408
-0.0855155
0.00143857
-0.0855197
0.00141062
-0.0855218
0.00138244
-0.0855221
0.0013558
-0.0855209
0.00133213
-0.0855186
0.00131252
-0.0855154
0.00129779
-0.0855116
0.00128848
-0.0855073
-0.0855029
0.000527355
-0.0854625
-0.000410905
0.000628289
-0.0854668
0.000712568
-0.0854721
0.000779639
-0.0854777
0.000829948
-0.0854832
0.000864745
-0.0854884
0.000885857
-0.0854929
0.000895444
-0.0854967
0.000895781
-0.0854998
0.000889091
-0.0855022
0.000877433
-0.0855038
0.000862639
-0.0855049
0.000846291
-0.0855054
0.000829719
-0.0855055
0.000814014
-0.0855052
0.000800035
-0.0855046
0.000788442
-0.0855039
0.000779725
-0.0855029
0.000774219
-0.0855018
-0.0855007
0.000175927
-0.000138404
0.000209152
0.000237096
0.000259419
0.000276207
0.000287853
0.000294953
0.000298217
0.000298395
0.000296224
0.00029239
0.000287504
0.000282094
0.000276602
0.000271391
0.000266748
0.000262896
0.000259998
0.000258179
-0.0339263
-0.00674155
0.0406679
-0.0280784
-0.00584791
-0.0228531
-0.00522534
-0.0180964
-0.00475671
-0.0137006
-0.00439576
-0.00958069
-0.00411993
-0.0056655
-0.00391519
-0.00189302
-0.00377247
0.00179285
-0.00368588
0.00544473
-0.00365187
0.00911358
-0.00366886
0.0128506
-0.00373703
0.016709
-0.00385841
0.0207461
-0.00403704
0.0250256
-0.00427956
0.0296213
-0.00459567
0.0346213
-0.00499999
0.0401408
-0.00551949
0.0463511
-0.00621028
-0.00723876
-0.020745
-0.00884312
0.0228466
-0.0181769
-0.00841609
-0.0153632
-0.00803902
-0.0124011
-0.00771878
-0.00934239
-0.00745447
-0.00621874
-0.00724358
-0.0030505
-0.00708344
0.000148725
-0.00697169
0.00336942
-0.00690657
0.00660448
-0.00688693
0.00984792
-0.00691229
0.0130937
-0.00698285
0.0163349
-0.00709956
0.019562
-0.00726418
0.022762
-0.00747953
0.0259162
-0.00774985
0.0289976
-0.00808145
0.0319621
-0.00848393
0.0347263
-0.00897451
-0.00956512
-0.0122043
-0.0101425
0.0135037
-0.0106819
-0.00993856
-0.00896664
-0.00975424
-0.00709311
-0.00959231
-0.00509282
-0.00945476
-0.00299324
-0.00934316
-0.000817898
-0.00925878
0.00141303
-0.00920262
0.0036819
-0.00917544
0.00597278
-0.00917781
0.00827064
-0.00921016
0.0105606
-0.00927279
0.012827
-0.00936593
0.0150525
-0.00948968
0.017217
-0.00964407
0.0192962
-0.00982904
0.0212593
-0.0100446
0.0230665
-0.0102911
0.0246633
-0.0105713
-0.0108992
-0.00702381
-0.0111748
0.00805615
-0.00590653
-0.0110558
-0.00471289
-0.0109479
-0.00345214
-0.0108531
-0.00213378
-0.0107731
-0.000767575
-0.0107094
0.000636459
-0.0106628
0.00206807
-0.0106342
0.0035168
-0.0106242
0.00497205
-0.0106331
0.00642304
-0.0106612
0.00785885
-0.0107086
0.00926838
-0.0107755
0.0106403
-0.0108616
0.0119633
-0.010967
0.0132256
-0.0110913
0.0144152
-0.0112342
0.0155195
-0.0113954
0.0165231
-0.011575
-0.0117677
-0.00447144
-0.0119484
0.00524502
-0.00364495
-0.0118823
-0.002769
-0.0118238
-0.00184841
-0.0117737
-0.000888967
-0.0117326
0.000102881
-0.0117012
0.00112024
-0.0116802
0.00215591
-0.0116699
0.00320249
-0.0116708
0.00425241
-0.011683
0.00529796
-0.0117067
0.00633128
-0.0117419
0.00734436
-0.0117885
0.00832899
-0.0118463
0.00927677
-0.0119148
0.0101791
-0.0119936
0.011027
-0.0120822
0.0118115
-0.0121798
0.0125225
-0.012286
-0.0124025
-0.00285693
-0.0125676
0.0034762
-0.0022124
-0.0125269
-0.00154504
-0.0124912
-0.000857601
-0.0124611
-0.00015308
-0.0124371
0.000565262
-0.0124196
0.00129394
-0.0124089
0.0020293
-0.0124053
0.0027675
-0.012409
0.00350463
-0.0124201
0.00423669
-0.0124388
0.00495969
-0.0124649
0.00566967
-0.0124985
0.00636277
-0.0125394
0.00703528
-0.0125873
0.00768368
-0.012642
0.0083047
-0.0127032
0.00889529
-0.0127704
0.00945265
-0.0128434
-0.0129202
-0.00189297
-0.0130537
0.00237904
-0.00139075
-0.0130291
-0.000873793
-0.0130081
-0.000343813
-0.0129911
0.000197231
-0.0129781
0.000747152
-0.0129695
0.00130358
-0.0129653
0.00186399
-0.0129657
0.00242573
-0.0129707
0.00298607
-0.0129805
0.00354223
-0.0129949
0.00409138
-0.0130141
0.00463071
-0.0130378
0.00515744
-0.0130661
0.00566884
-0.0130987
0.0061623
-0.0131355
0.00663529
-0.0131762
0.00708549
-0.0132206
0.00751066
-0.0132685
-0.0133206
-0.00130673
-0.0134482
0.00170126
-0.000903345
-0.0134325
-0.000492188
-0.0134193
-7.44347e-05
-0.0134088
0.000348662
-0.0134012
0.000775779
-0.0133966
0.00120553
-0.013395
0.00163649
-0.0133966
0.0020672
-0.0134014
0.00249616
-0.0134094
0.00292189
-0.0134207
0.00334291
-0.0134351
0.00375777
-0.0134527
0.00416507
-0.0134734
0.00456347
-0.0134971
0.00495169
-0.0135237
0.00532855
-0.0135531
0.00569293
-0.013585
0.00604381
-0.0136194
-0.0136557
-0.000900883
-0.0137674
0.00122003
-0.000576029
-0.0137573
-0.000246175
-0.0137491
8.78949e-05
-0.0137429
0.000425331
-0.0137387
0.000765224
-0.0137365
0.00110661
-0.0137364
0.00144849
-0.0137385
0.00178982
-0.0137427
0.00212954
-0.0137491
0.0024666
-0.0137577
0.00279991
-0.0137684
0.00312844
-0.0137812
0.00345114
-0.0137961
0.00376702
-0.013813
0.00407513
-0.0138318
0.00437457
-0.0138525
0.00466453
-0.013875
0.00494424
-0.0138991
-0.0139253
-0.000656683
-0.0140303
0.000919583
-0.000390304
-0.0140237
-0.000120979
-0.0140185
0.000150735
-0.0140146
0.000424254
-0.0140122
0.000698974
-0.0140112
0.000974276
-0.0140117
0.00124953
-0.0140137
0.00152409
-0.0140173
0.00179732
-0.0140224
0.00206857
-0.014029
0.00233722
-0.0140371
0.00260264
-0.0140467
0.00286423
-0.0140577
0.0031214
-0.0140702
0.00337358
-0.014084
0.00362024
-0.0140992
0.00386087
-0.0141156
0.00409497
-0.0141332
-0.0141519
-0.000470771
-0.0142465
0.000686996
-0.000252284
-0.0142422
-3.1906e-05
-0.0142388
0.00018997
-0.0142365
0.00041293
-0.0142351
0.000636545
-0.0142348
0.00086037
-0.0142355
0.00108395
-0.0142373
0.00130682
-0.0142402
0.00152852
-0.0142441
0.00174858
-0.014249
0.00196652
-0.014255
0.0021819
-0.014262
0.00239427
-0.0142701
0.00260319
-0.0142791
0.00280825
-0.0142891
0.00300906
-0.0143
0.00320524
-0.0143118
0.00339644
-0.0143244
-0.0143381
-0.000355785
-0.0144257
0.000534957
-0.000175128
-0.0144229
6.73646e-06
-0.0144207
0.000189521
-0.0144193
0.000372928
-0.0144185
0.000556656
-0.0144185
0.000740395
-0.0144193
0.000923836
-0.0144208
0.00110666
-0.014423
0.00128856
-0.014426
0.00146922
-0.0144297
0.00164833
-0.0144341
0.00182559
-0.0144393
0.00200069
-0.0144452
0.00217335
-0.0144517
0.00234329
-0.014459
0.00251023
-0.0144669
0.0026739
-0.0144754
0.00283406
-0.0144846
-0.0144943
-0.000263292
-0.0145732
0.000410829
-0.000114778
-0.0145714
3.45093e-05
-0.01457
0.00018436
-0.0145691
0.000334558
-0.0145687
0.000484881
-0.0145689
0.000635102
-0.0145695
0.000784992
-0.0145707
0.00093432
-0.0145723
0.00108285
-0.0145745
0.00123036
-0.0145772
0.00137662
-0.0145804
0.00152139
-0.0145841
0.00166447
-0.0145882
0.00180563
-0.0145929
0.00194467
-0.014598
0.00208138
-0.0146036
0.00221558
-0.0146096
0.00234709
-0.0146161
-0.0146231
-0.000202392
-0.0146943
0.000323447
-8.06664e-05
-0.0146931
4.15773e-05
-0.0146922
0.000164182
-0.0146917
0.000286989
-0.0146916
0.000409836
-0.0146917
0.000532557
-0.0146922
0.000654989
-0.0146931
0.000776965
-0.0146943
0.000898319
-0.0146959
0.00101889
-0.0146978
0.00113851
-0.0147
0.00125701
-0.0147026
0.00137425
-0.0147055
0.00149006
-0.0147087
0.0016043
-0.0147123
0.00171682
-0.0147161
0.00182746
-0.0147203
0.00193611
-0.0147247
-0.0147295
-0.000151505
-0.0147919
0.000249152
-5.3415e-05
-0.0147912
4.50063e-05
-0.0147907
0.000143643
-0.0147904
0.000242376
-0.0147903
0.000341087
-0.0147904
0.000439654
-0.0147908
0.000537954
-0.0147914
0.000635867
-0.0147922
0.000733268
-0.0147933
0.000830036
-0.0147945
0.000926051
-0.014796
0.00102119
-0.0147977
0.00111535
-0.0147996
0.0012084
-0.0148018
0.00130023
-0.0148041
0.00139074
-0.0148066
0.00147983
-0.0148094
0.00156739
-0.0148123
-0.0148155
-0.000114761
-0.014869
0.00019182
-3.73943e-05
-0.0148686
4.01977e-05
-0.0148683
0.000117929
-0.0148681
0.000195713
-0.0148681
0.000273463
-0.0148682
0.00035109
-0.0148684
0.000428506
-0.0148688
0.000505621
-0.0148693
0.000582347
-0.01487
0.000658597
-0.0148708
0.000734282
-0.0148717
0.000809317
-0.0148727
0.000883616
-0.0148739
0.000957096
-0.0148752
0.00102967
-0.0148767
0.00110127
-0.0148782
0.00117181
-0.0148799
0.00124122
-0.0148817
-0.0148836
-8.2719e-05
-0.0149271
0.000140884
-2.43543e-05
-0.0149269
3.41507e-05
-0.0149268
9.27349e-05
-0.0149267
0.000151337
-0.0149267
0.000209894
-0.0149267
0.000268344
-0.0149269
0.000326623
-0.0149271
0.000384669
-0.0149274
0.000442419
-0.0149277
0.00049981
-0.0149282
0.000556781
-0.0149287
0.00061327
-0.0149292
0.000669217
-0.0149299
0.000724563
-0.0149306
0.000779251
-0.0149314
0.000833222
-0.0149322
0.000886424
-0.0149331
0.000938802
-0.0149341
-0.0149351
-5.68112e-05
-0.0149679
9.75484e-05
-1.59433e-05
-0.0149678
2.5015e-05
-0.0149677
6.60227e-05
-0.0149677
0.000107038
-0.0149677
0.00014802
-0.0149677
0.000188925
-0.0149678
0.000229713
-0.0149679
0.000270339
-0.014968
0.000310763
-0.0149682
0.000350943
-0.0149683
0.000390837
-0.0149686
0.000430404
-0.0149688
0.000469603
-0.0149691
0.000508394
-0.0149694
0.000546737
-0.0149697
0.000584593
-0.0149701
0.00062192
-0.0149704
0.00065868
-0.0149708
-0.0149713
-3.28288e-05
-0.014992
5.6915e-05
-8.6725e-06
-0.0149919
1.55307e-05
-0.0149919
3.97568e-05
-0.0149919
6.39818e-05
-0.0149919
8.81814e-05
-0.0149919
0.000112331
-0.0149919
0.000136407
-0.0149919
0.000160384
-0.014992
0.000184238
-0.014992
0.000207945
-0.014992
0.000231481
-0.0149921
0.000254823
-0.0149921
0.000277946
-0.0149922
0.00030083
-0.0149923
0.00032345
-0.0149923
0.000345784
-0.0149924
0.000367811
-0.0149925
0.000389504
-0.0149925
-0.0149927
-1.0973e-05
1.90069e-05
-2.91373e-06
5.16226e-06
1.32483e-05
2.13369e-05
2.94206e-05
3.74922e-05
4.55443e-05
5.35698e-05
6.15618e-05
6.95137e-05
7.74192e-05
8.52724e-05
9.30683e-05
0.000100802
0.000108471
0.000116072
0.000123603
0.000131067
-0.0232543
-0.0138293
0.0144699
0.0226137
-0.0239751
-0.0137366
0.0144574
-0.0248153
-0.0136281
0.0144683
-0.0257949
-0.0135144
0.014494
-0.0269329
-0.0133979
0.0145359
-0.0282453
-0.0132809
0.0145934
-0.0297421
-0.0131658
0.0146626
-0.0314235
-0.0130541
0.0147354
-0.0332757
-0.0129459
0.0147981
-0.0352676
-0.0128387
0.0148307
-0.0373476
-0.0127263
0.0148063
-0.0394416
-0.0125978
0.0146918
-0.0414533
-0.0124369
0.0144485
-0.0432657
-0.0122211
0.0140335
-0.0447443
-0.0119222
0.0134008
-0.0457373
-0.0115073
0.0125003
-0.046072
-0.0109405
0.0112753
-0.0455447
-0.0101842
0.00965696
-0.0439003
-0.00919233
0.00754789
-0.0079131
0.0046807
-0.0181205
-0.0137121
0.0180033
-0.0182432
-0.0136139
-0.0183617
-0.0135096
-0.0184834
-0.0133927
-0.018619
-0.0132623
-0.0187828
-0.0131171
-0.018992
-0.0129565
-0.0192661
-0.0127801
-0.0196239
-0.0125881
-0.0200813
-0.0123813
-0.0206469
-0.0121607
-0.0213175
-0.0119273
-0.0220732
-0.0116811
-0.0228731
-0.0114211
-0.0236511
-0.0111443
-0.024313
-0.0108453
-0.0247368
-0.0105167
-0.0247712
-0.0101499
-0.0242249
-0.00973859
-0.00929144
-0.0179265
-0.0135273
0.0177417
-0.0180995
-0.013441
-0.0182624
-0.0133467
-0.0184076
-0.0132475
-0.0185275
-0.0131424
-0.0186141
-0.0130306
-0.0186598
-0.0129108
-0.0186582
-0.0127817
-0.0186043
-0.012642
-0.0184953
-0.0124903
-0.0183305
-0.0123256
-0.0181107
-0.0121471
-0.017837
-0.0119547
-0.0175091
-0.0117491
-0.0171219
-0.0115315
-0.0166632
-0.011304
-0.0161105
-0.0110694
-0.0154293
-0.0108311
-0.0145744
-0.0105935
-0.0103622
-0.0136202
-0.0135325
0.0136254
-0.013616
-0.0134451
-0.0136084
-0.0133544
-0.0135964
-0.0132594
-0.0135785
-0.0131604
-0.0135516
-0.0130574
-0.0135116
-0.0129508
-0.0134527
-0.0128406
-0.0133675
-0.0127272
-0.0132473
-0.0126105
-0.0130821
-0.0124908
-0.0128612
-0.0123679
-0.012574
-0.012242
-0.0122102
-0.0121129
-0.011761
-0.0119808
-0.0112189
-0.011846
-0.010579
-0.0117093
-0.00983817
-0.0115719
-0.00899619
-0.0114354
-0.0113022
-0.0121705
-0.0136257
0.0122638
-0.0120568
-0.0135588
-0.0119231
-0.0134882
-0.0117677
-0.0134148
-0.0115894
-0.0133387
-0.0113871
-0.0132598
-0.0111597
-0.0131781
-0.0109065
-0.0130938
-0.0106268
-0.0130069
-0.0103196
-0.0129177
-0.00998377
-0.0128266
-0.0096178
-0.0127339
-0.00921951
-0.0126402
-0.00878609
-0.0125463
-0.00831414
-0.0124527
-0.00779977
-0.0123604
-0.00723897
-0.0122701
-0.00662798
-0.0121829
-0.00596387
-0.0120996
-0.0120211
-0.00973603
-0.0137424
0.0098527
-0.00960925
-0.0136856
-0.00946977
-0.0136276
-0.00931596
-0.0135686
-0.00914603
-0.0135086
-0.00895807
-0.0134477
-0.00875006
-0.0133862
-0.00851989
-0.013324
-0.00826546
-0.0132614
-0.00798472
-0.0131985
-0.0076758
-0.0131355
-0.00733705
-0.0130726
-0.00696713
-0.0130102
-0.00656508
-0.0129483
-0.00613033
-0.0128875
-0.00566275
-0.012828
-0.00516264
-0.0127703
-0.00463071
-0.0127148
-0.00406807
-0.0126622
-0.0126129
-0.00829056
-0.0138999
0.00844807
-0.00811972
-0.0138565
-0.00793544
-0.0138119
-0.00773736
-0.0137667
-0.0075251
-0.0137209
-0.00729831
-0.0136745
-0.00705663
-0.0136278
-0.00679969
-0.0135809
-0.0065271
-0.0135339
-0.00623846
-0.0134871
-0.00593331
-0.0134406
-0.0056112
-0.0133948
-0.00527164
-0.0133497
-0.00491418
-0.0133058
-0.00453839
-0.0132633
-0.00414395
-0.0132224
-0.00373067
-0.0131835
-0.00329855
-0.0131469
-0.00284784
-0.0131129
-0.0130817
-0.0068362
-0.0140499
0.00698624
-0.00667686
-0.0140158
-0.00650742
-0.0139814
-0.00632729
-0.0139468
-0.0061359
-0.0139123
-0.00593268
-0.0138777
-0.00571714
-0.0138434
-0.00548881
-0.0138092
-0.00524728
-0.0137755
-0.00499222
-0.0137422
-0.00472341
-0.0137094
-0.00444071
-0.0136775
-0.0041441
-0.0136463
-0.00383367
-0.0136162
-0.00350963
-0.0135873
-0.00317232
-0.0135597
-0.0028222
-0.0135337
-0.00245984
-0.0135093
-0.00208592
-0.0134868
-0.0134664
-0.00575887
-0.0142034
0.00591231
-0.00559722
-0.0141774
-0.00542722
-0.0141514
-0.00524877
-0.0141253
-0.00506178
-0.0140992
-0.00486615
-0.0140734
-0.00466182
-0.0140477
-0.00444873
-0.0140223
-0.00422682
-0.0139974
-0.00399609
-0.0139729
-0.00375651
-0.013949
-0.00350811
-0.0139259
-0.00325095
-0.0139035
-0.00298513
-0.0138821
-0.00271077
-0.0138617
-0.00242807
-0.0138424
-0.00213729
-0.0138244
-0.00183874
-0.0138078
-0.00153283
-0.0137927
-0.0137792
-0.00481558
-0.0143426
0.00495476
-0.00467013
-0.0143229
-0.00451822
-0.0143033
-0.00435972
-0.0142838
-0.00419449
-0.0142645
-0.00402245
-0.0142454
-0.0038435
-0.0142266
-0.00365761
-0.0142082
-0.00346477
-0.0141902
-0.00326498
-0.0141727
-0.00305832
-0.0141557
-0.00284488
-0.0141393
-0.00262481
-0.0141236
-0.00239829
-0.0141086
-0.00216556
-0.0140944
-0.00192688
-0.0140811
-0.00168256
-0.0140688
-0.00143297
-0.0140574
-0.0011785
-0.0140472
-0.0140381
-0.00404743
-0.0144716
0.00417642
-0.00391344
-0.0144569
-0.0037744
-0.0144423
-0.00363029
-0.0144279
-0.00348113
-0.0144136
-0.00332694
-0.0143996
-0.00316775
-0.0143858
-0.0030036
-0.0143724
-0.00283456
-0.0143593
-0.00266069
-0.0143466
-0.00248209
-0.0143343
-0.00229887
-0.0143225
-0.00211115
-0.0143113
-0.0019191
-0.0143006
-0.00172288
-0.0142906
-0.00152268
-0.0142813
-0.00131874
-0.0142727
-0.00111129
-0.0142649
-0.000900611
-0.0142579
-0.0142518
-0.00339046
-0.0145851
0.00350401
-0.003273
-0.0145743
-0.00315162
-0.0145637
-0.0030263
-0.0145532
-0.00289706
-0.0145429
-0.00276391
-0.0145328
-0.00262688
-0.0145229
-0.00248601
-0.0145132
-0.00234136
-0.0145039
-0.00219302
-0.0144949
-0.00204106
-0.0144862
-0.00188561
-0.014478
-0.00172679
-0.0144701
-0.00156474
-0.0144627
-0.00139963
-0.0144557
-0.00123163
-0.0144493
-0.00106095
-0.0144434
-0.000887786
-0.014438
-0.000712375
-0.0144333
-0.0144292
-0.00282677
-0.014685
0.00292669
-0.00272382
-0.0146773
-0.00261783
-0.0146697
-0.00250883
-0.0146622
-0.00239686
-0.0146548
-0.00228197
-0.0146477
-0.00216419
-0.0146406
-0.00204359
-0.0146338
-0.00192024
-0.0146273
-0.00179422
-0.0146209
-0.00166561
-0.0146149
-0.0015345
-0.0146091
-0.00140102
-0.0146036
-0.00126526
-0.0145984
-0.00112735
-0.0145936
-0.000987443
-0.0145892
-0.000845673
-0.0145852
-0.000702202
-0.0145815
-0.000557194
-0.0145783
-0.0145755
-0.00233624
-0.0147701
0.00242135
-0.00224875
-0.0147648
-0.00215892
-0.0147595
-0.00206676
-0.0147543
-0.00197232
-0.0147493
-0.00187563
-0.0147443
-0.00177672
-0.0147396
-0.00167566
-0.0147349
-0.0015725
-0.0147304
-0.0014673
-0.0147261
-0.00136014
-0.014722
-0.00125111
-0.0147181
-0.00114028
-0.0147144
-0.00102776
-0.014711
-0.000913656
-0.0147077
-0.000798073
-0.0147048
-0.000681131
-0.0147021
-0.000562958
-0.0146997
-0.000443684
-0.0146976
-0.0146958
-0.00189858
-0.0148415
0.00196993
-0.00182544
-0.0148379
-0.0017505
-0.0148344
-0.00167381
-0.014831
-0.00159539
-0.0148277
-0.00151528
-0.0148245
-0.00143353
-0.0148213
-0.00135018
-0.0148183
-0.00126529
-0.0148153
-0.00117891
-0.0148125
-0.0010911
-0.0148098
-0.00100193
-0.0148073
-0.000911477
-0.0148049
-0.000819806
-0.0148026
-0.000727002
-0.0148005
-0.000633152
-0.0147986
-0.000538345
-0.0147969
-0.000442676
-0.0147954
-0.000346244
-0.014794
-0.0147929
-0.00150509
-0.014899
0.00156265
-0.00144615
-0.0148969
-0.00138587
-0.0148947
-0.00132426
-0.0148926
-0.00126137
-0.0148906
-0.00119721
-0.0148886
-0.00113182
-0.0148867
-0.00106524
-0.0148848
-0.000997504
-0.0148831
-0.000928666
-0.0148813
-0.000858771
-0.0148797
-0.000787869
-0.0148782
-0.000716017
-0.0148767
-0.000643274
-0.0148754
-0.000569702
-0.0148741
-0.000495367
-0.014873
-0.000420338
-0.0148719
-0.000344687
-0.014871
-0.000268489
-0.0148702
-0.0148695
-0.00114103
-0.0149435
0.00118544
-0.00109564
-0.0149423
-0.00104928
-0.0149411
-0.00100196
-0.01494
-0.000953714
-0.0149388
-0.000904559
-0.0149378
-0.000854525
-0.0149367
-0.000803644
-0.0149357
-0.000751947
-0.0149347
-0.000699468
-0.0149338
-0.000646244
-0.0149329
-0.000592314
-0.0149321
-0.000537719
-0.0149313
-0.000482504
-0.0149306
-0.000426713
-0.0149299
-0.000370396
-0.0149293
-0.000313601
-0.0149287
-0.000256381
-0.0149282
-0.00019879
-0.0149278
-0.0149274
-0.000800882
-0.0149748
0.00083226
-0.000768798
-0.0149743
-0.000736043
-0.0149738
-0.000702632
-0.0149734
-0.000668585
-0.0149729
-0.000633921
-0.0149724
-0.00059866
-0.014972
-0.000562823
-0.0149716
-0.000526432
-0.0149711
-0.000489512
-0.0149707
-0.000452088
-0.0149704
-0.000414187
-0.01497
-0.000375838
-0.0149697
-0.000337071
-0.0149693
-0.000297917
-0.0149691
-0.00025841
-0.0149688
-0.000218583
-0.0149686
-0.000178473
-0.0149683
-0.000138115
-0.0149682
-0.014968
-0.000474314
-0.0149936
0.000493069
-0.000455204
-0.0149934
-0.000435698
-0.0149934
-0.000415808
-0.0149933
-0.000395549
-0.0149932
-0.00037493
-0.0149931
-0.000353965
-0.014993
-0.000332667
-0.0149929
-0.000311049
-0.0149928
-0.000289126
-0.0149927
-0.000266914
-0.0149926
-0.000244428
-0.0149925
-0.000221686
-0.0149924
-0.000198706
-0.0149923
-0.000175506
-0.0149923
-0.000152105
-0.0149922
-0.000128525
-0.0149921
-0.000104786
-0.0149921
-8.09083e-05
-0.014992
-0.014992
-0.000159025
0.00016544
-0.000152473
-0.000145826
-0.000139079
-0.000132232
-0.000125284
-0.000118236
-0.000111089
-0.000103845
-9.65074e-05
-8.90799e-05
-8.15667e-05
-7.39722e-05
-6.63016e-05
-5.85603e-05
-5.0754e-05
-4.2889e-05
-3.49716e-05
-2.70084e-05
-0.0137693
-0.00454684
0.0183161
-0.0104762
-0.00329307
-0.00798764
-0.00248859
-0.0060611
-0.00192654
-0.00455087
-0.00151023
-0.00336071
-0.00119016
-0.00242308
-0.000937631
-0.00168848
-0.000734603
-0.00111932
-0.000569155
-0.000686226
-0.000433099
-0.000365606
-0.00032062
-0.000138116
-0.00022749
1.25011e-05
-0.000150617
0.00010031
-8.78089e-05
0.000137985
-3.76745e-05
0.000138906
-9.20455e-07
0.000110183
2.87234e-05
6.67932e-05
4.33899e-05
2.36943e-05
4.3099e-05
2.36942e-05
-0.0163061
-0.00665593
0.0184152
-0.0140716
-0.00552752
-0.0119279
-0.00463234
-0.00996027
-0.00389416
-0.00819866
-0.00327185
-0.00664874
-0.00274007
-0.00530479
-0.00228159
-0.00415538
-0.00188401
-0.00318638
-0.00153816
-0.00238237
-0.0012371
-0.00172755
-0.000975444
-0.00120607
-0.000748973
-0.000802277
-0.000554408
-0.000500824
-0.000389263
-0.000286674
-0.000251825
-0.000146474
-0.000141122
-6.09032e-05
-5.6848e-05
-1.80838e-05
5.69963e-07
-2.1005e-06
2.71153e-05
2.15939e-05
-0.0144506
-0.00797063
0.0157653
-0.0129535
-0.00702465
-0.011408
-0.00617785
-0.0098903
-0.00541186
-0.00844719
-0.00471496
-0.00710717
-0.00408009
-0.00588669
-0.00350206
-0.00479399
-0.00297671
-0.00383156
-0.0025006
-0.00299778
-0.00207088
-0.00228807
-0.00168515
-0.00169561
-0.00134143
-0.00121195
-0.00103807
-0.000827429
-0.000773781
-0.000531595
-0.000547659
-0.000313487
-0.000359229
-0.000161799
-0.000208536
-6.50405e-05
-9.61881e-05
-1.43468e-05
-2.35784e-05
7.24716e-06
-0.0124899
-0.00895966
0.013479
-0.0113847
-0.00812992
-0.0102229
-0.00733956
-0.00904961
-0.00658519
-0.00789827
-0.0058663
-0.00679439
-0.00518397
-0.00575684
-0.00453961
-0.00479897
-0.00393458
-0.00392955
-0.00337002
-0.00315352
-0.0028469
-0.00247268
-0.002366
-0.00188623
-0.00192789
-0.00139126
-0.00153303
-0.000983237
-0.00118181
-0.000656336
-0.00087456
-0.000403895
-0.000611669
-0.000218816
-0.000393615
-9.39746e-05
-0.00022103
-2.2829e-05
-9.47238e-05
-1.55817e-05
-0.0112944
-0.00982483
0.0121596
-0.0103521
-0.00907227
-0.0093667
-0.00832494
-0.00836637
-0.00758552
-0.00737465
-0.00685802
-0.00641127
-0.00614735
-0.00549238
-0.0054585
-0.00463079
-0.00479617
-0.00383611
-0.0041647
-0.0031151
-0.00356792
-0.0024719
-0.0030092
-0.00190838
-0.00249141
-0.00142445
-0.00201696
-0.00101839
-0.00158787
-0.00068717
-0.00120578
-0.000426822
-0.000872016
-0.000232744
-0.000587693
-0.000100065
-0.000353709
-2.39878e-05
-0.000170801
-3.95695e-05
-0.0106065
-0.0106218
0.0114035
-0.00975189
-0.00992691
-0.00886132
-0.00921551
-0.00795496
-0.00849188
-0.00705112
-0.00776187