/*--------------------------------*- C++ -*----------------------------------*\
| =========                 |                                                 |
| \\      /  F ield         | OpenFOAM: The Open Source CFD Toolbox           |
|  \\    /   O peration     | Version:  v1806                                 |
|   \\  /    A nd           | Web:      www.OpenFOAM.com                      |
|    \\/     M anipulation  |                                                 |
\*---------------------------------------------------------------------------*/
FoamFile
{
    version     2.0;
    format      ascii;
    class       volScalarField;
    location    "7";
    object      p;
}
// * * * * * * * * * * * * * * * * * * * * * * * * * * * * * * * * * * * * * //

dimensions      [0 2 -2 0 0 0 0];


internalField   nonuniform List<scalar> 
24000
(
14.4839
13.6328
13.09
12.6893
12.3202
11.9771
11.6666
11.3874
11.1327
10.8952
10.6691
10.4501
10.2355
10.0232
9.81239
9.6024
9.39304
9.18434
8.97652
8.76994
14.2834
13.5571
13.0576
12.6698
12.3094
11.9715
11.6628
11.3839
11.1292
10.8922
10.6669
10.449
10.2354
10.0241
9.81388
9.60413
9.39474
9.18572
8.97736
8.77007
14.2394
13.5378
13.0502
12.6667
12.3092
11.9737
11.667
11.3895
11.136
10.8998
10.6753
10.4581
10.2449
10.0337
9.82334
9.61312
9.40289
9.19268
8.98277
8.77363
14.1884
13.5019
13.0278
12.6533
12.3017
11.9704
11.667
11.3922
11.1409
10.9065
10.6836
10.4676
10.2553
10.0446
9.83415
9.62333
9.4119
9.19995
8.98781
8.77602
14.1641
13.4857
13.0195
12.6508
12.3033
11.9752
11.6747
11.4023
11.1529
10.9202
10.6986
10.4836
10.2718
10.0611
9.8501
9.63809
9.42481
9.21035
8.99507
8.77966
14.1492
13.4744
13.0127
12.6481
12.3043
11.9795
11.6821
11.4127
11.166
10.9357
10.716
10.5023
10.2914
10.0809
9.86927
9.65583
9.44022
9.22254
9.00321
8.78305
14.143
13.4707
13.0125
12.6516
12.3111
11.9894
11.6949
11.4283
11.1843
10.9564
10.7387
10.5266
10.3167
10.1063
9.89396
9.67871
9.46014
9.23832
9.01376
8.78744
14.1432
13.4729
13.0169
12.6588
12.3211
12.0025
11.711
11.4475
11.2065
10.9814
10.7662
10.5561
10.3474
10.1374
9.92429
9.70698
9.48485
9.25797
9.02685
8.79272
14.1481
13.4802
13.0258
12.67
12.335
12.0194
11.7311
11.4711
11.2334
11.0117
10.7995
10.592
10.385
10.1758
9.96201
9.74253
9.51623
9.28322
9.04384
8.79972
14.1566
13.4921
13.0385
12.6848
12.3522
12.04
11.7551
11.499
11.265
11.0476
10.8389
10.6349
10.4302
10.2226
10.0084
9.78701
9.55587
9.31568
9.06588
8.80907
14.1674
13.5081
13.0541
12.7027
12.3723
12.0641
11.7825
11.5312
11.3013
11.0893
10.8848
10.6858
10.4841
10.2796
10.0655
9.84298
9.60623
9.35819
9.09488
8.82213
14.1795
13.5275
13.0717
12.7231
12.3947
12.091
11.8128
11.5675
11.3419
11.137
10.9372
10.7455
10.5477
10.3488
10.1352
9.91381
9.67024
9.41506
9.13307
8.84145
14.1922
13.5493
13.0902
12.7452
12.4184
12.1203
11.845
11.6073
11.386
11.1905
10.9958
10.8144
10.6213
10.4319
10.2196
10.0036
9.7516
9.49319
9.18304
8.87375
14.2051
13.5714
13.1086
12.7679
12.4424
12.1507
11.8779
11.6493
11.4323
11.2485
11.0594
10.8918
10.7045
10.5294
10.32
10.1152
9.85432
9.60186
9.24869
8.93705
14.218
13.5913
13.1257
12.7896
12.4654
12.1804
11.9103
11.6914
11.4791
11.3086
11.1261
10.9756
10.7961
10.6399
10.4365
10.2479
9.98023
9.74553
9.3348
9.06263
14.2303
13.6072
13.1399
12.8091
12.4858
12.2077
11.9395
11.7313
11.523
11.3677
11.1919
11.062
10.8923
10.7599
10.5676
10.3972
10.128
9.90764
9.44215
9.2602
14.2449
13.6153
13.1508
12.8248
12.5041
12.2303
11.9663
11.766
11.5646
11.4221
11.2573
11.1469
10.9938
10.8874
10.7186
10.5639
10.3223
10.0539
9.54811
9.51438
14.2644
13.6153
13.1589
12.837
12.5216
12.2492
11.9911
11.7963
11.6046
11.4733
11.3224
11.2338
11.0993
11.0327
10.8848
10.7876
10.569
10.2544
9.67534
9.59525
14.2864
13.6071
13.1672
12.8449
12.5401
12.264
12.0185
11.8193
11.648
11.5136
11.395
11.305
11.2212
11.157
11.08
10.9937
10.8262
10.5017
9.86878
8.87756
14.3107
13.5802
13.1808
12.843
12.5646
12.2587
12.0524
11.82
11.7028
11.5242
11.4841
11.3362
11.3755
11.2355
11.3618
11.1825
11.2996
10.6335
9.81416
7.68829
14.2264
13.5961
13.0863
12.6884
12.3269
11.9882
11.6771
11.3955
11.1388
10.8999
10.6726
10.4528
10.2374
10.0246
9.81336
9.60312
9.3936
9.1848
8.97691
8.7703
14.027
13.5243
13.0611
12.6721
12.3171
11.9836
11.6747
11.3934
11.1367
10.8982
10.6718
10.4529
10.2384
10.0264
9.81563
9.60555
9.39591
9.18672
8.97823
8.77085
13.9829
13.5053
13.0546
12.6697
12.3171
11.9859
11.679
11.3992
11.1435
10.9059
10.6803
10.4621
10.2481
10.0363
9.8254
9.61483
9.40434
9.19393
8.98386
8.77459
13.9313
13.4687
13.032
12.6563
12.3095
11.9825
11.6791
11.402
11.1485
10.9126
10.6885
10.4716
10.2584
10.047
9.83616
9.625
9.41333
9.20119
8.98888
8.77695
13.9068
13.4523
13.0236
12.6539
12.3113
11.9874
11.6867
11.4121
11.1607
10.9265
10.7037
10.4876
10.2749
10.0636
9.85213
9.63978
9.42625
9.21159
8.99617
8.78061
13.8918
13.4408
13.0166
12.6512
12.3122
11.9916
11.6941
11.4224
11.1737
10.9418
10.7209
10.5063
10.2945
10.0833
9.87128
9.6575
9.44165
9.22378
9.0043
8.78401
13.8855
13.437
13.0162
12.6545
12.3191
12.0016
11.7069
11.438
11.192
10.9626
10.7437
10.5306
10.3198
10.1088
9.896
9.68041
9.46159
9.23959
9.01488
8.78843
13.8856
13.4391
13.0206
12.6617
12.329
12.0146
11.723
11.4572
11.2141
10.9876
10.7712
10.5601
10.3505
10.1399
9.92631
9.70866
9.48631
9.25925
9.02799
8.79372
13.8904
13.4463
13.0294
12.6728
12.3428
12.0315
11.7431
11.4808
11.2411
11.0179
10.8045
10.596
10.3881
10.1783
9.96404
9.74422
9.51771
9.2845
9.04503
8.80076
13.8987
13.4583
13.042
12.6875
12.3599
12.0521
11.7671
11.5088
11.2727
11.0538
10.8438
10.6389
10.4333
10.2251
10.0104
9.78871
9.55735
9.31695
9.06716
8.81012
13.9093
13.4744
13.0575
12.7053
12.3799
12.0762
11.7944
11.5411
11.3089
11.0957
10.8896
10.6899
10.4871
10.2822
10.0673
9.84477
9.6076
9.3594
9.09629
8.82306
13.9212
13.4942
13.0749
12.7256
12.4021
12.1033
11.8245
11.5774
11.3494
11.1436
10.942
10.7499
10.5504
10.3518
10.1367
9.91604
9.67114
9.41632
9.13451
8.84182
13.9338
13.5164
13.0931
12.7477
12.4258
12.1328
11.8564
11.6173
11.3934
11.1974
11.0004
10.8193
10.6236
10.4357
10.2203
10.0072
9.75121
9.49535
9.18366
8.8723
13.9466
13.5389
13.1109
12.7705
12.4498
12.1634
11.8891
11.6596
11.4396
11.2558
11.0638
10.8973
10.7065
10.5344
10.3197
10.121
9.85144
9.60676
9.24602
8.93116
13.9597
13.5591
13.1274
12.7922
12.4728
12.1933
11.9213
11.7018
11.4865
11.316
11.1306
10.9813
10.7981
10.646
10.4355
10.2565
9.97366
9.75419
9.32438
9.04561
13.9721
13.5751
13.1411
12.8116
12.4931
12.2205
11.9503
11.7414
11.5303
11.3748
11.1964
11.0672
10.8945
10.7655
10.5665
10.4067
10.1185
9.91886
9.41783
9.21628
13.9869
13.5825
13.1521
12.8266
12.5113
12.2424
11.9771
11.7751
11.5722
11.4274
11.2625
11.1489
10.9974
10.8875
10.7194
10.5682
10.3122
10.0765
9.51801
9.37546
14.0072
13.581
13.1609
12.8378
12.5291
12.2604
12.0027
11.804
11.6133
11.4767
11.3297
11.2323
11.1071
11.0246
10.8937
10.7751
10.5655
10.2873
9.60247
9.44729
14.0304
13.571
13.1691
12.8454
12.5476
12.2744
12.03
11.8265
11.6558
11.5171
11.4002
11.3049
11.2242
11.1526
11.0781
10.9796
10.7926
10.4768
9.68233
8.58808
14.0563
13.5416
13.1793
12.8446
12.574
12.2685
12.063
11.8277
11.7097
11.5288
11.4867
11.3383
11.3728
11.2345
11.3482
11.1601
11.2377
10.4629
9.39823
6.46175
14.1221
13.5883
13.0979
12.6956
12.3389
12.0043
11.6919
11.406
11.1454
10.9042
10.6756
10.4548
10.2386
10.0254
9.81386
9.60348
9.39386
9.185
8.97707
8.77042
13.9252
13.5194
13.0761
12.6834
12.3308
12.0011
11.6921
11.4072
11.1464
10.905
10.6768
10.4566
10.2411
10.0283
9.81698
9.60657
9.39673
9.18741
8.97883
8.77136
13.8813
13.5005
13.0704
12.682
12.3311
12.0035
11.6967
11.4134
11.1535
10.9128
10.6854
10.466
10.2511
10.0385
9.82704
9.61612
9.40542
9.19484
8.98464
8.77526
13.8296
13.4635
13.0477
12.6689
12.3237
12.0001
11.6967
11.4163
11.1586
10.9197
10.6937
10.4756
10.2615
10.0493
9.83782
9.62627
9.41436
9.20212
8.98972
8.7777
13.8049
13.4468
13.0394
12.6666
12.3255
12.0051
11.7045
11.4265
11.1709
10.9336
10.7089
10.4916
10.278
10.0659
9.8538
9.64109
9.42735
9.21258
8.99706
8.78141
13.7898
13.4352
13.0323
12.6638
12.3264
12.0093
11.7117
11.4367
11.1838
10.949
10.7262
10.5103
10.2976
10.0856
9.87296
9.65882
9.44277
9.22478
9.00521
8.78481
13.7834
13.4312
13.0318
12.667
12.3333
12.0193
11.7246
11.4523
11.2021
10.9697
10.749
10.5347
10.3229
10.1111
9.89768
9.68174
9.46274
9.24061
9.01581
8.78926
13.7834
13.4333
13.036
12.674
12.3431
12.0323
11.7407
11.4715
11.2242
10.9947
10.7764
10.5641
10.3536
10.1421
9.92798
9.70998
9.48745
9.26027
9.02894
8.79458
13.7882
13.4406
13.0447
12.6851
12.3568
12.0492
11.7608
11.4951
11.2512
11.025
10.8097
10.6
10.3911
10.1805
9.96569
9.74551
9.51885
9.28552
9.046
8.80164
13.7964
13.4526
13.0571
12.6997
12.3738
12.0698
11.7847
11.5231
11.2827
11.0609
10.849
10.6429
10.4363
10.2273
10.0121
9.78991
9.5585
9.31789
9.06815
8.81097
13.807
13.469
13.0722
12.7173
12.3937
12.0941
11.8119
11.5553
11.3188
11.1028
10.8947
10.6939
10.49
10.2843
10.0689
9.8458
9.60875
9.36002
9.09734
8.82368
13.819
13.4893
13.089
12.7374
12.4158
12.1217
11.8417
11.5918
11.359
11.1511
10.9469
10.7541
10.5529
10.354
10.138
9.91694
9.67217
9.41603
9.13573
8.84145
13.8317
13.512
13.1066
12.7593
12.4394
12.1519
11.8733
11.6319
11.4025
11.2055
11.0048
10.8241
10.6253
10.4386
10.2205
10.0086
9.75127
9.49347
9.1849
8.86803
13.8449
13.5347
13.1238
12.7821
12.4634
12.1832
11.9054
11.6745
11.4481
11.2646
11.0674
10.9029
10.7067
10.5386
10.3174
10.1242
9.84798
9.60415
9.24475
8.91514
13.8583
13.5548
13.1398
12.8037
12.4865
12.2135
11.9374
11.7169
11.4948
11.3254
11.1337
10.9876
10.7968
10.6517
10.4296
10.2629
9.96354
9.75287
9.31308
9.00851
13.8708
13.5705
13.1533
12.8226
12.5067
12.2407
11.9665
11.7564
11.5387
11.3842
11.1995
11.0735
10.8924
10.7721
10.5572
10.417
10.0981
9.92363
9.38213
9.15111
13.8852
13.5769
13.165
12.8364
12.5248
12.2612
11.9939
11.7886
11.5813
11.4352
11.267
11.1536
10.9974
10.8922
10.7114
10.5798
10.2867
10.0877
9.46046
9.26797
13.9061
13.5733
13.1755
12.846
12.5427
12.2765
12.0205
11.815
11.6234
11.4808
11.3354
11.2318
11.1082
11.0218
10.8852
10.7758
10.5276
10.3127
9.50651
9.35818
13.9316
13.5606
13.184
12.8536
12.5617
12.2891
12.0466
11.8369
11.6648
11.5207
11.403
11.3043
11.2191
11.147
11.0556
10.9622
10.7189
10.4438
9.60128
8.80839
13.9586
13.5316
13.1899
12.8541
12.5882
12.2855
12.077
11.8395
11.7159
11.5355
11.4862
11.3414
11.3651
11.2328
11.3272
11.1308
11.1748
10.4185
9.62575
5.99521
14.0421
13.5721
13.1002
12.6984
12.3451
12.0141
11.7021
11.4139
11.1507
10.9079
10.6785
10.457
10.2403
10.0266
9.81475
9.60416
9.39441
9.18544
8.97744
8.77073
13.8462
13.5032
13.0804
12.6893
12.3379
12.0115
11.7036
11.417
11.1536
10.9105
10.6813
10.4603
10.2441
10.0306
9.81884
9.60812
9.39805
9.18857
8.97984
8.77223
13.8026
13.4842
13.0753
12.6886
12.3384
12.0139
11.7084
11.4234
11.1609
10.9184
10.6899
10.4698
10.2542
10.041
9.82911
9.61787
9.40694
9.1962
8.98587
8.77635
13.7507
13.447
13.0528
12.6756
12.3311
12.0105
11.7085
11.4265
11.1662
10.9254
10.6984
10.4794
10.2647
10.0519
9.83994
9.62806
9.41593
9.20349
8.99094
8.7788
13.7259
13.4302
13.0445
12.6735
12.3331
12.0156
11.7163
11.4368
11.1786
10.9394
10.7136
10.4956
10.2813
10.0685
9.85592
9.64289
9.42894
9.21401
8.99835
8.78256
13.7108
13.4185
13.0373
12.6706
12.3339
12.0198
11.7235
11.4468
11.1914
10.9547
10.7309
10.5143
10.3008
10.0882
9.87509
9.66064
9.44437
9.22622
9.00652
8.78599
13.7043
13.4144
13.0367
12.6738
12.3408
12.0299
11.7365
11.4625
11.2098
10.9755
10.7537
10.5386
10.3261
10.1137
9.89984
9.68359
9.46437
9.24208
9.01715
8.79046
13.7043
13.4165
13.0409
12.6808
12.3506
12.0428
11.7525
11.4817
11.2319
11.0004
10.7811
10.568
10.3568
10.1447
9.93013
9.71182
9.48908
9.26175
9.03029
8.7958
13.709
13.4237
13.0495
12.6917
12.3642
12.0597
11.7726
11.5053
11.2588
11.0308
10.8144
10.6039
10.3944
10.1831
9.96784
9.74733
9.52049
9.287
9.04736
8.80289
13.7173
13.4357
13.0617
12.7064
12.3812
12.0804
11.7965
11.5332
11.2903
11.0667
10.8537
10.6468
10.4395
10.2298
10.0142
9.79164
9.56015
9.31929
9.0695
8.81221
13.7279
13.4522
13.0766
12.724
12.4011
12.1049
11.8236
11.5655
11.3263
11.1087
10.8994
10.6978
10.4931
10.2867
10.0711
9.84731
9.61045
9.36113
9.09868
8.82473
13.74
13.4725
13.093
12.7439
12.4231
12.1329
11.8532
11.602
11.3662
11.1573
10.9513
10.7583
10.5558
10.3565
10.1401
9.91813
9.67407
9.41619
9.1372
8.84172
13.753
13.4953
13.1103
12.7655
12.4466
12.1637
11.8844
11.6424
11.4092
11.2123
11.0086
10.8289
10.6272
10.4418
10.2218
10.0099
9.75315
9.49164
9.18683
8.8654
13.7666
13.5178
13.1273
12.788
12.4706
12.1956
11.9162
11.6851
11.4542
11.2721
11.0702
10.9089
10.707
10.5435
10.3164
10.1273
9.84788
9.60061
9.24685
8.90262
13.7805
13.5374
13.1434
12.8093
12.4939
12.226
11.948
11.7276
11.5006
11.3332
11.1357
10.9943
10.7952
10.6587
10.4251
10.2698
9.95751
9.75022
9.31018
8.97742
13.7937
13.5524
13.1574
12.8276
12.5145
12.2529
11.9775
11.7667
11.5447
11.3916
11.2016
11.0802
10.8897
10.7805
10.5488
10.4292
10.0825
9.9272
9.36336
9.10039
13.8083
13.5578
13.1703
12.8403
12.5328
12.272
12.0061
11.7975
11.5888
11.4407
11.271
11.1582
10.9971
10.8987
10.7035
10.5943
10.2642
10.0984
9.42468
9.19762
13.83
13.5512
13.1825
12.8486
12.551
12.284
12.034
11.8208
11.633
11.4826
11.3425
11.2319
11.1124
11.0216
10.8809
10.7789
10.5012
10.3265
9.47409
9.29681
13.8571
13.5378
13.1905
12.8562
12.5713
12.2961
12.0597
11.8426
11.6748
11.5238
11.4108
11.3061
11.226
11.1471
11.0574
10.948
10.6965
10.4065
9.59333
8.95112
13.8809
13.5151
13.191
12.8595
12.5947
12.2982
12.086
11.8507
11.7206
11.5447
11.4873
11.3494
11.3641
11.2356
11.3297
11.1044
11.2362
10.3385
10.0636
6.01807
14.0035
13.5643
13.1025
12.701
12.3485
12.0193
11.7078
11.4186
11.1539
10.9101
10.6802
10.4584
10.2413
10.0273
9.81528
9.60458
9.39476
9.18574
8.9777
8.77096
13.8081
13.4954
13.0841
12.6935
12.3419
12.0169
11.7099
11.4226
11.1579
10.9138
10.6839
10.4625
10.2458
10.032
9.81994
9.60903
9.39884
9.18926
8.98046
8.77279
13.7645
13.4765
13.0793
12.693
12.3425
12.0194
11.7148
11.4292
11.1653
10.9217
10.6926
10.472
10.256
10.0425
9.83031
9.61888
9.40782
9.197
8.98658
8.77699
13.7126
13.4391
13.0568
12.6801
12.3352
12.0161
11.715
11.4324
11.1708
10.9288
10.7011
10.4817
10.2665
10.0534
9.84116
9.6291
9.41683
9.20428
8.99166
8.77945
13.6878
13.4223
13.0485
12.678
12.3373
12.0212
11.7228
11.4427
11.1832
10.9429
10.7164
10.4979
10.2832
10.07
9.85715
9.64392
9.42985
9.21483
8.99909
8.78324
13.6726
13.4105
13.0413
12.6751
12.3382
12.0253
11.73
11.4528
11.196
10.9581
10.7337
10.5165
10.3027
10.0897
9.87633
9.66169
9.4453
9.22706
9.00728
8.78668
13.6661
13.4064
13.0407
12.6783
12.345
12.0354
11.743
11.4685
11.2144
10.9789
10.7564
10.5409
10.328
10.1152
9.90108
9.68464
9.4653
9.24293
9.01792
8.79117
13.6661
13.4085
13.0449
12.6853
12.3548
12.0484
11.759
11.4876
11.2365
11.0038
10.7838
10.5703
10.3586
10.1462
9.93137
9.71287
9.49002
9.2626
9.03107
8.79652
13.6708
13.4156
13.0534
12.6963
12.3684
12.0653
11.7791
11.5112
11.2634
11.0342
10.8171
10.6061
10.3962
10.1846
9.96909
9.74837
9.52144
9.28785
9.04815
8.80362
13.6791
13.4276
13.0655
12.7109
12.3854
12.086
11.8029
11.5392
11.2949
11.0701
10.8564
10.649
10.4413
10.2312
10.0155
9.79263
9.56109
9.32012
9.07028
8.81293
13.6897
13.4441
13.0803
12.7286
12.4052
12.1106
11.83
11.5714
11.3308
11.1122
10.9021
10.7001
10.495
10.2881
10.0724
9.84818
9.61142
9.3618
9.09942
8.82537
13.7018
13.4645
13.0965
12.7486
12.4273
12.1388
11.8595
11.6079
11.3705
11.1609
10.9539
10.7606
10.5575
10.3579
10.1414
9.91879
9.67517
9.41633
9.13796
8.84198
13.7149
13.4873
13.1136
12.77
12.4507
12.17
11.8904
11.6484
11.4131
11.2163
11.0108
10.8317
10.6284
10.4436
10.2228
10.0105
9.75429
9.49039
9.18779
8.86424
13.7286
13.5098
13.1306
12.7923
12.4747
12.2021
11.922
11.6913
11.4577
11.2766
11.0718
10.9123
10.7072
10.5463
10.316
10.129
9.84804
9.59785
9.24799
8.89621
13.7428
13.5292
13.1467
12.8134
12.4981
12.2326
11.9538
11.7336
11.5039
11.3378
11.1368
10.9982
10.7942
10.6629
10.4226
10.2737
9.95463
9.74818
9.30932
8.96023
13.7563
13.5439
13.1609
12.8313
12.5188
12.2593
11.9836
11.7723
11.5483
11.3959
11.2028
11.0841
10.8883
10.7856
10.5441
10.4362
10.0741
9.92937
9.35496
9.07217
13.7713
13.5487
13.1746
12.8435
12.5372
12.2776
12.0131
11.8025
11.5932
11.4439
11.2733
11.1612
10.9968
10.9029
10.6989
10.6022
10.2516
10.1054
9.40581
9.16291
13.7935
13.5404
13.1878
12.8513
12.556
12.2882
12.0423
11.8255
11.6391
11.4845
11.3475
11.2335
11.1161
11.024
10.8798
10.7838
10.4881
10.3354
9.45638
9.26908
13.8216
13.5269
13.1959
12.8586
12.5777
12.3008
12.0691
11.8475
11.6835
11.5273
11.4201
11.3105
11.237
11.1535
11.0681
10.9468
10.6995
10.396
9.59773
9.04209
13.8437
13.5077
13.1932
12.8638
12.5992
12.3064
12.0921
11.8587
11.7251
11.552
11.4912
11.3565
11.3693
11.239
11.3402
11.09
11.2843
10.2988
10.3319
6.05347
14.0035
13.5643
13.1025
12.701
12.3485
12.0193
11.7078
11.4186
11.1539
10.9101
10.6802
10.4584
10.2413
10.0273
9.81528
9.60458
9.39476
9.18574
8.9777
8.77096
13.8081
13.4954
13.0841
12.6935
12.3419
12.0169
11.7099
11.4226
11.1579
10.9138
10.6839
10.4625
10.2458
10.032
9.81994
9.60903
9.39884
9.18926
8.98046
8.77279
13.7645
13.4765
13.0793
12.693
12.3425
12.0194
11.7148
11.4292
11.1653
10.9217
10.6926
10.472
10.256
10.0425
9.83031
9.61888
9.40782
9.197
8.98658
8.77699
13.7126
13.4391
13.0568
12.6801
12.3352
12.0161
11.715
11.4324
11.1708
10.9288
10.7011
10.4817
10.2665
10.0534
9.84116
9.6291
9.41683
9.20428
8.99166
8.77945
13.6878
13.4223
13.0485
12.678
12.3373
12.0212
11.7228
11.4427
11.1832
10.9429
10.7164
10.4979
10.2832
10.07
9.85715
9.64392
9.42985
9.21483
8.99909
8.78324
13.6726
13.4105
13.0413
12.6751
12.3382
12.0253
11.73
11.4528
11.196
10.9581
10.7337
10.5165
10.3027
10.0897
9.87633
9.66169
9.4453
9.22706
9.00728
8.78668
13.6661
13.4064
13.0407
12.6783
12.345
12.0354
11.743
11.4685
11.2144
10.9789
10.7564
10.5409
10.328
10.1152
9.90108
9.68464
9.4653
9.24293
9.01792
8.79117
13.6661
13.4085
13.0449
12.6853
12.3548
12.0484
11.759
11.4876
11.2365
11.0038
10.7838
10.5703
10.3586
10.1462
9.93137
9.71287
9.49002
9.2626
9.03107
8.79652
13.6708
13.4156
13.0534
12.6963
12.3684
12.0653
11.7791
11.5112
11.2634
11.0342
10.8171
10.6061
10.3962
10.1846
9.96909
9.74837
9.52144
9.28785
9.04815
8.80362
13.6791
13.4276
13.0655
12.7109
12.3854
12.086
11.8029
11.5392
11.2949
11.0701
10.8564
10.649
10.4413
10.2312
10.0155
9.79263
9.56109
9.32012
9.07028
8.81293
13.6897
13.4441
13.0803
12.7286
12.4052
12.1106
11.83
11.5714
11.3308
11.1122
10.9021
10.7001
10.495
10.2881
10.0724
9.84818
9.61142
9.3618
9.09942
8.82537
13.7018
13.4645
13.0965
12.7486
12.4273
12.1388
11.8595
11.6079
11.3705
11.1609
10.9539
10.7606
10.5575
10.3579
10.1414
9.91879
9.67517
9.41633
9.13796
8.84198
13.7149
13.4873
13.1136
12.77
12.4507
12.17
11.8904
11.6484
11.4131
11.2163
11.0108
10.8317
10.6284
10.4436
10.2228
10.0105
9.75429
9.49039
9.18779
8.86424
13.7286
13.5098
13.1306
12.7923
12.4747
12.2021
11.922
11.6913
11.4577
11.2766
11.0718
10.9123
10.7072
10.5463
10.316
10.129
9.84804
9.59785
9.24799
8.89621
13.7428
13.5292
13.1467
12.8134
12.4981
12.2326
11.9538
11.7336
11.5039
11.3378
11.1368
10.9982
10.7942
10.6629
10.4226
10.2737
9.95463
9.74818
9.30932
8.96023
13.7563
13.5439
13.1609
12.8313
12.5188
12.2593
11.9836
11.7723
11.5483
11.3959
11.2028
11.0841
10.8883
10.7856
10.5441
10.4362
10.0741
9.92937
9.35496
9.07217
13.7713
13.5487
13.1746
12.8435
12.5372
12.2776
12.0131
11.8025
11.5932
11.4439
11.2733
11.1612
10.9968
10.9029
10.6989
10.6022
10.2516
10.1054
9.40581
9.16291
13.7935
13.5404
13.1878
12.8513
12.556
12.2882
12.0423
11.8255
11.6391
11.4845
11.3475
11.2335
11.1161
11.024
10.8798
10.7838
10.4881
10.3354
9.45638
9.26908
13.8216
13.5269
13.1959
12.8586
12.5777
12.3008
12.0691
11.8475
11.6835
11.5273
11.4201
11.3105
11.237
11.1535
11.0681
10.9468
10.6995
10.396
9.59773
9.04209
13.8437
13.5077
13.1932
12.8638
12.5992
12.3064
12.0921
11.8587
11.7251
11.552
11.4912
11.3565
11.3693
11.239
11.3402
11.09
11.2843
10.2988
10.3319
6.05347
14.0421
13.5721
13.1002
12.6984
12.3451
12.0141
11.7021
11.4139
11.1507
10.9079
10.6785
10.457
10.2403
10.0266
9.81475
9.60416
9.39441
9.18544
8.97744
8.77073
13.8462
13.5032
13.0804
12.6893
12.3379
12.0115
11.7036
11.417
11.1536
10.9105
10.6813
10.4603
10.2441
10.0306
9.81884
9.60812
9.39805
9.18857
8.97984
8.77223
13.8026
13.4842
13.0753
12.6886
12.3384
12.0139
11.7084
11.4234
11.1609
10.9184
10.6899
10.4698
10.2542
10.041
9.82911
9.61787
9.40694
9.19621
8.98587
8.77635
13.7507
13.447
13.0528
12.6756
12.3311
12.0105
11.7085
11.4265
11.1662
10.9254
10.6984
10.4794
10.2647
10.0519
9.83994
9.62806
9.41593
9.20349
8.99094
8.7788
13.7259
13.4302
13.0445
12.6735
12.3331
12.0156
11.7163
11.4368
11.1786
10.9394
10.7136
10.4956
10.2813
10.0685
9.85592
9.64289
9.42894
9.21401
8.99835
8.78256
13.7108
13.4185
13.0373
12.6706
12.3339
12.0198
11.7235
11.4468
11.1914
10.9547
10.7309
10.5143
10.3008
10.0882
9.87509
9.66064
9.44437
9.22622
9.00652
8.78599
13.7043
13.4144
13.0367
12.6738
12.3408
12.0299
11.7365
11.4625
11.2098
10.9755
10.7537
10.5386
10.3261
10.1137
9.89984
9.68359
9.46437
9.24208
9.01715
8.79046
13.7043
13.4165
13.0409
12.6808
12.3506
12.0428
11.7525
11.4817
11.2319
11.0004
10.7811
10.568
10.3568
10.1447
9.93013
9.71182
9.48908
9.26175
9.03029
8.7958
13.709
13.4237
13.0495
12.6917
12.3642
12.0597
11.7726
11.5053
11.2588
11.0308
10.8144
10.6039
10.3944
10.1831
9.96784
9.74733
9.52049
9.287
9.04736
8.80289
13.7173
13.4357
13.0617
12.7064
12.3812
12.0804
11.7965
11.5332
11.2903
11.0667
10.8537
10.6468
10.4395
10.2298
10.0142
9.79164
9.56015
9.31929
9.0695
8.81221
13.7279
13.4522
13.0766
12.724
12.4011
12.1049
11.8236
11.5655
11.3263
11.1087
10.8994
10.6978
10.4931
10.2867
10.0711
9.84731
9.61045
9.36113
9.09868
8.82473
13.74
13.4725
13.093
12.7439
12.4231
12.1329
11.8532
11.602
11.3662
11.1573
10.9513
10.7583
10.5558
10.3565
10.1401
9.91813
9.67407
9.41619
9.1372
8.84172
13.753
13.4953
13.1103
12.7655
12.4466
12.1637
11.8844
11.6424
11.4092
11.2123
11.0086
10.8289
10.6272
10.4418
10.2218
10.0099
9.75315
9.49164
9.18683
8.8654
13.7666
13.5178
13.1273
12.788
12.4706
12.1956
11.9162
11.6851
11.4542
11.2721
11.0702
10.9089
10.707
10.5435
10.3164
10.1273
9.84788
9.60061
9.24685
8.90262
13.7805
13.5374
13.1434
12.8093
12.4939
12.226
11.948
11.7276
11.5006
11.3332
11.1357
10.9943
10.7952
10.6587
10.4251
10.2698
9.95751
9.75022
9.31018
8.97742
13.7937
13.5524
13.1574
12.8276
12.5145
12.2529
11.9775
11.7667
11.5447
11.3916
11.2016
11.0802
10.8897
10.7805
10.5488
10.4292
10.0825
9.9272
9.36336
9.10039
13.8083
13.5578
13.1703
12.8403
12.5328
12.272
12.0061
11.7975
11.5888
11.4407
11.271
11.1582
10.9971
10.8987
10.7035
10.5943
10.2642
10.0984
9.42468
9.19762
13.83
13.5512
13.1825
12.8486
12.551
12.284
12.034
11.8208
11.633
11.4826
11.3425
11.2319
11.1124
11.0216
10.8809
10.7789
10.5012
10.3265
9.47409
9.29681
13.8571
13.5378
13.1905
12.8562
12.5713
12.2961
12.0597
11.8426
11.6748
11.5238
11.4108
11.3061
11.226
11.1471
11.0574
10.948
10.6965
10.4065
9.59333
8.95112
13.8809
13.5151
13.191
12.8595
12.5947
12.2982
12.086
11.8507
11.7206
11.5447
11.4873
11.3494
11.3641
11.2356
11.3297
11.1044
11.2362
10.3385
10.0636
6.01807
14.1221
13.5883
13.0979
12.6956
12.3389
12.0043
11.6919
11.406
11.1454
10.9042
10.6756
10.4548
10.2386
10.0254
9.81386
9.60348
9.39386
9.185
8.97707
8.77042
13.9252
13.5194
13.0761
12.6834
12.3308
12.0011
11.6921
11.4072
11.1464
10.905
10.6768
10.4566
10.2411
10.0283
9.81698
9.60657
9.39673
9.18741
8.97883
8.77136
13.8813
13.5005
13.0704
12.682
12.3311
12.0035
11.6967
11.4134
11.1535
10.9128
10.6854
10.466
10.2511
10.0385
9.82704
9.61612
9.40542
9.19484
8.98464
8.77526
13.8296
13.4635
13.0477
12.6689
12.3237
12.0001
11.6967
11.4163
11.1586
10.9197
10.6937
10.4756
10.2615
10.0493
9.83782
9.62627
9.41436
9.20212
8.98972
8.7777
13.8049
13.4468
13.0394
12.6666
12.3255
12.0051
11.7045
11.4265
11.1709
10.9336
10.7089
10.4916
10.278
10.0659
9.8538
9.64109
9.42735
9.21258
8.99706
8.78141
13.7898
13.4352
13.0323
12.6638
12.3264
12.0093
11.7117
11.4367
11.1838
10.949
10.7262
10.5103
10.2976
10.0856
9.87296
9.65882
9.44277
9.22478
9.00521
8.78481
13.7834
13.4312
13.0318
12.667
12.3333
12.0193
11.7246
11.4523
11.2021
10.9697
10.749
10.5347
10.3229
10.1111
9.89768
9.68174
9.46274
9.24061
9.01581
8.78926
13.7834
13.4333
13.036
12.674
12.3431
12.0323
11.7407
11.4715
11.2242
10.9947
10.7764
10.5641
10.3536
10.1421
9.92798
9.70998
9.48745
9.26027
9.02894
8.79458
13.7882
13.4406
13.0447
12.6851
12.3568
12.0492
11.7608
11.4951
11.2512
11.025
10.8097
10.6
10.3911
10.1805
9.96569
9.74551
9.51885
9.28552
9.046
8.80164
13.7964
13.4526
13.0571
12.6997
12.3738
12.0698
11.7847
11.5231
11.2827
11.0609
10.849
10.6429
10.4363
10.2273
10.0121
9.78991
9.5585
9.31789
9.06815
8.81097
13.807
13.469
13.0722
12.7173
12.3937
12.0941
11.8119
11.5553
11.3188
11.1028
10.8947
10.6939
10.49
10.2843
10.0689
9.8458
9.60875
9.36002
9.09734
8.82368
13.819
13.4893
13.089
12.7374
12.4158
12.1217
11.8417
11.5918
11.359
11.1511
10.9469
10.7541
10.5529
10.354
10.138
9.91694
9.67217
9.41603
9.13573
8.84145
13.8317
13.512
13.1066
12.7593
12.4394
12.1519
11.8733
11.6319
11.4025
11.2055
11.0048
10.8241
10.6253
10.4386
10.2205
10.0086
9.75127
9.49347
9.1849
8.86803
13.8449
13.5347
13.1238
12.7821
12.4634
12.1832
11.9054
11.6745
11.4481
11.2646
11.0674
10.9029
10.7067
10.5386
10.3174
10.1242
9.84798
9.60415
9.24475
8.91514
13.8583
13.5548
13.1398
12.8037
12.4865
12.2135
11.9374
11.7169
11.4948
11.3254
11.1337
10.9876
10.7968
10.6517
10.4296
10.2629
9.96354
9.75287
9.31308
9.00851
13.8708
13.5705
13.1533
12.8226
12.5067
12.2407
11.9665
11.7564
11.5387
11.3842
11.1995
11.0735
10.8924
10.7721
10.5572
10.417
10.0981
9.92363
9.38213
9.15111
13.8852
13.5769
13.165
12.8364
12.5248
12.2612
11.9939
11.7886
11.5813
11.4352
11.267
11.1536
10.9974
10.8922
10.7114
10.5798
10.2867
10.0877
9.46046
9.26797
13.9061
13.5733
13.1755
12.846
12.5427
12.2765
12.0205
11.815
11.6234
11.4808
11.3354
11.2318
11.1082
11.0218
10.8852
10.7758
10.5276
10.3127
9.50652
9.35818
13.9316
13.5606
13.184
12.8536
12.5617
12.2891
12.0466
11.8369
11.6648
11.5207
11.403
11.3043
11.2191
11.147
11.0556
10.9622
10.7189
10.4438
9.60128
8.80839
13.9586
13.5316
13.1899
12.8541
12.5882
12.2855
12.077
11.8395
11.7159
11.5355
11.4862
11.3414
11.3651
11.2328
11.3272
11.1308
11.1748
10.4185
9.62575
5.99521
14.2264
13.5961
13.0863
12.6884
12.3269
11.9882
11.6771
11.3955
11.1388
10.8999
10.6726
10.4528
10.2374
10.0246
9.81336
9.60312
9.3936
9.1848
8.97691
8.7703
14.027
13.5243
13.0611
12.6721
12.3171
11.9836
11.6747
11.3934
11.1367
10.8982
10.6718
10.4529
10.2384
10.0264
9.81563
9.60555
9.39591
9.18672
8.97823
8.77085
13.9829
13.5053
13.0546
12.6697
12.3171
11.9859
11.679
11.3992
11.1435
10.9059
10.6803
10.4621
10.2481
10.0363
9.8254
9.61483
9.40434
9.19393
8.98386
8.77459
13.9313
13.4687
13.032
12.6563
12.3095
11.9825
11.6791
11.402
11.1485
10.9126
10.6885
10.4716
10.2584
10.047
9.83616
9.625
9.41333
9.20119
8.98888
8.77695
13.9068
13.4523
13.0236
12.6539
12.3113
11.9874
11.6867
11.4121
11.1607
10.9265
10.7037
10.4876
10.2749
10.0636
9.85213
9.63978
9.42625
9.21159
8.99617
8.78061
13.8918
13.4408
13.0166
12.6512
12.3122
11.9916
11.6941
11.4224
11.1737
10.9418
10.7209
10.5063
10.2945
10.0833
9.87128
9.6575
9.44165
9.22378
9.0043
8.78401
13.8855
13.437
13.0162
12.6545
12.3191
12.0016
11.7069
11.438
11.192
10.9626
10.7437
10.5306
10.3198
10.1088
9.896
9.68041
9.46159
9.23959
9.01488
8.78843
13.8856
13.4391
13.0206
12.6617
12.329
12.0146
11.723
11.4572
11.2141
10.9876
10.7712
10.5601
10.3505
10.1399
9.92631
9.70866
9.48631
9.25925
9.02799
8.79372
13.8904
13.4463
13.0294
12.6728
12.3428
12.0315
11.7431
11.4808
11.2411
11.0179
10.8045
10.596
10.3881
10.1783
9.96404
9.74422
9.51771
9.2845
9.04503
8.80076
13.8987
13.4583
13.042
12.6875
12.3599
12.0521
11.7671
11.5088
11.2727
11.0538
10.8438
10.6389
10.4333
10.2251
10.0104
9.78871
9.55735
9.31695
9.06716
8.81012
13.9093
13.4744
13.0575
12.7053
12.3799
12.0762
11.7944
11.5411
11.3089
11.0957
10.8896
10.6899
10.4871
10.2822
10.0673
9.84477
9.6076
9.3594
9.09629
8.82306
13.9212
13.4942
13.0749
12.7256
12.4021
12.1033
11.8245
11.5774
11.3494
11.1436
10.942
10.7499
10.5504
10.3518
10.1367
9.91604
9.67114
9.41632
9.13451
8.84182
13.9338
13.5164
13.0931
12.7477
12.4258
12.1328
11.8564
11.6173
11.3934
11.1974
11.0004
10.8193
10.6236
10.4357
10.2203
10.0072
9.75121
9.49535
9.18366
8.8723
13.9466
13.5389
13.1109
12.7705
12.4498
12.1634
11.8891
11.6596
11.4396
11.2558
11.0638
10.8973
10.7065
10.5344
10.3197
10.121
9.85144
9.60676
9.24602
8.93116
13.9597
13.5591
13.1274
12.7922
12.4728
12.1933
11.9213
11.7018
11.4865
11.316
11.1306
10.9813
10.7981
10.646
10.4355
10.2565
9.97366
9.75419
9.32438
9.04561
13.9721
13.5751
13.1411
12.8116
12.4931
12.2205
11.9503
11.7414
11.5303
11.3748
11.1964
11.0672
10.8945
10.7655
10.5665
10.4067
10.1185
9.91885
9.41783
9.21628
13.9869
13.5825
13.1521
12.8266
12.5113
12.2424
11.9771
11.7751
11.5722
11.4274
11.2625
11.1489
10.9974
10.8875
10.7194
10.5682
10.3122
10.0765
9.51801
9.37546
14.0072
13.581
13.1609
12.8378
12.5291
12.2604
12.0027
11.804
11.6133
11.4767
11.3297
11.2323
11.1071
11.0246
10.8937
10.7751
10.5655
10.2873
9.60247
9.44729
14.0304
13.571
13.1691
12.8454
12.5476
12.2744
12.03
11.8265
11.6558
11.5171
11.4002
11.3049
11.2242
11.1526
11.0781
10.9796
10.7926
10.4768
9.68233
8.58808
14.0563
13.5416
13.1793
12.8446
12.574
12.2685
12.063
11.8277
11.7097
11.5288
11.4867
11.3383
11.3728
11.2345
11.3482
11.1601
11.2377
10.4629
9.39823
6.46175
14.4839
13.6328
13.09
12.6893
12.3202
11.9771
11.6666
11.3874
11.1327
10.8952
10.6691
10.4501
10.2355
10.0232
9.81239
9.6024
9.39304
9.18434
8.97652
8.76994
14.2834
13.5571
13.0576
12.6698
12.3094
11.9715
11.6628
11.3839
11.1292
10.8922
10.6669
10.449
10.2354
10.0241
9.81388
9.60413
9.39474
9.18572
8.97736
8.77007
14.2394
13.5378
13.0502
12.6667
12.3092
11.9737
11.667
11.3895
11.136
10.8998
10.6753
10.4581
10.2449
10.0337
9.82334
9.61312
9.40289
9.19268
8.98277
8.77363
14.1884
13.5019
13.0278
12.6533
12.3017
11.9704
11.667
11.3922
11.1409
10.9065
10.6836
10.4676
10.2553
10.0446
9.83415
9.62333
9.4119
9.19995
8.98781
8.77602
14.1641
13.4857
13.0195
12.6508
12.3033
11.9752
11.6747
11.4023
11.1529
10.9202