x,y,z,U_0,U_1,U_2
0,0,0,1.77937,0,0
0,0.1,0,2.18624,0,0
0,0.2,0,2.59312,0,0
0,0.3,0,3,4.14024e-18,-9.57567e-23
0,0.4,0,3,0,0
0,0.5,0,3,0,0
0,0.6,0,3,0,0
0,0.7,0,3,0,0
0,0.8,0,3,0,0
0,0.9,0,3,0,0
0,1,0,3,0,0
0,1.1,0,3,0,0
0,1.2,0,3,0,0
0,1.3,0,3,0,0
0,1.4,0,3,0,0
0,1.5,0,3,0,0
0,1.6,0,3,0,0
0,1.7,0,3,0,0
0,1.8,0,3,0,0
0,1.9,0,3,0,0
0,2,0,3,0,0
0,2.1,0,3,8.46554e-19,-3.33067e-23
0,2.2,0,3,0,0
0,2.3,0,3,0,0
0,2.4,0,3,0,0
0,2.5,0,3,0,0
0,2.6,0,3,0,0
0,2.7,0,3,0,0
0,2.8,0,3,0,0
0,2.9,0,3,0,0
0,3,0,3,4.91807e-19,-1.38778e-24
0,3.1,0,3,0,0
0,3.2,0,3,0,0
0,3.3,0,3,0,0
0,3.4,0,3,0,0
0,3.5,0,3,0,0
0,3.6,0,3,2.56786e-19,4.81482e-34
0,3.7,0,3,0,0
0,3.8,0,3,0,0
0,3.9,0,3,1.0674e-19,-1.38778e-24
0,4,0,3,0,0
0,4.1,0,3,0,0
0,4.2,0,3,0,0
0,4.3,0,3,0,0
0,4.4,0,3,0,0
0,4.5,0,3,0,0
0,4.6,0,3,0,0
0,4.7,0,3,0,0
0,4.8,0,3,-5.08205e-19,4.81482e-35
0,4.9,0,3,0,0
0,5,0,3,0,0
0,5.1,0,3,0,0
0,5.2,0,3,0,0
0,5.3,0,3,0,0
0,5.4,0,3,0,0
0,5.5,0,3,0,0
0,5.6,0,3,0,0
0,5.7,0,3,0,0
0,5.8,0,3,0,0
0,5.9,0,3,0,0
0,6,0,3,0,0
0,6.1,0,3,0,0
0,6.2,0,3,-7.39059e-19,1.38778e-24
0,6.3,0,3,0,0
0,6.4,0,3,-2.83608e-19,-1.38778e-24
0,6.5,0,3,0,0
0,6.6,0,3,0,0
0,6.7,0,3,0,0
0,6.8,0,3,0,0
0,6.9,0,3,0,0
0,7,0,3,0,0
0,7.1,0,3,0,0
0,7.2,0,3,0,0
0,7.3,0,3,0,0
0,7.4,0,3,0,0
0,7.5,0,3,0,0
0,7.6,0,3,0,0
0,7.7,0,3,0,0
0,7.8,0,3,0,0
0,7.9,0,3,0,0
0,8,0,3,0,0
0,8.1,0,3,0,0
0,8.2,0,3,0,0
0,8.3,0,3,0,0
0,8.4,0,3,0,0
0,8.5,0,3,0,0
0,8.6,0,3,0,0
0,8.7,0,3,0,0
0,8.8,0,3,0,0
0,8.9,0,3,0,0
0,9,0,3,0,0
0,9.1,0,3,0,0
0,9.2,0,3,0,0
0,9.3,0,3,0,0
0,9.4,0,3,0,0
0,9.5,0,3,0,0
0,9.6,0,3,0,0
0,9.7,0,3,0,0
0,9.8,0,3,0,0
0,9.9,0,3,0,0
0,10,0,3,0,0
0,10.1,0,3,0,0
0,10.2,0,3,0,0
0,10.3,0,3,0,0
0,10.4,0,3,0,0
0,10.5,0,3,0,0
0,10.6,0,3,0,0
0,10.7,0,3,0,0
0,10.8,0,3,0,0
0,10.9,0,3,0,0
0,11,0,3,0,0
0,11.1,0,3,0,0
0,11.2,0,3,0,0
0,11.3,0,3,0,0
0,11.4,0,3,0,0
0,11.5,0,3,0,0
0,11.6,0,3,0,0
0,11.7,0,3,0,0
0,11.8,0,3,0,0
0,11.9,0,3,0,0
0,12,0,3,0,0
0,12.1,0,3,0,0
0,12.2,0,3,0,0
0,12.3,0,3,0,0
0,12.4,0,3,0,0
0,12.5,0,2.64582,0,0
0,12.6,0,2.22914,0,0
0,12.7,0,1.81246,0,0
0.1,0,0,1.38395,0,0
0.1,0.1,0,2.206,0.00828711,-1.91667e-07
0.1,0.2,0,2.61288,0.00828711,-1.91667e-07
0.1,0.3,0,3.01976,0.00828711,-1.91667e-07
0.1,0.4,0,3.02766,0.00708469,-8.33333e-08
0.1,0.5,0,3.02766,0.00708469,-8.33333e-08
0.1,0.6,0,3.02766,0.00708469,-8.33333e-08
0.1,0.7,0,3.02688,0.00457977,-7.77778e-08
0.1,0.8,0,3.02688,0.00457977,-7.77778e-08
0.1,0.9,0,3.02688,0.00457977,-7.77778e-08
0.1,1,0,3.02622,0.00364357,-1.41667e-07
0.1,1.1,0,3.02622,0.00364357,-1.41667e-07
0.1,1.2,0,3.02622,0.00364357,-1.41667e-07
0.1,1.3,0,3.02582,0.0026552,-1.63889e-07
0.1,1.4,0,3.02582,0.0026552,-1.63889e-07
0.1,1.5,0,3.02583,0.0026552,-1.63889e-07
0.1,1.6,0,3.02556,0.00210871,-1.05556e-07
0.1,1.7,0,3.02556,0.00210871,-1.05556e-07
0.1,1.8,0,3.02556,0.00210871,-1.05556e-07
0.1,1.9,0,3.02533,0.00169446,-6.66667e-08
0.1,2,0,3.02533,0.00169446,-6.66667e-08
0.1,2.1,0,3.02533,0.00169446,-6.66667e-08
0.1,2.2,0,3.02511,0.0014018,-4.72222e-08
0.1,2.3,0,3.02511,0.0014018,-4.72222e-08
0.1,2.4,0,3.02511,0.0014018,-4.72222e-08
0.1,2.5,0,3.02488,0.00117941,-2.22222e-08
0.1,2.6,0,3.02488,0.00117941,-2.22222e-08
0.1,2.7,0,3.02488,0.00117941,-2.22222e-08
0.1,2.8,0,3.02461,0.000984401,-2.77778e-09
0.1,2.9,0,3.02461,0.000984401,-2.77778e-09
0.1,3,0,3.02461,0.000984401,-2.77778e-09
0.1,3.1,0,3.02433,0.000774647,-2.77778e-09
0.1,3.2,0,3.02433,0.000774647,-2.77778e-09
0.1,3.3,0,3.02433,0.000774647,-2.77778e-09
0.1,3.4,0,3.02407,0.000513983,9.63735e-19
0.1,3.5,0,3.02407,0.000513983,9.63735e-19
0.1,3.6,0,3.02407,0.000513983,9.63735e-19
0.1,3.7,0,3.0238,0.00021365,-2.77778e-09
0.1,3.8,0,3.0238,0.00021365,-2.77778e-09
0.1,3.9,0,3.0238,0.00021365,-2.77778e-09
0.1,4,0,3.0236,-0.000174711,-5.55556e-09
0.1,4.1,0,3.0236,-0.000174711,-5.55556e-09
0.1,4.2,0,3.0236,-0.000174711,-5.55556e-09
0.1,4.3,0,3.02375,-0.000580144,-8.67362e-19
0.1,4.4,0,3.02375,-0.000580144,-8.67362e-19
0.1,4.5,0,3.02375,-0.000580144,-8.67362e-19
0.1,4.6,0,3.02427,-0.00101722,9.63735e-20
0.1,4.7,0,3.02427,-0.00101722,9.63735e-20
0.1,4.8,0,3.02427,-0.00101722,9.63735e-20
0.1,4.9,0,3.02524,-0.00179814,-2.77778e-09
0.1,5,0,3.02524,-0.00179814,-2.77778e-09
0.1,5.1,0,3.02524,-0.00179814,-2.77778e-09
0.1,5.2,0,3.02661,-0.00231227,-5.55556e-09
0.1,5.3,0,3.02661,-0.00231227,-5.55556e-09
0.1,5.4,0,3.02661,-0.00231227,-5.55556e-09
0.1,5.5,0,3.02809,-0.00286744,-9.63735e-20
0.1,5.6,0,3.02809,-0.00286744,-9.63735e-20
0.1,5.7,0,3.02809,-0.00286744,-9.63735e-20
0.1,5.8,0,3.02992,-0.00264218,2.56489e-09
0.1,5.9,0,3.02992,-0.00264218,2.56489e-09
0.1,6,0,3.02992,-0.00264218,2.56489e-09
0.1,6.1,0,3.03134,-0.00182699,5.78241e-19
0.1,6.2,0,3.03206,-0.0014793,2.77778e-09
0.1,6.3,0,3.03229,-0.00105002,-3.85494e-19
0.1,6.4,0,3.03233,-0.00056767,-2.77778e-09
0.1,6.5,0,3.03237,-4.782e-05,1.92747e-19
0.1,6.6,0,3.03244,0.000465542,8.67362e-19
0.1,6.7,0,3.03249,0.000930525,-1.54198e-18
0.1,6.8,0,3.03226,0.00133585,5.78241e-19
0.1,6.9,0,3.03141,0.00167063,-2.89121e-19
0.1,7,0,3.02978,0.00240686,-5.78241e-19
0.1,7.1,0,3.02792,0.00261982,2.77778e-09
0.1,7.2,0,3.02792,0.00261982,2.77778e-09
0.1,7.3,0,3.02761,0.00251202,2.11988e-09
0.1,7.4,0,3.02662,0.00216466,-9.63735e-19
0.1,7.5,0,3.02662,0.00216466,-9.63735e-19
0.1,7.6,0,3.02604,0.00193369,-2.63158e-09
0.1,7.7,0,3.02539,0.00167706,-5.55556e-09
0.1,7.8,0,3.02539,0.00167706,-5.55556e-09
0.1,7.9,0,3.02471,0.00113069,-3.58187e-09
0.1,8,0,3.02444,0.000908097,-2.77778e-09
0.1,8.1,0,3.02444,0.000908097,-2.77778e-09
0.1,8.2,0,3.02386,0.000480334,-1.46199e-10
0.1,8.3,0,3.02383,0.000456569,-9.63735e-20
0.1,8.4,0,3.02383,0.000456569,-9.63735e-20
0.1,8.5,0,3.02359,4.00833e-05,2.21659e-18
0.1,8.6,0,3.02359,4.00833e-05,2.21659e-18
0.1,8.7,0,3.02359,4.00833e-05,2.21659e-18
0.1,8.8,0,3.02373,-0.000366239,1.24574e-18
0.1,8.9,0,3.02373,-0.000366239,1.24574e-18
0.1,9,0,3.02375,-0.000392797,-2.19298e-10
0.1,9.1,0,3.02397,-0.000702642,-2.77778e-09
0.1,9.2,0,3.02397,-0.000702642,-2.77778e-09
0.1,9.3,0,3.02405,-0.000798004,-4.53216e-09
0.1,9.4,0,3.02422,-0.00100462,-8.33333e-09
0.1,9.5,0,3.02422,-0.00100462,-8.33333e-09
0.1,9.6,0,3.02438,-0.00114421,-1.29386e-08
0.1,9.7,0,3.0245,-0.00125721,-1.66667e-08
0.1,9.8,0,3.0245,-0.00125721,-1.66667e-08
0.1,9.9,0,3.02472,-0.00144139,-2.54386e-08
0.1,10,0,3.02478,-0.00149051,-2.77778e-08
0.1,10.1,0,3.02478,-0.00149051,-2.77778e-08
0.1,10.2,0,3.02504,-0.00174504,-3.05556e-08
0.1,10.3,0,3.02504,-0.00174504,-3.05556e-08
0.1,10.4,0,3.02504,-0.00174504,-3.05556e-08
0.1,10.5,0,3.0253,-0.00206656,-3.33333e-08
0.1,10.6,0,3.0253,-0.00206656,-3.33333e-08
0.1,10.7,0,3.0253,-0.00206656,-3.33333e-08
0.1,10.8,0,3.02556,-0.00251125,-5e-08
0.1,10.9,0,3.02556,-0.00251125,-5e-08
0.1,11,0,3.02561,-0.00260424,-5.2193e-08
0.1,11.1,0,3.02588,-0.00310016,-6.38889e-08
0.1,11.2,0,3.02588,-0.00310016,-6.38889e-08
0.1,11.3,0,3.02606,-0.00351471,-6.49854e-08
0.1,11.4,0,3.02633,-0.00415037,-6.66667e-08
0.1,11.5,0,3.02633,-0.00415037,-6.66667e-08
0.1,11.6,0,3.0268,-0.00477298,-5.78947e-08
0.1,11.7,0,3.02706,-0.00513617,-5.27778e-08
0.1,11.8,0,3.02706,-0.00513617,-5.27778e-08
0.1,11.9,0,3.02779,-0.00740835,-2.8655e-08
0.1,12,0,3.0279,-0.00775262,-2.5e-08
0.1,12.1,0,3.0279,-0.00775262,-2.5e-08
0.1,12.2,0,3.019,-0.00891431,-5e-08
0.1,12.3,0,3.019,-0.00891431,-5e-08
0.1,12.4,0,3.019,-0.00891431,-5e-08
0.1,12.5,0,2.24305,0,0
0.1,12.6,0,1.82637,0,0
0.1,12.7,0,1.40969,0,0
0.2,0,0,0.988536,0,0
0.2,0.1,0,2.01818,0.0124307,-2.875e-07
0.2,0.2,0,2.63264,0.0165742,-3.83333e-07
0.2,0.3,0,3.03952,0.0165742,-3.83333e-07
0.2,0.4,0,3.05137,0.0147706,-2.20833e-07
0.2,0.5,0,3.05532,0.0141694,-1.66667e-07
0.2,0.6,0,3.05532,0.0141694,-1.66667e-07
0.2,0.7,0,3.05415,0.010412,-1.58333e-07
0.2,0.8,0,3.05375,0.00915954,-1.55556e-07
0.2,0.9,0,3.05375,0.00915954,-1.55556e-07
0.2,1,0,3.05277,0.00775524,-2.51389e-07
0.2,1.1,0,3.05244,0.00728714,-2.83333e-07
0.2,1.2,0,3.05244,0.00728714,-2.83333e-07
0.2,1.3,0,3.05185,0.00580459,-3.16667e-07
0.2,1.4,0,3.05165,0.00531041,-3.27778e-07
0.2,1.5,0,3.05165,0.00531041,-3.27778e-07
0.2,1.6,0,3.05125,0.00449066,-2.40278e-07
0.2,1.7,0,3.05112,0.00421741,-2.11111e-07
0.2,1.8,0,3.05112,0.00421741,-2.11111e-07
0.2,1.9,0,3.05078,0.00359605,-1.52778e-07
0.2,2,0,3.05066,0.00338892,-1.33333e-07
0.2,2.1,0,3.05066,0.00338892,-1.33333e-07
0.2,2.2,0,3.05034,0.00294993,-1.04167e-07
0.2,2.3,0,3.05023,0.0028036,-9.44444e-08
0.2,2.4,0,3.05023,0.0028036,-9.44444e-08
0.2,2.5,0,3.04987,0.00247002,-5.69444e-08
0.2,2.6,0,3.04975,0.00235882,-4.44444e-08
0.2,2.7,0,3.04975,0.00235882,-4.44444e-08
0.2,2.8,0,3.04936,0.00206631,-1.52778e-08
0.2,2.9,0,3.04923,0.0019688,-5.55556e-09
0.2,3,0,3.04923,0.0019688,-5.55556e-09
0.2,3.1,0,3.0488,0.00165417,-5.55556e-09
0.2,3.2,0,3.04866,0.00154929,-5.55556e-09
0.2,3.3,0,3.04866,0.00154929,-5.55556e-09
0.2,3.4,0,3.04827,0.0011583,-1.38889e-09
0.2,3.5,0,3.04814,0.00102797,1.92747e-18
0.2,3.6,0,3.04814,0.00102797,1.92747e-18
0.2,3.7,0,3.04773,0.000577467,-4.16667e-09
0.2,3.8,0,3.0476,0.0004273,-5.55556e-09
0.2,3.9,0,3.0476,0.0004273,-5.55556e-09
0.2,4,0,3.0473,-0.000155242,-9.72222e-09
0.2,4.1,0,3.04719,-0.000349422,-1.11111e-08
0.2,4.2,0,3.04719,-0.000349422,-1.11111e-08
0.2,4.3,0,3.04743,-0.000957572,-2.77778e-09
0.2,4.4,0,3.0475,-0.00116029,-1.73472e-18
0.2,4.5,0,3.0475,-0.00116029,-1.73472e-18
0.2,4.6,0,3.04828,-0.00181591,-2.89121e-19
0.2,4.7,0,3.04853,-0.00203444,1.92747e-19
0.2,4.8,0,3.04853,-0.00203444,1.92747e-19
0.2,4.9,0,3.05,-0.00320583,-4.16667e-09
0.2,5,0,3.05049,-0.00359629,-5.55556e-09
0.2,5.1,0,3.05049,-0.00359629,-5.55556e-09
0.2,5.2,0,3.05254,-0.00436748,-9.72222e-09
0.2,5.3,0,3.05322,-0.00462454,-1.11111e-08
0.2,5.4,0,3.05322,-0.00462454,-1.11111e-08
0.2,5.5,0,3.05544,-0.00545729,-2.77778e-09
0.2,5.6,0,3.05617,-0.00573488,-1.92747e-19
0.2,5.7,0,3.05617,-0.00573488,-1.92747e-19
0.2,5.8,0,3.05892,-0.005397,3.84734e-09
0.2,5.9,0,3.05984,-0.00528437,5.12979e-09
0.2,6,0,3.05984,-0.00528437,5.12979e-09
0.2,6.1,0,3.06268,-0.00365397,1.15648e-18
0.2,6.2,0,3.06412,-0.0029586,5.55556e-09
0.2,6.3,0,3.06457,-0.00210003,-7.70988e-19
0.2,6.4,0,3.06465,-0.00113534,-5.55556e-09
0.2,6.5,0,3.06474,-9.564e-05,3.85494e-19
0.2,6.6,0,3.06488,0.000931083,1.73472e-18
0.2,6.7,0,3.06497,0.00186105,-3.08395e-18
0.2,6.8,0,3.06451,0.00267171,1.15648e-18
0.2,6.9,0,3.06283,0.00334126,-5.78241e-19
0.2,7,0,3.05956,0.00481372,-1.15648e-18
0.2,7.1,0,3.05663,0.00514998,4.38596e-09
0.2,7.2,0,3.05585,0.00523965,5.55556e-09
0.2,7.3,0,3.05554,0.00513185,4.89766e-09
0.2,7.4,0,3.05347,0.00441316,5.11696e-10
0.2,7.5,0,3.05323,0.00432932,-1.92747e-18
0.2,7.6,0,3.05265,0.00409835,-2.63158e-09
0.2,7.7,0,3.05078,0.00335411,-1.11111e-08
0.2,7.8,0,3.05078,0.00335411,-1.11111e-08
0.2,7.9,0,3.0501,0.00280775,-9.13743e-09
0.2,8,0,3.04887,0.00181619,-5.55556e-09
0.2,8.1,0,3.04887,0.00181619,-5.55556e-09
0.2,8.2,0,3.04829,0.00138843,-2.92398e-09
0.2,8.3,0,3.04765,0.000913139,-1.92747e-19
0.2,8.4,0,3.04765,0.000913139,-1.92747e-19
0.2,8.5,0,3.04737,0.000419932,2.54629e-18
0.2,8.6,0,3.04717,8.01667e-05,4.43318e-18
0.2,8.7,0,3.04717,8.01667e-05,4.43318e-18
0.2,8.8,0,3.04738,-0.000497239,3.05355e-18
0.2,8.9,0,3.04746,-0.000732478,2.49148e-18
0.2,9,0,3.04748,-0.000759036,-2.19298e-10
0.2,9.1,0,3.04786,-0.0012902,-4.60526e-09
0.2,9.2,0,3.04794,-0.00140528,-5.55556e-09
0.2,9.3,0,3.04802,-0.00150065,-7.30994e-09
0.2,9.4,0,3.04842,-0.00197746,-1.60819e-08
0.2,9.5,0,3.04844,-0.00200924,-1.66667e-08
0.2,9.6,0,3.0486,-0.00214883,-2.12719e-08
0.2,9.7,0,3.04901,-0.00251441,-3.33333e-08
0.2,9.8,0,3.04901,-0.00251441,-3.33333e-08
0.2,9.9,0,3.04923,-0.0026986,-4.21053e-08
0.2,10,0,3.04956,-0.00298102,-5.55556e-08
0.2,10.1,0,3.04956,-0.00298102,-5.55556e-08
0.2,10.2,0,3.04983,-0.00324225,-5.84064e-08
0.2,10.3,0,3.05009,-0.00349009,-6.11111e-08
0.2,10.4,0,3.05009,-0.00349009,-6.11111e-08
0.2,10.5,0,3.05041,-0.00389621,-6.46199e-08
0.2,10.6,0,3.05059,-0.00413311,-6.66667e-08
0.2,10.7,0,3.0506,-0.00413311,-6.66667e-08
0.2,10.8,0,3.05099,-0.00480016,-9.16667e-08
0.2,10.9,0,3.05113,-0.00502251,-1e-07
0.2,11,0,3.05118,-0.00511549,-1.02193e-07
0.2,11.1,0,3.05167,-0.00604534,-1.24123e-07
0.2,11.2,0,3.05176,-0.00620032,-1.27778e-07
0.2,11.3,0,3.05194,-0.00661487,-1.28874e-07
0.2,11.4,0,3.05265,-0.0082731,-1.3326e-07
0.2,11.5,0,3.05267,-0.00830073,-1.33333e-07
0.2,11.6,0,3.05313,-0.00892334,-1.24561e-07
0.2,11.7,0,3.05413,-0.0102723,-1.05556e-07
0.2,11.8,0,3.05413,-0.0102723,-1.05556e-07
0.2,11.9,0,3.05485,-0.0125445,-8.14327e-08
0.2,12,0,3.0558,-0.0155052,-5e-08
0.2,12.1,0,3.0558,-0.0155052,-5e-08
0.2,12.2,0,3.04596,-0.0167892,-7.76316e-08
0.2,12.3,0,3.038,-0.0178286,-1e-07
0.2,12.4,0,3.038,-0.0178286,-1e-07
0.2,12.5,0,2.11776,-0.00586468,-3.28947e-08
0.2,12.6,0,1.4236,0,0
0.2,12.7,0,1.00692,0,0
0.3,0,0,0.593122,0,0
0.3,0.1,0,1.62276,0.0124307,-2.875e-07
0.3,0.2,0,2.6524,0.0248613,-5.75e-07
0.3,0.3,0,3.05928,0.0248613,-5.75e-07
0.3,0.4,0,3.07113,0.0230577,-4.125e-07
0.3,0.5,0,3.08298,0.0212541,-2.5e-07
0.3,0.6,0,3.08298,0.0212541,-2.5e-07
0.3,0.7,0,3.0818,0.0174967,-2.41667e-07
0.3,0.8,0,3.08063,0.0137393,-2.33333e-07
0.3,0.9,0,3.08063,0.0137393,-2.33333e-07
0.3,1,0,3.07964,0.012335,-3.29167e-07
0.3,1.1,0,3.07866,0.0109307,-4.25e-07
0.3,1.2,0,3.07866,0.0109307,-4.25e-07
0.3,1.3,0,3.07807,0.00944816,-4.58333e-07
0.3,1.4,0,3.07747,0.00796561,-4.91667e-07
0.3,1.5,0,3.07747,0.00796561,-4.91667e-07
0.3,1.6,0,3.07707,0.00714586,-4.04167e-07
0.3,1.7,0,3.07667,0.00632612,-3.16667e-07
0.3,1.8,0,3.07667,0.00632612,-3.16667e-07
0.3,1.9,0,3.07633,0.00570475,-2.58333e-07
0.3,2,0,3.076,0.00508339,-2e-07
0.3,2.1,0,3.076,0.00508339,-2e-07
0.3,2.2,0,3.07567,0.00464439,-1.70833e-07
0.3,2.3,0,3.07534,0.0042054,-1.41667e-07
0.3,2.4,0,3.07534,0.0042054,-1.41667e-07
0.3,2.5,0,3.07498,0.00387182,-1.04167e-07
0.3,2.6,0,3.07463,0.00353824,-6.66667e-08
0.3,2.7,0,3.07463,0.00353824,-6.66667e-08
0.3,2.8,0,3.07423,0.00324572,-3.75e-08
0.3,2.9,0,3.07384,0.0029532,-8.33333e-09
0.3,3,0,3.07384,0.0029532,-8.33333e-09
0.3,3.1,0,3.07342,0.00263857,-8.33333e-09
0.3,3.2,0,3.073,0.00232394,-8.33333e-09
0.3,3.3,0,3.073,0.00232394,-8.33333e-09
0.3,3.4,0,3.0726,0.00193295,-4.16667e-09
0.3,3.5,0,3.0722,0.00154195,2.89121e-18
0.3,3.6,0,3.0722,0.00154195,2.89121e-18
0.3,3.7,0,3.0718,0.00109145,-4.16667e-09
0.3,3.8,0,3.0714,0.00064095,-8.33333e-09
0.3,3.9,0,3.0714,0.00064095,-8.33333e-09
0.3,4,0,3.0711,5.84083e-05,-1.25e-08
0.3,4.1,0,3.07079,-0.000524133,-1.66667e-08
0.3,4.2,0,3.07079,-0.000524133,-1.66667e-08
0.3,4.3,0,3.07102,-0.00113228,-8.33333e-09
0.3,4.4,0,3.07126,-0.00174043,-2.60206e-18
0.3,4.5,0,3.07126,-0.00174043,-2.60209e-18
0.3,4.6,0,3.07203,-0.00239605,-1.15648e-18
0.3,4.7,0,3.0728,-0.00305167,2.89121e-19
0.3,4.8,0,3.0728,-0.00305167,2.89121e-19
0.3,4.9,0,3.07426,-0.00422305,-4.16667e-09
0.3,5,0,3.07573,-0.00539443,-8.33333e-09
0.3,5.1,0,3.07573,-0.00539443,-8.33333e-09
0.3,5.2,0,3.07778,-0.00616562,-1.25e-08
0.3,5.3,0,3.07983,-0.00693682,-1.66667e-08
0.3,5.4,0,3.07983,-0.00693682,-1.66667e-08
0.3,5.5,0,3.08205,-0.00776957,-8.33333e-09
0.3,5.6,0,3.08426,-0.00860232,-2.89169e-19
0.3,5.7,0,3.08426,-0.00860232,-2.89121e-19
0.3,5.8,0,3.08701,-0.00826443,3.84734e-09
0.3,5.9,0,3.08976,-0.00792655,7.69468e-09
0.3,6,0,3.08976,-0.00792655,7.69468e-09
0.3,6.1,0,3.09402,-0.00548096,1.73472e-18
0.3,6.2,0,3.09618,-0.0044379,8.33333e-09
0.3,6.3,0,3.09686,-0.00315005,-1.15648e-18
0.3,6.4,0,3.09698,-0.00170301,-8.33333e-09
0.3,6.5,0,3.0971,-0.00014346,5.78241e-19
0.3,6.6,0,3.09732,0.00139662,2.60209e-18
0.3,6.7,0,3.09746,0.00279158,-4.62593e-18
0.3,6.8,0,3.09677,0.00400756,1.73472e-18
0.3,6.9,0,3.09424,0.00501189,-8.67362e-19
0.3,7,0,3.08935,0.00722058,-1.73472e-18
0.3,7.1,0,3.08641,0.00755684,4.38596e-09
0.3,7.2,0,3.08377,0.00785947,8.33333e-09
0.3,7.3,0,3.08346,0.00775167,7.67544e-09
0.3,7.4,0,3.08139,0.00703299,3.28947e-09
0.3,7.5,0,3.07985,0.00649398,-2.89121e-18
0.3,7.6,0,3.07927,0.00626301,-2.63158e-09
0.3,7.7,0,3.07733,0.00549311,-1.14035e-08
0.3,7.8,0,3.07617,0.00503117,-1.66667e-08
0.3,7.9,0,3.0755,0.0044848,-1.4693e-08
0.3,8,0,3.07399,0.00327066,-1.0307e-08
0.3,8.1,0,3.07331,0.00272429,-8.33333e-09
0.3,8.2,0,3.07273,0.00229653,-5.70175e-09
0.3,8.3,0,3.07177,0.00158359,-1.31579e-09
0.3,8.4,0,3.07148,0.00136971,-2.89121e-19
0.3,8.5,0,3.07119,0.000876501,2.44992e-18
0.3,8.6,0,3.07082,0.000218891,6.10197e-18
0.3,8.7,0,3.07076,0.00012025,6.64977e-18
0.3,8.8,0,3.07097,-0.000457155,5.27015e-18
0.3,8.9,0,3.0712,-0.00109872,3.73723e-18
0.3,9,0,3.07122,-0.00112527,-2.19298e-10
0.3,9.1,0,3.07159,-0.00165644,-4.60526e-09
0.3,9.2,0,3.07191,-0.00210793,-8.33333e-09
0.3,9.3,0,3.07199,-0.00220329,-1.00877e-08
0.3,9.4,0,3.07239,-0.0026801,-1.88596e-08
0.3,9.5,0,3.07266,-0.00301387,-2.5e-08
0.3,9.6,0,3.07282,-0.00315345,-2.96053e-08
0.3,9.7,0,3.07327,-0.00355227,-4.27632e-08
0.3,9.8,0,3.07351,-0.00377162,-5e-08
0.3,9.9,0,3.07373,-0.0039558,-5.87719e-08
0.3,10,0,3.07417,-0.00432418,-7.63158e-08
0.3,10.1,0,3.07434,-0.00447152,-8.33333e-08
0.3,10.2,0,3.07461,-0.00473276,-8.61842e-08
0.3,10.3,0,3.07503,-0.00513465,-9.05702e-08
0.3,10.4,0,3.07513,-0.00523513,-9.16667e-08
0.3,10.5,0,3.07545,-0.00564125,-9.51754e-08
0.3,10.6,0,3.07585,-0.0061489,-9.95614e-08
0.3,10.7,0,3.07589,-0.00619967,-1e-07
0.3,10.8,0,3.07629,-0.00686672,-1.25e-07
0.3,10.9,0,3.07669,-0.00753376,-1.5e-07
0.3,11,0,3.07674,-0.00762675,-1.52193e-07
0.3,11.1,0,3.07724,-0.0085566,-1.74123e-07
0.3,11.2,0,3.07764,-0.00930047,-1.91667e-07
0.3,11.3,0,3.07782,-0.00971503,-1.92763e-07
0.3,11.4,0,3.07853,-0.0113733,-1.97149e-07
0.3,11.5,0,3.079,-0.0124511,-2e-07
0.3,11.6,0,3.07946,-0.0130737,-1.91228e-07
0.3,11.7,0,3.08062,-0.0146302,-1.69298e-07
0.3,11.8,0,3.08119,-0.0154085,-1.58333e-07
0.3,11.9,0,3.08192,-0.0176807,-1.34211e-07
0.3,12,0,3.08324,-0.0218119,-9.03509e-08
0.3,12.1,0,3.0837,-0.0232579,-7.5e-08
0.3,12.2,0,3.07386,-0.0245418,-1.02632e-07
0.3,12.3,0,3.05981,-0.0263761,-1.42105e-07
0.3,12.4,0,3.05701,-0.0267429,-1.5e-07
0.3,12.5,0,2.13677,-0.014779,-8.28947e-08
0.3,12.6,0,1.05413,-0.000703762,-3.94737e-09
0.3,12.7,0,0.604155,0,0
0.4,0,0,0.197707,0,0
0.4,0.1,0,1.22735,0.0124307,-2.875e-07
0.4,0.2,0,2.25699,0.0248613,-5.75e-07
0.4,0.3,0,3.07904,0.0331484,-7.66667e-07
0.4,0.4,0,3.09089,0.0313448,-6.04167e-07
0.4,0.5,0,3.10274,0.0295412,-4.41667e-07
0.4,0.6,0,3.11064,0.0283388,-3.33333e-07
0.4,0.7,0,3.10946,0.0245814,-3.25e-07
0.4,0.8,0,3.10829,0.020824,-3.16667e-07
0.4,0.9,0,3.10751,0.0183191,-3.11111e-07
0.4,1,0,3.10652,0.0169148,-4.06944e-07
0.4,1.1,0,3.10553,0.0155105,-5.02778e-07
0.4,1.2,0,3.10488,0.0145743,-5.66667e-07
0.4,1.3,0,3.10429,0.0130917,-6e-07
0.4,1.4,0,3.10369,0.0116092,-6.33333e-07
0.4,1.5,0,3.1033,0.0106208,-6.55556e-07
0.4,1.6,0,3.1029,0.00980107,-5.68056e-07
0.4,1.7,0,3.1025,0.00898132,-4.80556e-07
0.4,1.8,0,3.10223,0.00843483,-4.22222e-07
0.4,1.9,0,3.10189,0.00781346,-3.63889e-07
0.4,2,0,3.10155,0.00719209,-3.05556e-07
0.4,2.1,0,3.10133,0.00677785,-2.66667e-07
0.4,2.2,0,3.101,0.00633886,-2.375e-07
0.4,2.3,0,3.10067,0.00589987,-2.08333e-07
0.4,2.4,0,3.10045,0.0056072,-1.88889e-07
0.4,2.5,0,3.1001,0.00527362,-1.51389e-07
0.4,2.6,0,3.09974,0.00494004,-1.13889e-07
0.4,2.7,0,3.0995,0.00471765,-8.88889e-08
0.4,2.8,0,3.09911,0.00442513,-5.97222e-08
0.4,2.9,0,3.09871,0.00413262,-3.05556e-08
0.4,3,0,3.09845,0.00393761,-1.11111e-08
0.4,3.1,0,3.09803,0.00362297,-1.11111e-08
0.4,3.2,0,3.09761,0.00330834,-1.11111e-08
0.4,3.3,0,3.09733,0.00309859,-1.11111e-08
0.4,3.4,0,3.09693,0.00270759,-6.94444e-09
0.4,3.5,0,3.09654,0.0023166,-2.77778e-09
0.4,3.6,0,3.09627,0.00205593,3.85494e-18
0.4,3.7,0,3.09587,0.00160543,-4.16667e-09
0.4,3.8,0,3.09547,0.00115493,-8.33333e-09
0.4,3.9,0,3.0952,0.0008546,-1.11111e-08
0.4,4,0,3.0949,0.000272058,-1.52778e-08
0.4,4.1,0,3.09459,-0.000310483,-1.94444e-08
0.4,4.2,0,3.09439,-0.000698844,-2.22222e-08
0.4,4.3,0,3.09462,-0.00130699,-1.38889e-08
0.4,4.4,0,3.09485,-0.00191514,-5.55556e-09
0.4,4.5,0,3.09501,-0.00232058,-3.46945e-18
0.4,4.6,0,3.09578,-0.00297619,-2.02384e-18
0.4,4.7,0,3.09655,-0.00363181,-5.78241e-19
0.4,4.8,0,3.09706,-0.00406889,3.85494e-19
0.4,4.9,0,3.09853,-0.00524027,-4.16667e-09
0.4,5,0,3.1,-0.00641166,-8.33333e-09
0.4,5.1,0,3.10097,-0.00719258,-1.11111e-08
0.4,5.2,0,3.10302,-0.00796377,-1.52778e-08
0.4,5.3,0,3.10507,-0.00873496,-1.94444e-08
0.4,5.4,0,3.10644,-0.00924909,-2.22222e-08
0.4,5.5,0,3.10866,-0.0100818,-1.38889e-08
0.4,5.6,0,3.11087,-0.0109146,-5.55556e-09
0.4,5.7,0,3.11235,-0.0114698,-3.85494e-19
0.4,5.8,0,3.1151,-0.0111319,3.84734e-09
0.4,5.9,0,3.11784,-0.010794,7.69468e-09
0.4,6,0,3.11968,-0.0105687,1.02596e-08
0.4,6.1,0,3.12536,-0.00730794,2.31296e-18
0.4,6.2,0,3.12824,-0.0059172,1.11111e-08
0.4,6.3,0,3.12915,-0.00420007,-1.54198e-18
0.4,6.4,0,3.12931,-0.00227068,-1.11111e-08
0.4,6.5,0,3.12947,-0.00019128,7.70988e-19
0.4,6.6,0,3.12976,0.00186217,3.46945e-18
0.4,6.7,0,3.12994,0.0037221,-6.16791e-18
0.4,6.8,0,3.12902,0.00534341,2.31296e-18
0.4,6.9,0,3.12566,0.00668252,-1.15648e-18
0.4,7,0,3.11913,0.00962744,-2.31296e-18
0.4,7.1,0,3.11619,0.0099637,4.38596e-09
0.4,7.2,0,3.11326,0.0103,8.77193e-09
0.4,7.3,0,3.11138,0.0103715,1.04532e-08
0.4,7.4,0,3.10932,0.00965281,6.06725e-09
0.4,7.5,0,3.10725,0.00893413,1.68129e-09
0.4,7.6,0,3.10588,0.00842766,-2.63158e-09
0.4,7.7,0,3.10395,0.00765776,-1.14035e-08
0.4,7.8,0,3.10202,0.00688787,-2.01754e-08
0.4,7.9,0,3.10089,0.00616186,-2.02485e-08
0.4,8,0,3.09938,0.00494771,-1.58626e-08
0.4,8.1,0,3.09787,0.00373357,-1.14766e-08
0.4,8.2,0,3.09717,0.00320463,-8.47953e-09
0.4,8.3,0,3.0962,0.00249169,-4.09357e-09
0.4,8.4,0,3.0953,0.00182628,-3.85494e-19
0.4,8.5,0,3.09502,0.00133307,2.35354e-18
0.4,8.6,0,3.09464,0.000675461,6.00559e-18
0.4,8.7,0,3.09435,0.000160333,8.86636e-18
0.4,8.8,0,3.09455,-0.000417072,7.48674e-18
0.4,8.9,0,3.09478,-0.00105863,5.95382e-18
0.4,9,0,3.09495,-0.00149151,-2.19298e-10
0.4,9.1,0,3.09532,-0.00202268,-4.60526e-09
0.4,9.2,0,3.0957,-0.00255384,-8.99123e-09
0.4,9.3,0,3.09596,-0.00290593,-1.28655e-08
0.4,9.4,0,3.09636,-0.00338274,-2.16374e-08
0.4,9.5,0,3.09675,-0.00385955,-3.04094e-08
0.4,9.6,0,3.09704,-0.00415807,-3.79386e-08
0.4,9.7,0,3.09749,-0.00455689,-5.10965e-08
0.4,9.8,0,3.09793,-0.00495571,-6.42544e-08
0.4,9.9,0,3.09823,-0.00521301,-7.54386e-08
0.4,10,0,3.09867,-0.00558138,-9.29825e-08
0.4,10.1,0,3.09911,-0.00594975,-1.10526e-07
0.4,10.2,0,3.09939,-0.00622327,-1.13962e-07
0.4,10.3,0,3.09981,-0.00662516,-1.18348e-07
0.4,10.4,0,3.10017,-0.00698017,-1.22222e-07
0.4,10.5,0,3.10049,-0.00738629,-1.25731e-07
0.4,10.6,0,3.1009,-0.00789395,-1.30117e-07
0.4,10.7,0,3.10119,-0.00826623,-1.33333e-07
0.4,10.8,0,3.10159,-0.00893327,-1.58333e-07
0.4,10.9,0,3.10201,-0.00963543,-1.84649e-07
0.4,11,0,3.1023,-0.010138,-2.02193e-07
0.4,11.1,0,3.1028,-0.0110678,-2.24123e-07
0.4,11.2,0,3.1033,-0.0119977,-2.46053e-07
0.4,11.3,0,3.10369,-0.0128152,-2.56652e-07
0.4,11.4,0,3.10441,-0.0144734,-2.61038e-07
0.4,11.5,0,3.10513,-0.0161316,-2.65424e-07
0.4,11.6,0,3.1058,-0.0172241,-2.57895e-07
0.4,11.7,0,3.10695,-0.0187806,-2.35965e-07
0.4,11.8,0,3.1081,-0.0203371,-2.14035e-07
0.4,11.9,0,3.10898,-0.0228168,-1.86988e-07
0.4,12,0,3.1103,-0.0269481,-1.43129e-07
0.4,12.1,0,3.1116,-0.0310105,-1e-07
0.4,12.2,0,3.10176,-0.0322944,-1.27632e-07
0.4,12.3,0,3.08771,-0.0341287,-1.67105e-07
0.4,12.4,0,3.07601,-0.0356573,-2e-07
0.4,12.5,0,2.15577,-0.0236933,-1.32895e-07
0.4,12.6,0,1.07313,-0.00961808,-5.39474e-08
0.4,12.7,0,0.201385,0,0
0.5,0,0,0,0,0
0.5,0.1,0,1.0509,0.0131449,-2.30556e-07
0.5,0.2,0,2.08054,0.0255756,-5.18056e-07
0.5,0.3,0,3.11018,0.0380063,-8.05556e-07
0.5,0.4,0,3.12571,0.0363996,-7.94444e-07
0.5,0.5,0,3.13756,0.034596,-6.31944e-07
0.5,0.6,0,3.14941,0.0327924,-4.69444e-07
0.5,0.7,0,3.14784,0.0291346,-4.51389e-07
0.5,0.8,0,3.14667,0.0253772,-4.43056e-07
0.5,0.9,0,3.1455,0.0216198,-4.34722e-07
0.5,1,0,3.14406,0.0201449,-4.19444e-07
0.5,1.1,0,3.14307,0.0187406,-5.15278e-07
0.5,1.2,0,3.14208,0.0173363,-6.11111e-07
0.5,1.3,0,3.14121,0.0156782,-5.80556e-07
0.5,1.4,0,3.14062,0.0141957,-6.13889e-07
0.5,1.5,0,3.14003,0.0127131,-6.47222e-07
0.5,1.6,0,3.13944,0.0117567,-5.91667e-07
0.5,1.7,0,3.13904,0.010937,-5.04167e-07
0.5,1.8,0,3.13864,0.0101172,-4.16667e-07
0.5,1.9,0,3.13815,0.00933495,-3.72222e-07
0.5,2,0,3.13782,0.00871359,-3.13889e-07
0.5,2.1,0,3.13748,0.00809222,-2.55556e-07
0.5,2.2,0,3.13704,0.00750708,-2.375e-07
0.5,2.3,0,3.13671,0.00706809,-2.08333e-07
0.5,2.4,0,3.13638,0.0066291,-1.79167e-07
0.5,2.5,0,3.13594,0.00616537,-1.56944e-07
0.5,2.6,0,3.13558,0.00583178,-1.19444e-07
0.5,2.7,0,3.13523,0.0054982,-8.19444e-08
0.5,2.8,0,3.13477,0.00510026,-6.25e-08
0.5,2.9,0,3.13437,0.00480774,-3.33333e-08
0.5,3,0,3.13398,0.00451522,-4.16667e-09
0.5,3.1,0,3.13352,0.00412922,-8.33333e-09
0.5,3.2,0,3.1331,0.00381459,-8.33333e-09
0.5,3.3,0,3.13268,0.00349996,-8.33333e-09
0.5,3.4,0,3.13227,0.00308302,-6.94444e-09
0.5,3.5,0,3.13187,0.00269203,-2.77778e-09
0.5,3.6,0,3.13148,0.00230103,1.38889e-09
0.5,3.7,0,3.13112,0.00186728,-4.16667e-09
0.5,3.8,0,3.13072,0.00141677,-8.33333e-09
0.5,3.9,0,3.13032,0.000966275,-1.25e-08
0.5,4,0,3.13011,0.000459119,-1.66667e-08
0.5,4.1,0,3.1298,-0.000123422,-2.08333e-08
0.5,4.2,0,3.1295,-0.000705964,-2.5e-08
0.5,4.3,0,3.12985,-0.00119461,-1.80556e-08
0.5,4.4,0,3.13008,-0.00180276,-9.72222e-09
0.5,4.5,0,3.13032,-0.00241091,-1.38889e-09
0.5,4.6,0,3.13131,-0.0028758,-2.89121e-18
0.5,4.7,0,3.13208,-0.00353142,-1.4456e-18
0.5,4.8,0,3.13285,-0.00418703,-1.92593e-34
0.5,4.9,0,3.13487,-0.00499061,-2.77778e-09
0.5,5,0,3.13634,-0.006162,-6.94444e-09
0.5,5.1,0,3.1378,-0.00733338,-1.11111e-08
0.5,5.2,0,3.13966,-0.00781746,-1.52778e-08
0.5,5.3,0,3.14171,-0.00858865,-1.94444e-08
0.5,5.4,0,3.14377,-0.00935984,-2.36111e-08
0.5,5.5,0,3.14427,-0.00957934,-1.80556e-08
0.5,5.6,0,3.14649,-0.0104121,-9.72222e-09
0.5,5.7,0,3.1487,-0.0112448,-1.38889e-09
0.5,5.8,0,3.15,-0.0105667,2.56489e-09
0.5,5.9,0,3.15275,-0.0102288,6.41224e-09
0.5,6,0,3.1555,-0.00989096,1.02596e-08
0.5,6.1,0,3.16169,-0.00656714,-1.38889e-09
0.5,6.2,0,3.16519,-0.00534895,1.04167e-08
0.5,6.3,0,3.1664,-0.00384589,-1.38889e-10
0.5,6.4,0,3.16656,-0.00216225,-1.13889e-08
0.5,6.5,0,3.16668,-0.000329272,6.94444e-10
0.5,6.6,0,3.16703,0.00147832,1.38889e-10
0.5,6.7,0,3.16718,0.0030979,-6.04744e-18
0.5,6.8,0,3.16591,0.00451971,2.36115e-18
0.5,6.9,0,3.16192,0.00571702,-9.63735e-19
0.5,7,0,3.15495,0.00875636,1.29261e-09
0.5,7.1,0,3.15355,0.00941455,5.77485e-09
0.5,7.2,0,3.15061,0.00975081,1.01608e-08
0.5,7.3,0,3.14859,0.0101742,1.3231e-08
0.5,7.4,0,3.14739,0.00972815,8.84503e-09
0.5,7.5,0,3.14532,0.00900946,4.45906e-09
0.5,7.6,0,3.14345,0.00853523,7.30994e-11
0.5,7.7,0,3.14152,0.00777976,-8.62573e-09
0.5,7.8,0,3.13959,0.00700986,-1.73977e-08
0.5,7.9,0,3.13729,0.00641391,-2.30263e-08
0.5,8,0,3.13578,0.00519977,-1.86404e-08
0.5,8.1,0,3.13428,0.00398562,-1.42544e-08
0.5,8.2,0,3.13287,0.00327366,-1.12573e-08
0.5,8.3,0,3.13191,0.00256072,-6.87135e-09
0.5,8.4,0,3.13094,0.00184779,-2.48538e-09
0.5,8.5,0,3.1303,0.00130857,1.72712e-18
0.5,8.6,0,3.12992,0.000650957,5.37916e-18
0.5,8.7,0,3.12954,-6.65292e-06,9.03121e-18
0.5,8.8,0,3.12962,-0.000562564,1.38889e-09
0.5,8.9,0,3.12985,-0.00120412,1.38889e-09
0.5,9,0,3.13008,-0.00183498,1.38889e-09
0.5,9.1,0,3.13041,-0.0023385,-1.82749e-09
0.5,9.2,0,3.13078,-0.00286966,-6.21345e-09
0.5,9.3,0,3.13116,-0.00339595,-9.72222e-09
0.5,9.4,0,3.13156,-0.00387626,-1.74708e-08
0.5,9.5,0,3.13195,-0.00435307,-2.62427e-08
0.5,9.6,0,3.13239,-0.00486055,-3.09942e-08
0.5,9.7,0,3.13283,-0.00525937,-4.4152e-08
0.5,9.8,0,3.13328,-0.00565818,-5.73099e-08
0.5,9.9,0,3.13378,-0.00613825,-6.84942e-08
0.5,10,0,3.13422,-0.00650662,-8.6038e-08
0.5,10.1,0,3.13465,-0.00687499,-1.03582e-07
0.5,10.2,0,3.13517,-0.00739092,-1.12573e-07
0.5,10.3,0,3.13558,-0.00779282,-1.16959e-07
0.5,10.4,0,3.136,-0.00819471,-1.21345e-07
0.5,10.5,0,3.13652,-0.00882675,-1.2712e-07
0.5,10.6,0,3.13692,-0.0093344,-1.31506e-07
0.5,10.7,0,3.13733,-0.00984205,-1.35892e-07
0.5,10.8,0,3.1379,-0.0106952,-1.625e-07
0.5,10.9,0,3.13832,-0.0113974,-1.88816e-07
0.5,11,0,3.13882,-0.0121647,-2.1557e-07
0.5,11.1,0,3.13947,-0.0131865,-2.39401e-07
0.5,11.2,0,3.13996,-0.0141163,-2.6133e-07
0.5,11.3,0,3.14076,-0.0153626,-2.82164e-07
0.5,11.4,0,3.14155,-0.0170567,-2.87427e-07
0.5,11.5,0,3.14227,-0.0187149,-2.91813e-07
0.5,11.6,0,3.14364,-0.0203883,-2.96784e-07
0.5,11.7,0,3.1448,-0.0219448,-2.74854e-07
0.5,11.8,0,3.14595,-0.0235014,-2.52924e-07
0.5,11.9,0,3.14759,-0.0263383,-2.43933e-07
0.5,12,0,3.14891,-0.0304695,-2.00073e-07
0.5,12.1,0,3.15023,-0.0346007,-1.56213e-07
0.5,12.2,0,3.13662,-0.036889,-1.35965e-07
0.5,12.3,0,3.12257,-0.0387233,-1.75439e-07
0.5,12.4,0,3.10852,-0.0405575,-2.14912e-07
0.5,12.5,0,2.16527,-0.0281505,-1.57895e-07
0.5,12.6,0,1.08263,-0.0140752,-7.89474e-08
0.5,12.7,0,0,0,0
0.6,0,0,0,0,0
0.6,0.1,0,1.09341,0.0145735,-1.16667e-07
0.6,0.2,0,2.12305,0.0270041,-4.04167e-07
0.6,0.3,0,3.15269,0.0394348,-6.91667e-07
0.6,0.4,0,3.1756,0.0382222,-9.83333e-07
0.6,0.5,0,3.18745,0.0364185,-8.20833e-07
0.6,0.6,0,3.1993,0.0346149,-6.58333e-07
0.6,0.7,0,3.19694,0.0311563,-6.20833e-07
0.6,0.8,0,3.19577,0.027399,-6.125e-07
0.6,0.9,0,3.19459,0.0236416,-6.04167e-07
0.6,1,0,3.19226,0.0220255,-3.66667e-07
0.6,1.1,0,3.19127,0.0206212,-4.625e-07
0.6,1.2,0,3.19028,0.0192169,-5.58333e-07
0.6,1.3,0,3.18885,0.0172077,-4e-07
0.6,1.4,0,3.18826,0.0157251,-4.33333e-07
0.6,1.5,0,3.18766,0.0142426,-4.66667e-07
0.6,1.6,0,3.18669,0.0130128,-4.75e-07
0.6,1.7,0,3.18629,0.0121931,-3.875e-07
0.6,1.8,0,3.18589,0.0113733,-3e-07
0.6,1.9,0,3.18512,0.0102692,-2.83333e-07
0.6,2,0,3.18478,0.00964787,-2.25e-07
0.6,2.1,0,3.18445,0.0090265,-1.66667e-07
0.6,2.2,0,3.18378,0.00814906,-1.70833e-07
0.6,2.3,0,3.18346,0.00771007,-1.41667e-07
0.6,2.4,0,3.18313,0.00727108,-1.125e-07
0.6,2.5,0,3.18251,0.00654706,-1.20833e-07
0.6,2.6,0,3.18215,0.00621348,-8.33333e-08
0.6,2.7,0,3.1818,0.00587989,-4.58333e-08
0.6,2.8,0,3.18121,0.00527109,-4.58333e-08
0.6,2.9,0,3.18081,0.00497858,-1.66667e-08
0.6,3,0,3.18042,0.00468606,1.25e-08
0.6,3.1,0,3.17989,0.00415731,-4.33706e-19
0.6,3.2,0,3.17947,0.00384268,-1.87929e-18
0.6,3.3,0,3.17905,0.00352805,-3.32489e-18
0.6,3.4,0,3.17862,0.00305923,-4.16667e-09
0.6,3.5,0,3.17822,0.00266823,-2.78112e-19
0.6,3.6,0,3.17782,0.00227724,4.16667e-09
0.6,3.7,0,3.17756,0.00187698,-4.16667e-09
0.6,3.8,0,3.17716,0.00142647,-8.33333e-09