x,y,z,p
0,0,0,13.717
0,0.1,0,13.6912
0,0.2,0,13.6655
0,0.3,0,13.6397
0,0.4,0,13.6079
0,0.5,0,13.5762
0,0.6,0,13.5444
0,0.7,0,13.5305
0,0.8,0,13.5166
0,0.9,0,13.5027
0,1,0,13.4908
0,1.1,0,13.4788
0,1.2,0,13.4669
0,1.3,0,13.4599
0,1.4,0,13.4529
0,1.5,0,13.4459
0,1.6,0,13.441
0,1.7,0,13.4362
0,1.8,0,13.4314
0,1.9,0,13.4284
0,2,0,13.4254
0,2.1,0,13.4224
0,2.2,0,13.4207
0,2.3,0,13.4191
0,2.4,0,13.4175
0,2.5,0,13.4167
0,2.6,0,13.416
0,2.7,0,13.4153
0,2.8,0,13.4152
0,2.9,0,13.4152
0,3,0,13.4151
0,3.1,0,13.4154
0,3.2,0,13.4158
0,3.3,0,13.4161
0,3.4,0,13.4168
0,3.5,0,13.4174
0,3.6,0,13.4181
0,3.7,0,13.419
0,3.8,0,13.4199
0,3.9,0,13.4207
0,4,0,13.4219
0,4.1,0,13.4231
0,4.2,0,13.4244
0,4.3,0,13.4262
0,4.4,0,13.4281
0,4.5,0,13.4299
0,4.6,0,13.4323
0,4.7,0,13.4346
0,4.8,0,13.4369
0,4.9,0,13.4411
0,5,0,13.4453
0,5.1,0,13.4495
0,5.2,0,13.4566
0,5.3,0,13.4637
0,5.4,0,13.4708
0,5.5,0,13.4793
0,5.6,0,13.4879
0,5.7,0,13.4964
0,5.8,0,13.503
0,5.9,0,13.5096
0,6,0,13.5162
0,6.1,0,13.5198
0,6.2,0,13.5222
0,6.3,0,13.5248
0,6.4,0,13.5268
0,6.5,0,13.5278
0,6.6,0,13.5274
0,6.7,0,13.5262
0,6.8,0,13.5245
0,6.9,0,13.523
0,7,0,13.5203
0,7.1,0,13.5146
0,7.2,0,13.5089
0,7.3,0,13.5029
0,7.4,0,13.495
0,7.5,0,13.4872
0,7.6,0,13.4797
0,7.7,0,13.4732
0,7.8,0,13.4666
0,7.9,0,13.4614
0,8,0,13.4578
0,8.1,0,13.4542
0,8.2,0,13.4519
0,8.3,0,13.4503
0,8.4,0,13.4487
0,8.5,0,13.4476
0,8.6,0,13.4466
0,8.7,0,13.4456
0,8.8,0,13.4452
0,8.9,0,13.4448
0,9,0,13.4446
0,9.1,0,13.4446
0,9.2,0,13.4447
0,9.3,0,13.4448
0,9.4,0,13.4453
0,9.5,0,13.4457
0,9.6,0,13.4462
0,9.7,0,13.447
0,9.8,0,13.4478
0,9.9,0,13.4487
0,10,0,13.4499
0,10.1,0,13.4511
0,10.2,0,13.4527
0,10.3,0,13.4546
0,10.4,0,13.4564
0,10.5,0,13.459
0,10.6,0,13.4619
0,10.7,0,13.4647
0,10.8,0,13.4688
0,10.9,0,13.4729
0,11,0,13.4773
0,11.1,0,13.4833
0,11.2,0,13.4894
0,11.3,0,13.4961
0,11.4,0,13.5045
0,11.5,0,13.513
0,11.6,0,13.5235
0,11.7,0,13.5372
0,11.8,0,13.5508
0,11.9,0,13.5656
0,12,0,13.5813
0,12.1,0,13.597
0,12.2,0,13.626
0,12.3,0,13.6606
0,12.4,0,13.6953
0,12.5,0,13.7241
0,12.6,0,13.7519
0,12.7,0,13.7797
0.1,0,0,13.6241
0.1,0.1,0,13.6064
0.1,0.2,0,13.5807
0.1,0.3,0,13.5549
0.1,0.4,0,13.5329
0.1,0.5,0,13.5011
0.1,0.6,0,13.4694
0.1,0.7,0,13.4584
0.1,0.8,0,13.4445
0.1,0.9,0,13.4306
0.1,1,0,13.4206
0.1,1.1,0,13.4086
0.1,1.2,0,13.3967
0.1,1.3,0,13.3907
0.1,1.4,0,13.3837
0.1,1.5,0,13.3766
0.1,1.6,0,13.3724
0.1,1.7,0,13.3675
0.1,1.8,0,13.3627
0.1,1.9,0,13.3601
0.1,2,0,13.3571
0.1,2.1,0,13.3542
0.1,2.2,0,13.3529
0.1,2.3,0,13.3513
0.1,2.4,0,13.3496
0.1,2.5,0,13.3494
0.1,2.6,0,13.3487
0.1,2.7,0,13.3479
0.1,2.8,0,13.3485
0.1,2.9,0,13.3485
0.1,3,0,13.3484
0.1,3.1,0,13.3497
0.1,3.2,0,13.35
0.1,3.3,0,13.3504
0.1,3.4,0,13.3522
0.1,3.5,0,13.3528
0.1,3.6,0,13.3534
0.1,3.7,0,13.3555
0.1,3.8,0,13.3564
0.1,3.9,0,13.3573
0.1,4,0,13.3595
0.1,4.1,0,13.3607
0.1,4.2,0,13.3619
0.1,4.3,0,13.3642
0.1,4.4,0,13.366
0.1,4.5,0,13.3679
0.1,4.6,0,13.3698
0.1,4.7,0,13.3721
0.1,4.8,0,13.3744
0.1,4.9,0,13.3759
0.1,5,0,13.3802
0.1,5.1,0,13.3844
0.1,5.2,0,13.3863
0.1,5.3,0,13.3934
0.1,5.4,0,13.4005
0.1,5.5,0,13.4024
0.1,5.6,0,13.4109
0.1,5.7,0,13.4194
0.1,5.8,0,13.4199
0.1,5.9,0,13.4265
0.1,6,0,13.4331
0.1,6.1,0,13.4351
0.1,6.2,0,13.4366
0.1,6.3,0,13.4385
0.1,6.4,0,13.4401
0.1,6.5,0,13.4409
0.1,6.6,0,13.4408
0.1,6.7,0,13.44
0.1,6.8,0,13.4391
0.1,6.9,0,13.4384
0.1,7,0,13.4374
0.1,7.1,0,13.4373
0.1,7.2,0,13.4316
0.1,7.3,0,13.4268
0.1,7.4,0,13.4242
0.1,7.5,0,13.4164
0.1,7.6,0,13.4109
0.1,7.7,0,13.4076
0.1,7.8,0,13.4011
0.1,7.9,0,13.3974
0.1,8,0,13.3951
0.1,8.1,0,13.3915
0.1,8.2,0,13.3896
0.1,8.3,0,13.3882
0.1,8.4,0,13.3867
0.1,8.5,0,13.3854
0.1,8.6,0,13.3844
0.1,8.7,0,13.3833
0.1,8.8,0,13.3821
0.1,8.9,0,13.3818
0.1,9,0,13.3814
0.1,9.1,0,13.3804
0.1,9.2,0,13.3805
0.1,9.3,0,13.3804
0.1,9.4,0,13.3799
0.1,9.5,0,13.3803
0.1,9.6,0,13.3804
0.1,9.7,0,13.3806
0.1,9.8,0,13.3814
0.1,9.9,0,13.3819
0.1,10,0,13.3828
0.1,10.1,0,13.384
0.1,10.2,0,13.3851
0.1,10.3,0,13.3868
0.1,10.4,0,13.3887
0.1,10.5,0,13.3908
0.1,10.6,0,13.3936
0.1,10.7,0,13.3964
0.1,10.8,0,13.4
0.1,10.9,0,13.4041
0.1,11,0,13.4084
0.1,11.1,0,13.4139
0.1,11.2,0,13.42
0.1,11.3,0,13.4263
0.1,11.4,0,13.434
0.1,11.5,0,13.4424
0.1,11.6,0,13.4519
0.1,11.7,0,13.4645
0.1,11.8,0,13.4781
0.1,11.9,0,13.4907
0.1,12,0,13.5053
0.1,12.1,0,13.521
0.1,12.2,0,13.5411
0.1,12.3,0,13.5744
0.1,12.4,0,13.609
0.1,12.5,0,13.6294
0.1,12.6,0,13.6572
0.1,12.7,0,13.685
0.2,0,0,13.5312
0.2,0.1,0,13.5149
0.2,0.2,0,13.4958
0.2,0.3,0,13.4701
0.2,0.4,0,13.4497
0.2,0.5,0,13.4261
0.2,0.6,0,13.3943
0.2,0.7,0,13.3839
0.2,0.8,0,13.3724
0.2,0.9,0,13.3585
0.2,1,0,13.3488
0.2,1.1,0,13.3385
0.2,1.2,0,13.3265
0.2,1.3,0,13.3206
0.2,1.4,0,13.3144
0.2,1.5,0,13.3074
0.2,1.6,0,13.3032
0.2,1.7,0,13.2989
0.2,1.8,0,13.294
0.2,1.9,0,13.2915
0.2,2,0,13.2889
0.2,2.1,0,13.2859
0.2,2.2,0,13.2847
0.2,2.3,0,13.2834
0.2,2.4,0,13.2818
0.2,2.5,0,13.2816
0.2,2.6,0,13.2813
0.2,2.7,0,13.2806
0.2,2.8,0,13.2813
0.2,2.9,0,13.2818
0.2,3,0,13.2817
0.2,3.1,0,13.2831
0.2,3.2,0,13.2843
0.2,3.3,0,13.2846
0.2,3.4,0,13.2866
0.2,3.5,0,13.2882
0.2,3.6,0,13.2888
0.2,3.7,0,13.2911
0.2,3.8,0,13.293
0.2,3.9,0,13.2939
0.2,4,0,13.2963
0.2,4.1,0,13.2983
0.2,4.2,0,13.2995
0.2,4.3,0,13.3018
0.2,4.4,0,13.304
0.2,4.5,0,13.3058
0.2,4.6,0,13.3076
0.2,4.7,0,13.3096
0.2,4.8,0,13.3119
0.2,4.9,0,13.313
0.2,5,0,13.315
0.2,5.1,0,13.3192
0.2,5.2,0,13.3203
0.2,5.3,0,13.3231
0.2,5.4,0,13.3302
0.2,5.5,0,13.331
0.2,5.6,0,13.3339
0.2,5.7,0,13.3425
0.2,5.8,0,13.3419
0.2,5.9,0,13.3434
0.2,6,0,13.35
0.2,6.1,0,13.3504
0.2,6.2,0,13.3511
0.2,6.3,0,13.3523
0.2,6.4,0,13.3534
0.2,6.5,0,13.3541
0.2,6.6,0,13.3542
0.2,6.7,0,13.3539
0.2,6.8,0,13.3536
0.2,6.9,0,13.3538
0.2,7,0,13.3545
0.2,7.1,0,13.3557
0.2,7.2,0,13.3544
0.2,7.3,0,13.3496
0.2,7.4,0,13.3497
0.2,7.5,0,13.3456
0.2,7.6,0,13.3401
0.2,7.7,0,13.34
0.2,7.8,0,13.3355
0.2,7.9,0,13.3319
0.2,8,0,13.3318
0.2,8.1,0,13.3288
0.2,8.2,0,13.3269
0.2,8.3,0,13.3261
0.2,8.4,0,13.3246
0.2,8.5,0,13.3233
0.2,8.6,0,13.3221
0.2,8.7,0,13.3211
0.2,8.8,0,13.3198
0.2,8.9,0,13.3187
0.2,9,0,13.3184
0.2,9.1,0,13.317
0.2,9.2,0,13.3163
0.2,9.3,0,13.3162
0.2,9.4,0,13.3152
0.2,9.5,0,13.315
0.2,9.6,0,13.3151
0.2,9.7,0,13.3146
0.2,9.8,0,13.315
0.2,9.9,0,13.3155
0.2,10,0,13.3158
0.2,10.1,0,13.3168
0.2,10.2,0,13.318
0.2,10.3,0,13.3191
0.2,10.4,0,13.3209
0.2,10.5,0,13.323
0.2,10.6,0,13.3253
0.2,10.7,0,13.3281
0.2,10.8,0,13.3316
0.2,10.9,0,13.3354
0.2,11,0,13.3396
0.2,11.1,0,13.3449
0.2,11.2,0,13.3506
0.2,11.3,0,13.3569
0.2,11.4,0,13.3639
0.2,11.5,0,13.3718
0.2,11.6,0,13.3813
0.2,11.7,0,13.3923
0.2,11.8,0,13.4054
0.2,11.9,0,13.418
0.2,12,0,13.4297
0.2,12.1,0,13.4451
0.2,12.2,0,13.4652
0.2,12.3,0,13.4881
0.2,12.4,0,13.5228
0.2,12.5,0,13.5428
0.2,12.6,0,13.5625
0.2,12.7,0,13.5903
0.3,0,0,13.4383
0.3,0.1,0,13.422
0.3,0.2,0,13.4056
0.3,0.3,0,13.3853
0.3,0.4,0,13.3649
0.3,0.5,0,13.3445
0.3,0.6,0,13.3193
0.3,0.7,0,13.3088
0.3,0.8,0,13.2984
0.3,0.9,0,13.2864
0.3,1,0,13.2767
0.3,1.1,0,13.267
0.3,1.2,0,13.2563
0.3,1.3,0,13.2504
0.3,1.4,0,13.2446
0.3,1.5,0,13.2382
0.3,1.6,0,13.234
0.3,1.7,0,13.2298
0.3,1.8,0,13.2254
0.3,1.9,0,13.2229
0.3,2,0,13.2204
0.3,2.1,0,13.2177
0.3,2.2,0,13.2165
0.3,2.3,0,13.2153
0.3,2.4,0,13.2139
0.3,2.5,0,13.2138
0.3,2.6,0,13.2136
0.3,2.7,0,13.2132
0.3,2.8,0,13.2139
0.3,2.9,0,13.2146
0.3,3,0,13.215
0.3,3.1,0,13.2165
0.3,3.2,0,13.2179
0.3,3.3,0,13.2189
0.3,3.4,0,13.2208
0.3,3.5,0,13.2228
0.3,3.6,0,13.2242
0.3,3.7,0,13.2265
0.3,3.8,0,13.2288
0.3,3.9,0,13.2305
0.3,4,0,13.2329
0.3,4.1,0,13.2352
0.3,4.2,0,13.2371
0.3,4.3,0,13.2394
0.3,4.4,0,13.2417
0.3,4.5,0,13.2438
0.3,4.6,0,13.2456
0.3,4.7,0,13.2474
0.3,4.8,0,13.2494
0.3,4.9,0,13.2505
0.3,5,0,13.2517
0.3,5.1,0,13.2541
0.3,5.2,0,13.2552
0.3,5.3,0,13.2563
0.3,5.4,0,13.26
0.3,5.5,0,13.2607
0.3,5.6,0,13.2615
0.3,5.7,0,13.2656
0.3,5.8,0,13.265
0.3,5.9,0,13.2644
0.3,6,0,13.2668
0.3,6.1,0,13.2656
0.3,6.2,0,13.2655
0.3,6.3,0,13.266
0.3,6.4,0,13.2667
0.3,6.5,0,13.2673
0.3,6.6,0,13.2675
0.3,6.7,0,13.2677
0.3,6.8,0,13.2682
0.3,6.9,0,13.2693
0.3,7,0,13.2716
0.3,7.1,0,13.2728
0.3,7.2,0,13.2741
0.3,7.3,0,13.2723
0.3,7.4,0,13.2724
0.3,7.5,0,13.2725
0.3,7.6,0,13.2693
0.3,7.7,0,13.2692
0.3,7.8,0,13.269
0.3,7.9,0,13.2663
0.3,8,0,13.2662
0.3,8.1,0,13.2661
0.3,8.2,0,13.2642
0.3,8.3,0,13.2634
0.3,8.4,0,13.2625
0.3,8.5,0,13.2612
0.3,8.6,0,13.26
0.3,8.7,0,13.2589
0.3,8.8,0,13.2576
0.3,8.9,0,13.2562
0.3,9,0,13.2553
0.3,9.1,0,13.254
0.3,9.2,0,13.2527
0.3,9.3,0,13.252
0.3,9.4,0,13.251
0.3,9.5,0,13.25
0.3,9.6,0,13.2497
0.3,9.7,0,13.2493
0.3,9.8,0,13.2488
0.3,9.9,0,13.2492
0.3,10,0,13.2494
0.3,10.1,0,13.2497
0.3,10.2,0,13.2508
0.3,10.3,0,13.2519
0.3,10.4,0,13.2532
0.3,10.5,0,13.2553
0.3,10.6,0,13.2575
0.3,10.7,0,13.2599
0.3,10.8,0,13.2634
0.3,10.9,0,13.2669
0.3,11,0,13.2709
0.3,11.1,0,13.2761
0.3,11.2,0,13.2814
0.3,11.3,0,13.2875
0.3,11.4,0,13.2945
0.3,11.5,0,13.3015
0.3,11.6,0,13.3107
0.3,11.7,0,13.3218
0.3,11.8,0,13.3328
0.3,11.9,0,13.3453
0.3,12,0,13.357
0.3,12.1,0,13.3691
0.3,12.2,0,13.3892
0.3,12.3,0,13.4112
0.3,12.4,0,13.4365
0.3,12.5,0,13.4565
0.3,12.6,0,13.4739
0.3,12.7,0,13.4956
0.4,0,0,13.3031
0.4,0.1,0,13.2919
0.4,0.2,0,13.2755
0.4,0.3,0,13.2592
0.4,0.4,0,13.2451
0.4,0.5,0,13.2247
0.4,0.6,0,13.2044
0.4,0.7,0,13.1961
0.4,0.8,0,13.1857
0.4,0.9,0,13.1752
0.4,1,0,13.1671
0.4,1.1,0,13.1574
0.4,1.2,0,13.1477
0.4,1.3,0,13.1427
0.4,1.4,0,13.1369
0.4,1.5,0,13.131
0.4,1.6,0,13.1274
0.4,1.7,0,13.1232
0.4,1.8,0,13.119
0.4,1.9,0,13.1169
0.4,2,0,13.1144
0.4,2.1,0,13.1119
0.4,2.2,0,13.111
0.4,2.3,0,13.1098
0.4,2.4,0,13.1086
0.4,2.5,0,13.1088
0.4,2.6,0,13.1086
0.4,2.7,0,13.1085
0.4,2.8,0,13.1095
0.4,2.9,0,13.1102
0.4,3,0,13.1109
0.4,3.1,0,13.1126
0.4,3.2,0,13.114
0.4,3.3,0,13.1155
0.4,3.4,0,13.1177
0.4,3.5,0,13.1196
0.4,3.6,0,13.1216
0.4,3.7,0,13.1241
0.4,3.8,0,13.1264
0.4,3.9,0,13.1287
0.4,4,0,13.1312
0.4,4.1,0,13.1336
0.4,4.2,0,13.136
0.4,4.3,0,13.1382
0.4,4.4,0,13.1405
0.4,4.5,0,13.1427
0.4,4.6,0,13.1444
0.4,4.7,0,13.1462
0.4,4.8,0,13.148
0.4,4.9,0,13.1488
0.4,5,0,13.1499
0.4,5.1,0,13.1511
0.4,5.2,0,13.1514
0.4,5.3,0,13.1524
0.4,5.4,0,13.1535
0.4,5.5,0,13.153
0.4,5.6,0,13.1538
0.4,5.7,0,13.1545
0.4,5.8,0,13.1534
0.4,5.9,0,13.1528
0.4,6,0,13.1522
0.4,6.1,0,13.1505
0.4,6.2,0,13.1503
0.4,6.3,0,13.1506
0.4,6.4,0,13.1512
0.4,6.5,0,13.1517
0.4,6.6,0,13.152
0.4,6.7,0,13.1523
0.4,6.8,0,13.153
0.4,6.9,0,13.1542
0.4,7,0,13.1571
0.4,7.1,0,13.1588
0.4,7.2,0,13.16
0.4,7.3,0,13.1616
0.4,7.4,0,13.1624
0.4,7.5,0,13.1625
0.4,7.6,0,13.1631
0.4,7.7,0,13.1632
0.4,7.8,0,13.1631
0.4,7.9,0,13.1633
0.4,8,0,13.1632
0.4,8.1,0,13.1631
0.4,8.2,0,13.1628
0.4,8.3,0,13.162
0.4,8.4,0,13.1612
0.4,8.5,0,13.1602
0.4,8.6,0,13.159
0.4,8.7,0,13.1578
0.4,8.8,0,13.1564
0.4,8.9,0,13.155
0.4,9,0,13.1537
0.4,9.1,0,13.1522
0.4,9.2,0,13.1509
0.4,9.3,0,13.1495
0.4,9.4,0,13.1484
0.4,9.5,0,13.1474
0.4,9.6,0,13.1464
0.4,9.7,0,13.1458
0.4,9.8,0,13.1454
0.4,9.9,0,13.1449
0.4,10,0,13.1452
0.4,10.1,0,13.1454
0.4,10.2,0,13.1459
0.4,10.3,0,13.147
0.4,10.4,0,13.1481
0.4,10.5,0,13.1497
0.4,10.6,0,13.1519
0.4,10.7,0,13.1541
0.4,10.8,0,13.1571
0.4,10.9,0,13.1606
0.4,11,0,13.1641
0.4,11.1,0,13.1689
0.4,11.2,0,13.1742
0.4,11.3,0,13.1793
0.4,11.4,0,13.1859
0.4,11.5,0,13.193
0.4,11.6,0,13.1998
0.4,11.7,0,13.2108
0.4,11.8,0,13.2218
0.4,11.9,0,13.2308
0.4,12,0,13.2425
0.4,12.1,0,13.2542
0.4,12.2,0,13.2666
0.4,12.3,0,13.2886
0.4,12.4,0,13.3106
0.4,12.5,0,13.3234
0.4,12.6,0,13.3409
0.4,12.7,0,13.3583
0.5,0,0,13.1256
0.5,0.1,0,13.1212
0.5,0.2,0,13.1082
0.5,0.3,0,13.0919
0.5,0.4,0,13.0862
0.5,0.5,0,13.07
0.5,0.6,0,13.0496
0.5,0.7,0,13.0443
0.5,0.8,0,13.0354
0.5,0.9,0,13.0249
0.5,1,0,13.019
0.5,1.1,0,13.0104
0.5,1.2,0,13.0007
0.5,1.3,0,12.9969
0.5,1.4,0,12.9916
0.5,1.5,0,12.9858
0.5,1.6,0,12.9829
0.5,1.7,0,12.979
0.5,1.8,0,12.9749
0.5,1.9,0,12.9733
0.5,2,0,12.9711
0.5,2.1,0,12.9686
0.5,2.2,0,12.9681
0.5,2.3,0,12.9671
0.5,2.4,0,12.9659
0.5,2.5,0,12.9665
0.5,2.6,0,12.9665
0.5,2.7,0,12.9663
0.5,2.8,0,12.9677
0.5,2.9,0,12.9686
0.5,3,0,12.9693
0.5,3.1,0,12.9714
0.5,3.2,0,12.973
0.5,3.3,0,12.9745
0.5,3.4,0,12.977
0.5,3.5,0,12.9791
0.5,3.6,0,12.9811
0.5,3.7,0,12.9838
0.5,3.8,0,12.9862
0.5,3.9,0,12.9885
0.5,4,0,12.9912
0.5,4.1,0,12.9937
0.5,4.2,0,12.996
0.5,4.3,0,12.9982
0.5,4.4,0,13.0005
0.5,4.5,0,13.0028
0.5,4.6,0,13.0042
0.5,4.7,0,13.006
0.5,4.8,0,13.0078
0.5,4.9,0,13.0081
0.5,5,0,13.009
0.5,5.1,0,13.0101
0.5,5.2,0,13.0093
0.5,5.3,0,13.0099
0.5,5.4,0,13.011
0.5,5.5,0,13.0088
0.5,5.6,0,13.0087
0.5,5.7,0,13.0095
0.5,5.8,0,13.0077
0.5,5.9,0,13.0067
0.5,6,0,13.0061
0.5,6.1,0,13.0051
0.5,6.2,0,13.0053
0.5,6.3,0,13.006
0.5,6.4,0,13.0067
0.5,6.5,0,13.0073
0.5,6.6,0,13.0075
0.5,6.7,0,13.0076
0.5,6.8,0,13.0079
0.5,6.9,0,13.0086
0.5,7,0,13.0109
0.5,7.1,0,13.0133
0.5,7.2,0,13.0149
0.5,7.3,0,13.0164
0.5,7.4,0,13.0194
0.5,7.5,0,13.0197
0.5,7.6,0,13.0203
0.5,7.7,0,13.022
0.5,7.8,0,13.0219
0.5,7.9,0,13.0222
0.5,8,0,13.0228
0.5,8.1,0,13.0227
0.5,8.2,0,13.0224
0.5,8.3,0,13.0219
0.5,8.4,0,13.0212
0.5,8.5,0,13.0202
0.5,8.6,0,13.019
0.5,8.7,0,13.0178
0.5,8.8,0,13.0163
0.5,8.9,0,13.0149
0.5,9,0,13.0135
0.5,9.1,0,13.0118
0.5,9.2,0,13.0104
0.5,9.3,0,13.0091
0.5,9.4,0,13.0075
0.5,9.5,0,13.0065
0.5,9.6,0,13.0054
0.5,9.7,0,13.0044
0.5,9.8,0,13.0039
0.5,9.9,0,13.0034
0.5,10,0,13.0031
0.5,10.1,0,13.0033
0.5,10.2,0,13.0036
0.5,10.3,0,13.0042
0.5,10.4,0,13.0053
0.5,10.5,0,13.0066
0.5,10.6,0,13.0084
0.5,10.7,0,13.0106
0.5,10.8,0,13.013
0.5,10.9,0,13.0162
0.5,11,0,13.0197
0.5,11.1,0,13.0235
0.5,11.2,0,13.0285
0.5,11.3,0,13.0336
0.5,11.4,0,13.0382
0.5,11.5,0,13.0453
0.5,11.6,0,13.0521
0.5,11.7,0,13.0595
0.5,11.8,0,13.0705
0.5,11.9,0,13.0786
0.5,12,0,13.0863
0.5,12.1,0,13.098
0.5,12.2,0,13.1057
0.5,12.3,0,13.1193
0.5,12.4,0,13.1413
0.5,12.5,0,13.1484
0.5,12.6,0,13.161
0.5,12.7,0,13.1784
0.6,0,0,12.948
0.6,0.1,0,12.9436
0.6,0.2,0,12.9392
0.6,0.3,0,12.9246
0.6,0.4,0,12.9189
0.6,0.5,0,12.9131
0.6,0.6,0,12.8949
0.6,0.7,0,12.8896
0.6,0.8,0,12.8843
0.6,0.9,0,12.8746
0.6,1,0,12.8687
0.6,1.1,0,12.8628
0.6,1.2,0,12.8536
0.6,1.3,0,12.8499
0.6,1.4,0,12.8461
0.6,1.5,0,12.8406
0.6,1.6,0,12.8377
0.6,1.7,0,12.8347
0.6,1.8,0,12.8307
0.6,1.9,0,12.8292
0.6,2,0,12.8276
0.6,2.1,0,12.8253
0.6,2.2,0,12.8248
0.6,2.3,0,12.8243
0.6,2.4,0,12.8232
0.6,2.5,0,12.8238
0.6,2.6,0,12.8243
0.6,2.7,0,12.8242
0.6,2.8,0,12.8256
0.6,2.9,0,12.827
0.6,3,0,12.8278
0.6,3.1,0,12.8299
0.6,3.2,0,12.8319
0.6,3.3,0,12.8335
0.6,3.4,0,12.836
0.6,3.5,0,12.8385
0.6,3.6,0,12.8406
0.6,3.7,0,12.8433
0.6,3.8,0,12.846
0.6,3.9,0,12.8484
0.6,4,0,12.8511
0.6,4.1,0,12.8537
0.6,4.2,0,12.8561
0.6,4.3,0,12.8583
0.6,4.4,0,12.8605
0.6,4.5,0,12.8628
0.6,4.6,0,12.8643
0.6,4.7,0,12.8658
0.6,4.8,0,12.8675
0.6,4.9,0,12.8678
0.6,5,0,12.8681
0.6,5.1,0,12.8691
0.6,5.2,0,12.8683
0.6,5.3,0,12.8676
0.6,5.4,0,12.8684
0.6,5.5,0,12.8662
0.6,5.6,0,12.864
0.6,5.7,0,12.8644
0.6,5.8,0,12.8626
0.6,5.9,0,12.8608
0.6,6,0,12.86
0.6,6.1,0,12.8596
0.6,6.2,0,12.8604
0.6,6.3,0,12.8614
0.6,6.4,0,12.8623
0.6,6.5,0,12.8629
0.6,6.6,0,12.8631
0.6,6.7,0,12.8629
0.6,6.8,0,12.8629
0.6,6.9,0,12.8631
0.6,7,0,12.8648
0.6,7.1,0,12.8672
0.6,7.2,0,12.8696
0.6,7.3,0,12.8712
0.6,7.4,0,12.8742
0.6,7.5,0,12.8769
0.6,7.6,0,12.8775
0.6,7.7,0,12.8794
0.6,7.8,0,12.8807
0.6,7.9,0,12.881
0.6,8,0,12.8818
0.6,8.1,0,12.8823
0.6,8.2,0,12.882
0.6,8.3,0,12.8817
0.6,8.4,0,12.8811
0.6,8.5,0,12.8801
0.6,8.6,0,12.879
0.6,8.7,0,12.8779
0.6,8.8,0,12.8763
0.6,8.9,0,12.8748
0.6,9,0,12.8734
0.6,9.1,0,12.8717
0.6,9.2,0,12.87
0.6,9.3,0,12.8686
0.6,9.4,0,12.867
0.6,9.5,0,12.8656
0.6,9.6,0,12.8645
0.6,9.7,0,12.8633
0.6,9.8,0,12.8624
0.6,9.9,0,12.8619
0.6,10,0,12.8614
0.6,10.1,0,12.8612
0.6,10.2,0,12.8615
0.6,10.3,0,12.8618
0.6,10.4,0,12.8626
0.6,10.5,0,12.8638
0.6,10.6,0,12.8651
0.6,10.7,0,12.8671
0.6,10.8,0,12.8695
0.6,10.9,0,12.8719
0.6,11,0,12.8753
0.6,11.1,0,12.8791
0.6,11.2,0,12.8829
0.6,11.3,0,12.888
0.6,11.4,0,12.8925
0.6,11.5,0,12.8975
0.6,11.6,0,12.9044
0.6,11.7,0,12.911
0.6,11.8,0,12.9191
0.6,11.9,0,12.9273
0.6,12,0,12.933
0.6,12.1,0,12.9419
0.6,12.2,0,12.9495
0.6,12.3,0,12.9554
0.6,12.4,0,12.972
0.6,12.5,0,12.9791
0.6,12.6,0,12.9835
0.6,12.7,0,12.9985
0.7,0,0,12.7705
0.7,0.1,0,12.7661
0.7,0.2,0,12.7617
0.7,0.3,0,12.7573
0.7,0.4,0,12.7516
0.7,0.5,0,12.7458
0.7,0.6,0,12.7401
0.7,0.7,0,12.7348
0.7,0.8,0,12.7295
0.7,0.9,0,12.7242
0.7,1,0,12.7184
0.7,1.1,0,12.7125
0.7,1.2,0,12.7066
0.7,1.3,0,12.7029
0.7,1.4,0,12.6991
0.7,1.5,0,12.6954
0.7,1.6,0,12.6924
0.7,1.7,0,12.6895
0.7,1.8,0,12.6866
0.7,1.9,0,12.6851
0.7,2,0,12.6835
0.7,2.1,0,12.682
0.7,2.2,0,12.6815
0.7,2.3,0,12.681
0.7,2.4,0,12.6806
0.7,2.5,0,12.6811
0.7,2.6,0,12.6816
0.7,2.7,0,12.6821
0.7,2.8,0,12.6835
0.7,2.9,0,12.6849
0.7,3,0,12.6862
0.7,3.1,0,12.6883
0.7,3.2,0,12.6904
0.7,3.3,0,12.6925
0.7,3.4,0,12.695
0.7,3.5,0,12.6975
0.7,3.6,0,12.7001
0.7,3.7,0,12.7028
0.7,3.8,0,12.7055
0.7,3.9,0,12.7083
0.7,4,0,12.7109
0.7,4.1,0,12.7136
0.7,4.2,0,12.7162
0.7,4.3,0,12.7184
0.7,4.4,0,12.7206
0.7,4.5,0,12.7228
0.7,4.6,0,12.7243
0.7,4.7,0,12.7258
0.7,4.8,0,12.7273
0.7,4.9,0,12.7276
0.7,5,0,12.7279
0.7,5.1,0,12.7281
0.7,5.2,0,12.7274
0.7,5.3,0,12.7266
0.7,5.4,0,12.7258
0.7,5.5,0,12.7236
0.7,5.6,0,12.7215
0.7,5.7,0,12.7193
0.7,5.8,0,12.7175
0.7,5.9,0,12.7157
0.7,6,0,12.7139
0.7,6.1,0,12.7142
0.7,6.2,0,12.7154
0.7,6.3,0,12.7168
0.7,6.4,0,12.7179
0.7,6.5,0,12.7185
0.7,6.6,0,12.7186
0.7,6.7,0,12.7183
0.7,6.8,0,12.7179
0.7,6.9,0,12.7175
0.7,7,0,12.7186
0.7,7.1,0,12.7211
0.7,7.2,0,12.7235
0.7,7.3,0,12.726
0.7,7.4,0,12.729
0.7,7.5,0,12.732
0.7,7.6,0,12.7347
0.7,7.7,0,12.7366
0.7,7.8,0,12.7384
0.7,7.9,0,12.7398
0.7,8,0,12.7407
0.7,8.1,0,12.7415
0.7,8.2,0,12.7416
0.7,8.3,0,12.7412
0.7,8.4,0,12.7409
0.7,8.5,0,12.74
0.7,8.6,0,12.7389
0.7,8.7,0,12.7379
0.7,8.8,0,12.7364
0.7,8.9,0,12.7348
0.7,9,0,12.7332
0.7,9.1,0,12.7315
0.7,9.2,0,12.7298
0.7,9.3,0,12.7281
0.7,9.4,0,12.7266
0.7,9.5,0,12.725
0.7,9.6,0,12.7236
0.7,9.7,0,12.7224
0.7,9.8,0,12.7213
0.7,9.9,0,12.7204
0.7,10,0,12.7199
0.7,10.1,0,12.7194
0.7,10.2,0,12.7194
0.7,10.3,0,12.7197
0.7,10.4,0,12.72
0.7,10.5,0,12.7211
0.7,10.6,0,12.7224
0.7,10.7,0,12.7237
0.7,10.8,0,12.726
0.7,10.9,0,12.7284
0.7,11,0,12.7309
0.7,11.1,0,12.7347
0.7,11.2,0,12.7384
0.7,11.3,0,12.7423
0.7,11.4,0,12.7468
0.7,11.5,0,12.7513
0.7,11.6,0,12.7567
0.7,11.7,0,12.7632
0.7,11.8,0,12.7698
0.7,11.9,0,12.7759
0.7,12,0,12.7817
0.7,12.1,0,12.7874
0.7,12.2,0,12.7933
0.7,12.3,0,12.7992
0.7,12.4,0,12.8051
0.7,12.5,0,12.8098
0.7,12.6,0,12.8142
0.7,12.7,0,12.8186
0.8,0,0,12.6174
0.8,0.1,0,12.6153
0.8,0.2,0,12.611
0.8,0.3,0,12.6066
0.8,0.4,0,12.6039
0.8,0.5,0,12.5982
0.8,0.6,0,12.5924
0.8,0.7,0,12.5892
0.8,0.8,0,12.5839
0.8,0.9,0,12.5786
0.8,1,0,12.5749
0.8,1.1,0,12.569
0.8,1.2,0,12.5632
0.8,1.3,0,12.5608
0.8,1.4,0,12.557
0.8,1.5,0,12.5533
0.8,1.6,0,12.5514
0.8,1.7,0,12.5485
0.8,1.8,0,12.5456
0.8,1.9,0,12.5448
0.8,2,0,12.5433
0.8,2.1,0,12.5417
0.8,2.2,0,12.5418
0.8,2.3,0,12.5413
0.8,2.4,0,12.5409
0.8,2.5,0,12.5418
0.8,2.6,0,12.5423
0.8,2.7,0,12.5428
0.8,2.8,0,12.5444
0.8,2.9,0,12.5457
0.8,3,0,12.5471
0.8,3.1,0,12.5492
0.8,3.2,0,12.5513
0.8,3.3,0,12.5534
0.8,3.4,0,12.5558
0.8,3.5,0,12.5583
0.8,3.6,0,12.5609
0.8,3.7,0,12.5635
0.8,3.8,0,12.5662
0.8,3.9,0,12.569
0.8,4,0,12.5716
0.8,4.1,0,12.5743
0.8,4.2,0,12.5769
0.8,4.3,0,12.5794
0.8,4.4,0,12.5816
0.8,4.5,0,12.5838
0.8,4.6,0,12.586
0.8,4.7,0,12.5875
0.8,4.8,0,12.589
0.8,4.9,0,12.5908
0.8,5,0,12.5911
0.8,5.1,0,12.5914
0.8,5.2,0,12.5932
0.8,5.3,0,12.5924
0.8,5.4,0,12.5917
0.8,5.5,0,12.5931
0.8,5.6,0,12.5909
0.8,5.7,0,12.5888
0.8,5.8,0,12.5902
0.8,5.9,0,12.5884
0.8,6,0,12.5867
0.8,6.1,0,12.5883
0.8,6.2,0,12.5902
0.8,6.3,0,12.5919
0.8,6.4,0,12.5933
0.8,6.5,0,12.5941
0.8,6.6,0,12.594
0.8,6.7,0,12.5934
0.8,6.8,0,12.5926
0.8,6.9,0,12.5915
0.8,7,0,12.5913
0.8,7.1,0,12.5906
0.8,7.2,0,12.5931
0.8,7.3,0,12.595
0.8,7.4,0,12.5951
0.8,7.5,0,12.5981
0.8,7.6,0,12.5998
0.8,7.7,0,12.6
0.8,7.8,0,12.6019
0.8,7.9,0,12.6024
0.8,8,0,12.6025
0.8,8.1,0,12.6033
0.8,8.2,0,12.6029
0.8,8.3,0,12.6023
0.8,8.4,0,12.6019
0.8,8.5,0,12.6007
0.8,8.6,0,12.5996
0.8,8.7,0,12.5985
0.8,8.8,0,12.5969
0.8,8.9,0,12.5953
0.8,9,0,12.5938
0.8,9.1,0,12.5921
0.8,9.2,0,12.5904
0.8,9.3,0,12.5888
0.8,9.4,0,12.5872
0.8,9.5,0,12.5857
0.8,9.6,0,12.5843
0.8,9.7,0,12.5831
0.8,9.8,0,12.5819
0.8,9.9,0,12.581
0.8,10,0,12.5804
0.8,10.1,0,12.5798
0.8,10.2,0,12.5796
0.8,10.3,0,12.5798
0.8,10.4,0,12.5801
0.8,10.5,0,12.5806
0.8,10.6,0,12.5819
0.8,10.7,0,12.5832
0.8,10.8,0,12.5847
0.8,10.9,0,12.5871
0.8,11,0,12.5895
0.8,11.1,0,12.5922
0.8,11.2,0,12.5959
0.8,11.3,0,12.5993
0.8,11.4,0,12.6028
0.8,11.5,0,12.6073
0.8,11.6,0,12.6116
0.8,11.7,0,12.617
0.8,11.8,0,12.6235
0.8,11.9,0,12.6282
0.8,12,0,12.6333
0.8,12.1,0,12.639
0.8,12.2,0,12.6423
0.8,12.3,0,12.6478
0.8,12.4,0,12.6537
0.8,12.5,0,12.656
0.8,12.6,0,12.6605
0.8,12.7,0,12.6649
0.9,0,0,12.4642
0.9,0.1,0,12.4626
0.9,0.2,0,12.4602
0.9,0.3,0,12.4558
0.9,0.4,0,12.4537
0.9,0.5,0,12.4505
0.9,0.6,0,12.4448
0.9,0.7,0,12.4419
0.9,0.8,0,12.4383
0.9,0.9,0,12.433
0.9,1,0,12.4297
0.9,1.1,0,12.4256
0.9,1.2,0,12.4197
0.9,1.3,0,12.4176
0.9,1.4,0,12.415
0.9,1.5,0,12.4112
0.9,1.6,0,12.4095
0.9,1.7,0,12.4075
0.9,1.8,0,12.4046
0.9,1.9,0,12.4039
0.9,2,0,12.403
0.9,2.1,0,12.4015
0.9,2.2,0,12.4016
0.9,2.3,0,12.4016
0.9,2.4,0,12.4012
0.9,2.5,0,12.4021
0.9,2.6,0,12.403
0.9,2.7,0,12.4035
0.9,2.8,0,12.4051
0.9,2.9,0,12.4066
0.9,3,0,12.408
0.9,3.1,0,12.4101
0.9,3.2,0,12.4122
0.9,3.3,0,12.4143
0.9,3.4,0,12.4167
0.9,3.5,0,12.4192
0.9,3.6,0,12.4217
0.9,3.7,0,12.4243
0.9,3.8,0,12.4269
0.9,3.9,0,12.4297
0.9,4,0,12.4323
0.9,4.1,0,12.435
0.9,4.2,0,12.4376
0.9,4.3,0,12.4402
0.9,4.4,0,12.4426
0.9,4.5,0,12.4448
0.9,4.6,0,12.4471
0.9,4.7,0,12.4492
0.9,4.8,0,12.4507
0.9,4.9,0,12.4527
0.9,5,0,12.4543
0.9,5.1,0,12.4546
0.9,5.2,0,12.4569
0.9,5.3,0,12.4583
0.9,5.4,0,12.4575
0.9,5.5,0,12.4596
0.9,5.6,0,12.4604
0.9,5.7,0,12.4582
0.9,5.8,0,12.4602
0.9,5.9,0,12.4612
0.9,6,0,12.4594
0.9,6.1,0,12.4624
0.9,6.2,0,12.465
0.9,6.3,0,12.4671
0.9,6.4,0,12.4688
0.9,6.5,0,12.4696
0.9,6.6,0,12.4695
0.9,6.7,0,12.4686
0.9,6.8,0,12.4672
0.9,6.9,0,12.4656
0.9,7,0,12.4639
0.9,7.1,0,12.4626
0.9,7.2,0,12.4627
0.9,7.3,0,12.4646
0.9,7.4,0,12.4633
0.9,7.5,0,12.4642
0.9,7.6,0,12.4659
0.9,7.7,0,12.4645
0.9,7.8,0,12.4653
0.9,7.9,0,12.4658
0.9,8,0,12.4647
0.9,8.1,0,12.4652
0.9,8.2,0,12.4647
0.9,8.3,0,12.4634
0.9,8.4,0,12.463
0.9,8.5,0,12.4617
0.9,8.6,0,12.4602
0.9,8.7,0,12.4592
0.9,8.8,0,12.4575
0.9,8.9,0,12.4559
0.9,9,0,12.4543
0.9,9.1,0,12.4527
0.9,9.2,0,12.451
0.9,9.3,0,12.4494
0.9,9.4,0,12.4479
0.9,9.5,0,12.4464
0.9,9.6,0,12.4449
0.9,9.7,0,12.4437
0.9,9.8,0,12.4426
0.9,9.9,0,12.4416
0.9,10,0,12.4409
0.9,10.1,0,12.4403
0.9,10.2,0,12.44
0.9,10.3,0,12.4399
0.9,10.4,0,12.4402
0.9,10.5,0,12.4407
0.9,10.6,0,12.4414
0.9,10.7,0,12.4427
0.9,10.8,0,12.4441
0.9,10.9,0,12.4457
0.9,11,0,12.4481
0.9,11.1,0,12.4504
0.9,11.2,0,12.4534
0.9,11.3,0,12.4569
0.9,11.4,0,12.4595
0.9,11.5,0,12.4633
0.9,11.6,0,12.4676
0.9,11.7,0,12.4713
0.9,11.8,0,12.4772
0.9,11.9,0,12.4819
0.9,12,0,12.4851
0.9,12.1,0,12.4906
0.9,12.2,0,12.4939
0.9,12.3,0,12.4963
0.9,12.4,0,12.5023
0.9,12.5,0,12.5045
0.9,12.6,0,12.5067
0.9,12.7,0,12.5111
1,0,0,12.3111
1,0.1,0,12.3095
1,0.2,0,12.3079
1,0.3,0,12.305
1,0.4,0,12.3029
1,0.5,0,12.3008
1,0.6,0,12.2971
1,0.7,0,12.2942
1,0.8,0,12.2913
1,0.9,0,12.2874
1,1,0,12.284
1,1.1,0,12.2807
1,1.2,0,12.2763
1,1.3,0,12.2741
1,1.4,0,12.272
1,1.5,0,12.2691
1,1.6,0,12.2674
1,1.7,0,12.2657
1,1.8,0,12.2635
1,1.9,0,12.2629
1,2,0,12.2622
1,2.1,0,12.2612
1,2.2,0,12.2614
1,2.3,0,12.2616
1,2.4,0,12.2615
1,2.5,0,12.2624
1,2.6,0,12.2634
1,2.7,0,12.2642
1,2.8,0,12.2658
1,2.9,0,12.2674
1,3,0,12.2689
1,3.1,0,12.271
1,3.2,0,12.2731
1,3.3,0,12.2752
1,3.4,0,12.2776
1,3.5,0,12.28
1,3.6,0,12.2825
1,3.7,0,12.2851
1,3.8,0,12.2877
1,3.9,0,12.2904
1,4,0,12.293
1,4.1,0,12.2957
1,4.2,0,12.2983
1,4.3,0,12.3009
1,4.4,0,12.3035
1,4.5,0,12.3059
1,4.6,0,12.3081
1,4.7,0,12.3104
1,4.8,0,12.3124
1,4.9,0,12.3144
1,5,0,12.3165
1,5.1,0,12.3178
1,5.2,0,12.3201
1,5.3,0,12.3224
1,5.4,0,12.3234
1,5.5,0,12.3254
1,5.6,0,12.3275
1,5.7,0,12.3277
1,5.8,0,12.3297
1,5.9,0,12.3317
1,6,0,12.3321
1,6.1,0,12.3365
1,6.2,0,12.3397
1,6.3,0,12.3423
1,6.4,0,12.3442
1,6.5,0,12.3451
1,6.6,0,12.3449
1,6.7,0,12.3437
1,6.8,0,12.3419
1,6.9,0,12.3396
1,7,0,12.3365
1,7.1,0,12.3352
1,7.2,0,12.3339
1,7.3,0,12.3341
1,7.4,0,12.3329
1,7.5,0,12.3316
1,7.6,0,12.332
1,7.7,0,12.3306
1,7.8,0,12.3292
1,7.9,0,12.3292
1,8,0,12.3281
1,8.1,0,12.327
1,8.2,0,12.3265
1,8.3,0,12.3252
1,8.4,0,12.324
1,8.5,0,12.3228
1,8.6,0,12.3212
1,8.7,0,12.3198
1,8.8,0,12.3182
1,8.9,0,12.3165
1,9,0,12.3149
1,9.1,0,12.3132
1,9.2,0,12.3116
1,9.3,0,12.31
1,9.4,0,12.3085
1,9.5,0,12.307
1,9.6,0,12.3056
1,9.7,0,12.3044
1,9.8,0,12.3032
1,9.9,0,12.3023
1,10,0,12.3015
1,10.1,0,12.3008
1,10.2,0,12.3005
1,10.3,0,12.3004
1,10.4,0,12.3003
1,10.5,0,12.3008
1,10.6,0,12.3014
1,10.7,0,12.3022
1,10.8,0,12.3036
1,10.9,0,12.3049
1,11,0,12.3068
1,11.1,0,12.3091
1,11.2,0,12.3114
1,11.3,0,12.3144
1,11.4,0,12.317
1,11.5,0,12.3197
1,11.6,0,12.3236
1,11.7,0,12.3273
1,11.8,0,12.3311
1,11.9,0,12.3356
1,12,0,12.3388
1,12.1,0,12.3422
1,12.2,0,12.3455
1,12.3,0,12.3477
1,12.4,0,12.3508
1,12.5,0,12.353
1,12.6,0,12.3546
1,12.7,0,12.3574
1.1,0,0,12.1709
1.1,0.1,0,12.1695
1.1,0.2,0,12.1679
1.1,0.3,0,12.1663
1.1,0.4,0,12.1644
1.1,0.5,0,12.1623
1.1,0.6,0,12.1602
1.1,0.7,0,12.1577
1.1,0.8,0,12.1548
1.1,0.9,0,12.1519
1.1,1,0,12.1492
1.1,1.1,0,12.1459
1.1,1.2,0,12.1425
1.1,1.3,0,12.1409
1.1,1.4,0,12.1387
1.1,1.5,0,12.1366
1.1,1.6,0,12.1353
1.1,1.7,0,12.1336
1.1,1.8,0,12.1319
1.1,1.9,0,12.1317
1.1,2,0,12.131
1.1,2.1,0,12.1304
1.1,2.2,0,12.1309
1.1,2.3,0,12.1311
1.1,2.4,0,12.1313
1.1,2.5,0,12.1325
1.1,2.6,0,12.1335
1.1,2.7,0,12.1345
1.1,2.8,0,12.1363
1.1,2.9,0,12.138
1.1,3,0,12.1396
1.1,3.1,0,12.142
1.1,3.2,0,12.1441
1.1,3.3,0,12.1462
1.1,3.4,0,12.1489
1.1,3.5,0,12.1514
1.1,3.6,0,12.1538
1.1,3.7,0,12.1568
1.1,3.8,0,12.1594
1.1,3.9,0,12.162
1.1,4,0,12.1651
1.1,4.1,0,12.1677
1.1,4.2,0,12.1704
1.1,4.3,0,12.1734
1.1,4.4,0,12.1759
1.1,4.5,0,12.1785
1.1,4.6,0,12.1811
1.1,4.7,0,12.1834
1.1,4.8,0,12.1857
1.1,4.9,0,12.188
1.1,5,0,12.19
1.1,5.1,0,12.1921
1.1,5.2,0,12.1947
1.1,5.3,0,12.197
1.1,5.4,0,12.1993
1.1,5.5,0,12.202
1.1,5.6,0,12.204
1.1,5.7,0,12.2061
1.1,5.8,0,12.2087
1.1,5.9,0,12.2107
1.1,6,0,12.2127
1.1,6.1,0,12.2179
1.1,6.2,0,12.2216
1.1,6.3,0,12.2245
1.1,6.4,0,12.2266
1.1,6.5,0,12.2276
1.1,6.6,0,12.2273
1.1,6.7,0,12.2259
1.1,6.8,0,12.2237
1.1,6.9,0,12.2209
1.1,7,0,12.217
1.1,7.1,0,12.2152
1.1,7.2,0,12.2139
1.1,7.3,0,12.2123
1.1,7.4,0,12.2107
1.1,7.5,0,12.2094
1.1,7.6,0,12.2078
1.1,7.7,0,12.2063
1.1,7.8,0,12.2049
1.1,7.9,0,12.2034
1.1,8,0,12.2023
1.1,8.1,0,12.2011
1.1,8.2,0,12.1996
1.1,8.3,0,12.1983
1.1,8.4,0,12.197
1.1,8.5,0,12.1951
1.1,8.6,0,12.1935
1.1,8.7,0,12.1919
1.1,8.8,0,12.1899
1.1,8.9,0,12.1882
1.1,9,0,12.1865
1.1,9.1,0,12.1844
1.1,9.2,0,12.1828
1.1,9.3,0,12.181
1.1,9.4,0,12.1793
1.1,9.5,0,12.1778
1.1,9.6,0,12.1762
1.1,9.7,0,12.175
1.1,9.8,0,12.1738
1.1,9.9,0,12.1725
1.1,10,0,12.1718
1.1,10.1,0,12.171
1.1,10.2,0,12.1703
1.1,10.3,0,12.1702
1.1,10.4,0,12.17
1.1,10.5,0,12.1701
1.1,10.6,0,12.1707
1.1,10.7,0,12.1712
1.1,10.8,0,12.1721
1.1,10.9,0,12.1734
1.1,11,0,12.1748
1.1,11.1,0,12.1767
1.1,11.2,0,12.179
1.1,11.3,0,12.1811
1.1,11.4,0,12.1836
1.1,11.5,0,12.1862
1.1,11.6,0,12.1887
1.1,11.7,0,12.1925
1.1,11.8,0,12.1962
1.1,11.9,0,12.1992
1.1,12,0,12.2023
1.1,12.1,0,12.2055
1.1,12.2,0,12.2077
1.1,12.3,0,12.2099
1.1,12.4,0,12.2121
1.1,12.5,0,12.2136
1.1,12.6,0,12.2152
1.1,12.7,0,12.2167
1.2,0,0,12.0437
1.2,0.1,0,12.0426
1.2,0.2,0,12.0411
1.2,0.3,0,12.0395
1.2,0.4,0,12.0381
1.2,0.5,0,12.0361
1.2,0.6,0,12.034
1.2,0.7,0,12.0322
1.2,0.8,0,12.0296
1.2,0.9,0,12.0267
1.2,1,0,12.0248
1.2,1.1,0,12.0218
1.2,1.2,0,12.0185
1.2,1.3,0,12.0175
1.2,1.4,0,12.0156
1.2,1.5,0,12.0135
1.2,1.6,0,12.0129
1.2,1.7,0,12.0115
1.2,1.8,0,12.0098
1.2,1.9,0,12.0101
1.2,2,0,12.0097
1.2,2.1,0,12.0091
1.2,2.2,0,12.01
1.2,2.3,0,12.0104
1.2,2.4,0,12.0106
1.2,2.5,0,12.0123
1.2,2.6,0,12.0134
1.2,2.7,0,12.0144
1.2,2.8,0,12.0166
1.2,2.9,0,12.0184
1.2,3,0,12.02
1.2,3.1,0,12.0228
1.2,3.2,0,12.0251
1.2,3.3,0,12.0272
1.2,3.4,0,12.0304
1.2,3.5,0,12.0331
1.2,3.6,0,12.0355
1.2,3.7,0,12.0391
1.2,3.8,0,12.042
1.2,3.9,0,12.0446
1.2,4,0,12.0482
1.2,4.1,0,12.0512
1.2,4.2,0,12.0538
1.2,4.3,0,12.0573
1.2,4.4,0,12.0601
1.2,4.5,0,12.0627
1.2,4.6,0,12.0658
1.2,4.7,0,12.0683
1.2,4.8,0,12.0706
1.2,4.9,0,12.0732
1.2,5,0,12.0754
1.2,5.1,0,12.0775
1.2,5.2,0,12.0805
1.2,5.3,0,12.083
1.2,5.4,0,12.0853
1.2,5.5,0,12.0888
1.2,5.6,0,12.0913
1.2,5.7,0,12.0933
1.2,5.8,0,12.0967
1.2,5.9,0,12.0991
1.2,6,0,12.1011
1.2,6.1,0,12.1066
1.2,6.2,0,12.1105
1.2,6.3,0,12.1137
1.2,6.4,0,12.1159
1.2,6.5,0,12.1169
1.2,6.6,0,12.1165
1.2,6.7,0,12.115
1.2,6.8,0,12.1126
1.2,6.9,0,12.1096
1.2,7,0,12.1054
1.2,7.1,0,12.1028
1.2,7.2,0,12.1012
1.2,7.3,0,12.0996
1.2,7.4,0,12.0968
1.2,7.5,0,12.0954
1.2,7.6,0,12.0939
1.2,7.7,0,12.0918
1.2,7.8,0,12.0903
1.2,7.9,0,12.0888
1.2,8,0,12.0872
1.2,8.1,0,12.0861
1.2,8.2,0,12.0844
1.2,8.3,0,12.0826
1.2,8.4,0,12.0812
1.2,8.5,0,12.079
1.2,8.6,0,12.077
1.2,8.7,0,12.0755
1.2,8.8,0,12.0729
1.2,8.9,0,12.0709
1.2,9,0,12.0691
1.2,9.1,0,12.0665
1.2,9.2,0,12.0646
1.2,9.3,0,12.0628
1.2,9.4,0,12.0604
1.2,9.5,0,12.0589
1.2,9.6,0,12.0573
1.2,9.7,0,12.0554
1.2,9.8,0,12.0542
1.2,9.9,0,12.0529
1.2,10,0,12.0516
1.2,10.1,0,12.0508
1.2,10.2,0,12.0499
1.2,10.3,0,12.0493
1.2,10.4,0,12.0492
1.2,10.5,0,12.0489
1.2,10.6,0,12.0491
1.2,10.7,0,12.0497
1.2,10.8,0,12.05
1.2,10.9,0,12.051
1.2,11,0,12.0523
1.2,11.1,0,12.0535
1.2,11.2,0,12.0556
1.2,11.3,0,12.0577
1.2,11.4,0,12.0592
1.2,11.5,0,12.0618
1.2,11.6,0,12.0643
1.2,11.7,0,12.0668
1.2,11.8,0,12.0705
1.2,11.9,0,12.0734
1.2,12,0,12.0758
1.2,12.1,0,12.0789
1.2,12.2,0,12.0809
1.2,12.3,0,12.0828
1.2,12.4,0,12.085
1.2,12.5,0,12.0862
1.2,12.6,0,12.0876
1.2,12.7,0,12.0892
1.3,0,0,11.9165
1.3,0.1,0,11.9154
1.3,0.2,0,11.9143
1.3,0.3,0,11.9127
1.3,0.4,0,11.9113
1.3,0.5,0,11.9099
1.3,0.6,0,11.9078
1.3,0.7,0,11.906
1.3,0.8,0,11.9041
1.3,0.9,0,11.9014
1.3,1,0,11.8995
1.3,1.1,0,11.8976
1.3,1.2,0,11.8944
1.3,1.3,0,11.8934
1.3,1.4,0,11.8924
1.3,1.5,0,11.8904
1.3,1.6,0,11.8898
1.3,1.7,0,11.8892
1.3,1.8,0,11.8876
1.3,1.9,0,11.8879
1.3,2,0,11.8882
1.3,2.1,0,11.8877
1.3,2.2,0,11.8887
1.3,2.3,0,11.8896
1.3,2.4,0,11.8899
1.3,2.5,0,11.8916
1.3,2.6,0,11.8932
1.3,2.7,0,11.8943
1.3,2.8,0,11.8965
1.3,2.9,0,11.8988
1.3,3,0,11.9005
1.3,3.1,0,11.9033
1.3,3.2,0,11.9061
1.3,3.3,0,11.9083
1.3,3.4,0,11.9115
1.3,3.5,0,11.9147
1.3,3.6,0,11.9173
1.3,3.7,0,11.9208
1.3,3.8,0,11.9244
1.3,3.9,0,11.9271