x,y,z,U_0,U_1,U_2
0,0,0,0.3,-0.000235335,0
0,0.1,0,0.3,-0.000168096,0
0,0.2,0,0.3,-0.000100858,0
0,0.3,0,0.3,-3.36192e-05,0
0,0.4,0,0.3,0,0
0,0.5,0,0.3,0,0
0,0.6,0,0.3,0,0
0,0.7,0,0.3,-1.05823e-19,0
0,0.8,0,0.3,0,0
0,0.9,0,0.3,0,0
0,1,0,0.3,0,0
0,1.1,0,0.3,0,0
0,1.2,0,0.3,0,0
0,1.3,0,0.3,0,0
0,1.4,0,0.3,-1.03802e-19,0
0,1.5,0,0.3,0,0
0,1.6,0,0.3,0,0
0,1.7,0,0.3,0,0
0,1.8,0,0.3,0,0
0,1.9,0,0.3,0,0
0,2,0,0.3,0,0
0,2.1,0,0.3,0,0
0,2.2,0,0.3,0,0
0,2.3,0,0.3,0,0
0,2.4,0,0.3,0,0
0,2.5,0,0.3,0,0
0,2.6,0,0.3,0,0
0,2.7,0,0.3,0,0
0,2.8,0,0.3,-9.43403e-20,0
0,2.9,0,0.3,0,0
0,3,0,0.3,0,0
0,3.1,0,0.3,0,0
0,3.2,0,0.3,0,0
0,3.3,0,0.3,0,0
0,3.4,0,0.3,0,0
0,3.5,0,0.3,0,0
0,3.6,0,0.3,0,0
0,3.7,0,0.3,0,0
0,3.8,0,0.3,0,0
0,3.9,0,0.3,0,0
0,4,0,0.3,0,0
0,4.1,0,0.3,0,0
0,4.2,0,0.3,0,0
0,4.3,0,0.3,0,0
0,4.4,0,0.3,0,0
0,4.5,0,0.3,0,0
0,4.6,0,0.3,0,0
0,4.7,0,0.3,0,0
0,4.8,0,0.3,0,0
0,4.9,0,0.3,0,0
0,5,0,0.3,0,0
0,5.1,0,0.3,0,0
0,5.2,0,0.3,0,0
0,5.3,0,0.3,0,0
0,5.4,0,0.3,0,0
0,5.5,0,0.3,0,0
0,5.6,0,0.3,0,0
0,5.7,0,0.3,0,0
0,5.8,0,0.3,0,0
0,5.9,0,0.3,0,0
0,6,0,0.3,0,0
0,6.1,0,0.3,0,0
0,6.2,0,0.3,0,0
0,6.3,0,0.3,0,0
0,6.4,0,0.3,0,0
0,6.5,0,0.3,0,0
0,6.6,0,0.3,0,0
0,6.7,0,0.3,0,0
0,6.8,0,0.3,0,0
0,6.9,0,0.3,0,0
0,7,0,0.3,0,0
0,7.1,0,0.3,0,0
0,7.2,0,0.3,0,0
0,7.3,0,0.3,0,0
0,7.4,0,0.3,0,0
0,7.5,0,0.3,0,0
0,7.6,0,0.3,2.76388e-20,0
0,7.7,0,0.3,0,0
0,7.8,0,0.3,0,0
0,7.9,0,0.3,3.81159e-20,0
0,8,0,0.3,0,0
0,8.1,0,0.3,0,0
0,8.2,0,0.3,0,0
0,8.3,0,0.3,0,0
0,8.4,0,0.3,0,0
0,8.5,0,0.3,0,0
0,8.6,0,0.3,0,0
0,8.7,0,0.3,0,0
0,8.8,0,0.3,0,0
0,8.9,0,0.3,0,0
0,9,0,0.3,0,0
0,9.1,0,0.3,0,0
0,9.2,0,0.3,0,0
0,9.3,0,0.3,0,0
0,9.4,0,0.3,0,0
0,9.5,0,0.3,0,0
0,9.6,0,0.3,0,0
0,9.7,0,0.3,0,0
0,9.8,0,0.3,0,0
0,9.9,0,0.3,0,0
0,10,0,0.3,0,0
0,10.1,0,0.3,0,0
0,10.2,0,0.3,0,0
0,10.3,0,0.3,0,0
0,10.4,0,0.3,0,0
0,10.5,0,0.3,0,0
0,10.6,0,0.3,0,0
0,10.7,0,0.3,0,0
0,10.8,0,0.3,0,0
0,10.9,0,0.3,0,0
0,11,0,0.3,0,0
0,11.1,0,0.3,0,0
0,11.2,0,0.3,0,0
0,11.3,0,0.3,0,0
0,11.4,0,0.3,0,0
0,11.5,0,0.3,0,0
0,11.6,0,0.3,0,0
0,11.7,0,0.3,0,0
0,11.8,0,0.3,0,0
0,11.9,0,0.3,0,0
0,12,0,0.3,0,0
0,12.1,0,0.3,0,0
0,12.2,0,0.3,0,0
0,12.3,0,0.3,0,0
0,12.4,0,0.3,0,0
0,12.5,0,0.3,4.41196e-05,0
0,12.6,0,0.3,0.000170175,0
0,12.7,0,0.3,0.000296231,0
0.1,0,0,0.3,-0.000396138,0
0.1,0.1,0,0.3,-0.000328649,0
0.1,0.2,0,0.3,-0.00026141,0
0.1,0.3,0,0.3,-0.000212825,0
0.1,0.4,0,0.3,-0.000212411,0
0.1,0.5,0,0.3,-0.000212205,0
0.1,0.6,0,0.3,-0.000212205,0
0.1,0.7,0,0.299999,-0.000211816,0
0.1,0.8,0,0.3,-0.000210884,0
0.1,0.9,0,0.3,-0.000210884,0
0.1,1,0,0.3,-0.000210627,0
0.1,1.1,0,0.3,-0.00020931,0
0.1,1.2,0,0.3,-0.000208835,0
0.1,1.3,0,0.3,-0.000208835,0
0.1,1.4,0,0.299998,-0.000207771,0
0.1,1.5,0,0.3,-0.000205983,0
0.1,1.6,0,0.3,-0.000205983,0
0.1,1.7,0,0.299999,-0.000205471,0
0.1,1.8,0,0.299999,-0.000203052,0
0.1,1.9,0,0.3,-0.00020222,0
0.1,2,0,0.3,-0.00020222,0
0.1,2.1,0,0.299997,-0.000200402,0
0.1,2.2,0,0.3,-0.000197412,0
0.1,2.3,0,0.3,-0.000197412,0
0.1,2.4,0,0.299998,-0.000196624,0
0.1,2.5,0,0.299998,-0.000192761,0
0.1,2.6,0,0.3,-0.000191403,0
0.1,2.7,0,0.3,-0.000191403,0
0.1,2.8,0,0.299995,-0.000188832,0
0.1,2.9,0,0.299999,-0.000184022,0
0.1,3,0,0.299999,-0.000184022,0
0.1,3.1,0,0.299997,-0.000182997,0
0.1,3.2,0,0.299997,-0.000177259,0
0.1,3.3,0,0.299999,-0.000175097,0
0.1,3.4,0,0.299999,-0.000175097,0
0.1,3.5,0,0.299993,-0.000172042,0
0.1,3.6,0,0.299999,-0.000164479,0
0.1,3.7,0,0.299999,-0.000164479,0
0.1,3.8,0,0.299996,-0.000163374,0
0.1,3.9,0,0.299996,-0.000155402,0
0.1,4,0,0.299999,-0.000152078,0
0.1,4.1,0,0.299999,-0.000152078,0
0.1,4.2,0,0.299991,-0.000149081,0
0.1,4.3,0,0.299998,-0.000137912,0
0.1,4.4,0,0.299998,-0.000137912,0
0.1,4.5,0,0.299995,-0.000136885,0
0.1,4.6,0,0.299995,-0.000126753,0
0.1,4.7,0,0.299998,-0.000122151,0
0.1,4.8,0,0.299998,-0.000122151,0
0.1,4.9,0,0.299988,-0.000119172,0
0.1,5,0,0.299999,-0.000105117,0
0.1,5.1,0,0.299999,-0.000105117,0
0.1,5.2,0,0.299995,-0.000103796,0
0.1,5.3,0,0.299996,-9.22912e-05,0
0.1,5.4,0,0.300001,-8.72209e-05,0
0.1,5.5,0,0.300001,-8.72209e-05,0
0.1,5.6,0,0.299986,-8.17387e-05,0
0.1,5.7,0,0.300006,-6.87987e-05,0
0.1,5.8,0,0.300006,-6.87987e-05,0
0.1,5.9,0,0.299998,-6.57223e-05,0
0.1,6,0,0.300003,-5.359e-05,0
0.1,6.1,0,0.300012,-4.99262e-05,0
0.1,6.2,0,0.300012,-4.99262e-05,0
0.1,6.3,0,0.299983,-3.68988e-05,0
0.1,6.4,0,0.300021,-3.02443e-05,0
0.1,6.5,0,0.300021,-3.02443e-05,0
0.1,6.6,0,0.300007,-2.37407e-05,0
0.1,6.7,0,0.300012,-1.09878e-05,0
0.1,6.8,0,0.300029,-1.04064e-05,0
0.1,6.9,0,0.300029,-1.04064e-05,0
0.1,7,0,0.29998,8.97517e-06,0
0.1,7.1,0,0.299979,2.03188e-05,0
0.1,7.2,0,0.299979,2.73032e-05,0
0.1,7.3,0,0.299979,3.4284e-05,0
0.1,7.4,0,0.299979,4.12876e-05,0
0.1,7.5,0,0.299979,4.83044e-05,0
0.1,7.6,0,0.299979,5.53217e-05,0
0.1,7.7,0,0.299979,6.23278e-05,0
0.1,7.8,0,0.299979,6.93133e-05,0
0.1,7.9,0,0.299979,7.62928e-05,0
0.1,8,0,0.29998,8.56522e-05,0
0.1,8.1,0,0.300032,9.94329e-05,0
0.1,8.2,0,0.300015,9.96558e-05,0
0.1,8.3,0,0.300027,0.000114974,0
0.1,8.4,0,0.300027,0.000114974,0
0.1,8.5,0,0.300005,0.000124241,0
0.1,8.6,0,0.300021,0.000129689,0
0.1,8.7,0,0.299987,0.000132846,0
0.1,8.8,0,0.300015,0.000143602,0
0.1,8.9,0,0.300008,0.00014483,0
0.1,9,0,0.300009,0.000156667,0
0.1,9.1,0,0.300009,0.000156667,0
0.1,9.2,0,0.299995,0.000166306,0
0.1,9.3,0,0.300005,0.000169025,0
0.1,9.4,0,0.29999,0.000176256,0
0.1,9.5,0,0.300001,0.000180825,0
0.1,9.6,0,0.299999,0.000182266,0
0.1,9.7,0,0.299999,0.000192171,0
0.1,9.8,0,0.299999,0.000192171,0
0.1,9.9,0,0.299992,0.000203386,0
0.1,10,0,0.299998,0.000203095,0
0.1,10.1,0,0.299992,0.000211518,0
0.1,10.2,0,0.299997,0.000213559,0
0.1,10.3,0,0.299997,0.000214057,0
0.1,10.4,0,0.299997,0.000223549,0
0.1,10.5,0,0.299997,0.000223473,0
0.1,10.6,0,0.299993,0.000234066,0
0.1,10.7,0,0.299997,0.000232719,0
0.1,10.8,0,0.299994,0.000239039,0
0.1,10.9,0,0.299997,0.000241176,0
0.1,11,0,0.299997,0.000241176,0
0.1,11.1,0,0.299997,0.000248961,0
0.1,11.2,0,0.299998,0.000248742,0
0.1,11.3,0,0.299995,0.000256441,0
0.1,11.4,0,0.299998,0.000255335,0
0.1,11.5,0,0.299996,0.000258864,0
0.1,11.6,0,0.299999,0.000260896,0
0.1,11.7,0,0.299999,0.000260896,0
0.1,11.8,0,0.299998,0.000265656,0
0.1,11.9,0,0.299999,0.000265389,0
0.1,12,0,0.299997,0.000269873,0
0.1,12.1,0,0.299999,0.000268788,0
0.1,12.2,0,0.299999,0.000270355,0
0.1,12.3,0,0.3,0.000271061,0
0.1,12.4,0,0.3,0.000271061,0
0.1,12.5,0,0.3,0.000272788,0
0.1,12.6,0,0.3,0.000376551,0
0.1,12.7,0,0.299999,0.000504883,0
0.2,0,0,0.3,-0.000556942,0
0.2,0.1,0,0.3,-0.000489381,0
0.2,0.2,0,0.3,-0.000425694,0
0.2,0.3,0,0.299999,-0.000425607,0
0.2,0.4,0,0.299999,-0.000425193,0
0.2,0.5,0,0.3,-0.000424452,0
0.2,0.6,0,0.299999,-0.000424132,0
0.2,0.7,0,0.299998,-0.000423631,0
0.2,0.8,0,0.299999,-0.000422434,0
0.2,0.9,0,0.3,-0.000421717,0
0.2,1,0,0.299998,-0.000420792,0
0.2,1.1,0,0.299998,-0.000419475,0
0.2,1.2,0,0.3,-0.000417765,0
0.2,1.3,0,0.299999,-0.00041691,0
0.2,1.4,0,0.299996,-0.000415541,0
0.2,1.5,0,0.299998,-0.000413242,0
0.2,1.6,0,0.299999,-0.000411863,0
0.2,1.7,0,0.299996,-0.000410022,0
0.2,1.8,0,0.299996,-0.000407603,0
0.2,1.9,0,0.299999,-0.000404606,0
0.2,2,0,0.299997,-0.000403142,0
0.2,2.1,0,0.299994,-0.000400805,0
0.2,2.2,0,0.299997,-0.00039696,0
0.2,2.3,0,0.299999,-0.000394666,0
0.2,2.4,0,0.299995,-0.000391829,0
0.2,2.5,0,0.299995,-0.000387966,0
0.2,2.6,0,0.299999,-0.000383078,0
0.2,2.7,0,0.299996,-0.000380969,0
0.2,2.8,0,0.299991,-0.000377663,0
0.2,2.9,0,0.299995,-0.00037148,0
0.2,3,0,0.299998,-0.000367839,0
0.2,3.1,0,0.299992,-0.000364149,0
0.2,3.2,0,0.299992,-0.000358412,0
0.2,3.3,0,0.299998,-0.000350626,0
0.2,3.4,0,0.299994,-0.000348012,0
0.2,3.5,0,0.299986,-0.000344084,0
0.2,3.6,0,0.299993,-0.00033436,0
0.2,3.7,0,0.299997,-0.000328736,0
0.2,3.8,0,0.299988,-0.00032476,0
0.2,3.9,0,0.299988,-0.000316788,0
0.2,4,0,0.299997,-0.00030482,0
0.2,4.1,0,0.299992,-0.000302015,0
0.2,4.2,0,0.299982,-0.000298162,0
0.2,4.3,0,0.299991,-0.000283802,0
0.2,4.4,0,0.299996,-0.000275619,0
0.2,4.5,0,0.299985,-0.000271922,0
0.2,4.6,0,0.299985,-0.00026179,0
0.2,4.7,0,0.299996,-0.000245222,0
0.2,4.8,0,0.299989,-0.000242174,0
0.2,4.9,0,0.299977,-0.000238344,0
0.2,5,0,0.299991,-0.000220274,0
0.2,5.1,0,0.299997,-0.00020997,0
0.2,5.2,0,0.299982,-0.000205214,0
0.2,5.3,0,0.299984,-0.000193709,0
0.2,5.4,0,0.300002,-0.000175456,0
0.2,5.5,0,0.299992,-0.000170526,0
0.2,5.6,0,0.299972,-0.000163477,0
0.2,5.7,0,0.299998,-0.00014684,0
0.2,5.8,0,0.30001,-0.000136982,0
0.2,5.9,0,0.299983,-0.000125907,0
0.2,6,0,0.299987,-0.000113775,0
0.2,6.1,0,0.300023,-0.000100585,0
0.2,6.2,0,0.300004,-9.05472e-05,0
0.2,6.3,0,0.299966,-7.37976e-05,0
0.2,6.4,0,0.300015,-6.52418e-05,0
0.2,6.5,0,0.300039,-5.91879e-05,0
0.2,6.6,0,0.299988,-3.57751e-05,0
0.2,6.7,0,0.299993,-2.30222e-05,0
0.2,6.8,0,0.300054,-2.09292e-05,0
0.2,6.9,0,0.300023,-6.96888e-06,0
0.2,7,0,0.29996,1.79503e-05,0
0.2,7.1,0,0.299958,4.06377e-05,0
0.2,7.2,0,0.299958,5.46064e-05,0
0.2,7.3,0,0.299957,6.8568e-05,0
0.2,7.4,0,0.299957,8.25752e-05,0
0.2,7.5,0,0.299957,9.66089e-05,0
0.2,7.6,0,0.299957,0.000110643,0
0.2,7.7,0,0.299957,0.000124656,0
0.2,7.8,0,0.299958,0.000138627,0
0.2,7.9,0,0.299958,0.000152586,0
0.2,8,0,0.299959,0.000171304,0
0.2,8.1,0,0.30006,0.000197693,0
0.2,8.2,0,0.299996,0.000199764,0
0.2,8.3,0,0.300019,0.00021872,0
0.2,8.4,0,0.300024,0.000231208,0
0.2,8.5,0,0.299986,0.000241126,0
0.2,8.6,0,0.300043,0.000259378,0
0.2,8.7,0,0.29997,0.000266027,0
0.2,8.8,0,0.300024,0.00028532,0
0.2,8.9,0,0.299992,0.00029368,0
0.2,9,0,0.299997,0.000306681,0
0.2,9.1,0,0.300005,0.000317362,0
0.2,9.2,0,0.299981,0.000330116,0
0.2,9.3,0,0.30001,0.00033805,0
0.2,9.4,0,0.299977,0.000354225,0
0.2,9.5,0,0.299999,0.000360861,0
0.2,9.6,0,0.299987,0.000373508,0
0.2,9.7,0,0.299988,0.000383462,0
0.2,9.8,0,0.299993,0.000389676,0
0.2,9.9,0,0.299981,0.000406954,0
0.2,10,0,0.299996,0.000406189,0
0.2,10.1,0,0.299981,0.00042643,0
0.2,10.2,0,0.299991,0.000427622,0
0.2,10.3,0,0.299987,0.000439317,0
0.2,10.4,0,0.299987,0.000448809,0
0.2,10.5,0,0.299992,0.000451092,0
0.2,10.6,0,0.299984,0.000468674,0
0.2,10.7,0,0.299995,0.000465437,0
0.2,10.8,0,0.299986,0.000482,0
0.2,10.9,0,0.299992,0.000483188,0
0.2,11,0,0.29999,0.000491014,0
0.2,11.1,0,0.29999,0.000499285,0
0.2,11.2,0,0.299994,0.000499687,0
0.2,11.3,0,0.299989,0.000513145,0
0.2,11.4,0,0.299996,0.000510669,0
0.2,11.5,0,0.299991,0.000520968,0
0.2,11.6,0,0.299995,0.000522473,0
0.2,11.7,0,0.299995,0.000526588,0
0.2,11.8,0,0.299994,0.000532187,0
0.2,11.9,0,0.299998,0.00053161,0
0.2,12,0,0.299994,0.000539861,0
0.2,12.1,0,0.299998,0.000537575,0
0.2,12.2,0,0.299996,0.000542825,0
0.2,12.3,0,0.299998,0.000543052,0
0.2,12.4,0,0.299999,0.000544322,0
0.2,12.5,0,0.299999,0.000546762,0
0.2,12.6,0,0.3,0.00058312,0
0.2,12.7,0,0.299999,0.000713535,0
0.3,0,0,0.299999,-0.000717745,0
0.3,0.1,0,0.3,-0.000650184,0
0.3,0.2,0,0.299999,-0.000638583,0
0.3,0.3,0,0.299999,-0.000638389,0
0.3,0.4,0,0.299999,-0.000637975,0
0.3,0.5,0,0.299999,-0.000637067,0
0.3,0.6,0,0.299999,-0.000635948,0
0.3,0.7,0,0.299997,-0.000635447,0
0.3,0.8,0,0.299999,-0.00063425,0
0.3,0.9,0,0.299998,-0.000632282,0
0.3,1,0,0.299997,-0.000630957,0
0.3,1.1,0,0.299997,-0.00062964,0
0.3,1.2,0,0.299998,-0.000627474,0
0.3,1.3,0,0.299997,-0.00062468,0
0.3,1.4,0,0.299994,-0.000623312,0
0.3,1.5,0,0.299996,-0.000621013,0
0.3,1.6,0,0.299996,-0.00061718,0
0.3,1.7,0,0.299994,-0.000614573,0
0.3,1.8,0,0.299994,-0.000612154,0
0.3,1.9,0,0.299995,-0.000608378,0
0.3,2,0,0.299994,-0.000603544,0
0.3,2.1,0,0.299991,-0.000601207,0
0.3,2.2,0,0.299994,-0.000597362,0
0.3,2.3,0,0.299994,-0.000591153,0
0.3,2.4,0,0.299991,-0.000587034,0
0.3,2.5,0,0.299991,-0.000583171,0
0.3,2.6,0,0.299993,-0.000577181,0
0.3,2.7,0,0.299991,-0.000569801,0
0.3,2.8,0,0.299986,-0.000566495,0
0.3,2.9,0,0.299991,-0.000560311,0
0.3,3,0,0.299991,-0.000551053,0
0.3,3.1,0,0.299986,-0.000545301,0
0.3,3.2,0,0.299986,-0.000539564,0
0.3,3.3,0,0.29999,-0.000530469,0
0.3,3.4,0,0.299987,-0.000520054,0
0.3,3.5,0,0.299979,-0.000516126,0
0.3,3.6,0,0.299987,-0.000506402,0
0.3,3.7,0,0.299987,-0.000493363,0
0.3,3.8,0,0.29998,-0.000486145,0
0.3,3.9,0,0.29998,-0.000478173,0
0.3,4,0,0.299986,-0.000464922,0
0.3,4.1,0,0.299983,-0.000451096,0
0.3,4.2,0,0.299973,-0.000447243,0
0.3,4.3,0,0.299982,-0.000432883,0
0.3,4.4,0,0.299982,-0.000415443,0
0.3,4.5,0,0.299974,-0.000406959,0
0.3,4.6,0,0.299974,-0.000396827,0
0.3,4.7,0,0.299981,-0.000378982,0
0.3,4.8,0,0.299978,-0.000361345,0
0.3,4.9,0,0.299965,-0.000357515,0
0.3,5,0,0.299979,-0.000339445,0
0.3,5.1,0,0.29998,-0.000317411,0
0.3,5.2,0,0.29997,-0.000306631,0
0.3,5.3,0,0.299971,-0.000295126,0
0.3,5.4,0,0.299982,-0.000274524,0
0.3,5.5,0,0.299978,-0.000252265,0
0.3,5.6,0,0.299958,-0.000245216,0
0.3,5.7,0,0.299984,-0.000228579,0
0.3,5.8,0,0.299986,-0.000202713,0
0.3,5.9,0,0.299968,-0.000186092,0
0.3,6,0,0.299972,-0.00017396,0
0.3,6.1,0,0.299995,-0.000155187,0
0.3,6.2,0,0.299987,-0.000127446,0
0.3,6.3,0,0.299949,-0.000110696,0
0.3,6.4,0,0.299998,-0.000102141,0
0.3,6.5,0,0.300004,-7.40742e-05,0
0.3,6.6,0,0.299969,-4.78094e-05,0
0.3,6.7,0,0.299974,-3.50565e-05,0
0.3,6.8,0,0.300015,-2.46571e-05,0
0.3,6.9,0,0.300002,2.00628e-06,0
0.3,7,0,0.299939,2.69255e-05,0
0.3,7.1,0,0.299937,6.09565e-05,0
0.3,7.2,0,0.299937,8.19096e-05,0
0.3,7.3,0,0.299936,0.000102852,0
0.3,7.4,0,0.299936,0.000123863,0
0.3,7.5,0,0.299936,0.000144913,0
0.3,7.6,0,0.299936,0.000165965,0
0.3,7.7,0,0.299936,0.000186983,0
0.3,7.8,0,0.299937,0.00020794,0
0.3,7.9,0,0.299937,0.000228878,0
0.3,8,0,0.299939,0.000256957,0
0.3,8.1,0,0.300018,0.000283626,0
0.3,8.2,0,0.299976,0.000299873,0
0.3,8.3,0,0.3,0.000318828,0
0.3,8.4,0,0.300006,0.000348094,0
0.3,8.5,0,0.299968,0.000358011,0
0.3,8.6,0,0.300006,0.000385983,0
0.3,8.7,0,0.299953,0.000399208,0
0.3,8.8,0,0.299998,0.000420175,0
0.3,8.9,0,0.299977,0.000442529,0
0.3,9,0,0.299982,0.00045553,0
0.3,9.1,0,0.299991,0.000481171,0
0.3,9.2,0,0.299966,0.000493926,0
0.3,9.3,0,0.299987,0.000511905,0
0.3,9.4,0,0.299964,0.000532194,0
0.3,9.5,0,0.299982,0.000541157,0
0.3,9.6,0,0.299975,0.000564749,0
0.3,9.7,0,0.299975,0.000574704,0
0.3,9.8,0,0.299982,0.000593214,0
0.3,9.9,0,0.29997,0.000610522,0
0.3,10,0,0.29998,0.000619045,0
0.3,10.1,0,0.299971,0.000641342,0
0.3,10.2,0,0.29998,0.000644028,0
0.3,10.3,0,0.299977,0.000664577,0
0.3,10.4,0,0.299977,0.000674069,0
0.3,10.5,0,0.299982,0.000685929,0
0.3,10.6,0,0.299975,0.000703282,0
0.3,10.7,0,0.299983,0.000706855,0
0.3,10.8,0,0.299978,0.000724961,0
0.3,10.9,0,0.299984,0.000726442,0
0.3,11,0,0.299983,0.000741338,0
0.3,11.1,0,0.299983,0.00074961,0
0.3,11.2,0,0.299987,0.000756743,0
0.3,11.3,0,0.299982,0.000769848,0
0.3,11.4,0,0.299989,0.000771332,0
0.3,11.5,0,0.299986,0.000783072,0
0.3,11.6,0,0.29999,0.000784578,0
0.3,11.7,0,0.299991,0.000793119,0
0.3,11.8,0,0.29999,0.000798719,0
0.3,11.9,0,0.299994,0.000801962,0
0.3,12,0,0.299991,0.00080985,0
0.3,12.1,0,0.299994,0.000809431,0
0.3,12.2,0,0.299994,0.000815296,0
0.3,12.3,0,0.299996,0.000815522,0
0.3,12.4,0,0.299998,0.000818296,0
0.3,12.5,0,0.299998,0.000820735,0
0.3,12.6,0,0.299999,0.000819818,0
0.3,12.7,0,0.299998,0.000922187,0
0.4,0,0,0.299999,-0.000878549,0
0.4,0.1,0,0.299999,-0.000852025,0
0.4,0.2,0,0.299999,-0.000851616,0
0.4,0.3,0,0.299998,-0.000851207,0
0.4,0.4,0,0.299998,-0.000850701,0
0.4,0.5,0,0.299998,-0.000849459,0
0.4,0.6,0,0.299997,-0.000848217,0
0.4,0.7,0,0.299997,-0.000847263,0
0.4,0.8,0,0.299997,-0.0008455,0
0.4,0.9,0,0.299996,-0.000843378,0
0.4,1,0,0.299996,-0.000841255,0
0.4,1.1,0,0.299995,-0.000839653,0
0.4,1.2,0,0.299995,-0.000836574,0
0.4,1.3,0,0.299994,-0.000833496,0
0.4,1.4,0,0.299992,-0.000831082,0
0.4,1.5,0,0.299993,-0.000827659,0
0.4,1.6,0,0.299992,-0.000823519,0
0.4,1.7,0,0.299991,-0.000819379,0
0.4,1.8,0,0.299991,-0.000816445,0
0.4,1.9,0,0.29999,-0.000811112,0
0.4,2,0,0.299989,-0.000805778,0
0.4,2.1,0,0.299988,-0.000801609,0
0.4,2.2,0,0.299988,-0.000796031,0
0.4,2.3,0,0.299987,-0.000789349,0
0.4,2.4,0,0.299986,-0.000782667,0
0.4,2.5,0,0.299986,-0.000778009,0
0.4,2.6,0,0.299985,-0.000769815,0
0.4,2.7,0,0.299984,-0.00076162,0
0.4,2.8,0,0.299981,-0.000755326,0
0.4,2.9,0,0.299982,-0.000746888,0
0.4,3,0,0.299981,-0.000737014,0
0.4,3.1,0,0.29998,-0.000727141,0
0.4,3.2,0,0.299979,-0.000720279,0
0.4,3.3,0,0.299978,-0.000708566,0
0.4,3.4,0,0.299977,-0.000696853,0
0.4,3.5,0,0.299973,-0.000688168,0
0.4,3.6,0,0.299975,-0.000676013,0
0.4,3.7,0,0.299973,-0.000662312,0
0.4,3.8,0,0.299972,-0.000648611,0
0.4,3.9,0,0.299971,-0.000639131,0
0.4,4,0,0.29997,-0.000623311,0
0.4,4.1,0,0.299968,-0.00060749,0
0.4,4.2,0,0.299964,-0.000596324,0
0.4,4.3,0,0.299966,-0.000579705,0
0.4,4.4,0,0.299965,-0.000561648,0
0.4,4.5,0,0.299963,-0.000543591,0
0.4,4.6,0,0.299963,-0.000531438,0
0.4,4.7,0,0.299961,-0.00051104,0
0.4,4.8,0,0.29996,-0.000490642,0
0.4,4.9,0,0.299954,-0.000476687,0
0.4,5,0,0.299958,-0.00045571,0
0.4,5.1,0,0.299957,-0.000432884,0
0.4,5.2,0,0.299955,-0.000410057,0
0.4,5.3,0,0.299956,-0.000395761,0
0.4,5.4,0,0.299955,-0.000370459,0
0.4,5.5,0,0.299953,-0.000345158,0
0.4,5.6,0,0.299944,-0.000326955,0
0.4,5.7,0,0.299953,-0.00030355,0
0.4,5.8,0,0.299951,-0.000275838,0
0.4,5.9,0,0.299949,-0.000248125,0
0.4,6,0,0.299952,-0.000232283,0
0.4,6.1,0,0.29995,-0.000202344,0
0.4,6.2,0,0.299948,-0.000172405,0
0.4,6.3,0,0.299932,-0.000147595,0
0.4,6.4,0,0.29995,-0.000124732,0
0.4,6.5,0,0.299947,-9.2763e-05,0
0.4,6.6,0,0.299945,-6.07944e-05,0
0.4,6.7,0,0.299949,-4.4322e-05,0
0.4,6.8,0,0.299947,-1.73098e-05,0
0.4,6.9,0,0.299945,9.7024e-06,0
0.4,7,0,0.299919,3.59007e-05,0
0.4,7.1,0,0.299917,8.12753e-05,0
0.4,7.2,0,0.299916,0.000109213,0
0.4,7.3,0,0.299915,0.000137136,0
0.4,7.4,0,0.299914,0.00016515,0
0.4,7.5,0,0.299914,0.000193218,0
0.4,7.6,0,0.299914,0.000221287,0
0.4,7.7,0,0.299915,0.000249311,0
0.4,7.8,0,0.299916,0.000277253,0
0.4,7.9,0,0.299916,0.000305171,0
0.4,8,0,0.299918,0.000342609,0
0.4,8.1,0,0.299946,0.000369954,0
0.4,8.2,0,0.299948,0.000397636,0
0.4,8.3,0,0.299946,0.000420361,0
0.4,8.4,0,0.299949,0.000452486,0
0.4,8.5,0,0.299947,0.000475156,0
0.4,8.6,0,0.29995,0.00050636,0
0.4,8.7,0,0.299936,0.000532388,0
0.4,8.8,0,0.29995,0.000558603,0
0.4,8.9,0,0.299953,0.000588607,0
0.4,9,0,0.299951,0.000609015,0
0.4,9.1,0,0.299953,0.000637663,0
0.4,9.2,0,0.299952,0.000657736,0
0.4,9.3,0,0.299955,0.000684659,0
0.4,9.4,0,0.299951,0.000710164,0
0.4,9.5,0,0.299956,0.000729542,0
0.4,9.6,0,0.299958,0.000754958,0
0.4,9.7,0,0.299957,0.00077225,0
0.4,9.8,0,0.299959,0.000795853,0
0.4,9.9,0,0.299958,0.000814089,0
0.4,10,0,0.299961,0.00083443,0
0.4,10.1,0,0.29996,0.000856255,0
0.4,10.2,0,0.299962,0.000870641,0
0.4,10.3,0,0.299964,0.000890456,0
0.4,10.4,0,0.299965,0.000904423,0
0.4,10.5,0,0.299966,0.000922324,0
0.4,10.6,0,0.299966,0.000937891,0
0.4,10.7,0,0.299969,0.000951706,0
0.4,10.8,0,0.29997,0.000967923,0
0.4,10.9,0,0.299972,0.000978551,0
0.4,11,0,0.299973,0.00099265,0
0.4,11.1,0,0.299974,0.00100281,0
0.4,11.2,0,0.299976,0.00101503,0
0.4,11.3,0,0.299976,0.00102655,0
0.4,11.4,0,0.299979,0.00103481,0
0.4,11.5,0,0.299981,0.00104518,0
0.4,11.6,0,0.299982,0.00105196,0
0.4,11.7,0,0.299984,0.00106043,0
0.4,11.8,0,0.299985,0.00106647,0
0.4,11.9,0,0.299987,0.00107309,0
0.4,12,0,0.299988,0.00107984,0
0.4,12.1,0,0.29999,0.0010831,0
0.4,12.2,0,0.299992,0.00108786,0
0.4,12.3,0,0.299993,0.00109044,0
0.4,12.4,0,0.299995,0.00109332,0
0.4,12.5,0,0.299996,0.0010951,0
0.4,12.6,0,0.299997,0.00109607,0
0.4,12.7,0,0.299998,0.00113084,0
0.5,0,0,0.299999,-0.00106599,0
0.5,0.1,0,0.299999,-0.00106538,0
0.5,0.2,0,0.299998,-0.00106497,0
0.5,0.3,0,0.299998,-0.00106456,0
0.5,0.4,0,0.299997,-0.00106342,0
0.5,0.5,0,0.299997,-0.00106218,0
0.5,0.6,0,0.299996,-0.00106094,0
0.5,0.7,0,0.299995,-0.00105959,0
0.5,0.8,0,0.299995,-0.00105695,0
0.5,0.9,0,0.299994,-0.00105483,0
0.5,1,0,0.299994,-0.00105271,0
0.5,1.1,0,0.299992,-0.00104914,0
0.5,1.2,0,0.299992,-0.00104606,0
0.5,1.3,0,0.299991,-0.00104298,0
0.5,1.4,0,0.299989,-0.00103948,0
0.5,1.5,0,0.299989,-0.00103443,0
0.5,1.6,0,0.299988,-0.00103029,0
0.5,1.7,0,0.299987,-0.00102615,0
0.5,1.8,0,0.299986,-0.00101967,0
0.5,1.9,0,0.299985,-0.00101434,0
0.5,2,0,0.299984,-0.001009,0
0.5,2.1,0,0.299982,-0.0010028,0
0.5,2.2,0,0.299982,-0.000994782,0
0.5,2.3,0,0.299981,-0.0009881,0
0.5,2.4,0,0.29998,-0.000981418,0
0.5,2.5,0,0.299978,-0.000971263,0
0.5,2.6,0,0.299977,-0.000963069,0
0.5,2.7,0,0.299976,-0.000954874,0
0.5,2.8,0,0.299972,-0.000945108,0
0.5,2.9,0,0.299973,-0.000933534,0
0.5,3,0,0.299971,-0.000923661,0
0.5,3.1,0,0.29997,-0.000913787,0
0.5,3.2,0,0.299968,-0.000899122,0
0.5,3.3,0,0.299966,-0.000887409,0
0.5,3.4,0,0.299965,-0.000875696,0
0.5,3.5,0,0.29996,-0.000861191,0
0.5,3.6,0,0.299961,-0.000845763,0
0.5,3.7,0,0.29996,-0.000832062,0
0.5,3.8,0,0.299958,-0.000818361,0
0.5,3.9,0,0.299956,-0.000798368,0
0.5,4,0,0.299954,-0.000782547,0
0.5,4.1,0,0.299953,-0.000766727,0
0.5,4.2,0,0.299946,-0.000746112,0
0.5,4.3,0,0.299948,-0.000726802,0
0.5,4.4,0,0.299947,-0.000708745,0
0.5,4.5,0,0.299945,-0.000690688,0
0.5,4.6,0,0.299942,-0.000664425,0
0.5,4.7,0,0.299941,-0.000644027,0
0.5,4.8,0,0.299939,-0.000623629,0
0.5,4.9,0,0.299932,-0.000595996,0
0.5,5,0,0.299935,-0.000572142,0
0.5,5.1,0,0.299933,-0.000549315,0
0.5,5.2,0,0.299932,-0.000526489,0
0.5,5.3,0,0.299928,-0.000492662,0
0.5,5.4,0,0.299927,-0.00046736,0
0.5,5.5,0,0.299925,-0.000442059,0
0.5,5.6,0,0.299918,-0.000408539,0
0.5,5.7,0,0.299918,-0.000377584,0
0.5,5.8,0,0.299916,-0.000349872,0
0.5,5.9,0,0.299915,-0.00032216,0
0.5,6,0,0.299908,-0.000280263,0
0.5,6.1,0,0.299906,-0.000250324,0
0.5,6.2,0,0.299904,-0.000220385,0
0.5,6.3,0,0.299903,-0.000185222,0
0.5,6.4,0,0.299893,-0.000144177,0
0.5,6.5,0,0.299891,-0.000112208,0
0.5,6.6,0,0.299889,-8.02393e-05,0
0.5,6.7,0,0.29988,-3.23636e-05,0
0.5,6.8,0,0.299878,-5.35137e-06,0
0.5,6.9,0,0.299876,2.16608e-05,0
0.5,7,0,0.299889,4.25764e-05,0
0.5,7.1,0,0.299886,9.96226e-05,0
0.5,7.2,0,0.299885,0.000134958,0
0.5,7.3,0,0.299884,0.00017031,0
0.5,7.4,0,0.299883,0.000205769,0
0.5,7.5,0,0.299883,0.000241288,0
0.5,7.6,0,0.299884,0.000276809,0
0.5,7.7,0,0.299884,0.000312275,0
0.5,7.8,0,0.299885,0.000347641,0
0.5,7.9,0,0.299886,0.000382948,0
0.5,8,0,0.299888,0.000430088,0
0.5,8.1,0,0.299874,0.000453775,0
0.5,8.2,0,0.299875,0.000481458,0
0.5,8.3,0,0.299881,0.000522567,0
0.5,8.4,0,0.299884,0.000554692,0
0.5,8.5,0,0.299891,0.000595828,0
0.5,8.6,0,0.299893,0.000627032,0
0.5,8.7,0,0.299902,0.000663937,0
0.5,8.8,0,0.299903,0.000697363,0
0.5,8.9,0,0.299905,0.000727367,0
0.5,9,0,0.299912,0.000765384,0
0.5,9.1,0,0.299914,0.000794031,0
0.5,9.2,0,0.29992,0.000830528,0
0.5,9.3,0,0.299922,0.000857838,0
0.5,9.4,0,0.299923,0.000886325,0
0.5,9.5,0,0.299929,0.00091839,0
0.5,9.6,0,0.299931,0.000943805,0
0.5,9.7,0,0.299935,0.000975373,0
0.5,9.8,0,0.299937,0.000998976,0
0.5,9.9,0,0.299938,0.00102707,0
0.5,10,0,0.299941,0.00105031,0
0.5,10.1,0,0.29994,0.00107172,0
0.5,10.2,0,0.299945,0.00109776,0
0.5,10.3,0,0.299947,0.00111757,0
0.5,10.4,0,0.299949,0.00114132,0
0.5,10.5,0,0.299951,0.00115922,0
0.5,10.6,0,0.299951,0.00117883,0
0.5,10.7,0,0.299955,0.00119705,0
0.5,10.8,0,0.299956,0.00121285,0
0.5,10.9,0,0.299959,0.00123115,0
0.5,11,0,0.299961,0.00124525,0
0.5,11.1,0,0.299963,0.00126159,0
0.5,11.2,0,0.299965,0.0012738,0
0.5,11.3,0,0.299965,0.00128666,0
0.5,11.4,0,0.29997,0.00129877,0
0.5,11.5,0,0.299971,0.00130911,0
0.5,11.6,0,0.299974,0.00132018,0
0.5,11.7,0,0.299976,0.00132866,0
0.5,11.8,0,0.299979,0.00133809,0
0.5,11.9,0,0.299981,0.00134471,0
0.5,12,0,0.299982,0.00135176,0
0.5,12.1,0,0.299986,0.00135726,0
0.5,12.2,0,0.299988,0.00136202,0
0.5,12.3,0,0.299991,0.00136631,0
0.5,12.4,0,0.299993,0.00136919,0
0.5,12.5,0,0.299995,0.00137185,0
0.5,12.6,0,0.299996,0.00137283,0
0.5,12.7,0,0.299996,0.00137402,0
0.6,0,0,0.299998,-0.00128007,0
0.6,0.1,0,0.299998,-0.00127913,0
0.6,0.2,0,0.299998,-0.00127864,0
0.6,0.3,0,0.299997,-0.00127831,0
0.6,0.4,0,0.299996,-0.00127709,0
0.6,0.5,0,0.299995,-0.00127523,0
0.6,0.6,0,0.299994,-0.00127395,0
0.6,0.7,0,0.299993,-0.00127244,0
0.6,0.8,0,0.299993,-0.00126898,0
0.6,0.9,0,0.299992,-0.00126663,0
0.6,1,0,0.29999,-0.00126406,0
0.6,1.1,0,0.299989,-0.00126022,0
0.6,1.2,0,0.299988,-0.00125594,0
0.6,1.3,0,0.299987,-0.00125268,0
0.6,1.4,0,0.299984,-0.0012485,0
0.6,1.5,0,0.299984,-0.00124203,0
0.6,1.6,0,0.299984,-0.00123751,0
0.6,1.7,0,0.299981,-0.00123229,0
0.6,1.8,0,0.299979,-0.00122531,0
0.6,1.9,0,0.29998,-0.00121806,0
0.6,2,0,0.299978,-0.00121235,0
0.6,2.1,0,0.299973,-0.00120478,0
0.6,2.2,0,0.299975,-0.00119466,0
0.6,2.3,0,0.299975,-0.00118741,0
0.6,2.4,0,0.29997,-0.00117871,0
0.6,2.5,0,0.299968,-0.00116778,0
0.6,2.6,0,0.299969,-0.00115694,0
0.6,2.7,0,0.299967,-0.00114807,0
0.6,2.8,0,0.299959,-0.00113584,0
0.6,2.9,0,0.299962,-0.00112159,0
0.6,3,0,0.299962,-0.00111099,0
0.6,3.1,0,0.299955,-0.00109752,0
0.6,3.2,0,0.299953,-0.00108175,0
0.6,3.3,0,0.299955,-0.001067,0
0.6,3.4,0,0.299952,-0.00105409,0
0.6,3.5,0,0.299941,-0.00103519,0
0.6,3.6,0,0.299946,-0.00101705,0
0.6,3.7,0,0.299946,-0.00100261,0
0.6,3.8,0,0.299937,-0.000982583,0
0.6,3.9,0,0.299935,-0.000961094,0
0.6,4,0,0.299939,-0.000942632,0
0.6,4.1,0,0.299935,-0.000924757,0
0.6,4.2,0,0.299921,-0.000896609,0
0.6,4.3,0,0.299929,-0.000875328,0
0.6,4.4,0,0.299929,-0.000856733,0
0.6,4.5,0,0.299918,-0.00082833,0
0.6,4.6,0,0.299915,-0.000800056,0
0.6,4.7,0,0.299921,-0.000777944,0
0.6,4.8,0,0.299916,-0.000754445,0
0.6,4.9,0,0.299899,-0.000715442,0
0.6,5,0,0.29991,-0.000689974,0
0.6,5.1,0,0.29991,-0.000666707,0
0.6,5.2,0,0.299898,-0.00063001,0
0.6,5.3,0,0.299894,-0.000593394,0
0.6,5.4,0,0.299899,-0.000565226,0
0.6,5.5,0,0.299895,-0.000536402,0
0.6,5.6,0,0.29988,-0.000489969,0
0.6,5.7,0,0.299883,-0.000453918,0
0.6,5.8,0,0.299882,-0.000424817,0
0.6,5.9,0,0.299875,-0.000384611,0
0.6,6,0,0.299867,-0.00033898,0
0.6,6.1,0,0.299861,-0.000299126,0
0.6,6.2,0,0.29986,-0.000266948,0
0.6,6.3,0,0.299863,-0.000223575,0
0.6,6.4,0,0.29984,-0.000168268,0
0.6,6.5,0,0.299835,-0.000132409,0
0.6,6.6,0,0.299846,-9.65272e-05,0
0.6,6.7,0,0.299835,-4.33985e-05,0
0.6,6.8,0,0.299809,1.12182e-05,0
0.6,6.9,0,0.299813,3.56175e-05,0
0.6,7,0,0.299848,4.69527e-05,0
0.6,7.1,0,0.299846,0.000115998,0
0.6,7.2,0,0.299845,0.000159146,0
0.6,7.3,0,0.299844,0.000202375,0
0.6,7.4,0,0.299843,0.000245718,0
0.6,7.5,0,0.299843,0.000289124,0
0.6,7.6,0,0.299844,0.00033253,0
0.6,7.7,0,0.299844,0.000375874,0
0.6,7.8,0,0.299845,0.000419103,0
0.6,7.9,0,0.299846,0.00046221,0
0.6,8,0,0.299848,0.000519394,0
0.6,8.1,0,0.299801,0.00053509,0
0.6,8.2,0,0.29983,0.000581329,0
0.6,8.3,0,0.299823,0.000625288,0
0.6,8.4,0,0.299823,0.000659832,0
0.6,8.5,0,0.299849,0.000715536,0
0.6,8.6,0,0.299837,0.000747998,0
0.6,8.7,0,0.299862,0.000799007,0
0.6,8.8,0,0.299855,0.000836454,0
0.6,8.9,0,0.299863,0.000874478,0
0.6,9,0,0.299873,0.000919767,0
0.6,9.1,0,0.299875,0.000951262,0
0.6,9.2,0,0.299881,0.000994887,0
0.6,9.3,0,0.29989,0.00103144,0
0.6,9.4,0,0.299885,0.00106438,0
0.6,9.5,0,0.299902,0.0011077,0
0.6,9.6,0,0.299898,0.00113425,0
0.6,9.7,0,0.299906,0.00117339,0
0.6,9.8,0,0.299914,0.00120258,0
0.6,9.9,0,0.299904,0.00123046,0
0.6,10,0,0.299922,0.00126669,0
0.6,10.1,0,0.299909,0.00128664,0
0.6,10.2,0,0.299928,0.00132537,0
0.6,10.3,0,0.299923,0.00134409,0
0.6,10.4,0,0.299926,0.00137231,0
0.6,10.5,0,0.299935,0.00139661,0
0.6,10.6,0,0.299925,0.00141419,0
0.6,10.7,0,0.299941,0.0014429,0
0.6,10.8,0,0.299932,0.00145702,0
0.6,10.9,0,0.299947,0.00148425,0
0.6,11,0,0.299945,0.00149784,0
0.6,11.1,0,0.299946,0.00151619,0
0.6,11.2,0,0.299954,0.00153307,0
0.6,11.3,0,0.299948,0.00154539,0
0.6,11.4,0,0.29996,0.00156322,0
0.6,11.5,0,0.299957,0.00157356,0
0.6,11.6,0,0.299966,0.00158862,0
0.6,11.7,0,0.299967,0.00159752,0
0.6,11.8,0,0.299969,0.00160802,0
0.6,11.9,0,0.299974,0.00161681,0
0.6,12,0,0.299973,0.00162456,0
0.6,12.1,0,0.299981,0.00163192,0
0.6,12.2,0,0.299982,0.00163741,0
0.6,12.3,0,0.299987,0.00164253,0
0.6,12.4,0,0.29999,0.00164574,0
0.6,12.5,0,0.299992,0.00164899,0
0.6,12.6,0,0.299996,0.00165009,0
0.6,12.7,0,0.299994,0.00165172,0
0.7,0,0,0.299997,-0.00149415,0
0.7,0.1,0,0.299998,-0.00149321,0
0.7,0.2,0,0.299997,-0.00149236,0
0.7,0.3,0,0.299996,-0.00149208,0
0.7,0.4,0,0.299995,-0.00149086,0
0.7,0.5,0,0.299994,-0.00148869,0
0.7,0.6,0,0.299992,-0.00148679,0
0.7,0.7,0,0.29999,-0.00148528,0
0.7,0.8,0,0.29999,-0.00148182,0
0.7,0.9,0,0.299989,-0.00147814,0
0.7,1,0,0.299986,-0.00147535,0
0.7,1.1,0,0.299985,-0.00147151,0
0.7,1.2,0,0.299985,-0.00146662,0
0.7,1.3,0,0.299982,-0.0014617,0
0.7,1.4,0,0.299979,-0.00145751,0
0.7,1.5,0,0.299979,-0.00145105,0
0.7,1.6,0,0.299978,-0.001444,0
0.7,1.7,0,0.299974,-0.00143825,0
0.7,1.8,0,0.299973,-0.00143126,0
0.7,1.9,0,0.299974,-0.00142305,0
0.7,2,0,0.29997,-0.00141433,0
0.7,2.1,0,0.299964,-0.00140676,0
0.7,2.2,0,0.299966,-0.00139664,0
0.7,2.3,0,0.299966,-0.00138537,0
0.7,2.4,0,0.299959,-0.00137567,0
0.7,2.5,0,0.299957,-0.00136474,0
0.7,2.6,0,0.29996,-0.00135258,0
0.7,2.7,0,0.299954,-0.00133881,0
0.7,2.8,0,0.299946,-0.00132657,0
0.7,2.9,0,0.299949,-0.00131233,0
0.7,3,0,0.299949,-0.00129593,0
0.7,3.1,0,0.299939,-0.00128066,0
0.7,3.2,0,0.299937,-0.00126489,0
0.7,3.3,0,0.299941,-0.00124861,0
0.7,3.4,0,0.299933,-0.00122809,0
0.7,3.5,0,0.299922,-0.0012092,0
0.7,3.6,0,0.299927,-0.00119106,0
0.7,3.7,0,0.299927,-0.00116894,0
0.7,3.8,0,0.299915,-0.00114575,0
0.7,3.9,0,0.299913,-0.00112426,0
0.7,4,0,0.29992,-0.00110448,0
0.7,4.1,0,0.29991,-0.00107525,0
0.7,4.2,0,0.299895,-0.0010471,0
0.7,4.3,0,0.299903,-0.00102582,0
0.7,4.4,0,0.299905,-0.000997824,0
0.7,4.5,0,0.299889,-0.000964247,0
0.7,4.6,0,0.299886,-0.000935974,0
0.7,4.7,0,0.299895,-0.000913004,0
0.7,4.8,0,0.299884,-0.000873891,0
0.7,4.9,0,0.299867,-0.000834888,0
0.7,5,0,0.299877,-0.00080942,0
0.7,5.1,0,0.29988,-0.000774852,0
0.7,5.2,0,0.299863,-0.00073122,0
0.7,5.3,0,0.299858,-0.000694604,0
0.7,5.4,0,0.299867,-0.000665003,0
0.7,5.5,0,0.299857,-0.000617832,0
0.7,5.6,0,0.299842,-0.000571399,0
0.7,5.7,0,0.299845,-0.000535348,0
0.7,5.8,0,0.299844,-0.000491432,0
0.7,5.9,0,0.299835,-0.00044498,0
0.7,6,0,0.299827,-0.000399349,0
0.7,6.1,0,0.299819,-0.000354538,0
0.7,6.2,0,0.299819,-0.000305302,0
0.7,6.3,0,0.299822,-0.000261929,0
0.7,6.4,0,0.2998,-0.000206621,0
0.7,6.5,0,0.299787,-0.000150001,0
0.7,6.6,0,0.299805,-0.000112163,0
0.7,6.7,0,0.299795,-5.90341e-05,0
0.7,6.8,0,0.299756,9.38477e-06,0
0.7,6.9,0,0.299773,3.99938e-05,0
0.7,7,0,0.299808,5.1329e-05,0
0.7,7.1,0,0.299806,0.000132374,0
0.7,7.2,0,0.299805,0.000183334,0
0.7,7.3,0,0.299804,0.00023444,0
0.7,7.4,0,0.299804,0.000285667,0