/*--------------------------------*- C++ -*----------------------------------*\
| =========                 |                                                 |
| \\      /  F ield         | OpenFOAM: The Open Source CFD Toolbox           |
|  \\    /   O peration     | Version:  v1806                                 |
|   \\  /    A nd           | Web:      www.OpenFOAM.com                      |
|    \\/     M anipulation  |                                                 |
\*---------------------------------------------------------------------------*/
FoamFile
{
    version     2.0;
    format      ascii;
    class       surfaceScalarField;
    location    "2";
    object      phi;
}
// * * * * * * * * * * * * * * * * * * * * * * * * * * * * * * * * * * * * * //

dimensions      [0 3 -1 0 0 0 0];
oriented        oriented;


internalField   nonuniform List<scalar> 
4680
(
0.750199
-0.00585439
0.750782
-0.00881625
0.749504
-0.0251141
0.748176
-0.0502716
0.749464
-0.0503981
0.75171
-0.036034
0.751498
-0.0548776
0.748419
-0.106077
0.745487
-0.132303
0.746807
-0.110688
0.751066
-0.0856557
0.751876
-0.108258
0.746915
-0.17618
0.740257
-0.240524
0.736012
-0.254193
0.734031
-0.221679
0.731366
-0.189033
0.72389
-0.207971
0.708029
-0.274462
-0.372984
0.682277
0.750314
-0.00616831
0.750394
-0.00889619
0.749297
-0.0240176
0.748616
-0.0495906
0.749243
-0.0510245
0.75104
-0.0378308
0.751177
-0.0550149
0.747589
-0.10249
0.743889
-0.128602
0.744976
-0.111775
0.748002
-0.0886822
0.747449
-0.107705
0.743571
-0.172302
0.737807
-0.234761
0.729839
-0.246225
0.721465
-0.213304
0.714674
-0.182242
0.706925
-0.200221
0.692757
-0.260294
-0.350342
0.670114
0.750025
-0.00619334
0.750013
-0.00888451
0.749723
-0.0237275
0.748725
-0.048592
0.748568
-0.0508678
0.750991
-0.0402537
0.75053
-0.0545537
0.745965
-0.097925
0.743391
-0.126029
0.745086
-0.113469
0.746162
-0.0897586
0.745615
-0.107158
0.74331
-0.169996
0.73618
-0.22763
0.726116
-0.236162
0.720342
-0.207531
0.718937
-0.180837
0.713252
-0.194536
0.698066
-0.245107
-0.32851
0.676234
0.749593
-0.00578622
0.750134
-0.00942532
0.750371
-0.0239651
0.748726
-0.0469468
0.747911
-0.0500526
0.749408
-0.0417503
0.748674
-0.0538199
0.746757
-0.0960085
0.745111
-0.124383
0.743417
-0.111775
0.742776
-0.0891178
0.743564
-0.107946
0.740418
-0.16685
0.731899
-0.219111
0.724739
-0.229003
0.721702
-0.204494
0.716844
-0.175979
0.705701
-0.183393
0.691731
-0.231138
-0.313826
0.677047
0.749623
-0.00540876
0.750824
-0.010627
0.750138
-0.0232788
0.747857
-0.0446661
0.747302
-0.0494976
0.749174
-0.0436222
0.749111
-0.0537571
0.746936
-0.0938332
0.742532
-0.119979
0.741265
-0.110508
0.743708
-0.0915609
0.74332
-0.107558
0.736277
-0.159806
0.72867
-0.211504
0.724776
-0.225109
0.7217
-0.201418
0.716145
-0.170425
0.709339
-0.176586
0.701835
-0.223634
-0.29969
0.687699
0.750242
-0.00565048
0.750351
-0.0107365
0.748539
-0.0214669
0.748423
-0.0445493
0.748318
-0.0493934
0.748863
-0.0441666
0.747883
-0.0527779
0.746195
-0.0921452
0.741728
-0.115511
0.741018
-0.109798
0.742205
-0.0927485
0.740871
-0.106224
0.737355
-0.15629
0.73334
-0.207489
0.726468
-0.218236
0.71803
-0.19298
0.71152
-0.163914
0.707876
-0.172942
0.700144
-0.215902
-0.282209
0.682663
0.749688
-0.00533897
0.749386
-0.0104342
0.749512
-0.0215928
0.749788
-0.0448252
0.746682
-0.0462873
0.747359
-0.0448437
0.747245
-0.0526639
0.745949
-0.090849
0.741179
-0.110741
0.740606
-0.109226
0.741148
-0.0932897
0.740028
-0.105105
0.735812
-0.152074
0.729132
-0.200809
0.721389
-0.210493
0.719342
-0.190934
0.720792
-0.165364
0.71868
-0.17083
0.707119
-0.204341
-0.263193
0.688103
0.749387
-0.0047264
0.750559
-0.0116061
0.749573
-0.0206062
0.747706
-0.0429585
0.745995
-0.0445763
0.749233
-0.0480817
0.746066
-0.0494971
0.744378
-0.0891614
0.740617
-0.10698
0.740346
-0.108955
0.738798
-0.0917414
0.738532
-0.104839
0.735382
-0.148924
0.730497
-0.195924
0.723069
-0.203065
0.720794
-0.188659
0.717572
-0.162143
0.709909
-0.163167
0.699831
-0.194262
-0.254685
0.691323
0.749782
-0.00450878
0.750224
-0.0120473
0.748235
-0.0186179
0.748947
-0.0436704
0.746586
-0.0422154
0.747552
-0.0490472
0.743456
-0.0454007
0.745955
-0.091661
0.740185
-0.101209
0.738023
-0.106793
0.736672
-0.0903905
0.738585
-0.106752
0.734256
-0.144595
0.729352
-0.19102
0.722191
-0.195904
0.721384
-0.187852
0.719977
-0.160736
0.718473
-0.161663
0.71618
-0.191969
-0.248914
0.710409
0.749446
-0.00395456
0.749999
-0.0126004
0.748763
-0.0173821
0.749047
-0.0439542
0.744228
-0.0373961
0.747844
-0.0526635
0.743972
-0.041529
0.744892
-0.0925805
0.735897
-0.0922138
0.738237
-0.109133
0.737358
-0.0895111
0.736569
-0.105963
0.729484
-0.13751
0.728717
-0.190253
0.721356
-0.188543
0.721759
-0.188255
0.720068
-0.159045
0.722863
-0.164458
0.720701
-0.189807
-0.241427
0.713213
0.74957
-0.00352471
0.750252
-0.0132819
0.748203
-0.0153333
0.748617
-0.0443681
0.744356
-0.0331354
0.748249
-0.0565567
0.740636
-0.0339162
0.744277
-0.0962216
0.736224
-0.0841599
0.738027
-0.110937
0.731274
-0.0827581
0.733851
-0.10854
0.730128
-0.133788
0.732191
-0.192316
0.7199
-0.176252
0.720419
-0.188773
0.717193
-0.155819
0.719559
-0.166824
0.711108
-0.181355
-0.231558
0.701239
0.749724
-0.00324908
0.750037
-0.013595
0.748092
-0.0133881
0.748858
-0.0451336
0.743295
-0.0275727
0.747236
-0.0604976
0.739819
-0.0264989
0.744697
-0.1011
0.732455
-0.0719178
0.735309
-0.11379
0.729766
-0.0772158
0.73546
-0.114233
0.724141
-0.122469
0.724296
-0.192471
0.713234
-0.16519
0.721908
-0.197447
0.719721
-0.153633
0.731969
-0.179071
0.7351
-0.184486
-0.243899
0.747441
0.749937
-0.00318592
0.74988
-0.0135382
0.748144
-0.0116521
0.748053
-0.0450422
0.743017
-0.0225368
0.746454
-0.0639354
0.738751
-0.0187957
0.742279
-0.104628
0.730559
-0.0601977
0.735532
-0.118763
0.724311
-0.065995
0.730565
-0.120487
0.719299
-0.111204
0.726349
-0.199521
0.71447
-0.153311
0.719498
-0.202475
0.707262
-0.141397
0.720626
-0.192435
0.716185
-0.180045
-0.24687
0.719156
0.750145
-0.00333105
0.749514
-0.012907
0.748243
-0.0103807
0.747057
-0.043857
0.743155
-0.0186341
0.743914
-0.0646946
0.73845
-0.0133322
0.739581
-0.105759
0.728322
-0.048939
0.732228
-0.122669
0.719082
-0.0528495
0.730249
-0.131654
0.714
-0.0949552
0.717689
-0.20321
0.700964
-0.136586
0.712581
-0.214092
0.705849
-0.134666
0.732477
-0.219062
0.732586
-0.180154
-0.269336
0.755052
0.750069
-0.00340043
0.749111
-0.0119482
0.74838
-0.00965011
0.74551
-0.0409866
0.743912
-0.0170359
0.740234
-0.0610173
0.739489
-0.0125869
0.733941
-0.100211
0.727633
-0.0426309
0.727959
-0.122994
0.714306
-0.039197
0.724125
-0.141472
0.705345
-0.0761753
0.712989
-0.210854
0.696578
-0.120175
0.707934
-0.225448
0.692179
-0.11891
0.714229
-0.241112
0.712365
-0.178291
-0.298348
0.741378
0.749572
-0.00297196
0.748812
-0.0111887
0.748156
-0.00899389
0.744153
-0.0369835
0.744502
-0.0173856
0.736745
-0.0532597
0.740497
-0.0163392
0.728454
-0.0881683
0.728153
-0.0423292
0.719826
-0.114668
0.713055
-0.0324262
0.714568
-0.142985
0.700594
-0.062201
0.70425
-0.21451
0.681318
-0.0972427
0.695421
-0.239551
0.680018
-0.103508
0.711971
-0.273065
0.715451
-0.181771
-0.338758
0.755861
0.748802
-0.00177384
0.748682
-0.0110691
0.74751
-0.00782194
0.74343
-0.0329032
0.743938
-0.0178935
0.73502
-0.0443413
0.739575
-0.0208946
0.724873
-0.0734661
0.727564
-0.0450208
0.712496
-0.0995993
0.714176
-0.0341058
0.701889
-0.130698
0.699451
-0.0597626
0.688836
-0.203895
0.675916
-0.0843231
0.685291
-0.248925
0.666481
-0.0846985
0.699202
-0.305785
0.692753
-0.175323
-0.399341
0.753336
0.74852
-0.000294205
0.748498
-0.0110468
0.746999
-0.00632261
0.743216
-0.0291203
0.742447
-0.0171247
0.735081
-0.0369752
0.736342
-0.0221556
0.724276
-0.0614003
0.724118
-0.0448625
0.707835
-0.0833162
0.711979
-0.0382506
0.691437
-0.110156
0.697338
-0.065664
0.672261
-0.178818
0.673395
-0.085457
0.658503
-0.234033
0.66003
-0.0862259
0.689835
-0.33559
0.675063
-0.16055
-0.502826
0.778548
0.749452
0.0002536
0.748026
-0.00962082
0.747432
-0.00572838
0.742756
-0.0244448
0.741385
-0.0157537
0.73514
-0.0307296
0.733165
-0.0201806
0.723844
-0.0520795
0.71913
-0.0401489
0.705295
-0.0694811
0.705076
-0.0380315
0.684996
-0.0900761
0.686646
-0.0673134
0.655257
-0.147429
0.662154
-0.0923546
0.626413
-0.198292
0.65155
-0.111362
0.634806
-0.318845
0.676086
-0.201831
-0.588428
0.761688
0.750764
-0.000510596
0.74756
-0.00641627
0.748218
-0.00638646
0.741779
-0.0180061
0.741268
-0.0152429
0.733406
-0.0228674
0.73208
-0.018854
0.7205
-0.0405004
0.716131
-0.035779
0.700577
-0.0539271
0.697086
-0.0345407
0.677354
-0.0703446
0.670232
-0.0601913
0.639261
-0.116458
0.631028
-0.0841224
0.586748
-0.154012
0.593618
-0.118232
0.535056
-0.260283
0.624286
-0.291061
0.646553
-0.610695
0.629016
-0.785226
0.571537
-0.908197
0.512725
-0.947694
0.453373
-0.942075
0.394749
-0.914828
0.338326
-0.875847
0.285422
-0.829353
0.237351
-0.77784
0.194855
-0.723341
-0.667438
0.15873
0.626157
-0.741269
0.579422
-0.861462
0.53074
-0.899012
0.480206
-0.891541
0.42891
-0.863532
0.37833
-0.825268
0.329581
-0.780603
0.283585
-0.731845
0.241396
-0.681151
-0.629617
0.203575
0.632857
-0.697892
0.582957
-0.811562
0.530264
-0.846318
0.476686
-0.837963
0.423214
-0.810059
0.371277
-0.773331
0.32233
-0.731657
0.277223
-0.686738
0.236502
-0.64043
-0.593703
0.200589
0.64516
-0.666004
0.602778
-0.76918
0.556335
-0.799876
0.509625
-0.791253
0.462645
-0.763079
0.415088
-0.725773
0.367857
-0.684427
0.322313
-0.641194
0.279465
-0.597582
-0.554227
0.239989
0.648419
-0.626724
0.600065
-0.720826
0.549421
-0.749232
0.498984
-0.740816
0.44961
-0.713705
0.401479
-0.677643
0.355167
-0.638114
0.31185
-0.597876
0.272498
-0.55823
-0.518954
0.237225
0.646877
-0.590938
0.611612
-0.685561
0.575802
-0.713422
0.536931
-0.701946
0.494374
-0.671148
0.44892
-0.632189
0.401692
-0.590885
0.354274
-0.550458
0.308655
-0.512611
-0.477193
0.266893
0.651007
-0.553841
0.609489
-0.644043
0.565961
-0.669894
0.521449
-0.657433
0.475973
-0.625672
0.430448
-0.586664
0.3865
-0.546937
0.344973
-0.508931
0.30605
-0.473688
-0.440745
0.269602
0.674794
-0.537313
0.646828
-0.616077
0.611373
-0.634439
0.572526
-0.618586
0.529579
-0.582725
0.481206
-0.53829
0.429362
-0.495094
0.377978
-0.457547
0.33016
-0.42587
-0.398244
0.287659
0.683417
-0.510321
0.641755
-0.574416
0.595871
-0.588555
0.550773
-0.573488
0.507211
-0.539163
0.463905
-0.494984
0.42011
-0.451299
0.376382
-0.413819
0.333933
-0.383421
-0.358457
0.294145
0.690042
-0.48715
0.666182
-0.550556
0.639643
-0.562017
0.605821
-0.539666
0.56149
-0.494832
0.508161
-0.441654
0.451505
-0.394644
0.397128
-0.359442
0.347753
-0.334046
-0.315089
0.304385
0.676429
-0.46234
0.647529
-0.521656
0.614799
-0.529287
0.581391
-0.506258
0.544295
-0.457736
0.500388
-0.397748
0.45111
-0.345366
0.40081
-0.309141
0.353005
-0.286241
-0.272062
0.309978
0.746948
-0.461847
0.731597
-0.506305
0.697729
-0.495419
0.652681
-0.46121
0.597445
-0.402499
0.534991
-0.335294
0.471333
-0.281708
0.412172
-0.249979
0.35979
-0.23386
-0.227186
0.314915
0.689131
-0.431822
0.67214
-0.489314
0.652047
-0.475326
0.627329
-0.436492
0.587254
-0.362424
0.533134
-0.281174
0.472614
-0.221189
0.414021
-0.191386
0.361523
-0.181362
-0.18241
0.316747
0.75198
-0.42875
0.758318
-0.495652
0.730996
-0.448004
0.687601
-0.393098
0.624294
-0.299117
0.5514
-0.208279
0.47917
-0.148959
0.415089
-0.127306
0.360918
-0.12719
-0.137823
0.316331
0.738108
-0.42548
0.75694
-0.514483
0.731151
-0.422215
0.690075
-0.352022
0.620136
-0.229178
0.543675
-0.131818
0.46989
-0.0751744
0.406821
-0.0642372
0.354995
-0.0753634
-0.0955611
0.312733
0.776819
-0.446439
0.808176
-0.545841
0.761558
-0.375597
0.704763
-0.295227
0.609554
-0.133968
0.525307
-0.0475711
0.4493
0.000832775
0.389475
-0.00441231
0.343362
-0.0292499
-0.0580799
0.30588
0.813545
-0.506647
0.824331
-0.556627
0.735446
-0.286712
0.652664
-0.212445
0.540899
-0.022204
0.468182
0.025146
0.405967
0.0630482
0.362211
0.0393433
0.327741
0.00521994
-0.0274686
0.29713
0.831623
-0.559721
0.754985
-0.479989
0.603139
-0.134866
0.493221
-0.102527
0.384489
0.086528
0.343551
0.0660839
0.319732
0.086867
0.310969
0.0481064
0.299849
0.01634
-0.00804955
0.28043
0.687098
-0.485131
0.48846
-0.281351
0.30739
0.0462037
0.210779
-0.00591619
0.19269
0.104617
0.216193
0.0425812
0.245698
0.0573616
0.265653
0.0281516
0.268291
0.0137024
0.00145936
0.258782
0.161421
-0.119929
-0.0737258
-0.0796419
0.0249753
0.0675565
0.124918
0.15307
0.166772
0.168231
0.102456
-1.20274
0.0650679
-0.992489
0.0416148
-0.812131
0.0271186
-0.663467
0.0181476
-0.542457
0.0124881
-0.444129
0.00882497
-0.363934
0.00638704
-0.298224
0.00472099
-0.244156
0.00355509
-0.199521
0.00272247
-0.162576
0.00211792
-0.131909
0.00167346
-0.106363
0.00134419
-0.08497
0.00109987
-0.0669153
0.000919925
-0.0515027
0.000790242
-0.0381293
0.000701549
-0.0262621
0.000648286
-0.0154225
-0.00525806
0.141004
-1.14016
0.0964994
-0.947985
0.0660803
-0.781712
0.0457409
-0.643128
0.0322341
-0.528951
0.0231787
-0.435074
0.0169998
-0.357756
0.0126941
-0.293918
0.00963162
-0.241093
0.007413
-0.197303
0.00578081
-0.160943
0.00456547
-0.130694
0.00365295
-0.10545
0.00296514
-0.0842822
0.00244777
-0.066398
0.00206284
-0.0511178
0.00178379
-0.0378503
0.00159299
-0.0260713
0.00148004
-0.0153095
-0.00521938
0.141756
-1.08133
0.100539
-0.906768
0.0721452
-0.753318
0.0525652
-0.623548
0.0389445
-0.51533
0.0293269
-0.425456
0.0224144
-0.350843
0.0173531
-0.288857
0.0135843
-0.237324
0.0107385
-0.194457
0.00856678
-0.158772
0.00689748
-0.129024
0.00560977
-0.104162
0.00461718
-0.0832896
0.0038571
-0.0656379
0.00328411
-0.0505448
0.00286559
-0.0374317
0.00257953
-0.0257852
0.00241299
-0.015143
-0.00516352
0.171686
-1.01303
0.122024
-0.857106
0.0875639
-0.718857
0.064054
-0.600038
0.0478633
-0.499139
0.0364633
-0.414056
0.0282327
-0.342612
0.0221469
-0.282771
0.0175562
-0.232734
0.01404
-0.190941
0.0113177
-0.156049
0.0091966
-0.126903
0.00754021
-0.102506
0.00624986
-0.0819992
0.00525322
-0.0646412
0.00449707
-0.0497887
0.00394282
-0.0368775
0.00356413
-0.0254065
0.00334527
-0.0149241
-0.00509076
0.176362
-0.952166
0.130663
-0.811408
0.0970402
-0.685234
0.072873
-0.575871
0.0555632
-0.481829
0.0430148
-0.401508
0.0337473
-0.333345
0.0267665
-0.27579
0.0214174
-0.227384
0.0172646
-0.186788
0.014012
-0.152797
0.0114524
-0.124344
0.00943662
-0.10049
0.00785534
-0.080418
0.0066272
-0.0634131
0.00569162
-0.0488531
0.00500424
-0.0361901
0.0045344
-0.0249367
0.0042634
-0.0146531
-0.0050008
0.195706
-0.880979
0.144301
-0.760002
0.107677
-0.648611
0.0816848
-0.549879
0.0630036
-0.463148
0.0493107
-0.387815
0.0390609
-0.323095
0.0312363
-0.267966
0.0251672
-0.221315
0.0204053
-0.182026
0.0166418
-0.149033
0.0136576
-0.121359
0.0112927
-0.0981253
0.00942805
-0.0785533
0.00797405
-0.0619591
0.00686317
-0.0477422
0.00604551
-0.0353724
0.00548615
-0.0243773
0.00516335
-0.0143303
-0.00489348
0.203745
-0.815121
0.153714
-0.709971
0.116584
-0.611481
0.0896311
-0.522926
0.0699314
-0.443449
0.0552722
-0.373156
0.0441439
-0.311967
0.0355408
-0.259363
0.0287947
-0.214569
0.0234529
-0.176684
0.0191991
-0.14478
0.0158052
-0.117965
0.0131023
-0.0954224
0.0109627
-0.0764137
0.0092891
-0.0602855
0.00800754
-0.0464606
0.00706283
-0.0344277
0.00641591
-0.0237304
0.00604195
-0.0139564
-0.0047688
0.215505
-0.742967
0.16316
-0.657626
0.124799
-0.57312
0.0969449
-0.495072
0.0763924
-0.422896
0.0609022
-0.357665
0.0489896
-0.300054
0.0396712
-0.250044
0.032291
-0.207189
0.0263991
-0.170792
0.0216764
-0.140057
0.0178887
-0.114178
0.0148597
-0.0923933
0.0124541
-0.0740082
0.0105678
-0.0583992
0.0091207
-0.0450135
0.00805255
-0.0333596
0.00732032
-0.0229982
0.00689614
-0.0135322
-0.00462691
0.223069
-0.67189
0.170811
-0.605368
0.131958
-0.534267
0.10356
-0.466674
0.0823732
-0.40171
0.0661946
-0.341487
0.0535915
-0.287451
0.0436202
-0.240073
0.0356484
-0.199217
0.0292365
-0.164381
0.0240669
-0.134887
0.0199019
-0.110013
0.0165593
-0.0890508
0.0138975
-0.0713464
0.0118059
-0.0563076
0.0101988
-0.0434064
0.00901116
-0.032172
0.00819617
-0.0221832
0.00772295
-0.013059
-0.00446809
0.230125
-0.597631
0.177378
-0.552621
0.138176
-0.495065
0.109498
-0.437996
0.0878809
-0.380092
0.0711502
-0.324756
0.0579465
-0.274247
0.0473825
-0.229509
0.0388606
-0.190695
0.0319586
-0.157478
0.0263642
-0.129293
0.0218388
-0.105487
0.0181959
-0.0854078
0.015288
-0.0684386
0.0129991
-0.0540187
0.011238
-0.0416453
0.00993528
-0.0308693
0.00904036
-0.0212883
0.00851953
-0.0125382
-0.00429273
0.234859
-0.522512
0.182538
-0.5003
0.143411
-0.455938
0.114768
-0.409353
0.0929251
-0.358249
0.0757737
-0.307605
0.0620543
-0.260528
0.0509544
-0.218409
0.0419223
-0.181663
0.0345593
-0.150116
0.0285625
-0.123296
0.0236941
-0.100619
0.0197644
-0.0814782
0.0166214
-0.0652955
0.0141435
-0.0515408
0.0122348
-0.0397366
0.0108217
-0.0294561
0.0098499
-0.0203165
0.0092831
-0.0119714
-0.00410131
0.237932
-0.44553
0.18637
-0.448737
0.147685
-0.417253
0.119391
-0.381059
0.0975231
-0.336382
0.0800741
-0.290156
0.0659173
-0.246371
0.0543339
-0.206826
0.0448291
-0.172158
0.0370336
-0.14232
0.0306564
-0.116919
0.0254625
-0.095425
0.0212602
-0.0772759
0.0178931
-0.0619284
0.0152352
-0.0488828
0.0131858
-0.0376872
0.0116672
-0.0279376
0.010622
-0.0192713
0.010011
-0.0113604
-0.0038944
0.238876
-0.367659
0.188778
-0.398639
0.151008
-0.379482
0.123398
-0.35345
0.101699
-0.314682
0.0840652
-0.272522
0.0695405
-0.231846
0.0575206
-0.194806
0.0475777
-0.162216
0.0393766
-0.134119
0.0326409
-0.110183
0.0271392
-0.0899234
0.0226787
-0.0728154
0.0190994
-0.0583491
0.0162706
-0.0460541
0.0140876
-0.0355042
0.0124689
-0.0263189
0.0113538
-0.0181562
0.0107008
-0.0107074
-0.00367266
0.237743
-0.289072
0.189737
-0.350632
0.153415
-0.343161
0.12684
-0.326875
0.105485
-0.293328
0.0877646
-0.254801
0.072931
-0.217013
0.060515
-0.18239
0.0501654
-0.151866
0.0415844
-0.125538
0.0345114
-0.10311
0.0287198
-0.0841318
0.0240159
-0.0681114
0.0202362
-0.0545694
0.0172463
-0.0430642
0.0149373
-0.0331952
0.0132241
-0.0246057
0.012043
-0.0169751
0.0113501
-0.0100145
-0.00343681
0.234326
-0.210665
0.189168
-0.305474
0.154952
-0.308945
0.129784
-0.301707
0.108921
-0.272465
0.0911941
-0.237074
0.0760979
-0.201917
0.063319
-0.169611
0.0525901
-0.141137
0.043653
-0.116601
0.0362636
-0.0957208
0.0302
-0.0780682
0.0252676
-0.0631791
0.0213001
-0.0506018
0.0181591
-0.0399232
0.0157319
-0.0307679
0.01393
-0.0228038
0.0126869
-0.015732
0.0119565
-0.00928409
-0.00318765
0.228499
-0.133284
0.186943
-0.263917
0.155669
-0.277671
0.132287
-0.278325
0.112052
-0.25223
0.0943791
-0.219401
0.0790516
-0.186589
0.0659347
-0.156494
0.05485
-0.130052
0.0455792
-0.10733
0.0378937
-0.0880353
0.0315758
-0.0717503
0.0264303
-0.0580336
0.0222876
-0.0464592
0.0190059
-0.0366415
0.0164686
-0.0282307
0.0145843
-0.0209195
0.0132835
-0.0144312
0.0125181
-0.00851865
-0.00292604
0.220214
-0.056368
0.182767
-0.22647
0.155595
-0.250499
0.134394
-0.257124
0.114931
-0.232767
0.0973481
-0.201818
0.0818035
-0.171045
0.0683644
-0.143055
0.0569435
-0.118631
0.0473596
-0.0977461
0.0393977
-0.0800734
0.0328435
-0.065196
0.0275003
-0.0526904
0.0231956
-0.0421545
0.0197839
-0.0332297
0.0171451
-0.0255919
0.0151846
-0.018959
0.0138305
-0.0130771
0.0130328
-0.00772088
-0.00265289
0.207035
0.017027
0.175491
-0.194926
0.154614
-0.229622
0.136158
-0.238669
0.11762
-0.214229
0.100132
-0.18433
0.0843649
-0.155277
0.0706104
-0.1293
0.0588689
-0.10689
0.048991
-0.0878682
0.0407721
-0.0718545
0.0339995
-0.0584233
0.0284745
-0.0471655
0.0240212
-0.0377011
0.0204904
-0.0296989
0.0177588
-0.0228603
0.0157288
-0.016929
0.0143262
-0.0116745
0.0134988
-0.00689356
-0.00236917
0.186461
0.089348
0.162304
-0.170769
0.152337
-0.219655
0.13766
-0.223992
0.120192
-0.196761
0.102765
-0.166903
0.0867462
-0.139259
0.0726739
-0.115228
0.0606239
-0.0948399
0.0504701
-0.0777143
0.0420134
-0.0633979
0.0350405
-0.0514504
0.0293498
-0.0414748
0.0247615
-0.0331128
0.021123
-0.0260605
0.0183077
-0.020045
0.016215
-0.0148364
0.0147686
-0.010228
0.0139146
-0.00603962
-0.00207589
0.135477
0.122102
0.140592
-0.175883
0.149184
-0.228248
0.139174
-0.213982
0.122768
-0.180354
0.105289
-0.149425
0.0889631
-0.122933
0.0745609
-0.100826
0.0622109
-0.0824899
0.0517974
-0.0673008
0.0431213
-0.0547218
0.0359659
-0.044295
0.0301253
-0.0356341
0.0254158
-0.0284034
0.0216809
-0.0223256
0.0187908
-0.0171548
0.0166424
-0.012688
0.0151569
-0.00874255
0.0142794
-0.00516204
-0.00177408
0.0309634
0.091139
0.0499766
-0.194896
0.0591069
-0.237378
0.0562012
-0.211076
0.0498773
-0.17403
0.0428073
-0.142355
0.0361705
-0.116296
0.0303136
-0.094969
0.0252914
-0.0774677
0.021057
-0.0630665
0.0175293
-0.0511941
0.0146201
-0.0413857
0.0122454
-0.0332595
0.0103307
-0.0264887
0.00881223
-0.0208071
0.00763725
-0.0159799
0.00676378
-0.0118145
0.00615981
-0.00813858
0.00580269
-0.00480492
-0.0016514
0.0230238
0.0681152
0.0489237
-0.220796
0.0592929
-0.247747
0.0566831
-0.208466
0.0503367
-0.167684
0.0431936
-0.135212
0.0364879
-0.10959
0.0305747
-0.0890558
0.0255067
-0.0723997
0.0212349
-0.0587947
0.0176766
-0.0476357
0.0147423
-0.0384514
0.0123473
-0.0308645
0.0104164
-0.0245578
0.00888511
-0.0192758
0.00770023
-0.014795
0.00681938
-0.0109337
0.0062103
-0.0075295
0.00585002
-0.00444464
-0.00152768
0.0192823
0.0488329
0.0485555
-0.250069
0.0597102
-0.258902
0.0572444
-0.206001
0.0508149
-0.161254
0.0435756
-0.127972
0.0367935
-0.102808
0.0308221
-0.0830844
0.0257086
-0.0672862
0.0214004
-0.0544866
0.0178127
-0.044048
0.0148548
-0.0354935
0.0124408
-0.0284505
0.0104948
-0.0226117
0.00895151
-0.0177325
0.00775747
-0.0136009
0.00686983
-0.010046
0.00625601
-0.00691568
0.00589287
-0.0040815
-0.00140293
0.0189639
0.029869
0.0494188
-0.280524
0.0605005
-0.269984
0.0579113
-0.203411
0.0513146
-0.154658
0.0439535
-0.120611
0.0370879
-0.0959425
0.0310571
-0.0770536
0.0258987
-0.0621278
0.0215554
-0.0501432
0.0179396
-0.0404323
0.0149593
-0.0325132
0.0125274
-0.0260186
0.0105671
-0.0206515
0.00901275
-0.0161781
0.00781017
-0.0123984
0.00691621
-0.00915208
0.00629801
-0.00629747
0.00593222
-0.00371571
-0.00127723
0.0223389
0.00753013
0.0521703
-0.310356
0.0618317
-0.279645
0.0587117
-0.200291
0.0518383
-0.147784
0.0443271
-0.1131
0.037371
-0.0889864
0.0312797
-0.0709622
0.026077
-0.0569251
0.0216996
-0.0457658
0.0180572
-0.0367899
0.0150557
-0.0295117
0.012607
-0.0235699
0.0106335
-0.018678
0.00906879
-0.0146134
0.00785832
-0.0111879
0.00695853
-0.00825229
0.00633628
-0.00567523
0.00596804
-0.00334747
-0.00115066
0.031369
-0.0238388
0.0575845
-0.336571
0.0639198
-0.285981
0.0596805
-0.196052
0.0523888
-0.140492
0.0446958
-0.105407
0.0376423
-0.0819329
0.0314894
-0.0648093
0.0262431
-0.0516789
0.021833
-0.0413557
0.0181653
-0.0331221
0.0151439
-0.0264904
0.0126796
-0.0211055
0.0106938
-0.0166922
0.00911958
-0.0130392
0.00790186
-0.00997016
0.00699673
-0.00734716
0.00637079
-0.0050493
0.00600032
-0.002977
-0.00102329
0.0483336
-0.0721724
0.0659214
-0.354159
0.0669008
-0.28696
0.0608444
-0.189996
0.0529674
-0.132615
0.0450588
-0.0974983
0.0379011
-0.0747752
0.031686
-0.0585942
0.0263971
-0.04639
0.0219556
-0.0369143
0.0182638
-0.0294304
0.0152239
-0.0234504
0.0127451
-0.0186267
0.0107481
-0.0146952
0.00916511
-0.0114562
0.00794078
-0.00874583
0.0070308
-0.00643718
0.00640153
-0.00442002
0.00602903
-0.0026045
-0.000895213
0.0728006
-0.144973
0.0764157
-0.357774
0.0706517
-0.281196
0.0621941
-0.181538
0.0535716
-0.123993
0.0454146
-0.0893413
0.0381469
-0.0675076
0.0318692
-0.0523164
0.0265386
-0.0410594
0.0220671
-0.0324427
0.0183528
-0.0257161
0.0152956
-0.0203932
0.0128035
-0.0161346
0.0107962
-0.0126879
0.00920533
-0.00986539
0.00797506
-0.00751556
0.00706073
-0.00552285
0.00642846
-0.00378776
0.00605416
-0.00223019
-0.000766508
0.0979844
-0.242957
0.0870013
-0.346791
0.0746915
-0.268886
0.0636599
-0.170506
0.0541924
-0.114525
0.0457614
-0.0809102
0.0383792
-0.0601254
0.0320388
-0.045976
0.0266676
-0.0356883
0.0221675
-0.0279426
0.0184321
-0.0219808
0.015359
-0.0173201
0.0128547
-0.0136303
0.0108381
-0.0106713
0.00924023
-0.0082675
0.00800467
-0.00628
0.00708648
-0.00460467
0.00645159
-0.00315287
0.00607569
-0.00185428
-0.000637257
0.114525
-0.357483
0.0955783
-0.327844
0.0783353
-0.251643
0.065161
-0.157332
0.0548068
-0.104171
0.0460912
-0.0721946
0.038592
-0.0526262
0.0321892
-0.0395732
0.0267791
-0.0302782
0.0222523
-0.0234158
0.0184978
-0.0182263
0.0154107
-0.0142329
0.0128959
-0.0111156
0.0108714
-0.00864679
0.00926763
-0.00666372
0.0080277
-0.00504007
0.00710638
-0.00368334
0.00646933
-0.00251582
0.00609222
-0.00147717
-0.00050745
0.451311
-0.336323
-0.472471
0.367809
-0.244341
0.284699
-0.168533
0.22805
-0.100683
0.187823
-0.0639446
0.156646
-0.0410176
0.130697
-0.0266776
0.108808
-0.0176839
0.0904137
-0.0118838
0.0750681
-0.00807013
0.0623641
-0.00552238
0.0519309
-0.00379972
0.0434401
-0.00262473
0.036609
-0.00181573
0.0312004
-0.00125509
0.0270204
-0.000860058
0.0239153
-0.000578222
0.0217685
-0.000369053
0.020498
-0.000206676
-6.93521e-05
0.445084
-0.196629
-0.584778
0.34102
-0.140277
0.275263
-0.102776
0.228833
-0.0542536
0.190788
-0.0258997
0.158979
-0.0092079
0.132237
6.44003e-05
0.109806
0.00474683
0.0910676
0.00685467
0.0755031
0.00749437
0.0626571
0.00732361
0.0521301
0.00672732
0.0435766
0.00592872
0.0367034
0.00505745
0.0312665
0.00418187
0.0270675
0.00333892
0.0239499
0.00253938
0.0217953
0.00178551
0.0205204
0.00106826
0.000370079
0.450734
-0.0770501
-0.570312
0.35757
-0.0471135
0.287292
-0.0324982
0.235642
-0.00260341
0.19424
0.0155017
0.160717
0.0243158
0.133113
0.0276677
0.110202
0.027658
0.0911989
0.025858
0.0754892
0.0232042
0.0625666
0.0202462
0.0520028
0.0172911
0.0434352
0.0144963
0.0365603
0.0119323
0.0311279
0.00961436
0.0269358
0.00753097
0.0238253
0.00564989
0.0216767
0.00393407
0.0204059
0.00233909
0.000807805
0.45353
0.0354341
-0.566014
0.364544
0.041872
0.292095
0.0399515
0.238113
0.0513786
0.195677
0.0579376
0.161319
0.058674
0.13316
0.0558261
0.109938
0.0508807
0.0907799
0.0450157
0.0750116
0.0389725
0.0620845
0.0331732
0.0515443
0.0278313
0.043013
0.0230277
0.0361778
0.0187675
0.0307833
0.0150089
0.0266244
0.0116898
0.0235409
0.00873344
0.0214123
0.00606264
0.0201542
0.00359721
0.00124077
0.446822
0.14042
-0.551808
0.36306
0.125633
0.293441
0.10957
0.239172
0.105648
0.195902
0.101208
0.160915
0.0936606
0.132385
0.0843557
0.108995
0.074271
0.0897972
0.0642136
0.0740623
0.0547074
0.0612063
0.0460292
0.0507524
0.0382851
0.0423091
0.031471
0.035556
0.0255206
0.0302334
0.0203315
0.0261344
0.0157888
0.0230978
0.01177
0.0210033
0.0081572
0.0197665
0.00483401
0.00166591
0.44204
0.23865
-0.54027
0.361111
0.206562
0.292745
0.177936
0.238268
0.160125
0.194666
0.14481
0.159411
0.128916
0.130747
0.11302
0.107353
0.0976654
0.0882384
0.0833284
0.0726345
0.0703112
0.059929
0.0587348
0.0496265
0.0485876
0.0413244
0.0397731
0.0346965
0.0321485
0.0294802
0.0255478
0.0254678
0.0198012
0.0224982
0.0147396
0.0204517
0.0102037
0.0192447
0.00604097
0.00208019
0.434705
0.332102
-0.528157
0.35637
0.284897
0.289674
0.244632
0.235569
0.21423
0.192027
0.188351
0.156803
0.16414
0.128228
0.141594
0.104998
0.120896
0.086095
0.102231
0.0707247
0.0856816
0.0582522
0.0712072
0.0481681
0.0586718
0.0400615
0.0478796
0.0336024
0.0386076
0.028527
0.0306232
0.0246279
0.0237003
0.0217452
0.0176224
0.0197605
0.0121884
0.0185918
0.00720968
0.00248065
0.425774
0.421459
-0.515131
0.34955
0.361121
0.284509
0.309673
0.231158
0.267581
0.188002
0.231508
0.153082
0.19906
0.124817
0.169858
0.10192
0.143794
0.0833633
0.120787
0.0683325
0.100712
0.0561781
0.0833617
0.0463807
0.0684692
0.0385246
0.0557357
0.0322781
0.0448541
0.0273781
0.0355232
0.0236189
0.0274595
0.0208428
0.0203985
0.0189337
0.0140975
0.0178114
0.00833193
0.00286439
0.415263
0.507708
-0.501512
0.340848
0.435536
0.277423
0.373098
0.225089
0.319915
0.182608
0.273989
0.148252
0.233416
0.120511
0.197599
0.0981189
0.166186
0.0800443
0.138862
0.0654615
0.115295
0.0537117
0.0951114
0.0442704
0.0779105
0.03672
0.0632861
0.0307299
0.0508442
0.0260396
0.0402136
0.0224465
0.0310526
0.0197963
0.0230486
0.017976
0.0159178
0.0169082
0.0093998
0.00322867
0.403011
0.591166
-0.486469
0.330328
0.508219
0.268524
0.434901
0.217413
0.371027
0.17587
0.315532
0.142321
0.266964
0.115314
0.224607
0.0935983
0.187902
0.0761435
0.156317
0.0621185
0.12932
0.050861
0.106369
0.0418452
0.0869263
0.0346557
0.0704756
0.0289654
0.0565346
0.0245184
0.0446606
0.0211171
0.0344539
0.0186118
0.025554
0.0168932
0.0176364
0.0158874
0.0104057
0.00357085
0.389296
0.673413
-0.471543
0.318092
0.579423
0.257892
0.495102
0.208175
0.420744
0.16781
0.355897
0.135305
0.29947
0.109236
0.250675
0.088368
0.20877
0.0716711
0.173014
0.0583145
0.142677
0.0476368
0.117047
0.0391159
0.0954472
0.0323418
0.0772497
0.0269939
0.0618824
0.0228233
0.0488312
0.0196387
0.0376385
0.0172963
0.0278964
0.0156919
0.0192408
0.0147552
0.0113424
0.00388851
0.373265
0.752761
-0.452613
0.303987
0.648701
0.245534
0.553555
0.197404
0.468874
0.158454
0.394847
0.12722
0.330704
0.102294
0.275601
0.0824429
0.228621
0.0666421
0.188815
0.0540639
0.155255
0.0440531
0.127057
0.0360956
0.103405
0.0297903
0.083555
0.0248264
0.0668464
0.0209639
0.0526937
0.0180201
0.0405823
0.015858
0.0300584
0.0143794
0.0207194
0.0135186
0.0122032
0.00417943
0.356897
0.833991
-0.438127
0.288398
0.7172
0.231539
0.610413
0.185137
0.515276
0.147824
0.43216
0.118089
0.360439
0.0945069
0.299183
0.0758432
0.247284
0.0610757
0.203582
0.0493852
0.166945
0.0401271
0.136316
0.0327997
0.110732
0.0270152
0.0893395
0.0224753
0.0713863
0.0189516
0.0562174
0.0162713
0.0432626
0.014306
0.0320237
0.0129641
0.0220612
0.0121853
0.0129821
0.00444162
0.335454
0.908802
-0.410265
0.270229
0.782425
0.215697
0.664945
0.171352
0.559621
0.13594
0.467573
0.107937
0.388442
0.085902
0.321218
0.0685942
0.264592
0.0549962
0.21718
0.0443007
0.177641
0.0358789
0.144737
0.0292464
0.117365
0.0240326
0.0945533
0.0199548
0.0754641
0.0167987
0.0593734
0.0144033
0.0456579
0.0126501
0.033777
0.0114551
0.0232562
0.0107636
0.0136736
0.00467341
0.319365
0.992408
-0.402972
0.252167
0.849623
0.19861
0.718503
0.15619
0.60204
0.122849
0.500914
0.0967974
0.414493
0.0765111
0.341504
0.0607268
0.280376
0.0484322
0.229475
0.0388364
0.187237
0.0313318
0.152242
0.0254563
0.12324
0.0208603
0.0991493