x,y,z,p
0,0,0,0.000322281
0,0.1,0,0.000517668
0,0.2,0,0.000713054
0,0.3,0,0.00090844
0,0.4,0,0.00110383
0,0.5,0,0.00130619
0,0.6,0,0.00156207
0,0.7,0,0.00181794
0,0.8,0,0.00207382
0,0.9,0,0.0023297
0,1,0,0.00258345
0,1.1,0,0.00283014
0,1.2,0,0.00307683
0,1.3,0,0.00332352
0,1.4,0,0.00357021
0,1.5,0,0.00381326
0,1.6,0,0.00404941
0,1.7,0,0.00428556
0,1.8,0,0.00452172
0,1.9,0,0.00475787
0,2,0,0.00498787
0,2.1,0,0.00521068
0,2.2,0,0.0054335
0,2.3,0,0.00565632
0,2.4,0,0.00587913
0,2.5,0,0.0060923
0,2.6,0,0.00629839
0,2.7,0,0.00650448
0,2.8,0,0.00671057
0,2.9,0,0.00691666
0,3,0,0.00710897
0,3.1,0,0.00729515
0,3.2,0,0.00748134
0,3.3,0,0.00766752
0,3.4,0,0.00785371
0,3.5,0,0.00802152
0,3.6,0,0.00818496
0,3.7,0,0.0083484
0,3.8,0,0.00851185
0,3.9,0,0.00867529
0,4,0,0.0088155
0,4.1,0,0.00895377
0,4.2,0,0.00909204
0,4.3,0,0.00923031
0,4.4,0,0.00936754
0,4.5,0,0.00947857
0,4.6,0,0.00958961
0,4.7,0,0.00970064
0,4.8,0,0.00981168
0,4.9,0,0.00991826
0,5,0,0.0100003
0,5.1,0,0.0100824
0,5.2,0,0.0101644
0,5.3,0,0.0102465
0,5.4,0,0.0103204
0,5.5,0,0.010372
0,5.6,0,0.0104237
0,5.7,0,0.0104753
0,5.8,0,0.010527
0,5.9,0,0.0105666
0,6,0,0.0105868
0,6.1,0,0.010607
0,6.2,0,0.0106272
0,6.3,0,0.0106474
0,6.4,0,0.0106516
0,6.5,0,0.0106398
0,6.6,0,0.0106279
0,6.7,0,0.0106161
0,6.8,0,0.0106042
0,6.9,0,0.0105726
0,7,0,0.0105287
0,7.1,0,0.0104848
0,7.2,0,0.0104409
0,7.3,0,0.010397
0,7.4,0,0.0103301
0,7.5,0,0.0102547
0,7.6,0,0.0101793
0,7.7,0,0.0101039
0,7.8,0,0.0100285
0,7.9,0,0.00992732
0,8,0,0.0098215
0,8.1,0,0.00971568
0,8.2,0,0.00960985
0,8.3,0,0.00950403
0,8.4,0,0.00937047
0,8.5,0,0.0092358
0,8.6,0,0.00910112
0,8.7,0,0.00896645
0,8.8,0,0.00882971
0,8.9,0,0.00866818
0,9,0,0.00850664
0,9.1,0,0.0083451
0,9.2,0,0.00818357
0,9.3,0,0.00801731
0,9.4,0,0.00783126
0,9.5,0,0.0076452
0,9.6,0,0.00745915
0,9.7,0,0.00727309
0,9.8,0,0.00708027
0,9.9,0,0.00687225
0,10,0,0.00666423
0,10.1,0,0.00645621
0,10.2,0,0.00624819
0,10.3,0,0.00603216
0,10.4,0,0.00580519
0,10.5,0,0.00557823
0,10.6,0,0.00535127
0,10.7,0,0.0051243
0,10.8,0,0.00488903
0,10.9,0,0.00464662
0,11,0,0.00440422
0,11.1,0,0.00416182
0,11.2,0,0.00391942
0,11.3,0,0.00366943
0,11.4,0,0.00341542
0,11.5,0,0.00316141
0,11.6,0,0.0029074
0,11.7,0,0.0026534
0,11.8,0,0.00239301
0,11.9,0,0.00213071
0,12,0,0.00186842
0,12.1,0,0.00160612
0,12.2,0,0.00134382
0,12.3,0,0.00113617
0,12.4,0,0.000935654
0,12.5,0,0.000735135
0,12.6,0,0.000534617
0,12.7,0,0.000334099
0.1,0,0,0.000257825
0.1,0.1,0,0.000519502
0.1,0.2,0,0.000714888
0.1,0.3,0,0.000910274
0.1,0.4,0,0.00110566
0.1,0.5,0,0.00130842
0.1,0.6,0,0.00156455
0.1,0.7,0,0.00182042
0.1,0.8,0,0.0020763
0.1,0.9,0,0.00233217
0.1,1,0,0.00258593
0.1,1.1,0,0.00283262
0.1,1.2,0,0.00307931
0.1,1.3,0,0.003326
0.1,1.4,0,0.00357335
0.1,1.5,0,0.00381773
0.1,1.6,0,0.00405388
0.1,1.7,0,0.00429004
0.1,1.8,0,0.00452619
0.1,1.9,0,0.00476317
0.1,2,0,0.00499419
0.1,2.1,0,0.00521701
0.1,2.2,0,0.00543982
0.1,2.3,0,0.00566264
0.1,2.4,0,0.00588638
0.1,2.5,0,0.00610026
0.1,2.6,0,0.00630635
0.1,2.7,0,0.00651244
0.1,2.8,0,0.00671853
0.1,2.9,0,0.00692559
0.1,3,0,0.00711834
0.1,3.1,0,0.00730452
0.1,3.2,0,0.00749071
0.1,3.3,0,0.00767689
0.1,3.4,0,0.00786409
0.1,3.5,0,0.00803215
0.1,3.6,0,0.00819559
0.1,3.7,0,0.00835904
0.1,3.8,0,0.00852248
0.1,3.9,0,0.00868703
0.1,4,0,0.00882733
0.1,4.1,0,0.00896561
0.1,4.2,0,0.00910388
0.1,4.3,0,0.00924217
0.1,4.4,0,0.00938051
0.1,4.5,0,0.00949155
0.1,4.6,0,0.00960258
0.1,4.7,0,0.00971362
0.1,4.8,0,0.00982479
0.1,4.9,0,0.0099322
0.1,5,0,0.0100143
0.1,5.1,0,0.0100963
0.1,5.2,0,0.0101784
0.1,5.3,0,0.0102606
0.1,5.4,0,0.010335
0.1,5.5,0,0.0103867
0.1,5.6,0,0.0104383
0.1,5.7,0,0.01049
0.1,5.8,0,0.0105418
0.1,5.9,0,0.0105816
0.1,6,0,0.0106018
0.1,6.1,0,0.010622
0.1,6.2,0,0.0106423
0.1,6.3,0,0.0106625
0.1,6.4,0,0.0106668
0.1,6.5,0,0.0106549
0.1,6.6,0,0.0106431
0.1,6.7,0,0.0106312
0.1,6.8,0,0.0106193
0.1,6.9,0,0.0105877
0.1,7,0,0.0105438
0.1,7.1,0,0.0104999
0.1,7.2,0,0.010456
0.1,7.3,0,0.0104119
0.1,7.4,0,0.0103449
0.1,7.5,0,0.0102695
0.1,7.6,0,0.0101941
0.1,7.7,0,0.0101187
0.1,7.8,0,0.0100429
0.1,7.9,0,0.00994164
0.1,8,0,0.00983582
0.1,8.1,0,0.00973
0.1,8.2,0,0.00962418
0.1,8.3,0,0.00951768
0.1,8.4,0,0.00938409
0.1,8.5,0,0.00924942
0.1,8.6,0,0.00911475
0.1,8.7,0,0.00898003
0.1,8.8,0,0.00884242
0.1,8.9,0,0.00868088
0.1,9,0,0.00851934
0.1,9.1,0,0.0083578
0.1,9.2,0,0.00819608
0.1,9.3,0,0.00802891
0.1,9.4,0,0.00784285
0.1,9.5,0,0.0076568
0.1,9.6,0,0.00747074
0.1,9.7,0,0.0072843
0.1,9.8,0,0.00709055
0.1,9.9,0,0.00688253
0.1,10,0,0.00667451
0.1,10.1,0,0.00646649
0.1,10.2,0,0.00625783
0.1,10.3,0,0.00604087
0.1,10.4,0,0.00581391
0.1,10.5,0,0.00558695
0.1,10.6,0,0.00535998
0.1,10.7,0,0.00513213
0.1,10.8,0,0.00489605
0.1,10.9,0,0.00465365
0.1,11,0,0.00441125
0.1,11.1,0,0.00416885
0.1,11.2,0,0.00392527
0.1,11.3,0,0.00367463
0.1,11.4,0,0.00342062
0.1,11.5,0,0.00316662
0.1,11.6,0,0.00291261
0.1,11.7,0,0.00265722
0.1,11.8,0,0.0023964
0.1,11.9,0,0.00213411
0.1,12,0,0.00187181
0.1,12.1,0,0.00160951
0.1,12.2,0,0.00134485
0.1,12.3,0,0.0011371
0.1,12.4,0,0.000936584
0.1,12.5,0,0.000736066
0.1,12.6,0,0.000535547
0.1,12.7,0,0.000267279
0.2,0,0,0.000193369
0.2,0.1,0,0.000456823
0.2,0.2,0,0.000716722
0.2,0.3,0,0.000912109
0.2,0.4,0,0.00110749
0.2,0.5,0,0.00131061
0.2,0.6,0,0.00156678
0.2,0.7,0,0.0018229
0.2,0.8,0,0.00207877
0.2,0.9,0,0.00233465
0.2,1,0,0.00258841
0.2,1.1,0,0.0028351
0.2,1.2,0,0.00308179
0.2,1.3,0,0.00332909
0.2,1.4,0,0.00357783
0.2,1.5,0,0.00382221
0.2,1.6,0,0.00405836
0.2,1.7,0,0.00429451
0.2,1.8,0,0.00453145
0.2,1.9,0,0.0047695
0.2,2,0,0.00500051
0.2,2.1,0,0.00522333
0.2,2.2,0,0.00544615
0.2,2.3,0,0.00566985
0.2,2.4,0,0.00589435
0.2,2.5,0,0.00610822
0.2,2.6,0,0.00631431
0.2,2.7,0,0.0065204
0.2,2.8,0,0.00672743
0.2,2.9,0,0.00693496
0.2,3,0,0.00712771
0.2,3.1,0,0.00731389
0.2,3.2,0,0.00750008
0.2,3.3,0,0.00768724
0.2,3.4,0,0.00787472
0.2,3.5,0,0.00804278
0.2,3.6,0,0.00820622
0.2,3.7,0,0.00836967
0.2,3.8,0,0.00853419
0.2,3.9,0,0.00869887
0.2,4,0,0.00883917
0.2,4.1,0,0.00897744
0.2,4.2,0,0.00911572
0.2,4.3,0,0.00925514
0.2,4.4,0,0.00939349
0.2,4.5,0,0.00950453
0.2,4.6,0,0.00961556
0.2,4.7,0,0.0097267
0.2,4.8,0,0.00983873
0.2,4.9,0,0.00994615
0.2,5,0,0.0100282
0.2,5.1,0,0.0101103
0.2,5.2,0,0.0101925
0.2,5.3,0,0.0102753
0.2,5.4,0,0.0103496
0.2,5.5,0,0.0104013
0.2,5.6,0,0.010453
0.2,5.7,0,0.0105048
0.2,5.8,0,0.0105568
0.2,5.9,0,0.0105966
0.2,6,0,0.0106169
0.2,6.1,0,0.0106371
0.2,6.2,0,0.0106574
0.2,6.3,0,0.0106777
0.2,6.4,0,0.0106819
0.2,6.5,0,0.0106701
0.2,6.6,0,0.0106582
0.2,6.7,0,0.0106463
0.2,6.8,0,0.0106344
0.2,6.9,0,0.0106028
0.2,7,0,0.0105589
0.2,7.1,0,0.010515
0.2,7.2,0,0.0104709
0.2,7.3,0,0.0104267
0.2,7.4,0,0.0103597
0.2,7.5,0,0.0102843
0.2,7.6,0,0.0102089
0.2,7.7,0,0.0101331
0.2,7.8,0,0.0100572
0.2,7.9,0,0.00995597
0.2,8,0,0.00985014
0.2,8.1,0,0.00974432
0.2,8.2,0,0.00963784
0.2,8.3,0,0.0095313
0.2,8.4,0,0.00939771
0.2,8.5,0,0.00926304
0.2,8.6,0,0.00912834
0.2,8.7,0,0.00899273
0.2,8.8,0,0.00885512
0.2,8.9,0,0.00869358
0.2,9,0,0.00853204
0.2,9.1,0,0.00837034
0.2,9.2,0,0.00820767
0.2,9.3,0,0.0080405
0.2,9.4,0,0.00785445
0.2,9.5,0,0.00766839
0.2,9.6,0,0.00748198
0.2,9.7,0,0.00729458
0.2,9.8,0,0.00710083
0.2,9.9,0,0.00689281
0.2,10,0,0.00668479
0.2,10.1,0,0.00647617
0.2,10.2,0,0.00626655
0.2,10.3,0,0.00604959
0.2,10.4,0,0.00582263
0.2,10.5,0,0.00559567
0.2,10.6,0,0.00536785
0.2,10.7,0,0.00513916
0.2,10.8,0,0.00490308
0.2,10.9,0,0.00466068
0.2,11,0,0.00441828
0.2,11.1,0,0.00417474
0.2,11.2,0,0.00393047
0.2,11.3,0,0.00367984
0.2,11.4,0,0.00342583
0.2,11.5,0,0.00317182
0.2,11.6,0,0.00291647
0.2,11.7,0,0.00266061
0.2,11.8,0,0.0023998
0.2,11.9,0,0.0021375
0.2,12,0,0.0018752
0.2,12.1,0,0.0016106
0.2,12.2,0,0.00134557
0.2,12.3,0,0.00113803
0.2,12.4,0,0.000937514
0.2,12.5,0,0.000736996
0.2,12.6,0,0.000470394
0.2,12.7,0,0.00020046
0.3,0,0,0.000128913
0.3,0.1,0,0.000392367
0.3,0.2,0,0.000655822
0.3,0.3,0,0.000913943
0.3,0.4,0,0.00110933
0.3,0.5,0,0.0013128
0.3,0.6,0,0.00156897
0.3,0.7,0,0.00182514
0.3,0.8,0,0.00208125
0.3,0.9,0,0.00233713
0.3,1,0,0.00259088
0.3,1.1,0,0.00283757
0.3,1.2,0,0.00308483
0.3,1.3,0,0.00333357
0.3,1.4,0,0.0035823
0.3,1.5,0,0.00382668
0.3,1.6,0,0.00406283
0.3,1.7,0,0.00429973
0.3,1.8,0,0.00453777
0.3,1.9,0,0.00477582
0.3,2,0,0.00500684
0.3,2.1,0,0.00522965
0.3,2.2,0,0.00545332
0.3,2.3,0,0.00567782
0.3,2.4,0,0.00590231
0.3,2.5,0,0.00611619
0.3,2.6,0,0.00632228
0.3,2.7,0,0.00652926
0.3,2.8,0,0.0067368
0.3,2.9,0,0.00694433
0.3,3,0,0.00713708
0.3,3.1,0,0.00732326
0.3,3.2,0,0.0075104
0.3,3.3,0,0.00769788
0.3,3.4,0,0.00788535
0.3,3.5,0,0.00805341
0.3,3.6,0,0.00821686
0.3,3.7,0,0.00838135
0.3,3.8,0,0.00854603
0.3,3.9,0,0.00871071
0.3,4,0,0.00885101
0.3,4.1,0,0.00898928
0.3,4.2,0,0.00912868
0.3,4.3,0,0.00926812
0.3,4.4,0,0.00940647
0.3,4.5,0,0.0095175
0.3,4.6,0,0.00962862
0.3,4.7,0,0.00974065
0.3,4.8,0,0.00985268
0.3,4.9,0,0.00996009
0.3,5,0,0.0100421
0.3,5.1,0,0.0101243
0.3,5.2,0,0.0102071
0.3,5.3,0,0.0102899
0.3,5.4,0,0.0103643
0.3,5.5,0,0.010416
0.3,5.6,0,0.0104677
0.3,5.7,0,0.0105198
0.3,5.8,0,0.0105719
0.3,5.9,0,0.0106117
0.3,6,0,0.0106319
0.3,6.1,0,0.0106522
0.3,6.2,0,0.0106725
0.3,6.3,0,0.0106928
0.3,6.4,0,0.0106971
0.3,6.5,0,0.0106852
0.3,6.6,0,0.0106733
0.3,6.7,0,0.0106614
0.3,6.8,0,0.0106495
0.3,6.9,0,0.0106179
0.3,7,0,0.010574
0.3,7.1,0,0.0105299
0.3,7.2,0,0.0104857
0.3,7.3,0,0.0104415
0.3,7.4,0,0.0103745
0.3,7.5,0,0.0102991
0.3,7.6,0,0.0102233
0.3,7.7,0,0.0101474
0.3,7.8,0,0.0100715
0.3,7.9,0,0.00997029
0.3,8,0,0.00986447
0.3,8.1,0,0.009758
0.3,8.2,0,0.00965147
0.3,8.3,0,0.00954493
0.3,8.4,0,0.00941134
0.3,8.5,0,0.00927666
0.3,8.6,0,0.00914104
0.3,8.7,0,0.00900543
0.3,8.8,0,0.00886782
0.3,8.9,0,0.00870628
0.3,9,0,0.0085446
0.3,9.1,0,0.00838193
0.3,9.2,0,0.00821926
0.3,9.3,0,0.0080521
0.3,9.4,0,0.00786604
0.3,9.5,0,0.00767966
0.3,9.6,0,0.00749226
0.3,9.7,0,0.00730486
0.3,9.8,0,0.00711111
0.3,9.9,0,0.00690309
0.3,10,0,0.0066945
0.3,10.1,0,0.00648488
0.3,10.2,0,0.00627527
0.3,10.3,0,0.00605831
0.3,10.4,0,0.00583135
0.3,10.5,0,0.00560357
0.3,10.6,0,0.00537488
0.3,10.7,0,0.00514619
0.3,10.8,0,0.00491011
0.3,10.9,0,0.00466771
0.3,11,0,0.00442421
0.3,11.1,0,0.00417995
0.3,11.2,0,0.00393568
0.3,11.3,0,0.00368504
0.3,11.4,0,0.00343103
0.3,11.5,0,0.00317573
0.3,11.6,0,0.00291986
0.3,11.7,0,0.002664
0.3,11.8,0,0.00240319
0.3,11.9,0,0.00214089
0.3,12,0,0.00187636
0.3,12.1,0,0.00161132
0.3,12.2,0,0.00134629
0.3,12.3,0,0.00113896
0.3,12.4,0,0.000938444
0.3,12.5,0,0.000673509
0.3,12.6,0,0.000403575
0.3,12.7,0,0.00013364
0.4,0,0,6.44563e-05
0.4,0.1,0,0.000327911
0.4,0.2,0,0.000591365
0.4,0.3,0,0.00085482
0.4,0.4,0,0.00111116
0.4,0.5,0,0.001315
0.4,0.6,0,0.00157116
0.4,0.7,0,0.00182733
0.4,0.8,0,0.0020835
0.4,0.9,0,0.00233961
0.4,1,0,0.00259336
0.4,1.1,0,0.00284057
0.4,1.2,0,0.00308931
0.4,1.3,0,0.00333804
0.4,1.4,0,0.00358677
0.4,1.5,0,0.00383115
0.4,1.6,0,0.00406801
0.4,1.7,0,0.00430605
0.4,1.8,0,0.0045441
0.4,1.9,0,0.00478214
0.4,2,0,0.00501316
0.4,2.1,0,0.00523679
0.4,2.2,0,0.00546128
0.4,2.3,0,0.00568578
0.4,2.4,0,0.00591027
0.4,2.5,0,0.00612415
0.4,2.6,0,0.0063311
0.4,2.7,0,0.00653864
0.4,2.8,0,0.00674617
0.4,2.9,0,0.0069537
0.4,3,0,0.00714645
0.4,3.1,0,0.00733356
0.4,3.2,0,0.00752103
0.4,3.3,0,0.00770851
0.4,3.4,0,0.00789598
0.4,3.5,0,0.00806404
0.4,3.6,0,0.00822851
0.4,3.7,0,0.00839319
0.4,3.8,0,0.00855787
0.4,3.9,0,0.00872255
0.4,4,0,0.00886285
0.4,4.1,0,0.00900222
0.4,4.2,0,0.00914166
0.4,4.3,0,0.0092811
0.4,4.4,0,0.00941944
0.4,4.5,0,0.00953054
0.4,4.6,0,0.00964257
0.4,4.7,0,0.00975459
0.4,4.8,0,0.00986662
0.4,4.9,0,0.00997404
0.4,5,0,0.0100562
0.4,5.1,0,0.010139
0.4,5.2,0,0.0102218
0.4,5.3,0,0.0103045
0.4,5.4,0,0.0103789
0.4,5.5,0,0.0104307
0.4,5.6,0,0.0104828
0.4,5.7,0,0.0105348
0.4,5.8,0,0.0105869
0.4,5.9,0,0.0106267
0.4,6,0,0.010647
0.4,6.1,0,0.0106673
0.4,6.2,0,0.0106877
0.4,6.3,0,0.010708
0.4,6.4,0,0.0107122
0.4,6.5,0,0.0107004
0.4,6.6,0,0.0106884
0.4,6.7,0,0.0106765
0.4,6.8,0,0.0106646
0.4,6.9,0,0.010633
0.4,7,0,0.0105889
0.4,7.1,0,0.0105447
0.4,7.2,0,0.0105005
0.4,7.3,0,0.0104563
0.4,7.4,0,0.0103893
0.4,7.5,0,0.0103135
0.4,7.6,0,0.0102376
0.4,7.7,0,0.0101617
0.4,7.8,0,0.0100858
0.4,7.9,0,0.00998461
0.4,8,0,0.00987817
0.4,8.1,0,0.00977163
0.4,8.2,0,0.00966509
0.4,8.3,0,0.00955855
0.4,8.4,0,0.00942496
0.4,8.5,0,0.00928936
0.4,8.6,0,0.00915374
0.4,8.7,0,0.00901813
0.4,8.8,0,0.00888052
0.4,8.9,0,0.00871887
0.4,9,0,0.0085562
0.4,9.1,0,0.00839353
0.4,9.2,0,0.00823086
0.4,9.3,0,0.00806369
0.4,9.4,0,0.00787734
0.4,9.5,0,0.00768994
0.4,9.6,0,0.00750254
0.4,9.7,0,0.00731513
0.4,9.8,0,0.00712139
0.4,9.9,0,0.00691284
0.4,10,0,0.00670322
0.4,10.1,0,0.0064936
0.4,10.2,0,0.00628398
0.4,10.3,0,0.00606703
0.4,10.4,0,0.00583929
0.4,10.5,0,0.0056106
0.4,10.6,0,0.00538191
0.4,10.7,0,0.00515321
0.4,10.8,0,0.00491714
0.4,10.9,0,0.00467369
0.4,11,0,0.00442942
0.4,11.1,0,0.00418515
0.4,11.2,0,0.00394088
0.4,11.3,0,0.00369024
0.4,11.4,0,0.00343498
0.4,11.5,0,0.00317912
0.4,11.6,0,0.00292325
0.4,11.7,0,0.00266739
0.4,11.8,0,0.00240658
0.4,11.9,0,0.00214211
0.4,12,0,0.00187708
0.4,12.1,0,0.00161204
0.4,12.2,0,0.001347
0.4,12.3,0,0.00113989
0.4,12.4,0,0.000876624
0.4,12.5,0,0.000606689
0.4,12.6,0,0.000336755
0.4,12.7,0,6.68198e-05
0.5,0,0,0
0.5,0.1,0,0.000263649
0.5,0.2,0,0.000527299
0.5,0.3,0,0.000790948
0.5,0.4,0,0.0010546
0.5,0.5,0,0.00131726
0.5,0.6,0,0.00157341
0.5,0.7,0,0.00182956
0.5,0.8,0,0.00208572
0.5,0.9,0,0.00234187
0.5,1,0,0.00259631
0.5,1.1,0,0.00284505
0.5,1.2,0,0.00309378
0.5,1.3,0,0.00334251
0.5,1.4,0,0.00359125
0.5,1.5,0,0.00383628
0.5,1.6,0,0.00407433
0.5,1.7,0,0.00431237
0.5,1.8,0,0.00455042
0.5,1.9,0,0.00478846
0.5,2,0,0.00502026
0.5,2.1,0,0.00524475
0.5,2.2,0,0.00546925
0.5,2.3,0,0.00569374
0.5,2.4,0,0.00591824
0.5,2.5,0,0.00613294
0.5,2.6,0,0.00634048
0.5,2.7,0,0.00654801
0.5,2.8,0,0.00675554
0.5,2.9,0,0.00696307
0.5,3,0,0.00715671
0.5,3.1,0,0.00734419
0.5,3.2,0,0.00753166
0.5,3.3,0,0.00771914
0.5,3.4,0,0.00790661
0.5,3.5,0,0.00807567
0.5,3.6,0,0.00824035
0.5,3.7,0,0.00840503
0.5,3.8,0,0.00856971
0.5,3.9,0,0.00873438
0.5,4,0,0.00887576
0.5,4.1,0,0.0090152
0.5,4.2,0,0.00915464
0.5,4.3,0,0.00929407
0.5,4.4,0,0.00943246
0.5,4.5,0,0.00954448
0.5,4.6,0,0.00965651
0.5,4.7,0,0.00976854
0.5,4.8,0,0.00988056
0.5,4.9,0,0.00998809
0.5,5,0,0.0100709
0.5,5.1,0,0.0101536
0.5,5.2,0,0.0102364
0.5,5.3,0,0.0103192
0.5,5.4,0,0.0103937
0.5,5.5,0,0.0104458
0.5,5.6,0,0.0104978
0.5,5.7,0,0.0105499
0.5,5.8,0,0.0106019
0.5,5.9,0,0.0106418
0.5,6,0,0.0106621
0.5,6.1,0,0.0106825
0.5,6.2,0,0.0107028
0.5,6.3,0,0.0107232
0.5,6.4,0,0.0107274
0.5,6.5,0,0.0107154
0.5,6.6,0,0.0107035
0.5,6.7,0,0.0106916
0.5,6.8,0,0.0106797
0.5,6.9,0,0.0106479
0.5,7,0,0.0106037
0.5,7.1,0,0.0105595
0.5,7.2,0,0.0105153
0.5,7.3,0,0.0104711
0.5,7.4,0,0.0104037
0.5,7.5,0,0.0103278
0.5,7.6,0,0.0102519
0.5,7.7,0,0.010176
0.5,7.8,0,0.0101002
0.5,7.9,0,0.00999833
0.5,8,0,0.00989179
0.5,8.1,0,0.00978525
0.5,8.2,0,0.00967871
0.5,8.3,0,0.00957218
0.5,8.4,0,0.00943768
0.5,8.5,0,0.00930206
0.5,8.6,0,0.00916645
0.5,8.7,0,0.00903083
0.5,8.8,0,0.00889313
0.5,8.9,0,0.00873046
0.5,9,0,0.00856779
0.5,9.1,0,0.00840512
0.5,9.2,0,0.00824245
0.5,9.3,0,0.00807503
0.5,9.4,0,0.00788762
0.5,9.5,0,0.00770022
0.5,9.6,0,0.00751282
0.5,9.7,0,0.00732541
0.5,9.8,0,0.00713117
0.5,9.9,0,0.00692156
0.5,10,0,0.00671194
0.5,10.1,0,0.00650232
0.5,10.2,0,0.0062927
0.5,10.3,0,0.00607501
0.5,10.4,0,0.00584632
0.5,10.5,0,0.00561763
0.5,10.6,0,0.00538893
0.5,10.7,0,0.00516024
0.5,10.8,0,0.00492316
0.5,10.9,0,0.00467889
0.5,11,0,0.00443462
0.5,11.1,0,0.00419035
0.5,11.2,0,0.00394608
0.5,11.3,0,0.00369423
0.5,11.4,0,0.00343837
0.5,11.5,0,0.00318251
0.5,11.6,0,0.00292665
0.5,11.7,0,0.00267078
0.5,11.8,0,0.00240786
0.5,11.9,0,0.00214283
0.5,12,0,0.00187779
0.5,12.1,0,0.00161276
0.5,12.2,0,0.00134772
0.5,12.3,0,0.00107974
0.5,12.4,0,0.000809804
0.5,12.5,0,0.00053987
0.5,12.6,0,0.000269935
0.5,12.7,0,0
0.6,0,0,0
0.6,0.1,0,0.000263964
0.6,0.2,0,0.000527614
0.6,0.3,0,0.000791263
0.6,0.4,0,0.00105491
0.6,0.5,0,0.00131846
0.6,0.6,0,0.00158029
0.6,0.7,0,0.00183644
0.6,0.8,0,0.00209259
0.6,0.9,0,0.00234875
0.6,1,0,0.00260465
0.6,1.1,0,0.00285807
0.6,1.2,0,0.00310681
0.6,1.3,0,0.00335554
0.6,1.4,0,0.00360428
0.6,1.5,0,0.00384939
0.6,1.6,0,0.00408743
0.6,1.7,0,0.00432548
0.6,1.8,0,0.00456352
0.6,1.9,0,0.00480432
0.6,2,0,0.00503958
0.6,2.1,0,0.00526408
0.6,2.2,0,0.00548857
0.6,2.3,0,0.00571307
0.6,2.4,0,0.00594031
0.6,2.5,0,0.00615711
0.6,2.6,0,0.00636464
0.6,2.7,0,0.00657217
0.6,2.8,0,0.0067797
0.6,2.9,0,0.00699036
0.6,3,0,0.00718544
0.6,3.1,0,0.00737292
0.6,3.2,0,0.00756039
0.6,3.3,0,0.00774786
0.6,3.4,0,0.00793858
0.6,3.5,0,0.00810843
0.6,3.6,0,0.00827311
0.6,3.7,0,0.00843779
0.6,3.8,0,0.00860247
0.6,3.9,0,0.00877051
0.6,4,0,0.00891218
0.6,4.1,0,0.00905162
0.6,4.2,0,0.00919105
0.6,4.3,0,0.00933054
0.6,4.4,0,0.00947207
0.6,4.5,0,0.0095841
0.6,4.6,0,0.00969612
0.6,4.7,0,0.00980815
0.6,4.8,0,0.00992054
0.6,4.9,0,0.0100304
0.6,5,0,0.0101132
0.6,5.1,0,0.0101959
0.6,5.2,0,0.0102787
0.6,5.3,0,0.010362
0.6,5.4,0,0.0104381
0.6,5.5,0,0.0104902
0.6,5.6,0,0.0105422
0.6,5.7,0,0.0105943
0.6,5.8,0,0.0106469
0.6,5.9,0,0.0106877
0.6,6,0,0.0107081
0.6,6.1,0,0.0107284
0.6,6.2,0,0.0107487
0.6,6.3,0,0.0107694
0.6,6.4,0,0.010774
0.6,6.5,0,0.0107621
0.6,6.6,0,0.0107502
0.6,6.7,0,0.0107382
0.6,6.8,0,0.0107263
0.6,6.9,0,0.0106945
0.6,7,0,0.0106503
0.6,7.1,0,0.0106061
0.6,7.2,0,0.0105619
0.6,7.3,0,0.0105172
0.6,7.4,0,0.0104496
0.6,7.5,0,0.0103737
0.6,7.6,0,0.0102978
0.6,7.7,0,0.0102219
0.6,7.8,0,0.0101447
0.6,7.9,0,0.0100426
0.6,8,0,0.0099361
0.6,8.1,0,0.00982956
0.6,8.2,0,0.00972303
0.6,8.3,0,0.00961431
0.6,8.4,0,0.00947973
0.6,8.5,0,0.00934411
0.6,8.6,0,0.00920849
0.6,8.7,0,0.00907271
0.6,8.8,0,0.00893222
0.6,8.9,0,0.00876955
0.6,9,0,0.00860688
0.6,9.1,0,0.00844421
0.6,9.2,0,0.00828092
0.6,9.3,0,0.00811058
0.6,9.4,0,0.00792318
0.6,9.5,0,0.00773577
0.6,9.6,0,0.00754837
0.6,9.7,0,0.00735976
0.6,9.8,0,0.0071626
0.6,9.9,0,0.00695298
0.6,10,0,0.00674336
0.6,10.1,0,0.00653374
0.6,10.2,0,0.00632226
0.6,10.3,0,0.00610188
0.6,10.4,0,0.00587318
0.6,10.5,0,0.00564449
0.6,10.6,0,0.0054158
0.6,10.7,0,0.00518439
0.6,10.8,0,0.00494485
0.6,10.9,0,0.00470058
0.6,11,0,0.00445631
0.6,11.1,0,0.00421204
0.6,11.2,0,0.0039638
0.6,11.3,0,0.00370973
0.6,11.4,0,0.00345387
0.6,11.5,0,0.00319801
0.6,11.6,0,0.00294215
0.6,11.7,0,0.00268025
0.6,11.8,0,0.00241544
0.6,11.9,0,0.00215037
0.6,12,0,0.00188531
0.6,12.1,0,0.00162024
0.6,12.2,0,0.00135117
0.6,12.3,0,0.00107874
0.6,12.4,0,0.000808914
0.6,12.5,0,0.000539276
0.6,12.6,0,0.000269638
0.6,12.7,0,0
0.7,0,0,0
0.7,0.1,0,0.000263971
0.7,0.2,0,0.000527929
0.7,0.3,0,0.000791578
0.7,0.4,0,0.00105523
0.7,0.5,0,0.00131879
0.7,0.6,0,0.00158163
0.7,0.7,0,0.00184332
0.7,0.8,0,0.00209947
0.7,0.9,0,0.00235563
0.7,1,0,0.00261154
0.7,1.1,0,0.00286654
0.7,1.2,0,0.00311984
0.7,1.3,0,0.00336857
0.7,1.4,0,0.00361731
0.7,1.5,0,0.00386249
0.7,1.6,0,0.00410053
0.7,1.7,0,0.00433858
0.7,1.8,0,0.00457916
0.7,1.9,0,0.00482365
0.7,2,0,0.00505891
0.7,2.1,0,0.00528341
0.7,2.2,0,0.0055079
0.7,2.3,0,0.00573503
0.7,2.4,0,0.00596447
0.7,2.5,0,0.00618128
0.7,2.6,0,0.00638881
0.7,2.7,0,0.00659634
0.7,2.8,0,0.00680689
0.7,2.9,0,0.00701909
0.7,3,0,0.00721417
0.7,3.1,0,0.00740164
0.7,3.2,0,0.00758912
0.7,3.3,0,0.00777973
0.7,3.4,0,0.00797134
0.7,3.5,0,0.00814119
0.7,3.6,0,0.00830587
0.7,3.7,0,0.00847055
0.7,3.8,0,0.00863851
0.7,3.9,0,0.00880693
0.7,4,0,0.0089486
0.7,4.1,0,0.00908803
0.7,4.2,0,0.00922747
0.7,4.3,0,0.00937016
0.7,4.4,0,0.00951169
0.7,4.5,0,0.00962371
0.7,4.6,0,0.00973574
0.7,4.7,0,0.00984806
0.7,4.8,0,0.00996284
0.7,4.9,0,0.0100727
0.7,5,0,0.0101555
0.7,5.1,0,0.0102382
0.7,5.2,0,0.0103215
0.7,5.3,0,0.0104065
0.7,5.4,0,0.0104826
0.7,5.5,0,0.0105346
0.7,5.6,0,0.0105867
0.7,5.7,0,0.0106393
0.7,5.8,0,0.0106928
0.7,5.9,0,0.0107336
0.7,6,0,0.010754
0.7,6.1,0,0.0107743
0.7,6.2,0,0.010795
0.7,6.3,0,0.0108161
0.7,6.4,0,0.0108207
0.7,6.5,0,0.0108088
0.7,6.6,0,0.0107968
0.7,6.7,0,0.0107849
0.7,6.8,0,0.010773
0.7,6.9,0,0.0107412
0.7,7,0,0.010697
0.7,7.1,0,0.0106528
0.7,7.2,0,0.010608
0.7,7.3,0,0.010563
0.7,7.4,0,0.0104955
0.7,7.5,0,0.0104196
0.7,7.6,0,0.0103437
0.7,7.7,0,0.0102665
0.7,7.8,0,0.010189
0.7,7.9,0,0.010087
0.7,8,0,0.00998042
0.7,8.1,0,0.00987388
0.7,8.2,0,0.00976522
0.7,8.3,0,0.00965636
0.7,8.4,0,0.00952178
0.7,8.5,0,0.00938616
0.7,8.6,0,0.00925045
0.7,8.7,0,0.0091118
0.7,8.8,0,0.0089713
0.7,8.9,0,0.00880863
0.7,9,0,0.00864596
0.7,9.1,0,0.00848276
0.7,9.2,0,0.00831648
0.7,9.3,0,0.00814613
0.7,9.4,0,0.00795873
0.7,9.5,0,0.00777132
0.7,9.6,0,0.00758282
0.7,9.7,0,0.00739118
0.7,9.8,0,0.00719402
0.7,9.9,0,0.0069844
0.7,10,0,0.00677478
0.7,10.1,0,0.0065634
0.7,10.2,0,0.00634912
0.7,10.3,0,0.00612874
0.7,10.4,0,0.00590004
0.7,10.5,0,0.00567135
0.7,10.6,0,0.00544007
0.7,10.7,0,0.00520612
0.7,10.8,0,0.00496654
0.7,10.9,0,0.00472227
0.7,11,0,0.00447801
0.7,11.1,0,0.00422987
0.7,11.2,0,0.00397937
0.7,11.3,0,0.00372524
0.7,11.4,0,0.00346937
0.7,11.5,0,0.00321351
0.7,11.6,0,0.0029517
0.7,11.7,0,0.00268788
0.7,11.8,0,0.00242304
0.7,11.9,0,0.00215798
0.7,12,0,0.00189291
0.7,12.1,0,0.00162387
0.7,12.2,0,0.00135421
0.7,12.3,0,0.00108175
0.7,12.4,0,0.000809056
0.7,12.5,0,0.000539276
0.7,12.6,0,0.000269638
0.7,12.7,0,0
0.8,0,0,0
0.8,0.1,0,0.000263971
0.8,0.2,0,0.000527941
0.8,0.3,0,0.000791893
0.8,0.4,0,0.00105554
0.8,0.5,0,0.00131911
0.8,0.6,0,0.00158196
0.8,0.7,0,0.00184481
0.8,0.8,0,0.00210635
0.8,0.9,0,0.00236251
0.8,1,0,0.00261843
0.8,1.1,0,0.00287343
0.8,1.2,0,0.00312843
0.8,1.3,0,0.0033816
0.8,1.4,0,0.00363033
0.8,1.5,0,0.00387559
0.8,1.6,0,0.00411363
0.8,1.7,0,0.004354
0.8,1.8,0,0.00459849
0.8,1.9,0,0.00484298
0.8,2,0,0.00507824
0.8,2.1,0,0.00530274
0.8,2.2,0,0.00552975
0.8,2.3,0,0.00575919
0.8,2.4,0,0.00598864
0.8,2.5,0,0.00620544
0.8,2.6,0,0.00641297
0.8,2.7,0,0.00662341
0.8,2.8,0,0.00683561
0.8,2.9,0,0.00704781
0.8,3,0,0.0072429
0.8,3.1,0,0.00743037
0.8,3.2,0,0.00762089
0.8,3.3,0,0.00781249
0.8,3.4,0,0.0080041
0.8,3.5,0,0.00817395
0.8,3.6,0,0.00833863
0.8,3.7,0,0.0085065
0.8,3.8,0,0.00867492
0.8,3.9,0,0.00884335
0.8,4,0,0.00898501
0.8,4.1,0,0.00912445
0.8,4.2,0,0.00926706
0.8,4.3,0,0.00940977
0.8,4.4,0,0.0095513
0.8,4.5,0,0.00966333
0.8,4.6,0,0.00977559
0.8,4.7,0,0.00989036
0.8,4.8,0,0.0100051
0.8,4.9,0,0.010115
0.8,5,0,0.0101978
0.8,5.1,0,0.010281
0.8,5.2,0,0.0103659
0.8,5.3,0,0.0104509
0.8,5.4,0,0.010527
0.8,5.5,0,0.0105791
0.8,5.6,0,0.0106316
0.8,5.7,0,0.0106852
0.8,5.8,0,0.0107387
0.8,5.9,0,0.0107795
0.8,6,0,0.0107999
0.8,6.1,0,0.0108206
0.8,6.2,0,0.0108417
0.8,6.3,0,0.0108628
0.8,6.4,0,0.0108673
0.8,6.5,0,0.0108554
0.8,6.6,0,0.0108435
0.8,6.7,0,0.0108315
0.8,6.8,0,0.0108196
0.8,6.9,0,0.0107878
0.8,7,0,0.0107436
0.8,7.1,0,0.0106989
0.8,7.2,0,0.0106539
0.8,7.3,0,0.0106089
0.8,7.4,0,0.0105413
0.8,7.5,0,0.0104654
0.8,7.6,0,0.0103883
0.8,7.7,0,0.0103108
0.8,7.8,0,0.0102333
0.8,7.9,0,0.0101313
0.8,8,0,0.0100247
0.8,8.1,0,0.00991612
0.8,8.2,0,0.00980727
0.8,8.3,0,0.00969841
0.8,8.4,0,0.00956382
0.8,8.5,0,0.00942818
0.8,8.6,0,0.00928953
0.8,8.7,0,0.00915088
0.8,8.8,0,0.00901039
0.8,8.9,0,0.00884772
0.8,9,0,0.0086846
0.8,9.1,0,0.00851832
0.8,9.2,0,0.00835203
0.8,9.3,0,0.00818168
0.8,9.4,0,0.00799428
0.8,9.5,0,0.00780587
0.8,9.6,0,0.00761424
0.8,9.7,0,0.00742261
0.8,9.8,0,0.00722544
0.8,9.9,0,0.00701582
0.8,10,0,0.00680455
0.8,10.1,0,0.00659027
0.8,10.2,0,0.00637598
0.8,10.3,0,0.0061556
0.8,10.4,0,0.00592691
0.8,10.5,0,0.00569575
0.8,10.6,0,0.0054618
0.8,10.7,0,0.00522785
0.8,10.8,0,0.00498824
0.8,10.9,0,0.00474397
0.8,11,0,0.00449594
0.8,11.1,0,0.00424543
0.8,11.2,0,0.00399493
0.8,11.3,0,0.00374074
0.8,11.4,0,0.00348487
0.8,11.5,0,0.00322315
0.8,11.6,0,0.00295933
0.8,11.7,0,0.00269551
0.8,11.8,0,0.00243064
0.8,11.9,0,0.00216558
0.8,12,0,0.00189658
0.8,12.1,0,0.00162692
0.8,12.2,0,0.00135726
0.8,12.3,0,0.00108475
0.8,12.4,0,0.000812062
0.8,12.5,0,0.000539371
0.8,12.6,0,0.000269638
0.8,12.7,0,0
0.9,0,0,0
0.9,0.1,0,0.000263971
0.9,0.2,0,0.000527941
0.9,0.3,0,0.000791912
0.9,0.4,0,0.00105586
0.9,0.5,0,0.00131944
0.9,0.6,0,0.00158229
0.9,0.7,0,0.00184514
0.9,0.8,0,0.00210798
0.9,0.9,0,0.00236938
0.9,1,0,0.00262532
0.9,1.1,0,0.00288032
0.9,1.2,0,0.00313532
0.9,1.3,0,0.00339032
0.9,1.4,0,0.00364336
0.9,1.5,0,0.00388869
0.9,1.6,0,0.00412883
0.9,1.7,0,0.00437333
0.9,1.8,0,0.00461782
0.9,1.9,0,0.00486231
0.9,2,0,0.00509757
0.9,2.1,0,0.00532447
0.9,2.2,0,0.00555391
0.9,2.3,0,0.00578336
0.9,2.4,0,0.00601281
0.9,2.5,0,0.00622961
0.9,2.6,0,0.00643994
0.9,2.7,0,0.00665214
0.9,2.8,0,0.00686434
0.9,2.9,0,0.00707654
0.9,3,0,0.00727162
0.9,3.1,0,0.00746205
0.9,3.2,0,0.00765365
0.9,3.3,0,0.00784525
0.9,3.4,0,0.00803685
0.9,3.5,0,0.00820671
0.9,3.6,0,0.0083745
0.9,3.7,0,0.00854292
0.9,3.8,0,0.00871134
0.9,3.9,0,0.00887976
0.9,4,0,0.00902143
0.9,4.1,0,0.00916396
0.9,4.2,0,0.00930667
0.9,4.3,0,0.00944938
0.9,4.4,0,0.00959091
0.9,4.5,0,0.00970311
0.9,4.6,0,0.00981789
0.9,4.7,0,0.00993266
0.9,4.8,0,0.0100474
0.9,4.9,0,0.0101573
0.9,5,0,0.0102405
0.9,5.1,0,0.0103254
0.9,5.2,0,0.0104104
0.9,5.3,0,0.0104953
0.9,5.4,0,0.0105714
0.9,5.5,0,0.0106239
0.9,5.6,0,0.0106775
0.9,5.7,0,0.0107311
0.9,5.8,0,0.0107847
0.9,5.9,0,0.0108255
0.9,6,0,0.0108461
0.9,6.1,0,0.0108672
0.9,6.2,0,0.0108883
0.9,6.3,0,0.0109094
0.9,6.4,0,0.010914
0.9,6.5,0,0.0109021
0.9,6.6,0,0.0108901
0.9,6.7,0,0.0108782
0.9,6.8,0,0.0108662
0.9,6.9,0,0.0108345
0.9,7,0,0.0107898
0.9,7.1,0,0.0107448
0.9,7.2,0,0.0106998
0.9,7.3,0,0.0106548
0.9,7.4,0,0.0105872
0.9,7.5,0,0.0105101
0.9,7.6,0,0.0104326
0.9,7.7,0,0.0103551
0.9,7.8,0,0.0102776
0.9,7.9,0,0.0101756
0.9,8,0,0.010067
0.9,8.1,0,0.00995817
0.9,8.2,0,0.00984932
0.9,8.3,0,0.00974046
0.9,8.4,0,0.00960587
0.9,8.5,0,0.00946727
0.9,8.6,0,0.00932862
0.9,8.7,0,0.00918997
0.9,8.8,0,0.00904947
0.9,8.9,0,0.00888644
0.9,9,0,0.00872015
0.9,9.1,0,0.00855387
0.9,9.2,0,0.00838758
0.9,9.3,0,0.00821724
0.9,9.4,0,0.00802892
0.9,9.5,0,0.00783729
0.9,9.6,0,0.00764566
0.9,9.7,0,0.00745403
0.9,9.8,0,0.00725686
0.9,9.9,0,0.0070457
0.9,10,0,0.00683141
0.9,10.1,0,0.00661713
0.9,10.2,0,0.00640284
0.9,10.3,0,0.00618246
0.9,10.4,0,0.00595142
0.9,10.5,0,0.00571747
0.9,10.6,0,0.00548352
0.9,10.7,0,0.00524957
0.9,10.8,0,0.00500993
0.9,10.9,0,0.00476201
0.9,11,0,0.0045115
0.9,11.1,0,0.004261
0.9,11.2,0,0.00401049
0.9,11.3,0,0.00375624
0.9,11.4,0,0.0034946
0.9,11.5,0,0.00323077
0.9,11.6,0,0.00296695
0.9,11.7,0,0.00270313
0.9,11.8,0,0.00243824
0.9,11.9,0,0.00216928
0.9,12,0,0.00189962
0.9,12.1,0,0.00162996
0.9,12.2,0,0.0013603
0.9,12.3,0,0.00108776
0.9,12.4,0,0.000815067
0.9,12.5,0,0.000542376
0.9,12.6,0,0.000269685
0.9,12.7,0,0
1,0,0,0
1,0.1,0,0.000263971
1,0.2,0,0.000527941
1,0.3,0,0.000791912
1,0.4,0,0.00105588
1,0.5,0,0.00131977
1,0.6,0,0.00158262
1,0.7,0,0.00184546
1,0.8,0,0.00210831
1,0.9,0,0.00237116
1,1,0,0.00263221
1,1.1,0,0.00288721
1,1.2,0,0.00314221
1,1.3,0,0.00339721
1,1.4,0,0.00365221
1,1.5,0,0.00390367
1,1.6,0,0.00414816
1,1.7,0,0.00439265
1,1.8,0,0.00463715
1,1.9,0,0.00488164
1,2,0,0.00511919
1,2.1,0,0.00534863
1,2.2,0,0.00557808
1,2.3,0,0.00580753
1,2.4,0,0.00603697
1,2.5,0,0.00625647
1,2.6,0,0.00646867
1,2.7,0,0.00668087
1,2.8,0,0.00689307
1,2.9,0,0.00710527
1,3,0,0.00730321
1,3.1,0,0.00749481
1,3.2,0,0.00768641
1,3.3,0,0.00787801
1,3.4,0,0.00806961
1,3.5,0,0.00824249
1,3.6,0,0.00841091
1,3.7,0,0.00857934
1,3.8,0,0.00874776
1,3.9,0,0.00891618
1,4,0,0.00906087
1,4.1,0,0.00920358
1,4.2,0,0.00934629
1,4.3,0,0.009489
1,4.4,0,0.00963063
1,4.5,0,0.00974541
1,4.6,0,0.00986019
1,4.7,0,0.00997497
1,4.8,0,0.0100897
1,4.9,0,0.0101999
1,5,0,0.0102849
1,5.1,0,0.0103698
1,5.2,0,0.0104548
1,5.3,0,0.0105398
1,5.4,0,0.0106163
1,5.5,0,0.0106699
1,5.6,0,0.0107234
1,5.7,0,0.010777
1,5.8,0,0.0108306
1,5.9,0,0.0108717
1,6,0,0.0108928
1,6.1,0,0.0109139
1,6.2,0,0.010935
1,6.3,0,0.0109561
1,6.4,0,0.0109607
1,6.5,0,0.0109487
1,6.6,0,0.0109368
1,6.7,0,0.0109248
1,6.8,0,0.0109129
1,6.9,0,0.0108806
1,7,0,0.0108356
1,7.1,0,0.0107906
1,7.2,0,0.0107456
1,7.3,0,0.0107006
1,7.4,0,0.0106319
1,7.5,0,0.0105544
1,7.6,0,0.0104769
1,7.7,0,0.0103994
1,7.8,0,0.010322
1,7.9,0,0.0102179
1,8,0,0.0101091
1,8.1,0,0.0100002
1,8.2,0,0.00989137
1,8.3,0,0.00978251
1,8.4,0,0.009645
1,8.5,0,0.00950635
1,8.6,0,0.0093677
1,8.7,0,0.00922905
1,8.8,0,0.00908828
1,8.9,0,0.00892199
1,9,0,0.00875571
1,9.1,0,0.00858942
1,9.2,0,0.00842313
1,9.3,0,0.00825198
1,9.4,0,0.00806034
1,9.5,0,0.00786871
1,9.6,0,0.00767708
1,9.7,0,0.00748545
1,9.8,0,0.00728685
1,9.9,0,0.00707256
1,10,0,0.00685828
1,10.1,0,0.00664399
1,10.2,0,0.0064297
1,10.3,0,0.00620712
1,10.4,0,0.00597324
1,10.5,0,0.00573935
1,10.6,0,0.00550546
1,10.7,0,0.00527157
1,10.8,0,0.00502835
1,10.9,0,0.0047778
1,11,0,0.00452726
1,11.1,0,0.00427672
1,11.2,0,0.00402617
1,11.3,0,0.00376604
1,11.4,0,0.00350222
1,11.5,0,0.0032384
1,11.6,0,0.00297458
1,11.7,0,0.00271076
1,11.8,0,0.00244198
1,11.9,0,0.00217232
1,12,0,0.00190267
1,12.1,0,0.00163301
1,12.2,0,0.00136335
1,12.3,0,0.00109076
1,12.4,0,0.000818073
1,12.5,0,0.000545382
1,12.6,0,0.000272691
1,12.7,0,0
1.1,0,0,0
1.1,0.1,0,0.000271951
1.1,0.2,0,0.000535861
1.1,0.3,0,0.000799771
1.1,0.4,0,0.00106368
1.1,0.5,0,0.00132768
1.1,0.6,0,0.00159278
1.1,0.7,0,0.00185558
1.1,0.8,0,0.00211838
1.1,0.9,0,0.00238118
1.1,1,0,0.00264483
1.1,1.1,0,0.00291014
1.1,1.2,0,0.00316527
1.1,1.3,0,0.0034204
1.1,1.4,0,0.00367554
1.1,1.5,0,0.00392755
1.1,1.6,0,0.00417206
1.1,1.7,0,0.00441657
1.1,1.8,0,0.00466108
1.1,1.9,0,0.004909
1.1,2,0,0.00515144
1.1,2.1,0,0.00538088
1.1,2.2,0,0.00561033
1.1,2.3,0,0.00583978
1.1,2.4,0,0.00607447
1.1,2.5,0,0.0062981
1.1,2.6,0,0.0065103
1.1,2.7,0,0.0067225
1.1,2.8,0,0.0069347
1.1,2.9,0,0.00715178
1.1,3,0,0.00735197
1.1,3.1,0,0.00754357
1.1,3.2,0,0.00773517
1.1,3.3,0,0.00792677
1.1,3.4,0,0.00812393
1.1,3.5,0,0.00829817
1.1,3.6,0,0.00846659
1.1,3.7,0,0.00863502
1.1,3.8,0,0.00880344
1.1,3.9,0,0.00897768
1.1,4,0,0.00912286
1.1,4.1,0,0.00926557
1.1,4.2,0,0.00940828
1.1,4.3,0,0.00955108
1.1,4.4,0,0.00969812
1.1,4.5,0,0.0098129
1.1,4.6,0,0.00992767
1.1,4.7,0,0.0100425
1.1,4.8,0,0.0101578
1.1,4.9,0,0.010272
1.1,5,0,0.010357
1.1,5.1,0,0.0104419
1.1,5.2,0,0.0105269
1.1,5.3,0,0.0106128
1.1,5.4,0,0.0106921
1.1,5.5,0,0.0107457
1.1,5.6,0,0.0107992
1.1,5.7,0,0.0108528
1.1,5.8,0,0.0109073
1.1,5.9,0,0.0109501
1.1,6,0,0.0109712
1.1,6.1,0,0.0109923
1.1,6.2,0,0.0110134
1.1,6.3,0,0.0110352
1.1,6.4,0,0.0110404
1.1,6.5,0,0.0110285
1.1,6.6,0,0.0110166
1.1,6.7,0,0.0110046
1.1,6.8,0,0.0109927
1.1,6.9,0,0.0109605