x,y,z,U_0,U_1,U_2
0,0,0,0.3,-0.000484403,0
0,0.1,0,0.3,-0.000290642,0
0,0.2,0,0.3,-9.68806e-05,0
0,0.3,0,0.3,0,0
0,0.4,0,0.3,0,0
0,0.5,0,0.3,0,0
0,0.6,0,0.3,0,0
0,0.7,0,0.3,0,0
0,0.8,0,0.3,0,0
0,0.9,0,0.3,0,0
0,1,0,0.3,0,0
0,1.1,0,0.3,0,0
0,1.2,0,0.3,0,0
0,1.3,0,0.3,0,0
0,1.4,0,0.3,0,0
0,1.5,0,0.3,0,0
0,1.6,0,0.3,0,0
0,1.7,0,0.3,0,0
0,1.8,0,0.3,0,0
0,1.9,0,0.3,0,0
0,2,0,0.3,0,0
0,2.1,0,0.3,0,0
0,2.2,0,0.3,0,0
0,2.3,0,0.3,0,0
0,2.4,0,0.3,0,0
0,2.5,0,0.3,0,0
0,2.6,0,0.3,0,0
0,2.7,0,0.3,0,0
0,2.8,0,0.3,0,0
0,2.9,0,0.3,0,0
0,3,0,0.3,0,0
0,3.1,0,0.3,0,0
0,3.2,0,0.3,0,0
0,3.3,0,0.3,0,0
0,3.4,0,0.3,0,0
0,3.5,0,0.3,0,0
0,3.6,0,0.3,0,0
0,3.7,0,0.3,0,0
0,3.8,0,0.3,0,0
0,3.9,0,0.3,0,0
0,4,0,0.3,0,0
0,4.1,0,0.3,0,0
0,4.2,0,0.3,0,0
0,4.3,0,0.3,0,0
0,4.4,0,0.3,0,0
0,4.5,0,0.3,0,0
0,4.6,0,0.3,0,0
0,4.7,0,0.3,0,0
0,4.8,0,0.3,0,0
0,4.9,0,0.3,0,0
0,5,0,0.3,0,0
0,5.1,0,0.3,0,0
0,5.2,0,0.3,0,0
0,5.3,0,0.3,0,0
0,5.4,0,0.3,0,0
0,5.5,0,0.3,0,0
0,5.6,0,0.3,0,0
0,5.7,0,0.3,0,0
0,5.8,0,0.3,0,0
0,5.9,0,0.3,0,0
0,6,0,0.3,0,0
0,6.1,0,0.3,0,0
0,6.2,0,0.3,0,0
0,6.3,0,0.3,0,0
0,6.4,0,0.3,0,0
0,6.5,0,0.3,0,0
0,6.6,0,0.3,0,0
0,6.7,0,0.3,0,0
0,6.8,0,0.3,0,0
0,6.9,0,0.3,0,0
0,7,0,0.3,0,0
0,7.1,0,0.3,0,0
0,7.2,0,0.3,0,0
0,7.3,0,0.3,0,0
0,7.4,0,0.3,0,0
0,7.5,0,0.3,0,0
0,7.6,0,0.3,0,0
0,7.7,0,0.3,0,0
0,7.8,0,0.3,0,0
0,7.9,0,0.3,0,0
0,8,0,0.3,0,0
0,8.1,0,0.3,0,0
0,8.2,0,0.3,0,0
0,8.3,0,0.3,0,0
0,8.4,0,0.3,0,0
0,8.5,0,0.3,0,0
0,8.6,0,0.3,0,0
0,8.7,0,0.3,0,0
0,8.8,0,0.3,0,0
0,8.9,0,0.3,0,0
0,9,0,0.3,0,0
0,9.1,0,0.3,0,0
0,9.2,0,0.3,0,0
0,9.3,0,0.3,0,0
0,9.4,0,0.3,0,0
0,9.5,0,0.3,0,0
0,9.6,0,0.3,0,0
0,9.7,0,0.3,0,0
0,9.8,0,0.3,0,0
0,9.9,0,0.3,0,0
0,10,0,0.3,0,0
0,10.1,0,0.3,0,0
0,10.2,0,0.3,0,0
0,10.3,0,0.3,0,0
0,10.4,0,0.3,0,0
0,10.5,0,0.3,0,0
0,10.6,0,0.3,0,0
0,10.7,0,0.3,0,0
0,10.8,0,0.3,0,0
0,10.9,0,0.3,0,0
0,11,0,0.3,0,0
0,11.1,0,0.3,0,0
0,11.2,0,0.3,0,0
0,11.3,0,0.3,0,0
0,11.4,0,0.3,0,0
0,11.5,0,0.3,0,0
0,11.6,0,0.3,0,0
0,11.7,0,0.3,0,0
0,11.8,0,0.3,0,0
0,11.9,0,0.3,0,0
0,12,0,0.3,0,0
0,12.1,0,0.3,0,0
0,12.2,0,0.3,0,0
0,12.3,0,0.3,0,0
0,12.4,0,0.3,3.24666e-05,0
0,12.5,0,0.3,0.000125228,0
0,12.6,0,0.3,0.00021799,0
0,12.7,0,0.3,0.000310752,0
0.1,0,0,0.300001,-0.00106538,0
0.1,0.1,0,0.3,-0.000871925,0
0.1,0.2,0,0.3,-0.000775298,0
0.1,0.3,0,0.3,-0.000776089,0
0.1,0.4,0,0.3,-0.000776626,0
0.1,0.5,0,0.300002,-0.000777888,0
0.1,0.6,0,0.300001,-0.000779614,0
0.1,0.7,0,0.300002,-0.000780555,0
0.1,0.8,0,0.300002,-0.000782599,0
0.1,0.9,0,0.300001,-0.000783702,0
0.1,1,0,0.300003,-0.000785999,0
0.1,1.1,0,0.300001,-0.000788438,0
0.1,1.2,0,0.300002,-0.000789665,0
0.1,1.3,0,0.300002,-0.000792072,0
0.1,1.4,0,0.300001,-0.000793251,0
0.1,1.5,0,0.300003,-0.000795535,0
0.1,1.6,0,0.300001,-0.000797432,0
0.1,1.7,0,0.300001,-0.000798287,0
0.1,1.8,0,0.300001,-0.000799631,0
0.1,1.9,0,0.3,-0.00080012,0
0.1,2,0,0.3,-0.000800775,0
0.1,2.1,0,0.3,-0.000800296,0
0.1,2.2,0,0.299999,-0.000799827,0
0.1,2.3,0,0.299999,-0.000798095,0
0.1,2.4,0,0.299999,-0.000796833,0
0.1,2.5,0,0.299996,-0.000793684,0
0.1,2.6,0,0.299999,-0.000788466,0
0.1,2.7,0,0.299996,-0.000785463,0
0.1,2.8,0,0.299995,-0.000778167,0
0.1,2.9,0,0.299998,-0.000773875,0
0.1,3,0,0.299988,-0.000764341,0
0.1,3.1,0,0.299998,-0.000751731,0
0.1,3.2,0,0.299991,-0.000744872,0
0.1,3.3,0,0.29999,-0.000729393,0
0.1,3.4,0,0.299996,-0.000720774,0
0.1,3.5,0,0.299978,-0.000702278,0
0.1,3.6,0,0.299995,-0.000679919,0
0.1,3.7,0,0.299984,-0.000668047,0
0.1,3.8,0,0.299983,-0.000642274,0
0.1,3.9,0,0.299994,-0.000628374,0
0.1,4,0,0.299966,-0.000599097,0
0.1,4.1,0,0.299993,-0.000565763,0
0.1,4.2,0,0.299976,-0.000548338,0
0.1,4.3,0,0.299976,-0.000511582,0
0.1,4.4,0,0.299992,-0.000492252,0
0.1,4.5,0,0.299954,-0.000452103,0
0.1,4.6,0,0.299991,-0.000408838,0
0.1,4.7,0,0.29997,-0.000386458,0
0.1,4.8,0,0.29997,-0.000341019,0
0.1,4.9,0,0.29999,-0.00031796,0
0.1,5,0,0.299947,-0.000283164,0
0.1,5.1,0,0.299946,-0.00022872,0
0.1,5.2,0,0.299945,-0.000187535,0
0.1,5.3,0,0.299945,-0.000145827,0
0.1,5.4,0,0.299945,-0.000103819,0
0.1,5.5,0,0.299944,-6.16565e-05,0
0.1,5.6,0,0.299945,-1.95123e-05,0
0.1,5.7,0,0.299945,2.24472e-05,0
0.1,5.8,0,0.299945,6.40908e-05,0
0.1,5.9,0,0.299946,0.000105169,0
0.1,6,0,0.299947,0.000166812,0
0.1,6.1,0,0.299979,0.000198838,0
0.1,6.2,0,0.29999,0.000209727,0
0.1,6.3,0,0.299962,0.000253778,0
0.1,6.4,0,0.299971,0.000297287,0
0.1,6.5,0,0.299991,0.000326942,0
0.1,6.6,0,0.299976,0.000351966,0
0.1,6.7,0,0.299966,0.000390202,0
0.1,6.8,0,0.299992,0.000426423,0
0.1,6.9,0,0.299987,0.00043709,0
0.1,7,0,0.299968,0.000468876,0
0.1,7.1,0,0.299986,0.000497596,0
0.1,7.2,0,0.299994,0.000508734,0
0.1,7.3,0,0.299981,0.000531403,0
0.1,7.4,0,0.299985,0.000553606,0
0.1,7.5,0,0.299996,0.000569094,0
0.1,7.6,0,0.29999,0.00057899,0
0.1,7.7,0,0.299986,0.000595037,0
0.1,7.8,0,0.299997,0.000608908,0
0.1,7.9,0,0.299996,0.000612608,0
0.1,8,0,0.299991,0.000622825,0
0.1,8.1,0,0.299996,0.000630813,0
0.1,8.2,0,0.299998,0.000634218,0
0.1,8.3,0,0.299997,0.000638411,0
0.1,8.4,0,0.299998,0.000642024,0
0.1,8.5,0,0.3,0.000644169,0
0.1,8.6,0,0.3,0.000644355,0
0.1,8.7,0,0.300001,0.000644398,0
0.1,8.8,0,0.300001,0.000643226,0
0.1,8.9,0,0.300001,0.00064251,0
0.1,9,0,0.300004,0.000639603,0
0.1,9.1,0,0.300002,0.000635779,0
0.1,9.2,0,0.300001,0.000633826,0
0.1,9.3,0,0.300004,0.000629498,0
0.1,9.4,0,0.300005,0.000623997,0
0.1,9.5,0,0.300002,0.000619083,0
0.1,9.6,0,0.300004,0.000615884,0
0.1,9.7,0,0.300007,0.000609296,0
0.1,9.8,0,0.300002,0.000602384,0
0.1,9.9,0,0.300002,0.000600063,0
0.1,10,0,0.300007,0.000592866,0
0.1,10.1,0,0.300004,0.000585566,0
0.1,10.2,0,0.300002,0.00058161,0
0.1,10.3,0,0.300005,0.000575841,0
0.1,10.4,0,0.300006,0.00056857,0
0.1,10.5,0,0.300002,0.000562134,0
0.1,10.6,0,0.300004,0.000559067,0
0.1,10.7,0,0.300007,0.000552122,0
0.1,10.8,0,0.300003,0.000545379,0
0.1,10.9,0,0.300002,0.000543195,0
0.1,11,0,0.300006,0.000536903,0
0.1,11.1,0,0.300004,0.000530867,0
0.1,11.2,0,0.300002,0.000527356,0
0.1,11.3,0,0.300004,0.000523387,0
0.1,11.4,0,0.300004,0.000518194,0
0.1,11.5,0,0.300001,0.000513551,0
0.1,11.6,0,0.300002,0.000511891,0
0.1,11.7,0,0.300004,0.000507657,0
0.1,11.8,0,0.300002,0.000503884,0
0.1,11.9,0,0.300001,0.000502669,0
0.1,12,0,0.300003,0.000499644,0
0.1,12.1,0,0.300002,0.000496989,0
0.1,12.2,0,0.300001,0.000495392,0
0.1,12.3,0,0.300001,0.000494214,0
0.1,12.4,0,0.300001,0.000492706,0
0.1,12.5,0,0.3,0.00049251,0
0.1,12.6,0,0.3,0.00058517,0
0.1,12.7,0,0.300001,0.000677633,0
0.2,0,0,0.300001,-0.00164636,0
0.2,0.1,0,0.300001,-0.00155004,0
0.2,0.2,0,0.300001,-0.00155085,0
0.2,0.3,0,0.300001,-0.00155164,0
0.2,0.4,0,0.300002,-0.00155398,0
0.2,0.5,0,0.300003,-0.00155578,0
0.2,0.6,0,0.300003,-0.00155844,0
0.2,0.7,0,0.300004,-0.00156205,0
0.2,0.8,0,0.300004,-0.00156409,0
0.2,0.9,0,0.300004,-0.0015686,0
0.2,1,0,0.300006,-0.001572,0
0.2,1.1,0,0.300005,-0.00157566,0
0.2,1.2,0,0.300005,-0.00158056,0
0.2,1.3,0,0.300005,-0.00158296,0
0.2,1.4,0,0.300004,-0.00158761,0
0.2,1.5,0,0.300005,-0.00159107,0
0.2,1.6,0,0.300004,-0.00159382,0
0.2,1.7,0,0.300003,-0.00159743,0
0.2,1.8,0,0.300003,-0.00159877,0
0.2,1.9,0,0.300001,-0.00160041,0
0.2,2,0,0.300001,-0.00160155,0
0.2,2.1,0,0.3,-0.0016006,0
0.2,2.2,0,0.299998,-0.00159918,0
0.2,2.3,0,0.299997,-0.00159745,0
0.2,2.4,0,0.299995,-0.00159178,0
0.2,2.5,0,0.299992,-0.00158737,0
0.2,2.6,0,0.299992,-0.00157915,0
0.2,2.7,0,0.299988,-0.00156792,0
0.2,2.8,0,0.299988,-0.00156063,0
0.2,2.9,0,0.299984,-0.00154251,0
0.2,3,0,0.299977,-0.00152868,0
0.2,3.1,0,0.299979,-0.00150921,0
0.2,3.2,0,0.299974,-0.00148288,0
0.2,3.3,0,0.299973,-0.00146741,0
0.2,3.4,0,0.299968,-0.00143167,0
0.2,3.5,0,0.299956,-0.00140456,0
0.2,3.6,0,0.299962,-0.00137032,0
0.2,3.7,0,0.299956,-0.00132422,0
0.2,3.8,0,0.299955,-0.00129845,0
0.2,3.9,0,0.299949,-0.00124137,0
0.2,4,0,0.299932,-0.00119819,0
0.2,4.1,0,0.299942,-0.00114743,0
0.2,4.2,0,0.299936,-0.00107925,0
0.2,4.3,0,0.299936,-0.00104249,0
0.2,4.4,0,0.29993,-0.000963685,0
0.2,4.5,0,0.299909,-0.000904206,0
0.2,4.6,0,0.299925,-0.000838561,0
0.2,4.7,0,0.29992,-0.000750537,0
0.2,4.8,0,0.29992,-0.000705098,0
0.2,4.9,0,0.299917,-0.000624183,0
0.2,5,0,0.299894,-0.000566328,0
0.2,5.1,0,0.299892,-0.000457439,0
0.2,5.2,0,0.29989,-0.00037507,0
0.2,5.3,0,0.29989,-0.000291653,0
0.2,5.4,0,0.299889,-0.000207637,0
0.2,5.5,0,0.299889,-0.000123313,0
0.2,5.6,0,0.299889,-3.90245e-05,0
0.2,5.7,0,0.29989,4.48943e-05,0
0.2,5.8,0,0.299891,0.000128182,0
0.2,5.9,0,0.299892,0.000210338,0
0.2,6,0,0.299894,0.000333624,0
0.2,6.1,0,0.299917,0.000380334,0
0.2,6.2,0,0.29992,0.000456856,0
0.2,6.3,0,0.299913,0.000523129,0
0.2,6.4,0,0.299922,0.000566638,0
0.2,6.5,0,0.299928,0.000647934,0
0.2,6.6,0,0.299933,0.000730013,0
0.2,6.7,0,0.299925,0.000769538,0
0.2,6.8,0,0.299938,0.000825784,0
0.2,6.9,0,0.299944,0.000893791,0
0.2,7,0,0.299935,0.00093934,0
0.2,7.1,0,0.299949,0.000974813,0
0.2,7.2,0,0.299956,0.00102749,0
0.2,7.3,0,0.299956,0.00107245,0
0.2,7.4,0,0.29996,0.00109466,0
0.2,7.5,0,0.299967,0.00113118,0
0.2,7.6,0,0.299973,0.00116888,0
0.2,7.7,0,0.29997,0.00118661,0
0.2,7.8,0,0.299977,0.0012064,0
0.2,7.9,0,0.299982,0.00123049,0
0.2,8,0,0.299982,0.00124667,0
0.2,8.1,0,0.299986,0.00125574,0
0.2,8.2,0,0.29999,0.00126819,0
0.2,8.3,0,0.299993,0.00127894,0
0.2,8.4,0,0.299994,0.00128255,0
0.2,8.5,0,0.299997,0.00128557,0
0.2,8.6,0,0.300001,0.00128863,0
0.2,8.7,0,0.300002,0.00128903,0
0.2,8.8,0,0.300003,0.00128632,0
0.2,8.9,0,0.300005,0.00128224,0
0.2,9,0,0.300008,0.00127877,0
0.2,9.1,0,0.300007,0.00127402,0
0.2,9.2,0,0.300008,0.00126488,0
0.2,9.3,0,0.300011,0.00125642,0
0.2,9.4,0,0.300011,0.00125092,0
0.2,9.5,0,0.300011,0.00123965,0
0.2,9.6,0,0.300012,0.00122727,0
0.2,9.7,0,0.300015,0.00121963,0
0.2,9.8,0,0.300012,0.00120926,0
0.2,9.9,0,0.300013,0.00119515,0
0.2,10,0,0.300015,0.00118429,0
0.2,10.1,0,0.300013,0.00117604,0
0.2,10.2,0,0.300013,0.00116141,0
0.2,10.3,0,0.300014,0.00114766,0
0.2,10.4,0,0.300014,0.00114039,0
0.2,10.5,0,0.300013,0.00112773,0
0.2,10.6,0,0.300012,0.00111353,0
0.2,10.7,0,0.300015,0.00110492,0
0.2,10.8,0,0.300012,0.00109547,0
0.2,10.9,0,0.300011,0.00108243,0
0.2,11,0,0.300013,0.00107223,0
0.2,11.1,0,0.300011,0.00106577,0
0.2,11.2,0,0.30001,0.00105445,0
0.2,11.3,0,0.30001,0.00104356,0
0.2,11.4,0,0.30001,0.00103836,0
0.2,11.5,0,0.300008,0.00103032,0
0.2,11.6,0,0.300007,0.00102112,0
0.2,11.7,0,0.300009,0.0010155,0
0.2,11.8,0,0.300007,0.00101058,0
0.2,11.9,0,0.300006,0.00100378,0
0.2,12,0,0.300006,0.000998381,0
0.2,12.1,0,0.300005,0.000995675,0
0.2,12.2,0,0.300004,0.000991471,0
0.2,12.3,0,0.300003,0.000987318,0
0.2,12.4,0,0.300003,0.00098581,0
0.2,12.5,0,0.300002,0.000984471,0
0.2,12.6,0,0.300001,0.000983037,0
0.2,12.7,0,0.300002,0.00104451,0
0.3,0,0,0.300002,-0.00232351,0
0.3,0.1,0,0.300002,-0.00232447,0
0.3,0.2,0,0.300003,-0.00232528,0
0.3,0.3,0,0.300004,-0.00232774,0
0.3,0.4,0,0.300005,-0.00233008,0
0.3,0.5,0,0.300007,-0.00233312,0
0.3,0.6,0,0.300007,-0.00233765,0
0.3,0.7,0,0.300008,-0.00234126,0
0.3,0.8,0,0.300008,-0.00234755,0
0.3,0.9,0,0.300009,-0.00235206,0
0.3,1,0,0.300011,-0.00235783,0
0.3,1.1,0,0.30001,-0.00236407,0
0.3,1.2,0,0.30001,-0.00236896,0
0.3,1.3,0,0.30001,-0.00237644,0
0.3,1.4,0,0.300009,-0.00238109,0
0.3,1.5,0,0.30001,-0.00238704,0
0.3,1.6,0,0.300008,-0.0023918,0
0.3,1.7,0,0.300007,-0.00239541,0
0.3,1.8,0,0.300005,-0.00239981,0
0.3,1.9,0,0.300004,-0.00240144,0
0.3,2,0,0.300002,-0.0024036,0
0.3,2.1,0,0.299999,-0.00240225,0
0.3,2.2,0,0.299997,-0.00240083,0
0.3,2.3,0,0.299992,-0.0023961,0
0.3,2.4,0,0.29999,-0.00239043,0
0.3,2.5,0,0.299984,-0.00238335,0
0.3,2.6,0,0.299981,-0.00236993,0
0.3,2.7,0,0.299978,-0.00235871,0
0.3,2.8,0,0.299971,-0.00233734,0
0.3,2.9,0,0.299967,-0.00231922,0
0.3,3,0,0.299955,-0.0022964,0
0.3,3.1,0,0.299954,-0.00226426,0
0.3,3.2,0,0.299949,-0.00223793,0
0.3,3.3,0,0.299939,-0.0021919,0
0.3,3.4,0,0.299933,-0.00215617,0
0.3,3.5,0,0.299915,-0.00211108,0
0.3,3.6,0,0.299917,-0.00205424,0
0.3,3.7,0,0.299911,-0.00200814,0
0.3,3.8,0,0.299899,-0.00193093,0
0.3,3.9,0,0.299893,-0.00187386,0
0.3,4,0,0.299869,-0.00180182,0
0.3,4.1,0,0.299875,-0.0017172,0
0.3,4.2,0,0.299869,-0.00164902,0
0.3,4.3,0,0.299858,-0.00153836,0
0.3,4.4,0,0.299852,-0.00145955,0
0.3,4.5,0,0.299824,-0.00136014,0
0.3,4.6,0,0.299837,-0.00125002,0
0.3,4.7,0,0.299833,-0.00116199,0
0.3,4.8,0,0.299825,-0.00102316,0
0.3,4.9,0,0.299822,-0.000942243,0
0.3,5,0,0.299794,-0.000851352,0
0.3,5.1,0,0.299789,-0.000687431,0
0.3,5.2,0,0.299787,-0.000563615,0
0.3,5.3,0,0.299785,-0.000438174,0
0.3,5.4,0,0.299784,-0.000311779,0
0.3,5.5,0,0.299783,-0.000184902,0
0.3,5.6,0,0.299784,-5.80828e-05,0
0.3,5.7,0,0.299785,6.8151e-05,0
0.3,5.8,0,0.299787,0.000193364,0
0.3,5.9,0,0.29979,0.00031682,0
0.3,6,0,0.299795,0.00050248,0
0.3,6.1,0,0.299823,0.000590664,0
0.3,6.2,0,0.299826,0.000667186,0
0.3,6.3,0,0.299821,0.000763273,0
0.3,6.4,0,0.299839,0.000895322,0
0.3,6.5,0,0.299845,0.000978339,0
0.3,6.6,0,0.299851,0.00106042,0
0.3,6.7,0,0.299852,0.00117494,0
0.3,6.8,0,0.29987,0.00125791,0
0.3,6.9,0,0.299877,0.00132591,0
0.3,7,0,0.299873,0.00141133,0
0.3,7.1,0,0.299897,0.00148794,0
0.3,7.2,0,0.299904,0.00154062,0
0.3,7.3,0,0.299907,0.00159871,0
0.3,7.4,0,0.299922,0.00166502,0
0.3,7.5,0,0.29993,0.00170442,0
0.3,7.6,0,0.299936,0.00174212,0
0.3,7.7,0,0.299942,0.00178913,0
0.3,7.8,0,0.299954,0.00182019,0
0.3,7.9,0,0.29996,0.00184428,0
0.3,8,0,0.299963,0.00187212,0
0.3,8.1,0,0.299975,0.00189297,0
0.3,8.2,0,0.299979,0.00190542,0
0.3,8.3,0,0.299984,0.00191822,0
0.3,8.4,0,0.299991,0.00192852,0
0.3,8.5,0,0.299995,0.00193209,0
0.3,8.6,0,0.299999,0.00193515,0
0.3,8.7,0,0.300004,0.0019353,0
0.3,8.8,0,0.300008,0.0019311,0
0.3,8.9,0,0.30001,0.00192702,0
0.3,9,0,0.300015,0.00192045,0
0.3,9.1,0,0.300017,0.00190901,0
0.3,9.2,0,0.300018,0.00189988,0
0.3,9.3,0,0.300021,0.00188963,0
0.3,9.4,0,0.300023,0.00187278,0
0.3,9.5,0,0.300024,0.00185944,0
0.3,9.6,0,0.300025,0.00184706,0
0.3,9.7,0,0.300029,0.0018284,0
0.3,9.8,0,0.300027,0.00181066,0
0.3,9.9,0,0.300027,0.00179655,0
0.3,10,0,0.30003,0.00177882,0
0.3,10.1,0,0.300028,0.00175767,0
0.3,10.2,0,0.300028,0.00174305,0
0.3,10.3,0,0.300028,0.00172752,0
0.3,10.4,0,0.300029,0.00170553,0
0.3,10.5,0,0.300027,0.00168965,0
0.3,10.6,0,0.300027,0.00167545,0
0.3,10.7,0,0.300029,0.001656,0
0.3,10.8,0,0.300025,0.00163884,0
0.3,10.9,0,0.300024,0.0016258,0
0.3,11,0,0.300025,0.00161023,0
0.3,11.1,0,0.300022,0.0015926,0
0.3,11.2,0,0.300021,0.00158129,0
0.3,11.3,0,0.300021,0.00156963,0
0.3,11.4,0,0.30002,0.00155395,0
0.3,11.5,0,0.300017,0.00154325,0
0.3,11.6,0,0.300016,0.00153406,0
0.3,11.7,0,0.300017,0.00152223,0
0.3,11.8,0,0.300013,0.00151269,0
0.3,11.9,0,0.300012,0.00150589,0
0.3,12,0,0.300012,0.00149818,0
0.3,12.1,0,0.300009,0.00149033,0
0.3,12.2,0,0.300008,0.00148613,0
0.3,12.3,0,0.300007,0.0014819,0
0.3,12.4,0,0.300005,0.00147728,0
0.3,12.5,0,0.300004,0.00147525,0
0.3,12.6,0,0.300003,0.00147382,0
0.3,12.7,0,0.300003,0.00147263,0
0.4,0,0,0.300004,-0.00309682,0
0.4,0.1,0,0.300004,-0.00309794,0
0.4,0.2,0,0.300005,-0.00309951,0
0.4,0.3,0,0.300006,-0.00310197,0
0.4,0.4,0,0.300008,-0.00310618,0
0.4,0.5,0,0.300011,-0.00310992,0
0.4,0.6,0,0.300011,-0.00311538,0
0.4,0.7,0,0.300014,-0.00312199,0
0.4,0.8,0,0.300015,-0.00312828,0
0.4,0.9,0,0.300015,-0.00313644,0
0.4,1,0,0.300018,-0.00314348,0
0.4,1.1,0,0.300016,-0.00315107,0
0.4,1.2,0,0.300018,-0.00316005,0
0.4,1.3,0,0.300017,-0.00316753,0
0.4,1.4,0,0.300015,-0.00317617,0
0.4,1.5,0,0.300017,-0.00318343,0
0.4,1.6,0,0.300014,-0.00318936,0
0.4,1.7,0,0.300012,-0.0031962,0
0.4,1.8,0,0.30001,-0.0032006,0
0.4,1.9,0,0.300006,-0.00320424,0
0.4,2,0,0.300003,-0.00320692,0
0.4,2.1,0,0.299999,-0.00320564,0
0.4,2.2,0,0.299993,-0.00320373,0
0.4,2.3,0,0.299988,-0.003199,0
0.4,2.4,0,0.299982,-0.00319012,0
0.4,2.5,0,0.299973,-0.00318164,0
0.4,2.6,0,0.299971,-0.00316602,0
0.4,2.7,0,0.299958,-0.00314686,0
0.4,2.8,0,0.29995,-0.00312549,0
0.4,2.9,0,0.299942,-0.00309502,0
0.4,3,0,0.299924,-0.0030675,0
0.4,3.1,0,0.299926,-0.00302954,0
0.4,3.2,0,0.299904,-0.00298366,0
0.4,3.3,0,0.299894,-0.00293763,0
0.4,3.4,0,0.299887,-0.00287629,0
0.4,3.5,0,0.299856,-0.00282185,0
0.4,3.6,0,0.299865,-0.00275428,0
0.4,3.7,0,0.299836,-0.00267329,0
0.4,3.8,0,0.299824,-0.00259608,0
0.4,3.9,0,0.299819,-0.00249697,0
0.4,4,0,0.299777,-0.00240999,0
0.4,4.1,0,0.299795,-0.00230893,0
0.4,4.2,0,0.29976,-0.00218859,0
0.4,4.3,0,0.299749,-0.00207794,0
0.4,4.4,0,0.299751,-0.00193992,0
0.4,4.5,0,0.2997,-0.00181991,0
0.4,4.6,0,0.299731,-0.00168769,0
0.4,4.7,0,0.299695,-0.0015319,0
0.4,4.8,0,0.299687,-0.00139307,0
0.4,4.9,0,0.2997,-0.0012391,0
0.4,5,0,0.299648,-0.00113824,0
0.4,5.1,0,0.299639,-0.000918695,0
0.4,5.2,0,0.299634,-0.000753168,0
0.4,5.3,0,0.29963,-0.00058539,0
0.4,5.4,0,0.299628,-0.000416245,0
0.4,5.5,0,0.299627,-0.000246423,0
0.4,5.6,0,0.299628,-7.66871e-05,0
0.4,5.7,0,0.299631,9.22172e-05,0
0.4,5.8,0,0.299635,0.000259639,0
0.4,5.9,0,0.29964,0.000424613,0
0.4,6,0,0.29965,0.00067338,0
0.4,6.1,0,0.29969,0.000767309,0
0.4,6.2,0,0.299712,0.00090159,0
0.4,6.3,0,0.299688,0.00103943,0
0.4,6.4,0,0.299707,0.00117148,0
0.4,6.5,0,0.299742,0.00131185,0
0.4,6.6,0,0.29974,0.00144745,0
0.4,6.7,0,0.29974,0.00156307,0
0.4,6.8,0,0.299779,0.00167152,0
0.4,6.9,0,0.299794,0.0017952,0
0.4,7,0,0.299784,0.00189129,0
0.4,7.1,0,0.299816,0.00197699,0
0.4,7.2,0,0.299844,0.00207438,0
0.4,7.3,0,0.299841,0.00214906,0
0.4,7.4,0,0.299856,0.00221537,0
0.4,7.5,0,0.299883,0.00228072,0
0.4,7.6,0,0.299892,0.00234116,0
0.4,7.7,0,0.299898,0.00238919,0
0.4,7.8,0,0.29992,0.00242989,0
0.4,7.9,0,0.299935,0.00247259,0
0.4,8,0,0.299938,0.00250326,0
0.4,8.1,0,0.299952,0.00252636,0
0.4,8.2,0,0.299968,0.00254953,0
0.4,8.3,0,0.299974,0.00256467,0
0.4,8.4,0,0.299982,0.00257497,0
0.4,8.5,0,0.299992,0.00258175,0
0.4,8.6,0,0.300001,0.00258458,0
0.4,8.7,0,0.300007,0.00258446,0
0.4,8.8,0,0.300011,0.00258013,0
0.4,8.9,0,0.300019,0.00257173,0
0.4,9,0,0.300026,0.00256285,0
0.4,9.1,0,0.300028,0.00255079,0
0.4,9.2,0,0.300032,0.00253485,0
0.4,9.3,0,0.300038,0.00251866,0
0.4,9.4,0,0.300041,0.0025018,0
0.4,9.5,0,0.30004,0.00248255,0
0.4,9.6,0,0.300044,0.00245987,0
0.4,9.7,0,0.300049,0.00243988,0
0.4,9.8,0,0.300045,0.00241877,0
0.4,9.9,0,0.300046,0.00239241,0
0.4,10,0,0.300052,0.00237061,0
0.4,10.1,0,0.300049,0.00234848,0
0.4,10.2,0,0.300046,0.00232281,0
0.4,10.3,0,0.30005,0.00229909,0
0.4,10.4,0,0.300051,0.0022771,0
0.4,10.5,0,0.300045,0.00225451,0
0.4,10.6,0,0.300046,0.00222912,0
0.4,10.7,0,0.300049,0.00220808,0
0.4,10.8,0,0.300043,0.0021878,0
0.4,10.9,0,0.30004,0.00216358,0
0.4,11,0,0.300044,0.00214449,0
0.4,11.1,0,0.30004,0.00212634,0
0.4,11.2,0,0.300035,0.00210647,0
0.4,11.3,0,0.300036,0.00208848,0
0.4,11.4,0,0.300035,0.0020728,0
0.4,11.5,0,0.30003,0.00205782,0
0.4,11.6,0,0.300028,0.00204146,0
0.4,11.7,0,0.300029,0.00202858,0
0.4,11.8,0,0.300024,0.00201735,0
0.4,11.9,0,0.30002,0.00200455,0
0.4,12,0,0.30002,0.00199529,0
0.4,12.1,0,0.300017,0.00198735,0
0.4,12.2,0,0.300013,0.00197957,0
0.4,12.3,0,0.300011,0.00197325,0
0.4,12.4,0,0.300009,0.00196863,0
0.4,12.5,0,0.300006,0.00196534,0
0.4,12.6,0,0.300005,0.00196305,0
0.4,12.7,0,0.300006,0.00196199,0
0.5,0,0,0.300006,-0.00387014,0
0.5,0.1,0,0.300007,-0.00387186,0
0.5,0.2,0,0.300008,-0.00387359,0
0.5,0.3,0,0.30001,-0.00387691,0
0.5,0.4,0,0.300013,-0.00388181,0
0.5,0.5,0,0.300016,-0.00388672,0
0.5,0.6,0,0.300018,-0.00389426,0
0.5,0.7,0,0.300021,-0.00390179,0
0.5,0.8,0,0.300022,-0.00391027,0
0.5,0.9,0,0.300024,-0.0039197,0
0.5,1,0,0.300026,-0.00392914,0
0.5,1.1,0,0.300026,-0.00393946,0
0.5,1.2,0,0.300026,-0.00394979,0
0.5,1.3,0,0.300026,-0.00395993,0
0.5,1.4,0,0.300025,-0.00396988,0
0.5,1.5,0,0.300024,-0.00397983,0
0.5,1.6,0,0.300021,-0.00398783,0
0.5,1.7,0,0.300018,-0.00399583,0
0.5,1.8,0,0.300014,-0.00400191,0
0.5,1.9,0,0.300009,-0.00400607,0
0.5,2,0,0.300004,-0.00401024,0
0.5,2.1,0,0.299997,-0.00400839,0
0.5,2.2,0,0.29999,-0.00400655,0
0.5,2.3,0,0.299981,-0.00400049,0
0.5,2.4,0,0.299971,-0.00399021,0
0.5,2.5,0,0.299962,-0.00397992,0
0.5,2.6,0,0.299949,-0.00395857,0
0.5,2.7,0,0.299937,-0.00393721,0
0.5,2.8,0,0.299923,-0.00390894,0
0.5,2.9,0,0.299908,-0.00387377,0
0.5,3,0,0.299892,-0.0038386,0
0.5,3.1,0,0.299874,-0.0037869,0
0.5,3.2,0,0.299856,-0.00373521,0
0.5,3.3,0,0.299837,-0.00367401,0
0.5,3.4,0,0.299817,-0.00360331,0
0.5,3.5,0,0.299796,-0.00353262,0
0.5,3.6,0,0.299775,-0.00344089,0
0.5,3.7,0,0.299753,-0.00334917,0
0.5,3.8,0,0.29973,-0.00324628,0
0.5,3.9,0,0.299707,-0.00313221,0
0.5,4,0,0.299684,-0.00301815,0
0.5,4.1,0,0.299662,-0.00288138,0
0.5,4.2,0,0.299639,-0.00274461,0
0.5,4.3,0,0.299617,-0.00259692,0
0.5,4.4,0,0.299596,-0.0024383,0
0.5,4.5,0,0.299575,-0.00227968,0
0.5,4.6,0,0.299558,-0.0021018,0
0.5,4.7,0,0.29954,-0.00192391,0
0.5,4.8,0,0.299525,-0.001753,0
0.5,4.9,0,0.299513,-0.00158906,0
0.5,5,0,0.299501,-0.00142512,0
0.5,5.1,0,0.299488,-0.00114996,0
0.5,5.2,0,0.299481,-0.000942722,0
0.5,5.3,0,0.299476,-0.000732606,0
0.5,5.4,0,0.299473,-0.00052071,0
0.5,5.5,0,0.299472,-0.000307945,0
0.5,5.6,0,0.299473,-9.52914e-05,0
0.5,5.7,0,0.299477,0.000116283,0
0.5,5.8,0,0.299482,0.000325914,0
0.5,5.9,0,0.29949,0.000532407,0
0.5,6,0,0.299505,0.000844281,0
0.5,6.1,0,0.299518,0.00099935,0
0.5,6.2,0,0.299531,0.00115442,0
0.5,6.3,0,0.299544,0.00130949,0
0.5,6.4,0,0.299561,0.00147143,0
0.5,6.5,0,0.299582,0.00163708,0
0.5,6.6,0,0.299602,0.00180272,0
0.5,6.7,0,0.299623,0.00195963,0
0.5,6.8,0,0.299647,0.00209616,0
0.5,6.9,0,0.29967,0.00223269,0
0.5,7,0,0.299693,0.00236922,0
0.5,7.1,0,0.299717,0.002476,0
0.5,7.2,0,0.29974,0.00258121,0
0.5,7.3,0,0.299764,0.00268643,0
0.5,7.4,0,0.299787,0.00277339,0
0.5,7.5,0,0.299809,0.00284819,0
0.5,7.6,0,0.299831,0.00292299,0
0.5,7.7,0,0.299853,0.0029909,0
0.5,7.8,0,0.299872,0.00303818,0
0.5,7.9,0,0.299891,0.00308546,0
0.5,8,0,0.299911,0.00313274,0
0.5,8.1,0,0.299927,0.00315896,0
0.5,8.2,0,0.299943,0.00318283,0
0.5,8.3,0,0.299959,0.0032067,0
0.5,8.4,0,0.299973,0.00322024,0
0.5,8.5,0,0.299986,0.00322533,0
0.5,8.6,0,0.299998,0.00323041,0
0.5,8.7,0,0.30001,0.00323266,0
0.5,8.8,0,0.300019,0.00322353,0
0.5,8.9,0,0.300028,0.00321441,0
0.5,9,0,0.300037,0.00320529,0
0.5,9.1,0,0.300044,0.00318767,0
0.5,9.2,0,0.30005,0.00316854,0
0.5,9.3,0,0.300056,0.00314942,0
0.5,9.4,0,0.300061,0.00312712,0
0.5,9.5,0,0.300064,0.00310165,0
0.5,9.6,0,0.300068,0.00307618,0
0.5,9.7,0,0.300071,0.0030502,0
0.5,9.8,0,0.300072,0.0030214,0
0.5,9.9,0,0.300074,0.0029926,0
0.5,10,0,0.300075,0.0029638,0
0.5,10.1,0,0.300075,0.00293427,0
0.5,10.2,0,0.300075,0.00290455,0
0.5,10.3,0,0.300075,0.00287484,0
0.5,10.4,0,0.300075,0.00284556,0
0.5,10.5,0,0.300073,0.00281681,0
0.5,10.6,0,0.300072,0.00278806,0
0.5,10.7,0,0.30007,0.00275955,0
0.5,10.8,0,0.300068,0.00273322,0
0.5,10.9,0,0.300066,0.00270689,0
0.5,11,0,0.300063,0.00268057,0
0.5,11.1,0,0.300061,0.00265687,0
0.5,11.2,0,0.300058,0.00263406,0
0.5,11.3,0,0.300055,0.00261124,0
0.5,11.4,0,0.300051,0.00259014,0
0.5,11.5,0,0.300048,0.00257161,0
0.5,11.6,0,0.300044,0.00255309,0
0.5,11.7,0,0.300041,0.0025348,0
0.5,11.8,0,0.300037,0.00252111,0
0.5,11.9,0,0.300033,0.00250742,0
0.5,12,0,0.300029,0.00249373,0
0.5,12.1,0,0.300025,0.00248366,0
0.5,12.2,0,0.300022,0.00247516,0
0.5,12.3,0,0.300018,0.00246666,0
0.5,12.4,0,0.300014,0.00246011,0
0.5,12.5,0,0.300012,0.00245718,0
0.5,12.6,0,0.30001,0.00245426,0
0.5,12.7,0,0.300009,0.00245134,0
0.6,0,0,0.300008,-0.00464034,0
0.6,0.1,0,0.300007,-0.00464234,0
0.6,0.2,0,0.300011,-0.00464449,0
0.6,0.3,0,0.300015,-0.00464893,0
0.6,0.4,0,0.300018,-0.00465454,0
0.6,0.5,0,0.300024,-0.00466111,0
0.6,0.6,0,0.300026,-0.0046708,0
0.6,0.7,0,0.30003,-0.00467956,0
0.6,0.8,0,0.300033,-0.00469067,0
0.6,0.9,0,0.300034,-0.0047015,0
0.6,1,0,0.300039,-0.00471398,0
0.6,1.1,0,0.300037,-0.00472753,0
0.6,1.2,0,0.300039,-0.00473955,0
0.6,1.3,0,0.300038,-0.00475306,0
0.6,1.4,0,0.300036,-0.00476468,0
0.6,1.5,0,0.300036,-0.00477804,0
0.6,1.6,0,0.30003,-0.00478912,0
0.6,1.7,0,0.300027,-0.00479863,0
0.6,1.8,0,0.300022,-0.0048074,0
0.6,1.9,0,0.300015,-0.00481275,0
0.6,2,0,0.300008,-0.00481905,0
0.6,2.1,0,0.299997,-0.00481831,0
0.6,2.2,0,0.299987,-0.0048168,0
0.6,2.3,0,0.299975,-0.00481068,0
0.6,2.4,0,0.299964,-0.00480001,0
0.6,2.5,0,0.299944,-0.00478828,0
0.6,2.6,0,0.299931,-0.00476354,0
0.6,2.7,0,0.299911,-0.00474004,0
0.6,2.8,0,0.29989,-0.00470627,0
0.6,2.9,0,0.299875,-0.00466773,0
0.6,3,0,0.299841,-0.00462467,0
0.6,3.1,0,0.299826,-0.0045621,0
0.6,3.2,0,0.299795,-0.00450428,0
0.6,3.3,0,0.299766,-0.00442907,0
0.6,3.4,0,0.299749,-0.0043505,0
0.6,3.5,0,0.299697,-0.0042624,0
0.6,3.6,0,0.299686,-0.0041494,0
0.6,3.7,0,0.299645,-0.00404608,0
0.6,3.8,0,0.299611,-0.00391795,0
0.6,3.9,0,0.299596,-0.00379025,0
0.6,4,0,0.299529,-0.00364675,0
0.6,4.1,0,0.299527,-0.00347645,0
0.6,4.2,0,0.29948,-0.00332175,0
0.6,4.3,0,0.299447,-0.00313625,0
0.6,4.4,0,0.29944,-0.00295776,0
0.6,4.5,0,0.299364,-0.00275713,0
0.6,4.6,0,0.29938,-0.00253335,0
0.6,4.7,0,0.299333,-0.00233197,0
0.6,4.8,0,0.299309,-0.00209759,0
0.6,4.9,0,0.299317,-0.00189369,0
0.6,5,0,0.299251,-0.00172323,0
0.6,5.1,0,0.29923,-0.0013898,0
0.6,5.2,0,0.299218,-0.00113868,0
0.6,5.3,0,0.29921,-0.000883992,0
0.6,5.4,0,0.299205,-0.000627087,0
0.6,5.5,0,0.299204,-0.000369109,0
0.6,5.6,0,0.299206,-0.000111274,0
0.6,5.7,0,0.299212,0.000145222,0
0.6,5.8,0,0.29922,0.000399283,0
0.6,5.9,0,0.299233,0.000649438,0
0.6,6,0,0.299258,0.00102743,0
0.6,6.1,0,0.299309,0.0011863,0
0.6,6.2,0,0.299335,0.00134266,0
0.6,6.3,0,0.299327,0.00157487,0
0.6,6.4,0,0.299365,0.00179747,0
0.6,6.5,0,0.299415,0.00199855,0
0.6,6.6,0,0.299425,0.00218642,0
0.6,6.7,0,0.299446,0.00238097,0
0.6,6.8,0,0.29951,0.00256194,0
0.6,6.9,0,0.299532,0.00270752,0
0.6,7,0,0.299544,0.00286912,0
0.6,7.1,0,0.299601,0.00301106,0
0.6,7.2,0,0.299638,0.0031302,0
0.6,7.3,0,0.299656,0.00325086,0
0.6,7.4,0,0.299694,0.00336043,0
0.6,7.5,0,0.299738,0.00345501,0
0.6,7.6,0,0.299759,0.00353508,0
0.6,7.7,0,0.299785,0.00361426,0
0.6,7.8,0,0.299827,0.00367982,0
0.6,7.9,0,0.299848,0.00372943,0
0.6,8,0,0.299869,0.00377956,0
0.6,8.1,0,0.2999,0.00381582,0
0.6,8.2,0,0.299924,0.00384447,0
0.6,8.3,0,0.299943,0.00386679,0
0.6,8.4,0,0.299964,0.00388213,0
0.6,8.5,0,0.299985,0.00389093,0
0.6,8.6,0,0.3,0.00389332,0
0.6,8.7,0,0.300016,0.00389156,0
0.6,8.8,0,0.300031,0.00388233,0
0.6,8.9,0,0.300042,0.00387186,0
0.6,9,0,0.300056,0.00385568,0
0.6,9.1,0,0.300065,0.0038339,0
0.6,9.2,0,0.300072,0.00381299,0
0.6,9.3,0,0.300083,0.003787,0
0.6,9.4,0,0.300089,0.00375758,0
0.6,9.5,0,0.300092,0.00372702,0
0.6,9.6,0,0.300098,0.00369734,0
0.6,9.7,0,0.300106,0.00366295,0
0.6,9.8,0,0.300103,0.00362664,0
0.6,9.9,0,0.300105,0.00359524,0
0.6,10,0,0.300112,0.003558,0
0.6,10.1,0,0.300109,0.00352023,0
0.6,10.2,0,0.300106,0.0034861,0
0.6,10.3,0,0.30011,0.00345016,0
0.6,10.4,0,0.300109,0.00341282,0
0.6,10.5,0,0.300103,0.0033767,0
0.6,10.6,0,0.300103,0.00334487,0
0.6,10.7,0,0.300105,0.00330925,0
0.6,10.8,0,0.300096,0.003275,0
0.6,10.9,0,0.300093,0.00324624,0
0.6,11,0,0.300094,0.00321399,0
0.6,11.1,0,0.300087,0.0031834,0
0.6,11.2,0,0.300081,0.00315633,0
0.6,11.3,0,0.300079,0.00313004,0
0.6,11.4,0,0.300075,0.00310363,0
0.6,11.5,0,0.300066,0.00307923,0
0.6,11.6,0,0.300063,0.00305939,0
0.6,11.7,0,0.300061,0.00303764,0
0.6,11.8,0,0.300052,0.00301885,0
0.6,11.9,0,0.300047,0.0030036,0
0.6,12,0,0.300043,0.0029879,0
0.6,12.1,0,0.300036,0.00297457,0
0.6,12.2,0,0.30003,0.00296362,0
0.6,12.3,0,0.300025,0.00295466,0
0.6,12.4,0,0.30002,0.00294674,0
0.6,12.5,0,0.300013,0.0029412,0
0.6,12.6,0,0.300012,0.00293864,0
0.6,12.7,0,0.300013,0.00293677,0
0.7,0,0,0.300011,-0.00541054,0
0.7,0.1,0,0.300012,-0.00541296,0
0.7,0.2,0,0.300016,-0.0054158,0
0.7,0.3,0,0.30002,-0.00542024,0
0.7,0.4,0,0.300026,-0.00542822,0
0.7,0.5,0,0.300032,-0.00543549,0
0.7,0.6,0,0.300036,-0.00544641,0
0.7,0.7,0,0.300041,-0.00545856,0
0.7,0.8,0,0.300044,-0.00546966,0
0.7,0.9,0,0.300048,-0.00548494,0
0.7,1,0,0.300052,-0.00549882,0
0.7,1.1,0,0.300052,-0.00551407,0
0.7,1.2,0,0.300052,-0.00553101,0
0.7,1.3,0,0.300052,-0.00554451,0
0.7,1.4,0,0.30005,-0.00556122,0
0.7,1.5,0,0.300049,-0.00557625,0
0.7,1.6,0,0.300043,-0.00558884,0
0.7,1.7,0,0.300037,-0.00560294,0
0.7,1.8,0,0.300031,-0.00561171,0
0.7,1.9,0,0.30002,-0.00562038,0
0.7,2,0,0.300011,-0.00562786,0
0.7,2.1,0,0.299998,-0.00562746,0
0.7,2.2,0,0.299982,-0.00562739,0
0.7,2.3,0,0.299969,-0.00562127,0
0.7,2.4,0,0.299947,-0.00560875,0
0.7,2.5,0,0.299927,-0.00559663,0
0.7,2.6,0,0.299906,-0.00556975,0
0.7,2.7,0,0.299878,-0.00554073,0
0.7,2.8,0,0.299857,-0.00550696,0
0.7,2.9,0,0.299823,-0.00545717,0
0.7,3,0,0.299789,-0.00541075,0
0.7,3.1,0,0.299761,-0.00534205,0
0.7,3.2,0,0.299721,-0.00526722,0
0.7,3.3,0,0.299692,-0.00519201,0
0.7,3.4,0,0.299647,-0.00508816,0
0.7,3.5,0,0.299598,-0.00499219,0
0.7,3.6,0,0.299567,-0.00486759,0
0.7,3.7,0,0.299518,-0.0047314,0
0.7,3.8,0,0.299484,-0.00460327,0
0.7,3.9,0,0.299433,-0.00443248,0
0.7,4,0,0.299373,-0.00427534,0
0.7,4.1,0,0.299347,-0.00408712,0
0.7,4.2,0,0.299295,-0.00388096,0
0.7,4.3,0,0.299263,-0.00369546,0
0.7,4.4,0,0.299215,-0.00345508,0
0.7,4.5,0,0.299153,-0.00323457,0
0.7,4.6,0,0.29914,-0.00298729,0
0.7,4.7,0,0.299099,-0.00271651,0
0.7,4.8,0,0.299075,-0.00248214,0
0.7,4.9,0,0.299047,-0.00223176,0
0.7,5,0,0.299,-0.00202134,0
0.7,5.1,0,0.298972,-0.00162964,0
0.7,5.2,0,0.298956,-0.00133464,0
0.7,5.3,0,0.298944,-0.00103538,0
0.7,5.4,0,0.298938,-0.000733464,0
0.7,5.5,0,0.298936,-0.000430274,0
0.7,5.6,0,0.298939,-0.000127256,0
0.7,5.7,0,0.298947,0.000174161,0
0.7,5.8,0,0.298959,0.000472652,0
0.7,5.9,0,0.298976,0.000766468,0
0.7,6,0,0.29901,0.00121057,0
0.7,6.1,0,0.299055,0.00139516,0
0.7,6.2,0,0.299085,0.00163195,0
0.7,6.3,0,0.299102,0.00186752,0
0.7,6.4,0,0.299141,0.00209012,0
0.7,6.5,0,0.299188,0.00234116,0
0.7,6.6,0,0.299234,0.00259289,0
0.7,6.7,0,0.299257,0.00278898,0
0.7,6.8,0,0.299314,0.00298574,0
0.7,6.9,0,0.299367,0.00319178,0
0.7,7,0,0.299394,0.00337027,0
0.7,7.1,0,0.299449,0.00351682,0
0.7,7.2,0,0.299502,0.00367416,0
0.7,7.3,0,0.299546,0.00382187,0
0.7,7.4,0,0.299584,0.00393144,0
0.7,7.5,0,0.299634,0.00404127,0
0.7,7.6,0,0.299683,0.00415172,0
0.7,7.7,0,0.299711,0.00423304,0
0.7,7.8,0,0.299754,0.00430025,0
0.7,7.9,0,0.299797,0.00436866,0
0.7,8,0,0.299828,0.00442665,0
0.7,8.1,0,0.29986,0.00446252,0
0.7,8.2,0,0.299895,0.0044955,0
0.7,8.3,0,0.299927,0.00452609,0
0.7,8.4,0,0.299949,0.00454143,0
0.7,8.5,0,0.299976,0.00454683,0
0.7,8.6,0,0.300003,0.00455163,0
0.7,8.7,0,0.300021,0.00455048,0
0.7,8.8,0,0.300039,0.00453752,0
0.7,8.9,0,0.300059,0.00452124,0
0.7,9,0,0.300076,0.00450501,0