/*--------------------------------*- C++ -*----------------------------------*\
| =========                 |                                                 |
| \\      /  F ield         | OpenFOAM: The Open Source CFD Toolbox           |
|  \\    /   O peration     | Version:  v1806                                 |
|   \\  /    A nd           | Web:      www.OpenFOAM.com                      |
|    \\/     M anipulation  |                                                 |
\*---------------------------------------------------------------------------*/
FoamFile
{
    version     2.0;
    format      ascii;
    class       volScalarField;
    location    "13";
    object      p;
}
// * * * * * * * * * * * * * * * * * * * * * * * * * * * * * * * * * * * * * //

dimensions      [0 2 -2 0 0 0 0];


internalField   nonuniform List<scalar> 
4400
(
-0.995535
0.375831
0.399828
0.316424
0.243376
0.192163
0.178271
0.174806
0.167009
0.154401
0.139655
0.124269
0.108799
0.0934971
0.0784546
0.0636769
0.0491462
0.0348457
0.020746
0.00682426
2.68286
0.931548
0.608059
0.463519
0.394103
0.363726
0.331374
0.298827
0.266966
0.23653
0.207763
0.180741
0.155437
0.131692
0.109272
0.0879273
0.0674345
0.0476043
0.0282731
0.0093292
2.00339
1.41871
1.1385
0.945788
0.786432
0.63043
0.508666
0.423112
0.362621
0.314014
0.271833
0.23406
0.199726
0.168182
0.138876
0.111324
0.0851318
0.0599775
0.0355922
0.0117561
2.73606
1.66461
1.23849
0.969069
0.810722
0.699883
0.603254
0.519321
0.446428
0.384072
0.330551
0.283404
0.241004
0.20236
0.166711
0.133407
0.101901
0.0717489
0.0425761
0.0140736
2.08626
1.66756
1.36704
1.17948
1.03426
0.881805
0.737564
0.617326
0.522164
0.446589
0.383348
0.328251
0.278949
0.234093
0.192752
0.154171
0.117724
0.0828779
0.0491876
0.0162695
2.26459
1.74801
1.39458
1.16255
1.00832
0.88461
0.772338
0.671134
0.580014
0.499376
0.429296
0.367854
0.312803
0.262654
0.216375
0.173143
0.132263
0.0931572
0.0553186
0.0183111
1.84838
1.60319
1.39662
1.23324
1.11351
0.987937
0.85804
0.737164
0.63255
0.544295
0.468786
0.40246
0.342817
0.288255
0.23772
0.190381
0.145533
0.102562
0.0609337
0.0201823
1.88644
1.623
1.37831
1.20488
1.07403
0.962552
0.857024
0.757838
0.664859
0.578959
0.501363
0.431797
0.368689
0.310631
0.256604
0.205796
0.157501
0.111104
0.0660622
0.0218933
1.62162
1.47201
1.3327
1.20978
1.11459
1.01348
0.90549
0.797423
0.697351
0.607777
0.52811
0.456257
0.390594
0.329838
0.27301
0.219312
0.168068
0.118684
0.0706294
0.0234267
1.61998
1.47282
1.30536
1.17794
1.07395
0.980111
0.887792
0.798008
0.71089
0.627276
0.548839
0.476187
0.408975
0.346285
0.287254
0.231157
0.177379
0.12538
0.0746673
0.0247756
1.44278
1.34708
1.24975
1.15836
1.08265
1.00168
0.912813
0.81983
0.728945
0.643837
0.565038
0.491978
0.423844
0.359834
0.299167
0.24119
0.185351
0.131167
0.0781814
0.0259588
1.43489
1.34064
1.22552
1.12865
1.04608
0.969519
0.890315
0.810721
0.731103
0.652459
0.576424
0.50425
0.435993
0.371203
0.309304
0.249788
0.192212
0.136155
0.0812118
0.0269802
1.31135
1.24448
1.17428
1.10484
1.04246
0.976444
0.902213
0.82171
0.739856
0.660574
0.585285
0.513893
0.445781
0.380515
0.317703
0.256982
0.197999
0.140394
0.0838007
0.0278502
1.30502
1.23868
1.15592
1.08052
1.01309
0.947941
0.879336
0.808248
0.735564
0.66274
0.591069
0.521304
0.453628
0.388067
0.324541
0.262857
0.202741
0.14388
0.0859379
0.0285748
1.21902
1.16944
1.11576
1.05963
1.00545
0.948087
0.883691
0.813064
0.739884
0.667386
0.596595
0.527452
0.45991
0.394088
0.330021
0.267606
0.206605
0.146734
0.0876919
0.0291656
1.22029
1.16977
1.10454
1.04087
0.983741
0.926364
0.865741
0.802253
0.736586
0.669217
0.600643
0.532043
0.464526
0.398547
0.334162
0.271268
0.209635
0.149002
0.0890955
0.0296446
1.15759
1.11589
1.0709
1.02555
0.981234
0.932073
0.875436
0.812067
0.744553
0.67493
0.604771
0.535491
0.467829
0.401824
0.337312
0.274104
0.211995
0.150767
0.0901917
0.0300177
1.14838
1.10589
1.05892
1.01542
0.973548
0.92578
0.870976
0.809877
0.744211
0.675477
0.605754
0.536938
0.469686
0.403939
0.339471
0.276103
0.213682
0.152041
0.0909791
0.030283
1.09996
1.06822
1.04118
1.01199
0.974882
0.929695
0.875132
0.811834
0.74327
0.673128
0.604024
0.536506
0.47027
0.405053
0.340775
0.277379
0.214792
0.152893
0.0915166
0.0304701
1.16252
1.12929
1.07939
1.01735
0.954638
0.895158
0.83695
0.778417
0.719097
0.658862
0.597237
0.534044
0.46983
0.405423
0.341412
0.278048
0.21538
0.15334
0.0917997
0.0305648
2.46805
3.32145
3.97612
4.47613
4.8379
5.10175
5.28431
5.40281
5.46681
5.48316
5.45568
5.38399
5.26448
5.09216
4.85413
4.54313
4.13133
3.60697
2.9327
2.10304
4.25209
4.45119
4.61358
4.73431
4.83204
4.90495
4.95805
4.99151
5.00588
5.00095
4.97655
4.93257
4.86909
4.78614
4.68332
4.56062
4.41362
4.24894
4.03906
3.83733
3.19119
3.37582
3.54549
3.69576
3.82249
3.92553
4.00423
4.05902
4.09014
4.09783
4.08216
4.04304
3.9802
3.89322
3.78156
3.64407
3.48143
3.2903
3.07659
2.83682
3.24692
3.3323
3.40671
3.46966
3.52174
3.56289
3.59357
3.6139
3.62411
3.62438
3.61487
3.59576
3.56726
3.52957
3.48283
3.42733
3.36271
3.28963
3.20719
3.11731
2.62561
2.69307
2.75589
2.81233
2.86103
2.90118
2.93209
2.95333
2.9646
2.96572
2.95653
2.93699
2.90707
2.86682
2.81636
2.75586
2.68576
2.6063
2.51868
2.42245
2.53449
2.57235
2.60572
2.63435
2.65817
2.67713
2.69124
2.70055
2.7051
2.70495
2.70015
2.69075
2.67678
2.65828
2.63523
2.60762
2.57534
2.53838
2.49644
2.44908
2.14284
2.17105
2.19702
2.22012
2.23984
2.25579
2.26764
2.27516
2.27816
2.2765
2.27011
2.25895
2.24301
2.22234
2.19705
2.16728
2.13327
2.09529
2.05374
2.00878
2.06312
2.08131
2.09731
2.11096
2.12219
2.13096
2.13726
2.14109
2.14246
2.14137
2.13782
2.13182
2.12333
2.11233
2.09879
2.08266
2.06386
2.04233
2.01786
1.9901
1.80011
1.81301
1.82467
1.83482
1.84325
1.84976
1.8542
1.85644
1.85641
1.85402
1.84925
1.84207
1.83251
1.82059
1.80639
1.79001
1.77158
1.75128
1.72937
1.70601
1.74619
1.75581
1.7642
1.77125
1.77694
1.78121
1.78406
1.78547
1.78545
1.78397
1.78103
1.77661
1.77071
1.76329
1.75433
1.74379
1.73166
1.7179
1.70241
1.68482
1.56121
1.56763
1.57329
1.57808
1.58186
1.58455
1.58607
1.58636
1.58537
1.58308
1.57945
1.5745
1.56823
1.56067
1.55187
1.54188
1.53079
1.51869
1.50576
1.49212
1.52893
1.53454
1.53937
1.54336
1.54648
1.54871
1.55002
1.55041
1.54987
1.54838
1.54593
1.54253
1.53814
1.53277
1.5264
1.51901
1.51059
1.50116
1.4907
1.47874
1.39512
1.3986
1.40157
1.40398
1.40575
1.40683
1.40719
1.40679
1.4056
1.40361
1.40082
1.39722
1.39283
1.38766
1.38175
1.37514
1.36787
1.36001
1.35166
1.34294
1.37905
1.38263
1.38566
1.38812
1.38997
1.39119
1.39178
1.39171
1.39098
1.38959
1.38751
1.38476
1.38131
1.37717
1.37233
1.36678
1.36052
1.35356
1.3459
1.33718
1.28149
1.28352
1.2852
1.28648
1.28732
1.28769
1.28757
1.28695
1.2858
1.28412
1.28191
1.27917
1.2759
1.27214
1.26789
1.26317
1.25803
1.25249
1.24665
1.24064
1.27999
1.28244
1.28448
1.28609
1.28724
1.28792
1.28812
1.28783
1.28705
1.28576
1.28397
1.28167
1.27886
1.27554
1.27171
1.26737
1.26253
1.25722
1.25142
1.24482
1.21034
1.21162
1.21261
1.21328
1.21361
1.21358
1.21318
1.21239
1.21121
1.20963
1.20765
1.20528
1.20253
1.19941
1.19594
1.19213
1.18801
1.18362
1.17903
1.17437
1.21161
1.21328
1.21461
1.21557
1.21616
1.21635
1.21613
1.21549
1.21442
1.21291
1.21096
1.20855
1.20568
1.20235
1.19855
1.19428
1.18957
1.18443
1.17883
1.17239
1.15486
1.15545
1.15583
1.15598
1.15589
1.15553
1.15488
1.15395
1.15271
1.15115
1.14928
1.14708
1.14455
1.14168
1.13847
1.13491
1.13099
1.12665
1.12189
1.11694
1.20141
1.20318
1.20469
1.20591
1.2068
1.20734
1.2075
1.20728
1.20666
1.20564
1.20422
1.2024
1.2002
1.19762
1.19471
1.19147
1.18795
1.18423
1.18041
1.17643
1.08031
1.13224
1.18678
1.24662
1.3133
1.38682
1.46472
1.54147
1.60707
1.6457
1.6391
1.57752
1.46646
1.33159
1.20542
1.10451
1.02853
0.982933
1.05862
1.51805
1.07022
1.09373
1.12373
1.16022
1.20231
1.24778
1.29374
1.33792
1.38045
1.42582
1.48532
1.57623
1.71694
1.92047
2.18935
2.51393
2.87923
3.26833
3.65297
3.9908
1.54635
1.60056
1.65637
1.71239
1.76636
1.81518
1.85574
1.88626
1.90777
1.92591
1.95153
1.99668
2.06696
2.16083
2.26922
2.3868
2.51479
2.65853
2.82147
3.00207
1.46612
1.50981
1.55578
1.60336
1.65219
1.70266
1.75635
1.8162
1.88613
1.96999
2.0696
2.18389
2.30962
2.44058
2.57165
2.69959
2.82241
2.93915
3.0493
3.15217
1.63025
1.66918
1.70699
1.74275
1.77605
1.8071
1.83719
1.86885
1.9051
1.94787
1.99709
2.05141
2.1088
2.16756
2.22708
2.28785
2.35086
2.41673
2.48532
2.55558
1.54918
1.58498
1.62182
1.65986
1.69975
1.74251
1.78925
1.84072
1.89682
1.95653
2.01781
2.07887
2.1383
2.19532
2.24976
2.30185
2.35207
2.40075
2.44783
2.4927
1.56527
1.59187
1.61758
1.64238
1.66668
1.69116
1.71657
1.7435
1.77235
1.80307
1.83508
1.86749
1.89957
1.93093
1.96155
1.99171
2.02181
2.05212
2.08267
2.11312
1.49432
1.5209
1.54839
1.57688
1.60673
1.63817
1.6712
1.70529
1.73983
1.7741
1.8074
1.83924
1.86934
1.89766
1.92441
1.94992
1.97452
1.99833
2.02125
2.04298
1.45656
1.47494
1.49286
1.51046
1.52793
1.54556
1.56364
1.58227
1.60138
1.62074
1.63999
1.65879
1.67688
1.69415
1.71064
1.72648
1.74189
1.75699
1.77183
1.78628
1.39758
1.4174
1.43758
1.45818
1.47923
1.50064
1.52221
1.54368
1.56474
1.58507
1.60443
1.62265
1.63969
1.65562
1.67058
1.68478
1.69837
1.71139
1.72381
1.73547
1.34666
1.35964
1.37231
1.38478
1.39716
1.40955
1.422
1.43451
1.44697
1.45924
1.47116
1.48257
1.49337
1.50351
1.51304
1.52204
1.5306
1.5388
1.54668
1.55418
1.30087
1.31554
1.3303
1.34507
1.35983
1.3745
1.38898
1.40311
1.41674
1.42973
1.44197
1.45342
1.46408
1.474
1.48329
1.49206
1.50037
1.50826
1.5157
1.52262
1.25228
1.26177
1.27103
1.28015
1.28914
1.29803
1.30683
1.3155
1.32397
1.33217
1.34001
1.34742
1.35434
1.36078
1.36675
1.3723
1.37749
1.38237
1.38695
1.39122
1.21861
1.22989
1.24102
1.25199
1.2628
1.2734
1.28371
1.29365
1.30315
1.31214
1.32057
1.32842
1.33572
1.34251
1.34883
1.35476
1.36034
1.36559
1.37048
1.37499
1.17943
1.18679
1.19395
1.20095
1.20779
1.21448
1.22101
1.22735
1.23347
1.23931
1.24484
1.25001
1.2548
1.25921
1.26327
1.26699
1.27042
1.27358
1.27648
1.27913
1.1584
1.16754
1.17642
1.18506
1.19349
1.20167
1.20955
1.21709
1.22425
1.23099
1.23729
1.24315
1.24859
1.25363
1.25831
1.26266
1.26673
1.2705
1.27399
1.27716
1.13085
1.13693
1.14285
1.14859
1.15417
1.15958
1.1648
1.16983
1.17463
1.17918
1.18344
1.1874
1.19105
1.19439
1.19743
1.2002
1.2027
1.20496
1.20699
1.20879
1.11865
1.12584
1.13278
1.13952
1.14605
1.15236
1.15843
1.16422
1.1697
1.17486
1.17967
1.18415
1.1883
1.19214
1.1957
1.19899
1.20203
1.20482
1.20736
1.20963
1.10103
1.10543
1.10975
1.11394
1.11796
1.12183
1.12552
1.12905
1.13237
1.13549
1.13837
1.14101
1.1434
1.14555
1.14746
1.14915
1.15065
1.15197
1.1531
1.15407
1.10734
1.11523
1.12273
1.12996
1.13692
1.14359
1.14992
1.15589
1.16147
1.16664
1.17139
1.17573
1.17967
1.18324
1.1865
1.1895
1.19226
1.19483
1.19721
1.19941
-0.318532
-0.19255
-0.129571
-0.132738
-0.155146
-0.185865
-0.216393
-0.24228
-0.261909
-0.275196
-0.282837
-0.285362
-0.283982
-0.280038
-0.274735
-0.269127
-0.264087
-0.26008
-0.256739
-0.251466
-0.301891
-0.301166
-0.311068
-0.33096
-0.353842
-0.373509
-0.388188
-0.397651
-0.40224
-0.402676
-0.399482
-0.394243
-0.387745
-0.380659
-0.373619
-0.367165
-0.36175
-0.357851
-0.355722
-0.355395
-0.445042
-0.416364
-0.399913
-0.390521
-0.385635
-0.383063
-0.38137
-0.379768
-0.37788
-0.375692
-0.373446
-0.371081
-0.368663
-0.366347
-0.364304
-0.362686
-0.361595
-0.361064
-0.361129
-0.362081
-0.374606
-0.372413
-0.371368
-0.372224
-0.374109
-0.376252
-0.378222
-0.379831
-0.381053
-0.381979
-0.382659
-0.383173
-0.383578
-0.383928
-0.384244
-0.384529
-0.384779
-0.384996
-0.385203
-0.385529
-0.448225
-0.4373
-0.428117
-0.420654
-0.414882
-0.410565
-0.407399
-0.405117
-0.403524
-0.402481
-0.401849
-0.401472
-0.401379
-0.401503
-0.40174
-0.402005
-0.40224
-0.402415
-0.402538
-0.402674
-0.391602
-0.393405
-0.394792
-0.396697
-0.398878
-0.401129
-0.403305
-0.405312
-0.407095
-0.408627
-0.409918
-0.411105
-0.412171
-0.413003
-0.413647
-0.414129
-0.414459
-0.414645
-0.414676
-0.414445
-0.455199
-0.452938
-0.450424
-0.448077
-0.446063
-0.444486
-0.443349
-0.442602
-0.442166
-0.441967
-0.441937
-0.441969
-0.4419
-0.441861
-0.44187
-0.441902
-0.441934
-0.441954
-0.441957
-0.441956
-0.413259
-0.419848
-0.425406
-0.430647
-0.435297
-0.439296
-0.442665
-0.445472
-0.447801
-0.449727
-0.451305
-0.452593
-0.453747
-0.454776
-0.455567
-0.456155
-0.456568
-0.456823
-0.456911
-0.456743
-0.462365
-0.46826
-0.472955
-0.476648
-0.479424
-0.48143
-0.482839
-0.483827
-0.484555
-0.485141
-0.485667
-0.486175
-0.486639
-0.486949
-0.487215
-0.487458
-0.487656
-0.487793
-0.48786
-0.487849
-0.430959
-0.443452
-0.455139
-0.466014
-0.475555
-0.483542
-0.489969
-0.494986
-0.498841
-0.5018
-0.504095
-0.505897
-0.507331
-0.508537
-0.509555
-0.510334
-0.510896
-0.511255
-0.511407
-0.511263
-0.465164
-0.479062
-0.492068
-0.503762
-0.513866
-0.522144
-0.528565
-0.533274
-0.536569
-0.538818
-0.54037
-0.541504
-0.542404
-0.543163
-0.543783
-0.54431
-0.544737
-0.54505
-0.545241
-0.545248
-0.437516
-0.456428
-0.475776
-0.494759
-0.512508
-0.52826
-0.541528
-0.552153
-0.560294
-0.566342
-0.570787
-0.574092
-0.576615
-0.578601
-0.580183
-0.581264
-0.582076
-0.582619
-0.582866
-0.582725
-0.452719
-0.474038
-0.495995
-0.517706
-0.538507
-0.557496
-0.573899
-0.587194
-0.597242
-0.604291
-0.608904
-0.611783
-0.613582
-0.614774
-0.615648
-0.616577
-0.617481
-0.618181
-0.618667
-0.618855
-0.414697
-0.439977
-0.467616
-0.496801
-0.526634
-0.555834
-0.583029
-0.607025
-0.62705
-0.642905
-0.654915
-0.663773
-0.670289
-0.67517
-0.678908
-0.681679
-0.683317
-0.684354
-0.684929
-0.684773
-0.39679
-0.425648
-0.456871
-0.490117
-0.524863
-0.559991
-0.593956
-0.625038
-0.651674
-0.672797
-0.688073
-0.69794
-0.7035
-0.706205
-0.707422
-0.708116
-0.70905
-0.710574
-0.711825
-0.712748
-0.326298
-0.359953
-0.397078
-0.438041
-0.482769
-0.530538
-0.579854
-0.628649
-0.674639
-0.715812
-0.750854
-0.779372
-0.801799
-0.8191
-0.832323
-0.842303
-0.849482
-0.853519
-0.855191
-0.85514
-0.234053
-0.269451
-0.30832
-0.351682
-0.400083
-0.453664
-0.511771
-0.572697
-0.633633
-0.690985
-0.740995
-0.780566
-0.808114
-0.823929
-0.83023
-0.830708
-0.829316
-0.828819
-0.829948
-0.835038
-0.0791647
-0.112243
-0.149463
-0.192141
-0.241903
-0.300574
-0.369594
-0.449381
-0.539007
-0.635968
-0.736392
-0.835659
-0.929319
-1.01392
-1.08727
-1.148
-1.19497
-1.22769
-1.24822
-1.25231
0.0964469
0.0633642
0.0280257
-0.0105596
-0.0542024
-0.10525
-0.166291
-0.239347
-0.325253
-0.423196
-0.530112
-0.640147
-0.744919
-0.835267
-0.904164
-0.948959
-0.971082
-0.975097
-0.96975
-0.988373
0.3646
0.314032
0.25536
0.188536
0.113282
0.0292626
-0.0648553
-0.171902
-0.296662
-0.445791
-0.626557
-0.844191
-1.09993
-1.39127
-1.71363
-2.06247
-2.43217
-2.81354
-3.20569
-3.74063
0.0149999
0.0452639
0.0759294
0.107105
0.138921
0.171513
0.205037
0.239675
0.275621
0.313092
0.352355
0.393763
0.437733
0.484477
0.533955
0.586291
0.642574
0.708261
0.788136
0.93102
0.0167377
0.0504629
0.0846611
0.119495
0.155157
0.191847
0.229768
0.269135
0.310212
0.35333
0.398934
0.447605
0.499983
0.556864
0.619655
0.690688
0.77418
0.871182
0.95891
1.02021
0.0183926
0.0554345
0.0929504
0.131168
0.170319
0.210661
0.252491
0.296129
0.341942
0.390378
0.442043
0.497761
0.55848
0.625113
0.698838
0.782395
0.881538
1.0075
1.17633
1.38667
0.0199365
0.0600798
0.100762
0.142191
0.18463
0.228365
0.273718
0.321066
0.370854
0.423624
0.480049
0.540922
0.607179
0.680179
0.762199
0.856734
0.967193
1.0887
1.21165
1.34941
0.0213769
0.0643665
0.107873
0.152163
0.19752
0.244267
0.292755
0.343387
0.396647
0.453137
0.513607
0.578952
0.650144
0.728289
0.815158
0.914189
1.031
1.17308
1.33718
1.51202
0.0226516
0.0682069
0.114319
0.161246
0.209267
0.258678
0.309832
0.363149
0.419134
0.478391
0.541609
0.609542
0.683114
0.763731
0.853584
0.954814
1.06737
1.18459
1.30577
1.44763
0.0237911
0.0716204
0.120003
0.169202
0.21951
0.271246
0.324745
0.380392
0.438641
0.500055
0.565317
0.635197
0.710521
0.792282
0.881966
0.981704
1.09453
1.2214
1.35368
1.48413
0.0248431
0.0747229
0.12508
0.1762
0.228376
0.281928
0.337208
0.394595
0.454502
0.517383
0.583741
0.654155
0.729409
0.810626
0.898992
0.994776
1.09566
1.19778
1.30183
1.41788
0.025706
0.0773192
0.12942
0.182248
0.236075
0.291186
0.347895
0.406553
0.467544
0.531296
0.598278
0.668982
0.743914
0.823641
0.908868
1.00047
1.09912
1.20376
1.30528
1.40035
0.0264652
0.0795757
0.133116
0.187324
0.242439
0.29873
0.356479
0.415995
0.477601
0.541628
0.608418
0.678332
0.751813
0.829324
0.911016
0.996237
1.08231
1.16727
1.25173
1.34153
0.0271267
0.0815211
0.136305
0.191695
0.247907
0.305157
0.363676
0.423712
0.485543
0.549481
0.615837
0.68488
0.756771
0.831565
0.909324
0.990139
1.07381
1.15794
1.236
1.3067
0.0276492
0.0830887
0.138869
0.19518
0.252219
0.310184
0.369264
0.429645
0.491503
0.555012
0.620357
0.687733
0.75731
0.829131
0.90291
0.977452
1.05049
1.12074
1.18865
1.25817
0.0281011
0.0844035
0.141
0.198062
0.255756
0.314243
0.373677
0.434197
0.495943
0.559033
0.623551
0.68953
0.756932
0.82564
0.895544
0.966464
1.03759
1.1061
1.16788
1.22274
0.0284337
0.0854052
0.142642
0.200287
0.258478
0.317343
0.377004
0.437558
0.49907
0.561558
0.624996
0.689337
0.754503
0.820297
0.886254
0.95139
1.01414
1.07352
1.12976
1.1851
0.0287316
0.0862734
0.144027
0.202113
0.260646
0.319734
0.379476
0.439953
0.50121
0.563243
0.625974
0.689225
0.752725
0.816121
0.879063
0.941274
1.00218
1.05977
1.11125
1.15637
0.0289675
0.0869484
0.145093
0.203507
0.262297
0.321552
0.381342
0.441705
0.502646
0.564128
0.626051
0.688234
0.750399
0.812092
0.872531
0.930514
0.985112
1.03628
1.08447
1.13081
0.0290987
0.0873623
0.145778
0.204435
0.263412
0.322774
0.382562
0.442801
0.503487
0.564577
0.625953
0.687402
0.748639
0.809319
0.868969
0.926756
0.981402
1.03115
1.07461
1.11192
0.0292064
0.0876656
0.146274
0.205097
0.264195
0.323617
0.38338
0.443469
0.503841
0.564416
0.625069
0.685616
0.745824
0.805421
0.863984
0.920551
0.973292
1.02038
1.06149
1.09703
0.0293149
0.0879774
0.146736
0.205657
0.264787
0.324161
0.383789
0.443648
0.503668
0.56373
0.623666
0.683266
0.742297
0.800573
0.858007
0.914361
0.96828
1.01636
1.05603
1.08733
0.0293735
0.0881566
0.147024
0.206038
0.265223
0.324575
0.384058
0.443608
0.503124
0.562467
0.621465
0.679904
0.737456
0.793514
0.847235
0.897587
0.944875
0.990299
1.03612
1.08226
-0.015102
-0.045421
-0.076447
-0.10818
-0.140795
-0.174432
-0.209242
-0.245361
-0.282962
-0.322305
-0.363782
-0.407865
-0.454997
-0.505603
-0.56077
-0.625029
-0.704846
-0.742016
-0.690447
-1.29556
-0.0141691
-0.0425733
-0.0716326
-0.101351
-0.131903
-0.163416
-0.196033
-0.2299
-0.265157
-0.301977
-0.340565
-0.381107
-0.423736
-0.468621
-0.516516
-0.568498
-0.621026
-0.668316
-0.710828
-0.635609
-0.0131483
-0.0395232
-0.0665253
-0.0941626
-0.122581
-0.151902
-0.182244
-0.213716
-0.246449
-0.280595
-0.31628
-0.353525
-0.392206
-0.4321
-0.472573
-0.509833
-0.532249
-0.537378
-0.534194
-0.523345
-0.01213
-0.0363954
-0.0612085
-0.0866062
-0.112749
-0.139765
-0.167764
-0.196844
-0.227093
-0.258612
-0.291448
-0.325519
-0.360551
-0.395885
-0.430179
-0.461608
-0.489843
-0.512833
-0.497109
-0.422805
-0.0109882
-0.0329833
-0.0555234
-0.0786434
-0.102486
-0.12715
-0.152744
-0.179377
-0.207154
-0.236151
-0.266356
-0.297616
-0.329505
-0.36109
-0.390465
-0.414088
-0.429666
-0.437584
-0.445719
-0.47266
-0.00980937
-0.0294566
-0.0496203
-0.0703299
-0.0917235
-0.113923
-0.13704
-0.161179
-0.186448
-0.21292
-0.24058
-0.269251
-0.298457
-0.327314
-0.355128
-0.382171
-0.408298
-0.428108
-0.429421
-0.411011
-0.00865183
-0.0258953
-0.0435491
-0.0617272
-0.0805706
-0.100218
-0.120798
-0.142435
-0.16525
-0.189329
-0.214647
-0.241029
-0.268016
-0.294829
-0.32044
-0.34369
-0.364638
-0.38565
-0.413575
-0.459935
-0.00732615
-0.0219656
-0.0370272
-0.0525954
-0.0688151
-0.0858215
-0.103758
-0.122782
-0.143038
-0.164633
-0.187594
-0.211814
-0.237054
-0.263149
-0.290478
-0.319871
-0.350775
-0.379155
-0.401035
-0.410543
-0.00601563
-0.0179737
-0.0303012
-0.0430813
-0.0564898
-0.0707051
-0.0859069
-0.102275
-0.119988
-0.139196
-0.159955
-0.182215
-0.205854
-0.230774
-0.256899
-0.284293
-0.314365
-0.349441
-0.391351
-0.446093
-0.00457943
-0.0136584
-0.0230565
-0.0329235
-0.0434244
-0.0547372
-0.0670504
-0.0805642
-0.0954946
-0.112047
-0.130401
-0.150702
-0.173135
-0.19819
-0.227084
-0.260636
-0.297951
-0.335771
-0.372913
-0.405741
-0.00302916
-0.00904554
-0.0153873
-0.0221674
-0.0295683
-0.0377835
-0.0470349
-0.0575698
-0.0696383
-0.0834967
-0.0993849
-0.117527
-0.138224
-0.161979
-0.189444
-0.221648
-0.260563
-0.307355
-0.362085
-0.426633
-0.0014836
-0.00434582
-0.00745262
-0.0109568
-0.0150399
-0.0199234
-0.0258385
-0.033051
-0.0418772
-0.0526598
-0.065749
-0.0815357
-0.100601
-0.124078
-0.153726
-0.190372
-0.233196
-0.280376
-0.33187
-0.389134
0.000184814
0.000663997
0.000961516
0.000911487
0.000322501
-0.00101858
-0.00336079
-0.00699185
-0.0122522
-0.0195425
-0.0293261
-0.0421267
-0.0585913
-0.0795991
-0.106419
-0.141007
-0.185662
-0.241463
-0.309309
-0.391943
0.00192516
0.00589383
0.00972485
0.0132944
0.0164219
0.0188881
0.0204313
0.0207346
0.0194295
0.0160771
0.010147
0.000927913
-0.0126191
-0.0319954
-0.059005
-0.0947555
-0.139349
-0.193331
-0.258687
-0.343919
0.00374671
0.0113561
0.0188872
0.0262158
0.0332035
0.039663
0.0453707
0.0500342
0.0532628
0.0545611
0.0532982
0.04867
0.039664
0.025032
0.00299411
-0.028897
-0.0730063
-0.131024
-0.209395
-0.31288
0.00560566
0.0169674
0.0283267
0.0395833
0.050613
0.0612683
0.0713469
0.0805981
0.0886953
0.0951806
0.0993969
0.100387
0.0967632
0.0866239
0.06798
0.0395723
0.000649909
-0.051017
-0.121428
-0.229848
0.0075006
0.0226532
0.0378769
0.0531279
0.0683382
0.0833973
0.0981557
0.112394
0.125822
0.13805
0.148535
0.156499
0.160782
0.159769
0.151079
0.131547
0.0979267
0.0464611
-0.0284923
-0.13532
0.00940075
0.0283932
0.047542
0.0668313
0.0862332
0.105705
0.125181
0.144554
0.163631
0.182096
0.199456
0.214986
0.227674
0.236043
0.238296
0.232386
0.214611
0.176825
0.111775
0.00895054
0.0113185
0.034163
0.0572536
0.0806066
0.104251
0.1282
0.152446
0.176964
0.201705
0.226556
0.251317
0.275661
0.299094
0.320838
0.339388
0.352085
0.354229
0.337321
0.287877
0.187631
0.0132126
0.0398353
0.0667418
0.0940364
0.121815
0.150167
0.179176
0.208904
0.239383
0.270613
0.302561
0.335173
0.368342
0.401816
0.435356
0.468739
0.501726
0.534606
0.557514
0.496802
-0.0250159
-0.0754368
-0.127013
-0.179165
-0.232375
-0.286408
-0.341235
-0.396705
-0.452654
-0.508838
-0.564736
-0.619615
-0.672422
-0.721168
-0.763092
-0.805179
-0.843337
-0.869245
-0.8834
-0.915461
-0.0248032
-0.0748931
-0.126065
-0.177945
-0.230811
-0.284542
-0.339128
-0.394553
-0.450834
-0.507854
-0.565338
-0.622805
-0.679643
-0.734536
-0.785853
-0.842564
-0.895548
-0.937348
-0.977148
-0.985518
-0.0246561
-0.0743542
-0.125087
-0.176545
-0.228944
-0.282254
-0.336534
-0.391874
-0.448362
-0.506
-0.564666
-0.624297
-0.684876
-0.746106
-0.808552
-0.881081
-0.946728
-1.00018
-1.07413
-1.07768
-0.0243663
-0.0735823
-0.123807
-0.17477
-0.226703
-0.279608
-0.333632
-0.388888
-0.445452
-0.503347
-0.562629
-0.623505
-0.686546
-0.75286
-0.823497
-0.909304
-0.987325
-1.06224
-1.15922
-1.15089
-0.0241314
-0.0727774
-0.122406
-0.172771
-0.224103
-0.276468
-0.330044
-0.384944
-0.441248
-0.499039
-0.558534
-0.620266
-0.685115
-0.753628
-0.827582
-0.91794
-1.00455
-1.1052
-1.22754
-1.20712
-0.0237949
-0.0717872
-0.120737
-0.170418
-0.221099
-0.272853
-0.325851
-0.380177
-0.435886
-0.493144
-0.552345
-0.614126
-0.679136
-0.748258
-0.823277
-0.914329
-1.00086
-1.11307
-1.24135
-1.22554
-0.0234772
-0.0707813
-0.119006
-0.167958
-0.217911
-0.268909
-0.321094
-0.374557
-0.429419
-0.485905
-0.544405
-0.605414
-0.669518
-0.73698
-0.809556
-0.897182
-0.97786
-1.09036
-1.20489
-1.19583
-0.023074
-0.0695799
-0.11703
-0.165218
-0.214383
-0.264544
-0.315774
-0.368162
-0.42185
-0.477092
-0.534286
-0.593917
-0.656187
-0.721225
-0.790611
-0.872649
-0.942564
-1.04672
-1.13179
-1.12694
-0.022674
-0.0683804
-0.115014
-0.162375
-0.210702
-0.259975
-0.310264
-0.36163
-0.414186
-0.468106
-0.523636
-0.580969
-0.640219
-0.701281
-0.765347
-0.839733
-0.896805
-0.989807
-1.03864
-1.03482
-0.0222779
-0.0671526
-0.112911
-0.159399
-0.206816
-0.255127
-0.304365
-0.354596
-0.405914
-0.458405
-0.512163
-0.567245
-0.623425
-0.680285
-0.738969
-0.805325
-0.847637
-0.924524
-0.946829
-0.937913
-0.0218033
-0.065757
-0.110625
-0.156246
-0.20279
-0.250234
-0.298608
-0.347941
-0.398228
-0.449426
-0.501423
-0.554011
-0.606846
-0.65951
-0.712911
-0.772181
-0.801587
-0.866401
-0.86082
-0.855594
-0.021379
-0.0643993
-0.108302
-0.152938
-0.198482
-0.244954
-0.292406
-0.340863
-0.390299
-0.440582
-0.491429
-0.542355
-0.592666
-0.641828
-0.69105
-0.74487
-0.76362
-0.821821
-0.792229
-0.792145
-0.0208469
-0.062833
-0.105714
-0.149349
-0.19393
-0.239492
-0.286104
-0.333774
-0.382457
-0.432041
-0.482238
-0.532416
-0.581534
-0.628952
-0.675647
-0.725433
-0.735978
-0.797968
-0.75698
-0.752418
-0.0202736
-0.0611313
-0.102913
-0.145464
-0.18898
-0.233546
-0.279257
-0.326147
-0.374233
-0.423428
-0.473446
-0.523671
-0.573173
-0.621291
-0.668605
-0.716562
-0.718357
-0.78889
-0.746594
-0.753093
-0.0197344
-0.0594164
-0.0999766
-0.14131
-0.183644
-0.22707
-0.271709
-0.317671
-0.36505
-0.413888
-0.464068
-0.515167
-0.566481
-0.617567
-0.668624
-0.718504
-0.717259
-0.799736
-0.751341
-0.793574
-0.0190707
-0.0574537
-0.0967115
-0.13677
-0.177855
-0.220056
-0.263536
-0.30845
-0.354958
-0.403205
-0.453319
-0.505381
-0.559457
-0.615628
-0.673841
-0.729193
-0.733073
-0.835128
-0.774175
-0.872388
-0.018393
-0.0553753
-0.0932128
-0.131848
-0.171481
-0.212242
-0.254305
-0.297891
-0.343225
-0.390535
-0.440102
-0.492403
-0.548384
-0.60952
-0.67658
-0.742867
-0.769901
-0.91047
-0.819615
-0.969991
-0.017654
-0.0531381
-0.0894404
-0.126535
-0.164628
-0.203844
-0.244376
-0.286438
-0.330271
-0.376193
-0.424663
-0.476423
-0.532748
-0.595599
-0.666414
-0.742677
-0.814979
-1.02827
-0.923931
-1.07853
-0.0168583
-0.0507244
-0.0853861
-0.120801
-0.157177
-0.194652
-0.233418
-0.273686
-0.31568
-0.35969
-0.406219
-0.456136
-0.51081
-0.571953
-0.641074
-0.720729
-0.832167
-1.13318
-1.0877
-1.53253
-0.015999
-0.048136
-0.0810392
-0.114679
-0.14924
-0.184863
-0.221724
-0.260022
-0.299978
-0.341889
-0.386181
-0.433489
-0.484668
-0.540706
-0.602933
-0.676051
-0.792294
-1.03766
-1.07049
-2.66481
-0.00174486
-0.00537086
-0.010191
-0.015015
-0.0216285
-0.0317571
-0.0439553
-0.0629407
-0.0869048
-0.120133
-0.160182
-0.204394
-0.242338
-0.262477
-0.258863
-0.231967
-0.186683
-0.128829
-0.067328
-0.0117732
-0.00445678
-0.013733
-0.025603
-0.0408947
-0.0603014
-0.0885642
-0.125674
-0.179219
-0.251682
-0.348782
-0.470314
-0.603024
-0.710828
-0.757148
-0.730378
-0.638612
-0.508038
-0.357811
-0.210198
-0.0870919
-0.00480324
-0.015862
-0.0293064
-0.0476974
-0.0739029
-0.108428
-0.161116
-0.231009
-0.331782
-0.463986
-0.628747
-0.79107
-0.902142
-0.923346
-0.858682
-0.73402
-0.575972
-0.407891
-0.251593
-0.122592
-0.00235754
-0.00590985
-0.0131914
-0.0239705
-0.0417023
-0.0686377
-0.109588
-0.17042
-0.258909
-0.383276
-0.535074
-0.684727
-0.77019
-0.762827
-0.677442
-0.553661
-0.417384
-0.28758
-0.178167
-0.0934975
0.00506228
0.014403
0.0217287
0.026789
0.029847
0.0267979
0.0193743
-0.00122817
-0.0357044
-0.0932469
-0.166746
-0.238029
-0.266221
-0.242891
-0.18631
-0.122614
-0.0659307
-0.0262825
-0.00740769
-0.00753321
0.0102124
0.0321416
0.0545246
0.0780761
0.101352
0.127187
0.15164
0.178284
0.201836
0.226082
0.250907
0.286517
0.342424
0.405678
0.448009
0.454135
0.419517
0.348414
0.252506
0.139409
0.0162465
0.0495981
0.0845695
0.121484
0.16256
0.207174
0.257996
0.314489
0.377781
0.448205
0.526376
0.615413
0.717148
0.812536
0.873118
0.86997
0.801469
0.669972
0.492904
0.28375
0.0188968
0.0577605
0.0984211
0.142499
0.19127
0.24589
0.307962
0.378817
0.460379
0.553689
0.660475
0.781557
0.911609
1.03595
1.13635
1.15975
1.10656
0.954431
0.712352
0.431327
0.0186732
0.0574642
0.0980125
0.142088
0.190051
0.244345
0.305551
0.375533
0.455768
0.546876
0.650937
0.767776
0.89457
1.02109
1.14107
1.19679
1.17601
1.05384
0.810478
0.486614
0.0157508
0.0473167
0.0805538
0.116125
0.155773
0.200179
0.251063
0.309254
0.376096
0.451893
0.537451
0.630491
0.729883
0.830337
0.924279
0.987917
0.983103
0.903061
0.690184
0.373391
0.00830698
0.0265353
0.045725
0.0664974
0.0895579
0.11574
0.144881
0.178509
0.215379
0.257423
0.303432
0.35204
0.399732
0.444968
0.479948
0.500056
0.45252
0.346135
0.155372
-0.124657
0.000731868
0.0016873
0.00317215
0.0052208
0.00777704
0.0105921
0.0140803
0.0167548
0.0188859
0.018394
0.0141834
0.00246296
-0.0179779
-0.0547777
-0.116317
-0.213543
-0.363743
-0.566438
-0.782535
-1.02086
-0.00864791
-0.0250973
-0.0421669
-0.0600239
-0.0797958
-0.101585
-0.127223
-0.157475
-0.195162
-0.242214
-0.302615
-0.381536
-0.484059
-0.623054
-0.803905
-1.05088
-1.36285
-1.70603
-1.96963
-2.14159
-0.0151101
-0.045614
-0.0772384
-0.110811
-0.147506
-0.188589
-0.235686
-0.290101
-0.356604
-0.438725
-0.542227
-0.671881
-0.84195
-1.06069
-1.35622
-1.72294
-2.17258
-2.57454
-2.82521
-2.89604
-0.0200464
-0.0599726
-0.101644
-0.145289
-0.192496
-0.24435
-0.303004
-0.370519
-0.440537
-0.534471
-0.6478
-0.78506
-0.961188
-1.17814
-1.47084
-1.81314
-2.24347
-2.56099
-2.74554
-2.73835
-0.0221984
-0.0678357
-0.11509
-0.164081
-0.216415
-0.272383
-0.333359
-0.400466
-0.474688
-0.55999
-0.657517
-0.771962
-0.903115
-1.06364
-1.24984
-1.46298
-1.68795
-1.82317
-1.90115
-1.88061
-0.0244602
-0.0734172
-0.123961
-0.175836
-0.230262
-0.287293
-0.347931
-0.412449
-0.481652
-0.556055
-0.636326
-0.721293
-0.81158
-0.906313
-0.993784
-1.0843
-1.14515
-1.14083
-1.17475
-1.17165
-0.0251089
-0.0756117
-0.127294
-0.179978
-0.234245
-0.290342
-0.348606
-0.409235
-0.472314
-0.537673
-0.6043
-0.671157
-0.737734
-0.796183
-0.846201
-0.880122
-0.879681
-0.849888
-0.861691
-0.871421
-0.0253686
-0.0764817
-0.128559
-0.18134
-0.235308
-0.290336
-0.346521
-0.40376
-0.461672
-0.519656
-0.576634
-0.632209
-0.682774
-0.727662
-0.762166
-0.780311
-0.767984
-0.761739
-0.7149
-0.75604
-0.0251653
-0.0760395
-0.127967
-0.180553
-0.234255
-0.288814
-0.344215
-0.400161
-0.456231
-0.511742
-0.566098