/*--------------------------------*- C++ -*----------------------------------*\
| =========                 |                                                 |
| \\      /  F ield         | OpenFOAM: The Open Source CFD Toolbox           |
|  \\    /   O peration     | Version:  v1806                                 |
|   \\  /    A nd           | Web:      www.OpenFOAM.com                      |
|    \\/     M anipulation  |                                                 |
\*---------------------------------------------------------------------------*/
FoamFile
{
    version     2.0;
    format      ascii;
    class       volScalarField;
    location    "250";
    object      p;
}
// * * * * * * * * * * * * * * * * * * * * * * * * * * * * * * * * * * * * * //

dimensions      [0 2 -2 0 0 0 0];


internalField   nonuniform List<scalar> 
2400
(
0.000829855
0.000827257
0.000821644
0.000812879
0.000800783
0.000785087
0.000765447
0.000741493
0.000712858
0.000679234
0.000640372
0.000596168
0.000546641
0.000492034
0.000432775
0.000369534
0.000303214
0.000234739
0.000165189
9.5576e-05
0.00249259
0.00248535
0.00246966
0.00244503
0.00241088
0.00236647
0.00231077
0.00224273
0.00216126
0.00206546
0.00195458
0.00182828
0.00168654
0.00153002
0.00135984
0.00117794
0.000986775
0.000789528
0.000590153
0.000392802
0.00416374
0.0041523
0.00412751
0.00408839
0.00403394
0.00396282
0.00387329
0.00376348
0.00363144
0.00347552
0.00329421
0.00308678
0.00285287
0.0025934
0.00230993
0.0020056
0.00168435
0.00135159
0.00101349
0.000676595
0.00584828
0.00583315
0.0058003
0.0057483
0.00567561
0.00558025
0.00545959
0.00531084
0.00513096
0.00491737
0.00466752
0.00438006
0.00405395
0.00369023
0.00329055
0.00285931
0.00240167
0.0019257
0.00143995
0.000955093
0.00755046
0.00753229
0.00749272
0.00742991
0.00734169
0.00722532
0.0070771
0.00689314
0.00666903
0.00640103
0.0060851
0.00571904
0.00530055
0.0048307
0.00431057
0.00374607
0.0031431
0.00251313
0.00186712
0.00122101
0.0092738
0.00925337
0.0092088
0.00913778
0.00903747
0.00890416
0.0087329
0.0085185
0.00825479
0.0079366
0.00755778
0.00711507
0.006604
0.00602565
0.00537948
0.0046734
0.0039131
0.0031147
0.00229113
0.00146582
0.0110208
0.0109991
0.0109517
0.0108757
0.0107675
0.0106223
0.0104337
0.0101949
0.0098975
0.00953467
0.00909732
0.00858086
0.00797734
0.00728803
0.00650891
0.00565096
0.00471761
0.00373204
0.00270766
0.00167938
0.012793
0.0127712
0.0127234
0.0126463
0.0125354
0.0123845
0.0121856
0.01193
0.0116067
0.0112065
0.0107167
0.0101309
0.00943594
0.0086336
0.00771336
0.00669132
0.00556466
0.00436799
0.00311164
0.00184892
0.0145901
0.0145697
0.0145246
0.0144511
0.0143436
0.0141947
0.0139942
0.0137312
0.0133919
0.0129641
0.0124303
0.0117818
0.0109981
0.0100817
0.00901129
0.00781126
0.00646528
0.00502745
0.00349702
0.00195826
0.0164106
0.0163932
0.0163543
0.0162899
0.0161933
0.0160553
0.0158638
0.0156054
0.0152626
0.0148199
0.014254
0.0135526
0.0126857
0.0116564
0.0104266
0.00903353
0.00743514
0.00571884
0.0038566
0.00198663
0.0182509
0.0182383
0.0182098
0.0181607
0.0180835
0.0179671
0.0177975
0.017558
0.017228
0.0167865
0.016205
0.0154646
0.0145251
0.013387
0.0119907
0.010389
0.00849727
0.00645697
0.004182
0.00190684
0.020105
0.0200994
0.0200858
0.0200592
0.0200112
0.0199288
0.0197962
0.0195929
0.0192957
0.0188762
0.0183017
0.0175415
0.0165477
0.0153089
0.0137449
0.0119186
0.00968635
0.00726732
0.00446449
0.00168395
0.0219646
0.0219683
0.0219746
0.0219784
0.0219704
0.0219359
0.0218578
0.0217113
0.0214712
0.0210999
0.0205624
0.0198091
0.0187902
0.0174647
0.0157438
0.0136745
0.0110553
0.00818993
0.00469828
0.00127784
0.0238188
0.0238342
0.0238656
0.0239081
0.0239519
0.0239806
0.0239763
0.0239103
0.023756
0.0234656
0.0230033
0.022294
0.0212936
0.019906
0.0180595
0.0157233
0.0126868
0.00927791
0.00489004
0.000653916
0.0256536
0.0256832
0.0257451
0.0258348
0.0259424
0.0260505
0.0261407
0.0261818
0.0261457
0.0259758
0.0256354
0.0250215
0.0240991
0.022694
0.0207821
0.0181579
0.0147118
0.0105935
0.00508919
-0.000209618
0.0274524
0.0274985
0.027596
0.0277412
0.0279243
0.0281282
0.028334
0.0285102
0.0286273
0.028624
0.0284601
0.0280111
0.027243
0.0259
0.0240121
0.0211134
0.0173187
0.012231
0.0054642
-0.00137831
0.0291959
0.0292605
0.0293981
0.0296063
0.0298757
0.0301903
0.030532
0.0308708
0.0311769
0.0313897
0.0314632
0.0312663
0.0307487
0.0296019
0.0278569
0.0247762
0.0207439
0.0143926
0.00634572
-0.00321104
0.0308621
0.030947
0.0311283
0.0314052
0.0317697
0.0322076
0.0327026
0.0332286
0.0337568
0.0342335
0.0346074
0.0347587
0.0346086
0.0338505
0.032432
0.029459
0.0253142
0.0174776
0.00801126
-0.00688445
0.0324277
0.0325337
0.0327609
0.0331104
0.0335758
0.0341458
0.0348067
0.0355382
0.0363151
0.0370942
0.0378255
0.0384119
0.0387563
0.0386067
0.0377936
0.0354816
0.0316128
0.0227563
0.0111197
-0.0139313
0.0338678
0.0339954
0.034269
0.0346923
0.0352608
0.0359664
0.0367995
0.0377462
0.0387877
0.0398929
0.0410206
0.0421006
0.0430431
0.0436742
0.0437862
0.0428133
0.0402589
0.032951
0.0203014
-0.0187412
3.74882e-06
-0.00011021
-0.000207163
-0.000279746
-0.000326697
-0.000353342
-0.000363953
-0.000365211
-0.000360414
-0.000354576
0.000104153
-0.000242178
-0.000527527
-0.000741894
-0.000882513
-0.000963503
-0.000997681
-0.00100429
-0.000991762
-0.000972028
0.000185908
-0.000403197
-0.00088884
-0.00125277
-0.00149048
-0.00162542
-0.00168064
-0.00168901
-0.00166506
-0.00163041
0.000247656
-0.000600488
-0.00129763
-0.0018164
-0.00215124
-0.00233661
-0.00240797
-0.00241327
-0.00237331
-0.00231949
0.000276298
-0.000850901
-0.00177184
-0.00244975
-0.00287898
-0.00310772
-0.00318703
-0.00318162
-0.00311829
-0.00303941
0.000256641
-0.00117364
-0.002332
-0.00317184
-0.00368911
-0.00394988
-0.00402545
-0.00399865
-0.0039021
-0.00379032
0.000169202
-0.00159223
-0.00300269
-0.00400469
-0.00459872
-0.00487496
-0.0049312
-0.00486875
-0.0047261
-0.00457086
-1.19382e-05
-0.00213584
-0.00381363
-0.00497377
-0.00562654
-0.00589545
-0.00591234
-0.00579553
-0.00559013
-0.00537694
-0.000321801
-0.00284113
-0.00480138
-0.00610873
-0.00679317
-0.00702436
-0.00697636
-0.00678044
-0.00649055
-0.00619929
-0.000808723
-0.00375453
-0.00601191
-0.00744447
-0.00812106
-0.00827425
-0.0081278
-0.00781959
-0.00741658
-0.00701972
-0.00154211
-0.00493575
-0.00750408
-0.00902131
-0.00963277
-0.00965327
-0.00936266
-0.00889784
-0.00834488
-0.00780703
-0.00262541
-0.00646482
-0.00935368
-0.0108797
-0.0113426
-0.0111552
-0.0106579
-0.0099804
-0.00923452
-0.00851625
-0.00421937
-0.00845234
-0.011654
-0.0130413
-0.0132387
-0.0127411
-0.0119575
-0.0110069
-0.0100288
-0.00909759
-0.00658635
-0.0110459
-0.0144985
-0.0154756
-0.0152524
-0.0143153
-0.0131653
-0.011899
-0.010673
-0.00951969
-0.0101812
-0.0144067
-0.0179308
-0.0180426
-0.017226
-0.015721
-0.0141685
-0.0125937
-0.0111448
-0.00978964
-0.0157778
-0.0186083
-0.0218943
-0.0204402
-0.0189425
-0.0167982
-0.014906
-0.0130815
-0.0114654
-0.00995682
-0.0242932
-0.0234471
-0.0261542
-0.0222399
-0.0202824
-0.0174997
-0.0154023
-0.013403
-0.0116845
-0.0100876
-0.0359977
-0.0277316
-0.0301558
-0.0232406
-0.021271
-0.0178948
-0.0157372
-0.0136096
-0.0118422
-0.0102272
-0.0507785
-0.0296536
-0.0330877
-0.0235804
-0.0219791
-0.01806
-0.0159749
-0.0137267
-0.011954
-0.0103764
-0.0861895
-0.0312777
-0.0357258
-0.0238923
-0.0222547
-0.018226
-0.0160366
-0.0138006
-0.0120055
-0.0105204
-0.000341978
-0.000331015
-0.000326289
-0.000325327
-0.00032199
-0.000319153
-0.000313861
-0.000313146
-0.00031489
-0.000324431
-0.000343282
-0.000365262
-0.00037715
-0.000390283
-0.000392862
-0.000373721
-0.000329207
-0.000258958
-0.000162852
-5.27117e-05
-0.000944656
-0.00092357
-0.000913651
-0.000916354
-0.000911345
-0.000908935
-0.000898806
-0.000901272
-0.000910843
-0.000941241
-0.000989734
-0.00104314
-0.00112139
-0.00116656
-0.00117808
-0.00112292
-0.000993741
-0.00078458
-0.000499052
-0.000172448
-0.00158105
-0.00154496
-0.0015286
-0.00153367
-0.00152506
-0.00152066
-0.00150275
-0.00150595
-0.00152113
-0.00157205
-0.00165478
-0.00176114
-0.00188282
-0.00195654
-0.00197908
-0.00188612
-0.00167319
-0.00132254
-0.000846829
-0.000299858
-0.00224415
-0.00219242
-0.00217054
-0.00217811
-0.00216463
-0.00215613
-0.00212713
-0.0021285
-0.00214622
-0.00221755
-0.00233606
-0.00248637
-0.00265965
-0.00276645
-0.00280507
-0.00267248
-0.00237488
-0.00187572
-0.00120365
-0.000428323
-0.00293235
-0.0028637
-0.00283687
-0.00284627
-0.00282547
-0.00280921
-0.00276409
-0.00275952
-0.00277498
-0.00286577
-0.00301753
-0.00321514
-0.0034458
-0.00359156
-0.00365406
-0.00348278
-0.00310258
-0.00244719
-0.00157232
-0.000558929
-0.00364363
-0.00355628
-0.00352464
-0.00353379
-0.00350154
-0.00347148
-0.00340305
-0.00338606
-0.00339228
-0.00349992
-0.00368201
-0.00393126
-0.00422348
-0.00441742
-0.00451495
-0.00431055
-0.00385519
-0.00303761
-0.00195691
-0.00069324
-0.0043736
-0.00426505
-0.00422758
-0.00423212
-0.00418205
-0.00412943
-0.00402846
-0.00399012
-0.0039783
-0.00409838
-0.00430592
-0.00461045
-0.00496732
-0.00522173
-0.00536768
-0.00514145
-0.00462477
-0.00364271
-0.00235884
-0.000830944
-0.00511377
-0.00498029
-0.00493364
-0.00492627
-0.00484966
-0.00476334
-0.00461947
-0.00454919
-0.00450976
-0.00463599
-0.00486235
-0.0052251
-0.00564756
-0.00597674
-0.00618464
-0.00595393
-0.00539565
-0.00425221
-0.00277575
-0.000970168
-0.00584881
-0.00568509
-0.00562275
-0.0055935
-0.00548029
-0.0053486
-0.00515236
-0.00503976
-0.00496423
-0.00508898
-0.00532659
-0.00574882
-0.00623524
-0.00665362
-0.00693453
-0.006722
-0.00614558
-0.00485056
-0.00320153
-0.00110778
-0.00655357
-0.0063535
-0.00626606
-0.00620452
-0.006046
-0.00586003
-0.0056058
-0.00544356
-0.00532679
-0.00544244
-0.0056842
-0.00616339
-0.00670914
-0.00722829
-0.00758835
-0.00741974
-0.00684852
-0.00541907
-0.00362671
-0.00123934
-0.00719178
-0.00695168
-0.00682947
-0.00672922
-0.00652194
-0.00627934
-0.005968
-0.00575406
-0.00559513
-0.00569516
-0.00593533
-0.00646513
-0.00706334
-0.00768764
-0.00812595
-0.00802607
-0.00747882
-0.00593902
-0.00403903
-0.00135907
-0.00772035
-0.0074456
-0.00728364
-0.00714705
-0.00689555
-0.0066016
-0.00623984
-0.00597717
-0.00577916
-0.00585877
-0.00609325
-0.0066622
-0.00730242
-0.00803173
-0.00854077
-0.00852813
-0.00801532
-0.00639441
-0.0044244
-0.00146026
-0.00810338
-0.00781533
-0.00761699
-0.00745502
-0.0071696
-0.0068356
-0.00643511
-0.00613157
-0.00590075
-0.00595723
-0.00618291
-0.00677603
-0.00744871
-0.00826881
-0.0088378
-0.00892166
-0.00844402
-0.0067736
-0.00476793
-0.00153622
-0.00833153
-0.00806386
-0.00783898
-0.00766752
-0.00736144
-0.00700182
-0.00657626
-0.00624202
-0.00598578
-0.00601796
-0.00623155
-0.00683301
-0.00752614
-0.00841504
-0.00902965
-0.0092082
-0.00875838
-0.00706899
-0.00505502
-0.00158128
-0.00842925
-0.00821805
-0.00797748
-0.00781036
-0.00749511
-0.0071236
-0.00668592
-0.00633157
-0.00605726
-0.00606503
-0.00626276
-0.00685667
-0.00755621
-0.00848722
-0.00913122
-0.00939115
-0.00895752
-0.00727556
-0.00527223
-0.00159188
-0.00845098
-0.00831533
-0.00806328
-0.00790783
-0.00759185
-0.00722016
-0.00678194
-0.00641767
-0.00613216
-0.00611604
-0.00629373
-0.00686488
-0.00755549
-0.00849879
-0.00915584
-0.00947342
-0.0090437
-0.00738899
-0.00540809
-0.00156713
-0.00845251
-0.00838275
-0.00811705
-0.00797595
-0.00766625
-0.00730468
-0.00687627
-0.00651164
-0.00622107
-0.00618204
-0.0063351
-0.00686928
-0.00753426
-0.00846015
-0.00911088
-0.00945655
-0.00902027
-0.00740454
-0.00545393
-0.00150893
-0.00845932
-0.00842861
-0.00814709
-0.0080232
-0.00772701
-0.00738542
-0.0069759
-0.00662002
-0.00632951
-0.00626906
-0.00639245
-0.00687669
-0.00749795
-0.00837783
-0.00899965
-0.00934162
-0.00889026
-0.0073172
-0.00540472
-0.00142163
-0.00846453
-0.00844601
-0.00815501
-0.00805337
-0.00777943
-0.00746729
-0.00708483
-0.00674591
-0.00646009
-0.00637974
-0.00646843
-0.00689067
-0.00744886
-0.00825583
-0.00882343
-0.00913034
-0.00865615
-0.00712325
-0.00525976
-0.00131146
-0.00841158
-0.00839554
-0.00814307
-0.00806705
-0.00782869
-0.0075513
-0.00720666
-0.00688931
-0.00661608
-0.00651391
-0.00656572
-0.00691212
-0.00738878
-0.00809626
-0.0085829
-0.00882532
-0.00832123
-0.00682207
-0.00502347
-0.00118578
-0.00810779
-0.00826149
-0.0081105
-0.00807124
-0.0078826
-0.00765147
-0.00735519
-0.00706889
-0.00681336
-0.00668863
-0.00669581
-0.0069447
-0.00731592
-0.00787908
-0.00825057
-0.00839144
-0.00784809
-0.00637813
-0.00467513
-0.00103813
-0.00797012
-0.00814348
-0.00806769
-0.00807475
-0.00794624
-0.00777425
-0.00753746
-0.00729354
-0.00706121
-0.00691487
-0.00686611
-0.0069955
-0.00722578
-0.00759765
-0.00780901
-0.00780506
-0.0072
-0.00578445
-0.00420284
-0.000873324
-0.00785497
-0.00805281
-0.0080338
-0.0080882
-0.00802166
-0.00791389
-0.00774159
-0.00754665
-0.00734115
-0.00717569
-0.00706447
-0.00706323
-0.00712854
-0.00728082
-0.00730037
-0.00712852
-0.00645668
-0.0051138
-0.00365785
-0.000723145
-0.00778182
-0.0079969
-0.00802121
-0.00812049
-0.00811447
-0.00807297
-0.00796829
-0.00782721
-0.00765165
-0.00746914
-0.00729023
-0.00714911
-0.00702944
-0.00693988
-0.00674296
-0.00638761
-0.00564946
-0.00439785
-0.00309614
-0.000564328
-0.00775678
-0.00798255
-0.00803752
-0.00817738
-0.00822809
-0.00825245
-0.00821687
-0.00813303
-0.00798994
-0.00779202
-0.00754166
-0.00725364
-0.00693381
-0.00658734
-0.00615719
-0.00561136
-0.00481465
-0.00367033
-0.00253213
-0.000401815
-0.0077794
-0.00801161
-0.00808571
-0.00826063
-0.00836281
-0.00845123
-0.00848524
-0.0084604
-0.00835169
-0.00813961
-0.00781571
-0.00737606
-0.00684638
-0.00623536
-0.00556306
-0.0048273
-0.00398162
-0.00295408
-0.00197805
-0.000244904
-0.00784736
-0.00808209
-0.00816354
-0.00836797
-0.00851602
-0.00866558
-0.00876815
-0.00880355
-0.00873072
-0.00850537
-0.00810764
-0.00751404
-0.00677102
-0.0058939
-0.00497842
-0.00405831
-0.00317035
-0.00225859
-0.00144358
-9.789e-05
-0.00795709
-0.00818832
-0.00826421
-0.00849314
-0.00868188
-0.00888937
-0.00905894
-0.00915422
-0.00911856
-0.0088806
-0.00841053
-0.00766343
-0.00670933
-0.00557062
-0.00441814
-0.00332147
-0.00239389
-0.00159022
-0.000935885
3.78191e-05
-0.0080982
-0.00831998
-0.00837619
-0.00862603
-0.00885161
-0.00911402
-0.00934876
-0.00950134
-0.00950418
-0.00925382
-0.00871452
-0.00781746
-0.00665966
-0.0052702
-0.00389251
-0.00263007
-0.00166091
-0.000954535
-0.000459669
0.000162607
-0.00825516
-0.00846559
-0.00848388
-0.00875376
-0.00901416
-0.0093289
-0.00962626
-0.00983207
-0.00987315
-0.00960963
-0.00900564
-0.00796521
-0.00661653
-0.00499308
-0.00340751
-0.00199344
-0.000979177
-0.000357656
-1.79583e-05
0.000278882
-0.00853556
-0.00860495
-0.00856103
-0.00885108
-0.00914272
-0.00950184
-0.00985172
-0.0100997
-0.0101721
-0.00989411
-0.00923787
-0.00807753
-0.00657558
-0.0047635
-0.00301338
-0.00147946
-0.000424289
0.000132628
0.000342688
0.000375991
-0.00859114
-0.00865721
-0.00860628
-0.00891658
-0.00923892
-0.00963416
-0.0100264
-0.0103057
-0.0104021
-0.0101083
-0.00940924
-0.00815163
-0.00652993
-0.00457094
-0.00269441
-0.00106928
2.04221e-05
0.000529517
0.000640846
0.000444502
-0.00856554
-0.00864668
-0.00862884
-0.00895889
-0.00931492
-0.00974234
-0.0101711
-0.0104767
-0.0105856
-0.0102764
-0.00953238
-0.00819055
-0.00646231
-0.00438277
-0.00240133
-0.000701909
0.000417844
0.000886967
0.000909839
0.000509988
-0.00854606
-0.00861028
-0.00863138
-0.00897943
-0.00936723
-0.00982136
-0.010279
-0.0106014
-0.0107157
-0.010385
-0.00959668
-0.00818128
-0.00636442
-0.00419165
-0.00212984
-0.000378052
0.000764652
0.00119801
0.00114487
0.000572889
-0.00854343
-0.00856382
-0.00861794
-0.00897815
-0.00939263
-0.00986572
-0.0103426
-0.0106704
-0.0107801
-0.0104214
-0.00958993
-0.00811221
-0.00622735
-0.00399092
-0.0018767
-9.75605e-05
0.00105771
0.00145668
0.0013421
0.000629004
-0.00854575
-0.00850667
-0.00858682
-0.00895117
-0.00938514
-0.00986759
-0.0103523
-0.0106728
-0.0107667
-0.0103741
-0.00950095
-0.00797425
-0.00604393
-0.00377585
-0.00163923
0.000139807
0.00129467
0.00165844
0.00149606
0.000676995
-0.00851059
-0.0084203
-0.0085242
-0.00888658
-0.00933241
-0.00981427
-0.0102946
-0.0105956
-0.0106627
-0.0102318
-0.00932072
-0.00776138
-0.0058104
-0.00354453
-0.0014166
0.000334234
0.00147396
0.00180079
0.00160173
0.000706934
-0.00838084
-0.0082676
-0.00840047
-0.00876056
-0.0092127
-0.00968585
-0.0101513
-0.0104222
-0.0104541
-0.00998424
-0.00904258
-0.00747086
-0.00552662
-0.00329802
-0.00121014
0.000485387
0.00159459
0.00188334
0.00165663
0.00071859
-0.00811017
-0.00800666
-0.00817643
-0.00853923
-0.00899541
-0.00945516
-0.00989839
-0.0101333
-0.0101259
-0.00962191
-0.00866237
-0.007103
-0.00519559
-0.00303977
-0.00102285
0.000592681
0.00165637
0.00190762
0.00166117
0.000710409
-0.00768191
-0.00761097
-0.00781964
-0.00818971
-0.00864872
-0.00909322
-0.00951078
-0.00970908
-0.0096651
-0.00913845
-0.00817929
-0.00666103
-0.00482268
-0.00277435
-0.000858029
0.000656177
0.00166052
0.00187692
0.0016187
0.000683056
-0.00710894
-0.00707848
-0.00731921
-0.00769544
-0.0081533
-0.00858079
-0.0089716
-0.00913771
-0.00906566
-0.00853299
-0.0075971
-0.00615121
-0.00441474
-0.00250604
-0.000717737
0.00067767
0.00161053
0.00179631
0.001535
0.000639272
-0.00642612
-0.00642986
-0.00668709
-0.00706085
-0.00750907
-0.00791589
-0.00827895
-0.00841916
-0.0083307
-0.00781271
-0.00692555
-0.00558287
-0.00397937
-0.00223799
-0.000601721
0.000661464
0.00151272
0.00167266
0.00141749
0.000583021
-0.00567421
-0.00569973
-0.00595455
-0.00631152
-0.00673679
-0.00711585
-0.00744851
-0.00756905
-0.00747674
-0.00699444
-0.00618042
-0.00496799
-0.00352423
-0.00197181
-0.00050704
0.000614431
0.00137612
0.00151446
0.00127433
0.000518438
-0.00488832
-0.00492359
-0.00515935
-0.0054846
-0.00587233
-0.00621467
-0.00651266
-0.00661751
-0.00653172
-0.00610248
-0.00538167
-0.00432007
-0.00305647
-0.00170768
-0.000428578
0.000545244
0.00121152
0.0013312
0.00111368
0.00044912
-0.00409384
-0.0041301
-0.0043352
-0.004617
-0.00495477
-0.00525194
-0.00551034
-0.00560069
-0.00552804
-0.00516407
-0.00455039
-0.00365251
-0.00258219
-0.00144488
-0.000360221
0.000462956
0.00102988
0.0011324
0.000943036
0.000377765
-0.00330705
-0.00333909
-0.00350719
-0.00373843
-0.00401779
-0.00426358
-0.00447812
-0.00455385
-0.00449564
-0.00420448
-0.0037055
-0.00297699
-0.00210605
-0.00118233
-0.000296211
0.000375464
0.000840611
0.000926177
0.000768622
0.000306448
-0.00253762
-0.00256286
-0.00269165
-0.00286942
-0.00308604
-0.003277
-0.00344486
-0.00350548
-0.00346459
-0.003244
-0.0028617
-0.00230227
-0.001631
-0.000918908
-0.000231969
0.000288619
0.000650613
0.000718216
0.000594505
0.000236366
-0.00179102
-0.00180866
-0.00189842
-0.00202277
-0.00217562
-0.00231069
-0.00243055
-0.00247475
-0.00244827
-0.00229641
-0.00202841
-0.00163372
-0.00115826
-0.000653498
-0.000164179
0.000206282
0.000464643
0.000512713
0.000422866
0.000167837
-0.0010715
-0.00108202
-0.00113468
-0.00120749
-0.00129751
-0.00137698
-0.00144791
-0.00147396
-0.00145741
-0.00136835
-0.00120936
-0.000973702
-0.000688538
-0.000386456
-9.23114e-05
0.000129296
0.000284274
0.000312567
0.000256745
0.000101966
-0.000386067
-0.000385632
-0.000401129
-0.000423035
-0.000450271
-0.000474003
-0.000494628
-0.000501685
-0.00049575
-0.000457708
-0.000402068
-0.000322437
-0.000225793
-0.000124507
-2.5111e-05
4.90944e-05
0.000101367
0.000112064
9.3583e-05
4.19336e-05
-0.0863548
-0.0307045
-0.0350233
-0.0236286
-0.0220128
-0.0181018
-0.0159905
-0.013814
-0.0120686
-0.0106784
-0.0536324
-0.0291974
-0.0328781
-0.0232916
-0.021824
-0.0179314
-0.0159496
-0.0137592
-0.0120248
-0.0105223
-0.0386577
-0.0276926
-0.0302985
-0.0230331
-0.0212096
-0.0178044
-0.0157479
-0.0136527
-0.0119307
-0.0103685
-0.0268061
-0.0241684
-0.0268414
-0.0222967
-0.0203828
-0.0175003
-0.015468
-0.0134837
-0.0117942
-0.0102182
-0.018031
-0.0198105
-0.0230041
-0.0208895
-0.019274
-0.0169654
-0.0150678
-0.0132268
-0.0116121
-0.0100873
-0.0120576
-0.0157518
-0.019253
-0.0188593
-0.017824
-0.0161114
-0.0144791
-0.0128411
-0.0113559
-0.00994988
-0.00811107
-0.012353
-0.0158589
-0.0165077
-0.0160719
-0.0149278
-0.0136496
-0.0122777
-0.0109809
-0.00974979
-0.00546985
-0.00964407
-0.0129479
-0.0141463
-0.0141748
-0.013503
-0.012589
-0.0115169
-0.0104483
-0.00942803
-0.00366297
-0.00753189
-0.0105341
-0.0119646
-0.0123011
-0.0119781
-0.0113725
-0.0105847
-0.00975197
-0.00895096
-0.00240877
-0.00588592
-0.0085617
-0.0100371
-0.0105547
-0.0104695
-0.0100957
-0.00954346
-0.00892147
-0.00832147
-0.00153443
-0.0045941
-0.00694922
-0.00836877
-0.00897574
-0.00904438
-0.00883336
-0.00845977
-0.00800798
-0.00757319
-0.000928675
-0.00357395
-0.00562264
-0.00693319
-0.00756627
-0.0077284
-0.0076279
-0.00738316
-0.00706083
-0.00675171
-0.000516707
-0.00276557
-0.00452313
-0.00569559
-0.00631139
-0.00652386
-0.00649648
-0.00634219
-0.00611545
-0.00589756
-0.000246308
-0.00212348
-0.0036047
-0.00462335
-0.00519165
-0.00542275
-0.00544148
-0.00534944
-0.00519252
-0.00503952
-7.98084e-05
-0.00161159
-0.0028308
-0.00368821
-0.00418822
-0.00441398
-0.00445856
-0.0044082
-0.00430198
-0.00419512
1.08197e-05
-0.00120067
-0.00217175
-0.00286585
-0.00328385
-0.00348641
-0.00354118
-0.00351732
-0.00344752
-0.00337387
4.68556e-05
-0.000866905
-0.00160295
-0.00213508
-0.00246282
-0.00262946
-0.00268248
-0.00267394
-0.0026298
-0.00258041
4.48968e-05
-0.000590696
-0.00110382
-0.00147747
-0.00171086
-0.00183329
-0.00187592
-0.00187467
-0.00184822
-0.00181674
1.93955e-05
-0.000354511
-0.000656038
-0.000876128
-0.00101441
-0.00108823
-0.00111515
-0.00111613
-0.00110242
-0.00108459
-2.83876e-05
-0.000151662
-0.000254178
-0.000328448
-0.000374433
-0.000398243
-0.000406157
-0.000405094
-0.000399669
-0.000394293
0.033533
0.0336621
0.0339397
0.0343692
0.034946
0.0356619
0.0365073
0.037468
0.0385253
0.0396479
0.0407946
0.0418952
0.0428602
0.0435178
0.043661
0.0427429
0.0402498
0.0331701
0.0207637
-0.0180732
0.0321291
0.0322382
0.0324725
0.0328334
0.0333141
0.0339035
0.034588
0.0353478
0.0361576
0.036975
0.0377501
0.0383881
0.0387909
0.0387154
0.0379802
0.0357836
0.0319989
0.0232179
0.0113788
-0.0151643
0.030611
0.0307004
0.0308919
0.0311849
0.0315711
0.0320368
0.0325656
0.0331322
0.0337077
0.0342396
0.0346761
0.0349004
0.0348289
0.034163
0.0328297
0.0299345
0.0258221
0.0177422
0.0080787
-0.00816008
0.028999
0.0290695
0.0292198
0.029448
0.0297445
0.0300935
0.030477
0.0308657
0.0312292
0.031508
0.0316545
0.0315385
0.0311046
0.0300382
0.0283658
0.0252849
0.0212539
0.014562
0.00624346
-0.00416084
0.0273127
0.0273655
0.0274777
0.0276458
0.0278599
0.0281028
0.0283558
0.028587
0.0287671
0.0288336
0.0287455
0.0283732
0.0276833
0.0263945
0.0245575
0.0216003
0.0177557
0.0123333
0.00521602
-0.00211821
0.0255705
0.0256074
0.0256852
0.0257995
0.0259403
0.0260899
0.0262296
0.0263275
0.0263554
0.0262535
0.0259855
0.0254374
0.0245804
0.0232035
0.0213143
0.0186063
0.0150546
0.0106642
0.0047587
-0.000894636
0.0237888
0.0238118
0.0238596
0.0239273
0.024005
0.0240755
0.0241206
0.0241101
0.0240171
0.0237891
0.0233913
0.0227348
0.0217829
0.0204041
0.0185497
0.0161244
0.0129464
0.00932254
0.00454119
-1.26556e-05
0.0219821
0.0219934
0.0220158
0.0220445
0.0220697
0.0220756
0.0220447
0.0219501
0.0217661
0.0214495
0.020966
0.0202529
0.0192644
0.0179347
0.016181
0.0140265
0.0112494
0.00819921
0.00436017
0.000651889
0.0201628
0.0201644
0.0201663
0.0201634
0.0201467
0.0201021
0.020013
0.0198566
0.0196085
0.0192354
0.0187034
0.0179723
0.0169926
0.0157407
0.0141278
0.0122195
0.00982995
0.00724168
0.00414978
0.00111973
0.0183409
0.018335
0.0183209
0.0182937
0.0182452
0.0181631
0.0180323
0.0178337
0.0175453
0.0171418
0.016592
0.015871
0.0149331
0.013775
0.0123217
0.0106394
0.00860219
0.00640678
0.00389671
0.0014103
0.0165242
0.0165128
0.016487
0.0164422
0.0163712
0.0162635
0.0161056
0.0158821
0.0155735
0.0151608
0.0146172
0.013927
0.0130528
0.0119984
0.0107096
0.00923823
0.00751106
0.00565568
0.00360264
0.00155514
0.0147186
0.0147036
0.0146699
0.0146137
0.0145285
0.0144056
0.0142335
0.0139996
0.0136874
0.0132826
0.0127634
0.0121195
0.0113228
0.0103781
0.00925064
0.00797678
0.00651962
0.00495982
0.00327407
0.00158698
0.0129281
0.012911
0.012873
0.0128107
0.0127187
0.0125898
0.0124143
0.0121821
0.0118799
0.0114965
0.0110154
0.0104291
0.00971817
0.00888629
0.00791347
0.00682398
0.00560284
0.00430138
0.0029186
0.00153309
0.0111548
0.011137
0.0110978
0.0110342
0.0109417
0.0108145
0.0106448
0.0104245
0.010143
0.00979188
0.00935888
0.00883842
0.00821789
0.00749973
0.00667374
0.0057561
0.00474364
0.00366988
0.00254329
0.00141471
0.00939965
0.00938244
0.0093446
0.00928363
0.00919598
0.00907707
0.00892069
0.00872044
0.00846834
0.0081579
0.00778041
0.00733173
0.00680407
0.00619909
0.00551249
0.00475532
0.00393004
0.00305923
0.00215414
0.0012484
0.0076621
0.00764647
0.00761222
0.00755731
0.00747901
0.00737377
0.00723687
0.00706341
0.00684749
0.00658428
0.00626778
0.00589505
0.0054615
0.00496841
0.0044147
0.00380816
0.00315333
0.00246575
0.0017563
0.00104738
0.00594058
0.00592739
0.00589855
0.00585249
0.0057872
0.00570009
0.00558767
0.00544636
0.00527198
0.00506109
0.00480973
0.0045159
0.00417712
0.00379441
0.00336827
0.00290422
0.00240701
0.0018873
0.00135416
0.000822336
0.00423266
0.00422257
0.00420059
0.00416561
0.00411629
0.00405083
0.00396687
0.00386196
0.00373334
0.00357874
0.00339571
0.00318303
0.00293946
0.00266586
0.00236322
0.00203533
0.00168615
0.00132267
0.000951756
0.000582317
0.00253516
0.00252873
0.00251472
0.00249255
0.00246144
0.00242033
0.00236785
0.00230256
0.0022229
0.00212758
0.00201531
0.00188546
0.00173754
0.00157216
0.00139021
0.00119398
0.00098607
0.000770497
0.000551744
0.0003353
0.00084426
0.000841947
0.000836916
0.000828999
0.000817936
0.000803354
0.000784774
0.000761698
0.000733588
0.000699998
0.000660496
0.00061487
0.000562987
0.000505071
0.000441486
0.000373028
0.000300676
0.000225634
0.000149155
7.24614e-05
0.035286
0.035437
0.0357607
0.036263
0.0369424
0.0377946
0.038815
0.0399971
0.0413308
0.0427987
0.0443745
0.046015
0.0476577
0.0492018
0.0505043
0.051333
0.0513587
0.0498433
0.0463307
0.0229076
0.0365779
0.0367519
0.0371251
0.0377057
0.0384951
0.0394931
0.0407005
0.0421186
0.043747
0.0455814
0.0476116
0.0498176
0.052165
0.0545947
0.0570112
0.0592545
0.0610503
0.0620471
0.0611154
0.0602308
0.0375763
0.0377692
0.0381831
0.0388284
0.0397087
0.0408273
0.0421899
0.0438039
0.0456768
0.0478144
0.0502185
0.0528833
0.0557908
0.0589016
0.0621424
0.0653868
0.0684242
0.0709066
0.0722551
0.0728839
0.0382495
0.0384558
0.0388989
0.0395903
0.0405356
0.0417404
0.0432138
0.0449677
0.0470148
0.0493673
0.052034
0.0550169
0.058305
0.0618648
0.065625
0.0694557
0.0731359
0.0763268
0.078463
0.0803922
0.0385752
0.0387886
0.0392468
0.0399625
0.0409417
0.0421917
0.043723
0.0455498
0.0476875
0.0501511
0.0529526
0.0560969
0.0595751
0.063354
0.0673596
0.0714551
0.075411
0.0788812
0.0813475
0.083328
0.0385415
0.0387549
0.0392134
0.0399294
0.0409092
0.0421597
0.0436916
0.045519
0.0476571
0.050121
0.0529224
0.0560663
0.0595434
0.0633202
0.0673227
0.0714141
0.0753646
0.0788278
0.0812866
0.0832636
0.0381483
0.0383549
0.0387987
0.0394913
0.040438
0.0416445
0.0431197
0.0448752
0.0469239
0.0492773
0.051944
0.0549256
0.0582105
0.0617645
0.0655159
0.0693342
0.0729992
0.0761725
0.078293
0.0802042
0.0374068
0.0376003
0.0380155
0.0386626
0.0395454
0.0406668
0.0420324
0.0436494
0.045525
0.0476646
0.0500692
0.0527326
0.0556358
0.0587385
0.0619657
0.06519
0.0681982
0.0706455
0.0719467
0.0725671
0.0363393
0.036514
0.0368889
0.0374722
0.038265
0.0392669
0.0404788
0.0419014
0.0435339
0.0453717
0.047404
0.0496097
0.0519533
0.0543746
0.0567763
0.0589982
0.0607649
0.0617298
0.0607651
0.0598209
0.0349769
0.0351288
0.0354546
0.0359603
0.0366441
0.0375015
0.0385278
0.039716
0.0410558
0.0425292
0.0441092
0.045752
0.0473938
0.0489326
0.0502229
0.051027
0.0510106
0.0494182
0.0457529
0.0225966
)
;

boundaryField
{
    inlet
    {
        type            zeroGradient;
    }
    outlet
    {
        type            fixedValue;
        value           uniform 0;
    }
    upAndBottom
    {
        type            empty;
    }
    obstacle
    {
        type            zeroGradient;
    }
}


// ************************************************************************* //
