/*--------------------------------*- C++ -*----------------------------------*\
| =========                 |                                                 |
| \\      /  F ield         | OpenFOAM: The Open Source CFD Toolbox           |
|  \\    /   O peration     | Version:  v1806                                 |
|   \\  /    A nd           | Web:      www.OpenFOAM.com                      |
|    \\/     M anipulation  |                                                 |
\*---------------------------------------------------------------------------*/
FoamFile
{
    version     2.0;
    format      ascii;
    class       volScalarField;
    location    "11";
    object      p;
}
// * * * * * * * * * * * * * * * * * * * * * * * * * * * * * * * * * * * * * //

dimensions      [0 2 -2 0 0 0 0];


internalField   nonuniform List<scalar> 
4400
(
-1.86566
0.540938
0.70068
0.309319
0.0735321
-0.0105388
-0.0388922
-0.0491827
-0.0529212
-0.0541661
-0.0533082
-0.0503568
-0.0458243
-0.0403259
-0.0343126
-0.0280343
-0.0216596
-0.0153115
-0.0091004
-0.0030544
2.75342
1.04011
0.53717
0.496366
0.434036
0.342319
0.244488
0.177525
0.13329
0.100587
0.0756328
0.0567543
0.0426235
0.0319913
0.0238735
0.0175539
0.0125297
0.00838894
0.00480213
0.00152055
2.27421
1.77051
1.42879
1.19467
0.934214
0.667755
0.488609
0.37946
0.301139
0.2418
0.194769
0.156824
0.126012
0.100722
0.0795503
0.061437
0.0455891
0.0313913
0.0183119
0.00595036
3.27188
2.15622
1.4798
1.1608
1.00286
0.847777
0.692262
0.556407
0.451197
0.369968
0.304158
0.249681
0.20411
0.165542
0.132371
0.103281
0.077266
0.0535185
0.0313565
0.0102482
2.72379
2.1983
1.77424
1.52264
1.32583
1.09225
0.872331
0.704995
0.580487
0.481741
0.401041
0.333213
0.275285
0.225255
0.181436
0.142418
0.10705
0.0744164
0.0437287
0.0143416
2.96929
2.38961
1.85908
1.49512
1.29722
1.13815
0.979453
0.825193
0.690984
0.579736
0.487295
0.408358
0.339898
0.279871
0.226603
0.178636
0.134756
0.0939463
0.055331
0.0181888
2.60033
2.23078
1.91465
1.65949
1.48578
1.29944
1.10145
0.926655
0.782331
0.662649
0.561337
0.473925
0.397118
0.328824
0.267455
0.211636
0.16015
0.111939
0.0660856
0.0217752
2.63522
2.31614
1.93468
1.64506
1.44148
1.28791
1.13905
0.993122
0.854653
0.731694
0.62478
0.531021
0.447476
0.372286
0.304021
0.241377
0.183159
0.128306
0.075868
0.0250385
2.39253
2.13615
1.9019
1.68917
1.53439
1.38428
1.21967
1.05766
0.914212
0.788913
0.678181
0.579597
0.49088
0.410256
0.336352
0.26794
0.203878
0.143136
0.0847939
0.0280357
2.3679
2.16491
1.90325
1.67571
1.49399
1.35357
1.22004
1.08719
0.956567
0.833529
0.721542
0.620158
0.527791
0.442979
0.364513
0.291261
0.222164
0.156271
0.0927064
0.0306755
2.19897
2.01327
1.83708
1.66966
1.53176
1.40676
1.27049
1.12773
0.993179
0.870136
0.757598
0.654258
0.559221
0.471236
0.389104
0.311778
0.238337
0.167933
0.0997614
0.0330493
2.1611
2.01862
1.83384
1.65046
1.49836
1.37358
1.25505
1.13534
1.01493
0.896707
0.785055
0.681439
0.585191
0.495075
0.410076
0.329393
0.252287
0.17803
0.10588
0.035108
2.04016
1.90156
1.76553
1.63188
1.51103
1.40278
1.28593
1.1608
1.03608
0.918286
0.80803
0.704639
0.60736
0.515342
0.42788
0.344369
0.264199
0.186695
0.111155
0.0368821
2.00623
1.89871
1.76058
1.61226
1.48541
1.37357
1.26565
1.15594
1.04414
0.93267
0.825122
0.722741
0.625133
0.531838
0.442517
0.356787
0.274137
0.193952
0.11559
0.0383772
1.92186
1.81382
1.70412
1.5926
1.48561
1.38784
1.28368
1.17121
1.05618
0.945755
0.840361
0.738419
0.640008
0.545387
0.454511
0.367018
0.282379
0.200003
0.119284
0.0396307
1.89942
1.81361
1.70299
1.5778
1.46657
1.36316
1.26336
1.1622
1.05953
0.955978
0.852126
0.749723
0.650739
0.555506
0.463793
0.375139
0.289026
0.204931
0.122326
0.0406654
1.83763
1.74914
1.65555
1.55849
1.46547
1.37668
1.28224
1.1804
1.07417
0.967509
0.861737
0.758466
0.659091
0.563488
0.471155
0.381577
0.294287
0.208829
0.124727
0.0414674
1.8137
1.73615
1.64542
1.54748
1.45922
1.37036
1.27829
1.18143
1.07933
0.972993
0.866294
0.763248
0.664393
0.569044
0.476501
0.386332
0.298197
0.211733
0.126525
0.0420852
1.77453
1.69075
1.61321
1.53954
1.46185
1.38191
1.29214
1.19119
1.0819
0.971839
0.86649
0.765939
0.668283
0.5731
0.480224
0.389511
0.300738
0.213585
0.127648
0.0424645
1.81635
1.75089
1.6675
1.56281
1.44848
1.33938
1.23848
1.14263
1.04876
0.955699
0.861555
0.765988
0.66985
0.574877
0.481871
0.390941
0.301914
0.214464
0.128185
0.0426453
5.50003
5.80215
6.01354
6.15689
6.24332
6.28434
6.28651
6.25364
6.18696
6.08653
5.95027
5.77506
5.55253
5.27607
4.93043
4.50519
3.97507
3.32056
2.51713
1.55204
5.57004
5.66217
5.73428
5.78137
5.80737
5.81357
5.80059
5.7688
5.71834
5.64923
5.56149
5.45534
5.33107
5.18987
5.02943
4.85355
4.65235
4.44136
4.18675
3.94176
4.96318
5.02319
5.07226
5.10869
5.13004
5.13557
5.12475
5.09708
5.05203
4.98898
4.90722
4.80582
4.68404
4.54051
4.37513
4.18548
3.97342
3.73578
3.47821
3.20227
4.57099
4.59844
4.61889
4.63134
4.63523
4.6302
4.61607
4.59278
4.56041
4.51911
4.46912
4.4108
4.34448
4.27068
4.18956
4.10185
4.00731
3.90681
3.79967
3.68715
4.11332
4.12688
4.13516
4.13763
4.13373
4.12297
4.10494
4.07927
4.04568
4.00392
3.95378
3.89511
3.82785
3.75194
3.66759
3.57487
3.4744
3.36658
3.25257
3.13393
3.77939
3.78515
3.78709
3.78501
3.77879
3.76833
3.75359
3.73455
3.71125
3.68375
3.65214
3.61652
3.57699
3.53366
3.48661
3.43591
3.38159
3.32364
3.2622
3.19692
3.44271
3.44323
3.44059
3.43464
3.42523
3.41219
3.3954
3.37476
3.35017
3.32156
3.28891
3.25219
3.21145
3.16674
3.11821
3.06601
3.01041
2.95174
2.89027
2.8268
3.19381
3.19308
3.19006
3.18473
3.17706
3.16703
3.15463
3.13989
3.1228
3.10339
3.08167
3.05765
3.03136
3.0028
2.97195
2.9388
2.90332
2.86547
2.82521
2.78222
2.94776
2.9447
2.93965
2.93255
2.92336
2.91202
2.89851
2.88278
2.86483
2.84465
2.82223
2.79761
2.77083
2.74195
2.71105
2.67825
2.64368
2.60753
2.56995
2.53126
2.76734
2.76491
2.76103
2.75569
2.74888
2.74059
2.73084
2.71962
2.70692
2.69276
2.67714
2.66005
2.64148
2.62143
2.59988
2.57681
2.55222
2.52608
2.49831
2.46877
2.58716
2.58345
2.5784
2.57201
2.56426
2.55512
2.5446
2.5327
2.5194
2.50473
2.4887
2.47133
2.45267
2.43274
2.41163
2.38938
2.36609
2.34186
2.3168
2.291
2.45833
2.45572
2.45211
2.4475
2.44189
2.43527
2.42764
2.419
2.40935
2.39869
2.38701
2.37431
2.36057
2.3458
2.32999
2.31312
2.2952
2.27622
2.25611
2.23474
2.32709
2.3236
2.31917
2.31378
2.30744
2.30015
2.2919
2.28271
2.27257
2.26151
2.24953
2.23666
2.22292
2.20835
2.19298
2.17685
2.16001
2.14251
2.12444
2.10586
2.23784
2.23545
2.23232
2.22845
2.22383
2.21847
2.21237
2.20551
2.1979
2.18953
2.18041
2.17052
2.15986
2.14843
2.13622
2.12323
2.10947
2.09494
2.0796
2.06328
2.14504
2.14195
2.13814
2.13361
2.12837
2.12242
2.11577
2.10841
2.10037
2.09166
2.08227
2.07224
2.06158
2.05032
2.03847
2.02607
2.01314
1.9997
1.98583
1.97163
2.08813
2.086
2.08328
2.07997
2.07606
2.07155
2.06645
2.06075
2.05444
2.04754
2.04004
2.03193
2.02322
2.01392
2.00402
1.99353
1.98246
1.97084
1.95864
1.94565
2.0261
2.02333
2.01996
2.016
2.01146
2.00633
2.00062
1.99434
1.9875
1.9801
1.97216
1.96368
1.95469
1.9452
1.93522
1.92479
1.91391
1.90259
1.89089
1.87896
1.99314
1.99096
1.98826
1.98503
1.98128
1.97699
1.97216
1.9668
1.96089
1.95443
1.94742
1.93985
1.93172
1.92303
1.91377
1.90394
1.89354
1.88261
1.87117
1.85899
1.95795
1.95503
1.95157
1.94758
1.94306
1.93803
1.93248
1.92643
1.91988
1.91283
1.9053
1.89728
1.88878
1.87981
1.87036
1.86043
1.85001
1.83907
1.8276
1.81569
1.96337
1.96169
1.95952
1.95686
1.95371
1.95007
1.94594
1.94131
1.9362
1.9306
1.92452
1.91796
1.91095
1.90348
1.89558
1.88726
1.87856
1.86952
1.86021
1.85052
3.53082
3.63375
3.73658
3.83914
3.94136
4.04312
4.14432
4.24478
4.34412
4.44157
4.53592
4.6256
4.7089
4.78378
4.84733
4.89541
4.92516
4.94135
4.98237
5.15458
3.52075
3.60428
3.68814
3.77223
3.85643
3.94066
4.02482
4.10881
4.19263
4.27653
4.36124
4.44808
4.53899
4.63637
4.74276
4.86091
4.99276
5.13849
5.29462
5.44696
3.52034
3.59854
3.67658
3.75422
3.8313
3.90756
3.98278
4.05673
4.12931
4.20058
4.27077
4.34028
4.40957
4.47914
4.54922
4.61937
4.68909
4.75847
4.82786
4.89687
3.40042
3.46425
3.52819
3.59213
3.65597
3.71967
3.7832
3.84663
3.91003
3.9735
4.03709
4.10074
4.16418
4.22681
4.28781
4.34625
4.40121
4.45185
4.49738
4.5372
3.28513
3.34015
3.3944
3.44773
3.50005
3.55124
3.60125
3.65001
3.69752
3.74374
3.78861
3.83195
3.87354
3.91312
3.95047
3.98537
4.0176
4.04687
4.07284
4.09514
3.12589
3.17061
3.21483
3.25851
3.30158
3.34398
3.38563
3.42644
3.4663
3.50502
3.54237
3.57806
3.61177
3.64319
3.67202
3.69802
3.72095
3.74067
3.75705
3.76998
2.97634
3.01349
3.04967
3.08482
3.11885
3.15171
3.18333
3.21364
3.24256
3.27
3.29587
3.32006
3.34248
3.363
3.38152
3.39789
3.41199
3.42366
3.43277
3.43916
2.81992
2.85037
2.8801
2.90907
2.93721
2.96447
2.99076
3.01598
3.04003
3.06277
3.08407
3.10379
3.1218
3.13798
3.15224
3.16449
3.17466
3.18271
3.1886
3.19231
2.67683
2.70189
2.72603
2.74922
2.7714
2.79253
2.81255
2.83143
2.8491
2.86553
2.88067
2.89445
2.90683
2.91774
2.92712
2.93491
2.94105
2.94546
2.94808
2.94887
2.54153
2.56254
2.58282
2.60234
2.62106
2.63893
2.65589
2.6719
2.68687
2.70076
2.71349
2.72499
2.73523
2.74414
2.75169
2.75785
2.76261
2.76594
2.76784
2.76831
2.42021
2.43765
2.45429
2.47012
2.48512
2.49924
2.51246
2.52476
2.53611
2.54647
2.55582
2.56414
2.57138
2.57752
2.58254
2.58638
2.58904
2.59047
2.59065
2.58955
2.31148
2.32657
2.34101
2.35477
2.36783
2.38016
2.39172
2.40249
2.41243
2.42151
2.4297
2.43696
2.44328
2.44863
2.453
2.45638
2.45877
2.46015
2.46054
2.45993
2.2159
2.22868
2.24078
2.25222
2.26296
2.27299
2.28229
2.29084
2.29864
2.30566
2.31189
2.31731
2.32191
2.32566
2.32856
2.33058
2.33171
2.33194
2.33125
2.32964
2.13395
2.14543
2.15632
2.16663
2.17633
2.18542
2.19387
2.20167
2.20879
2.21523
2.22096
2.22597
2.23026
2.2338
2.23661
2.23867
2.23999
2.24057
2.2404
2.23949
2.06409
2.07406
2.08346
2.09229
2.10053
2.10818
2.11523
2.12166
2.12746
2.13263
2.13716
2.14103
2.14424
2.14678
2.14863
2.1498
2.15026
2.15003
2.14908
2.14742
2.0075
2.0168
2.02559
2.03387
2.04163
2.04885
2.05554
2.06167
2.06724
2.07224
2.07665
2.08048
2.08372
2.08636
2.0884
2.08985
2.09069
2.09094
2.0906
2.08966
1.96168
1.96998
1.97778
1.98509
1.99188
1.99816
2.00392
2.00914
2.01383
2.01798
2.02158
2.02462
2.0271
2.02901
2.03035
2.03111
2.03129
2.03088
2.02988
2.02829
1.9282
1.93616
1.94365
1.95068
1.95724
1.96332
1.9689
1.97399
1.97858
1.98266
1.98622
1.98927
1.99179
1.99379
1.99526
1.99622
1.99664
1.99655
1.99593
1.9948
1.90509
1.91251
1.91946
1.92594
1.93193
1.93744
1.94245
1.94696
1.95097
1.95447
1.95745
1.95991
1.96184
1.96325
1.96412
1.96445
1.96423
1.96348
1.96218
1.96034
1.89516
1.90306
1.91049
1.91747
1.924
1.93006
1.93566
1.94079
1.94544
1.94962
1.95331
1.95652
1.95923
1.96146
1.9632
1.96445
1.96521
1.96549
1.96527
1.96457
1.52324
2.84914
3.54956
4.0909
4.38698
4.59005
4.68754
4.72808
4.72574
4.69922
4.66354
4.62699
4.59477
4.56929
4.55076
4.53845
4.53115
4.52773
4.52733
4.53007
1.98332
2.85338
3.55555
4.02238
4.34367
4.53942
4.64699
4.69291
4.69665
4.67689
4.64594
4.61501
4.58794
4.56666
4.55128
4.54102
4.53469
4.53131
4.53041
4.53306
2.28007
2.95103
3.56638
3.97718
4.29582
4.4879
4.60568
4.65852
4.6692
4.65451
4.62815
4.59982
4.57568
4.5573
4.54439
4.5363
4.53162
4.52923
4.52878
4.53185
2.45594
3.02418
3.54662
3.92446
4.22459
4.42001
4.54699
4.61121
4.63266
4.62626
4.60581
4.58163
4.56014
4.54401
4.53374
4.52782
4.52487
4.52369
4.52385
4.52697
2.603
3.07882
3.5191
3.86491
4.14323
4.34103
4.47608
4.5538
4.58879
4.59376
4.58161
4.5629
4.54482
4.531
4.52233
4.5178
4.51603
4.51569
4.51623
4.51891
2.72269
3.12309
3.49488
3.80558
4.06209
4.25762
4.39886
4.48971
4.53947
4.55805
4.55653
4.54495
4.53107
4.51946
4.51177
4.5079
4.50648
4.50631
4.50677
4.50869
2.82517
3.16108
3.47766
3.75281
3.98747
4.17606
4.32034
4.42191
4.48588
4.51903
4.52989
4.52722
4.51871
4.50971
4.5029
4.49886
4.49703
4.49636
4.49627
4.49727
2.91156
3.19645
3.46743
3.71008
3.92285
4.10128
4.24486
4.35354
4.4295
4.47661
4.50058
4.50825
4.50646
4.50087
4.49509
4.49072
4.48784
4.48609
4.48505
4.48513
2.98571
3.2297
3.46383
3.67771
3.8697
4.03605
4.17565
4.28756
4.37222
4.43125
4.46782
4.48649
4.49263
4.4915
4.48727
4.48255
4.47844
4.47525
4.47302
4.4722
3.04946
3.26131
3.46556
3.65492
3.82779
3.98145
4.11467
4.22636
4.31606
4.38402
4.43148
4.46083
4.47562
4.48005
4.47823
4.47353
4.46818
4.46334
4.45973
4.45797
3.10499
3.29134
3.47154
3.64022
3.79615
3.93733
4.0628
4.17157
4.26294
4.33648
4.39222
4.43091
4.45429
4.4651
4.46674
4.46275
4.45631
4.44972
4.44452
4.44164
3.15397
3.32004
3.48086
3.63235
3.77356
3.90309
4.02024
4.1243
4.21461
4.29052
4.35148
4.39726
4.42821
4.44557
4.45159
4.44931
4.44223
4.43381
4.42671
4.42222
3.1978
3.34772
3.49293
3.63026
3.75895
3.87801
3.98699
4.0854
4.17276
4.24841
4.31164
4.36173
4.39822
4.42125
4.43188
4.4322
4.42526
4.41501
4.40552
4.39863
3.23747
3.37445
3.50709
3.63286
3.75111
3.86112
3.96257
4.05519
4.13861
4.21229
4.27548
4.32729
4.36685
4.39367
4.40793
4.41081
4.40454
4.39266
4.38014
4.36949
3.27324
3.39976
3.52219
3.63855
3.74819
3.85054
3.94537
4.0325
4.11169
4.18251
4.24426
4.29601
4.33669
4.36539
4.38164
4.38586
4.37967
4.3661
4.34971
4.33286
3.30519
3.42297
3.5369
3.6454
3.74778
3.84354
3.93244
4.01435
4.08911
4.15641
4.2157
4.26612
4.30658
4.33589
4.35302
4.35762
4.35071
4.33513
4.31399
4.28609
3.3343
3.44465
3.55133
3.65305
3.74905
3.8388
3.92204
3.99859
4.06834
4.13105
4.18631
4.2334
4.27134
4.29896
4.31529
4.31986
4.31334
4.29775
4.27324
4.22736
3.36385
3.46836
3.56933
3.66551
3.75615
3.84065
3.91867
3.98999
4.05441
4.11166
4.16123
4.20227
4.2336
4.25418
4.26383
4.26375
4.25636
4.24383
4.22185
4.16101
3.39781
3.4992
3.59711
3.69034
3.77822
3.86008
3.93552
4.00422
4.06586
4.11994
4.16557
4.20122
4.22477
4.23439
4.22994
4.21423
4.19326
4.17341
4.14918
4.08254
3.43481
3.5359
3.6339
3.72801
3.8175
3.90177
3.98038
4.05292
4.11898
4.17786
4.22835
4.26844
4.29549
4.30736
4.30354
4.2845
4.25136
4.20383
4.12758
3.97652
0.0252606
0.0810647
0.14192
0.2068
0.279412
0.349814
0.413718
0.490144
0.579166
0.680858
0.796127
0.927936
1.08564
1.26509
1.46724
1.70172
1.98709
2.3328
2.74769
3.22073
0.0251285
0.103936
0.157533
0.248569
0.303288
0.383782
0.485868
0.555744
0.67313
0.771291
0.913917
1.04485
1.22584
1.39443
1.60842
1.86835
2.14455
2.49226
2.86971
3.27262
0.0344181
0.1128
0.183747
0.269332
0.342486
0.430009
0.532043
0.625852
0.741158
0.858069
0.998774
1.14643
1.32049
1.50351
1.71935
1.97001
2.24884
2.56825
2.91623
3.28516
0.0402577
0.121838
0.204555
0.29021
0.376823
0.471561
0.574544
0.682127
0.799513
0.927056
1.06809
1.22313
1.39404
1.5822
1.79523
2.03392
2.29782
2.58618
2.8927
3.20938
0.0435119
0.130903
0.220081
0.310791
0.40593
0.50601
0.612527
0.726693
0.848063
0.979944
1.12264
1.27847
1.44802
1.63466
1.83927
2.06361
2.30796
2.56835
2.84077
3.11822
0.046111
0.138789
0.233059
0.329254
0.429465
0.534415
0.644611
0.761738
0.886322
1.01969
1.16276
1.31701
1.48335
1.66346
1.85806
2.0664
2.28743
2.51857
2.75461
2.99017
0.04826
0.145399
0.243898
0.344651
0.448884
0.556956
0.670117
0.789358
0.91514
1.04856
1.19034
1.34145
1.50275
1.67459
1.85663
2.0488
2.2494
2.45501
2.66152
2.86235
0.0501065
0.150829
0.252909
0.357054
0.464043
0.574823
0.689752
0.809738
0.935718
1.06802
1.20736
1.35421
1.50881
1.67117
1.84107
2.01681
2.19669
2.37798
2.55602
2.72641
0.0515649
0.15519
0.260007
0.366725
0.475917
0.588057
0.704095
0.82441
0.949419
1.07978
1.21572
1.35743
1.50493
1.65783
1.8152
1.97621
2.13852
2.29908
2.45441
2.59906
0.052729
0.158591
0.265525
0.373991
0.484532
0.597816
0.714028
0.833748
0.957465
1.08525
1.21729
1.35351
1.49359
1.63706
1.78311
1.92989
2.07565
2.21771
2.35243
2.47639
0.0536057
0.161168
0.269591
0.379347
0.490801
0.604267
0.720382
0.839239
0.960981
1.08585
1.2137
1.34435
1.47742
1.61215
1.74745
1.88218
2.0141
2.1407
2.25921
2.36559
0.0542507
0.163015
0.272491
0.382968
0.494819
0.608423
0.723825
0.841333
0.961061
1.08283
1.20656
1.33187
1.45821
1.58484
1.71074
1.83423
1.95371
2.067
2.17138
2.2643
0.0546883
0.164284
0.274414
0.385377
0.497351
0.610495
0.725152
0.84122
0.95864
1.07741
1.19715
1.3175
1.43786
1.55734
1.67481
1.78914
1.89842
2.00078
2.09412
2.17557
0.0549788
0.165097
0.275627
0.386723
0.498578
0.611342
0.724941
0.839447
0.954799
1.07067
1.18679
1.30264
1.41759
1.53079
1.64118
1.74727
1.84768
1.94088
2.0249
2.09787
0.055171
0.165613
0.276331
0.387459
0.499039
0.611105
0.723795
0.836864
0.950135
1.06345
1.17633
1.28829
1.39866
1.50656
1.61093
1.71065
1.80416
1.89005
1.96682
2.03244
0.055282
0.165906
0.276697
0.387692
0.498953
0.610515
0.722208
0.833944
0.945511
1.05655
1.16668
1.27532
1.3818
1.48527
1.58481
1.67917
1.76703
1.84711
1.91791
1.97814
0.055343
0.166072
0.27687
0.387756
0.498664
0.60959
0.720588
0.831221
0.941225
1.05044
1.15832
1.26433
1.36776
1.46772
1.56336
1.65387
1.73775
1.81351
1.87983
1.93529
0.0553775
0.166142
0.276917
0.387659
0.498303
0.608843
0.719173
0.828933
0.937825
1.0456
1.15177
1.25575
1.35681
1.45408
1.54681
1.63418
1.71487
1.78743
1.85051
1.90303
0.0553855
0.166144
0.27687
0.387529
0.498025
0.608245
0.718134
0.827314
0.93546
1.04229
1.14727
1.24983
1.34927
1.44474
1.53541
1.62051
1.69891
1.76929
1.83052
1.88142
0.0553825
0.166114
0.27677
0.387243
0.497815
0.608234
0.717411
0.826266
0.934375
1.04062
1.14501
1.24668
1.34506
1.43955
1.52918
1.61218
1.68839
1.75738
1.8179
1.87012
0.00139761
0.00465921
0.00749123
0.0127282
0.0149385
0.021211
0.0292199
0.0357354
0.0446343
0.0540301
0.0648277
0.0755097
0.084483
0.0851117
0.0799167
0.0501681
-0.0368553
-0.178812
-0.422474
-2.62891
0.00273713
0.00849728
0.0140239
0.0220923
0.027112
0.0366623
0.0485377
0.0591738
0.0726881
0.0873491
0.103972
0.121421
0.138886
0.150925
0.160496
0.149935
0.10228
0.0466624
-0.0935972
-1.42309
0.00398774
0.0122396
0.0204778
0.0313439
0.0392664
0.0521082
0.0678672
0.0825972
0.100539
0.120284
0.142668
0.167029
0.193255
0.216633
0.240368
0.250663
0.245274
0.257792
0.184598
-0.441325
0.0053041
0.0160432
0.0269175
0.0405121
0.0512297
0.0672705
0.0868864
0.105711
0.128088
0.152904
0.180989
0.212096
0.246836
0.281131
0.31877
0.350244
0.38358
0.451409
0.462554
0.350178
0.00656703
0.0197967
0.033273
0.0496006
0.0630824
0.0823337
0.10585
0.12871
0.155399
0.185124
0.218846
0.256716
0.299998
0.344851
0.396184
0.449536
0.518419
0.626166
0.709548
0.943047
0.0078711
0.023587
0.0395968
0.0586237
0.0747625
0.0971522
0.12455
0.151414
0.182397
0.21697
0.256243
0.300691
0.352227
0.407205
0.472055
0.546439
0.645951
0.78964
0.948928
1.40122
0.00913458
0.0273273
0.0458539
0.0675928
0.0864033
0.111908
0.143146
0.173948
0.209112
0.248398
0.293127
0.344095
0.403764
0.468563
0.546736
0.641469
0.767384
0.939851
1.16145
1.74844
0.0104163
0.0310493
0.0520935
0.0765158
0.0980619
0.12659
0.161488
0.196203
0.235469
0.279422
0.329461
0.386782
0.45428
0.528646
0.619735
0.733103
0.881841
1.08261
1.36118
2.0186
0.0116804
0.0346771
0.0583172
0.085368
0.109858
0.141341
0.179634
0.218266
0.261456
0.310037
0.365194
0.42882
0.503896
0.587707
0.69126
0.821751
0.990125
1.21454
1.53907
2.22987
0.0129941
0.0382388
0.0645647
0.0940981
0.12168
0.156028
0.197453
0.240071
0.286999
0.340236
0.400266
0.4701
0.552356
0.645437
0.760795
0.906551
1.09251
1.33981
1.70301
2.39766
0.0143516
0.0417806
0.0707728
0.102672
0.133155
0.170341
0.21501
0.261614
0.312141
0.369938
0.434685
0.510597
0.59971
0.701631
0.828178
0.987861
1.18919
1.45583
1.84905
2.53322
0.0157197
0.0455568
0.0767475
0.111191
0.14348
0.183539
0.232425
0.282665
0.337034
0.398902
0.468561
0.550003
0.645899
0.755508
0.892565
1.06545
1.28073
1.56588
1.98157
2.64435
0.0168568
0.0499512
0.0820711
0.119969
0.151753
0.194802
0.250125
0.302906
0.362088
0.426714
0.502211
0.587921
0.691232
0.806403
0.953413
1.13986
1.36688
1.66874
2.09984
2.73746
0.0174368
0.0553038
0.0863813
0.129354
0.157698
0.203816
0.268449
0.322019
0.387695
0.453007
0.535913
0.623876
0.735927
0.85398
1.01033
1.21137
1.44814
1.76677
2.20711
2.81609
0.0174758
0.06113
0.0901322
0.138986
0.162992
0.212059
0.286963
0.340576
0.41353
0.478287
0.569312
0.658268
0.779726
0.899549
1.06452
1.27998
1.52451
1.85846
2.3034
2.88355
0.018453
0.0649811
0.0959146
0.146586
0.172492
0.224008
0.303103
0.361234
0.437158
0.505205
0.600133
0.693549
0.820576
0.946805
1.11936
1.34411
1.59771
1.9427
2.38875
2.94212
0.024244
0.0617643
0.109163
0.147306
0.193707
0.246917
0.311648
0.389509
0.453178
0.539381
0.62345
0.735239
0.854108
1.00165
1.18053
1.40008
1.67023
2.01443
2.46023
2.99484
0.0396599
0.0462031
0.135581
0.136181
0.231872
0.286345
0.307329
0.430931
0.455579
0.586634
0.633834
0.789341
0.875623
1.06818
1.2522
1.44371
1.74547
2.07007
2.51551
3.04407
0.0626492
0.0216435
0.171509
0.116959
0.280306
0.33664
0.294149
0.481032
0.447538
0.643036
0.634557
0.852717
0.888357
1.14098
1.3295
1.47664
1.82123
2.11134
2.55662
3.09029
0.0695117
0.0173099
0.185078
0.119735
0.302533
0.362209
0.303674
0.505882
0.460331
0.675004
0.655693
0.893313
0.920186
1.19079
1.38388
1.52069
1.87887
2.15816
2.59921
3.1292
-0.0559042
-0.171988
-0.295234
-0.424332
-0.563973
-0.71529
-0.884938
-1.07512
-1.29261
-1.54711
-1.85307
-2.23758
-2.73443
-3.42461
-4.43725
-5.62547
-6.5029
-6.2234
-5.11606
-4.91879
-0.0550557
-0.168798
-0.289552
-0.417058
-0.555025
-0.705665
-0.874763
-1.0658
-1.2869
-1.54968
-1.87168
-2.2836
-2.82684
-3.60461
-4.72951
-6.03279
-7.04311
-6.60593
-5.35556
-4.98144
-0.0538556
-0.164694
-0.282445
-0.407255
-0.542787
-0.691461
-0.858434
-1.04817
-1.26912
-1.5336
-1.86105
-2.28314
-2.84477
-3.66133
-4.81983
-6.1658
-7.211
-6.59701
-5.32577
-4.82856
-0.0522822
-0.159766
-0.274019
-0.395505
-0.527847
-0.673292
-0.837029
-1.02371
-1.2415
-1.50276
-1.82652
-2.24149
-2.79135
-3.58835
-4.69366
-5.96692
-6.908
-6.28968
-5.06544
-4.5481
-0.050312
-0.153726
-0.263744
-0.380943
-0.508995
-0.649942
-0.809016
-0.990761
-1.20257
-1.45579
-1.76749
-2.1609
-2.67489
-3.41025
-4.40149
-5.51307
-6.20976
-5.60775
-4.6308
-4.16589
-0.0482683
-0.147112
-0.252318
-0.364589
-0.487245
-0.622174
-0.774651
-0.948801
-1.15111
-1.39217
-1.68568
-2.04715
-2.51031
-3.15527
-3.98427
-4.86235
-5.28625
-4.7591
-4.05804
-3.71937
-0.0457573
-0.139605
-0.239549
-0.346296
-0.462943
-0.59109
-0.735673
-0.900117
-1.09024
-1.31578
-1.58604
-1.91048
-2.31949
-2.86764
-3.5215
-4.10328
-4.19013
-3.81366
-3.46735
-3.28666
-0.0434181
-0.13193
-0.226177
-0.326936
-0.436958
-0.557631
-0.693364
-0.846888
-1.02336
-1.23127
-1.47566
-1.76273
-2.11894
-2.5667
-3.04478
-3.3396
-3.22757
-2.94096
-2.94946
-2.9217
-0.0404465
-0.123195
-0.211296
-0.305471
-0.408367
-0.521097
-0.647584
-0.790058
-0.953015
-1.14265
-1.36054
-1.61365
-1.92504
-2.28934
-2.61322
-2.67469
-2.51576
-2.18722
-2.60032
-2.65307
-0.0377349
-0.114333
-0.195738
-0.282683
-0.377563
-0.481285
-0.597401
-0.728125
-0.877339
-1.04906
-1.24263
-1.46568
-1.73419
-2.02609
-2.23988
-2.24476
-2.2692
-1.58254
-2.44542
-2.49405
-0.0342948
-0.104263
-0.17859
-0.257891
-0.344382
-0.4386
-0.543779
-0.661951
-0.796216
-0.949063
-1.12077
-1.32024
-1.55154
-1.77983
-1.92429
-1.98586
-2.37083
-1.15778
-2.63657
-2.53159
-0.0311265
-0.0940747
-0.160851
-0.232092
-0.309735
-0.394136
-0.488315
-0.594135
-0.713323
-0.847092
-0.997069
-1.17216
-1.36764
-1.5462
-1.66673
-1.80271
-2.25334
-0.88399
-3.17094
-2.66389
-0.0272848
-0.0828656
-0.141888
-0.204805
-0.273312
-0.347484
-0.430247
-0.523402
-0.628028
-0.74514
-0.877248
-1.02953
-1.19076
-1.33528
-1.46058
-1.6254
-1.84251
-0.914489
-2.91484
-2.51643
-0.0239443
-0.0722432
-0.123383
-0.177838
-0.236985
-0.300567
-0.371078
-0.45014
-0.538566
-0.638668
-0.753984
-0.88531
-1.01963
-1.14635
-1.28232
-1.4656
-1.65476
-1.58945
-1.85699
-2.27879
-0.0201736
-0.0611286
-0.104418
-0.150389
-0.200301
-0.253616
-0.312298
-0.377381
-0.449249
-0.530914
-0.626022
-0.733888
-0.846599
-0.965026
-1.10924
-1.30729
-1.55437
-1.57867
-1.25669
-2.41238
-0.0168473
-0.0505428
-0.0857774
-0.122965
-0.163289
-0.20624
-0.253508
-0.306026
-0.363881
-0.429405
-0.504086
-0.586691
-0.676724
-0.785439
-0.937053
-1.15606
-1.40288
-0.923395
-1.50102
-3.02548
-0.0129609
-0.038958
-0.0659828
-0.094224
-0.124735
-0.157045
-0.192597
-0.232405
-0.276917
-0.327909
-0.385319
-0.448033
-0.518902
-0.610575
-0.745128
-0.958119
-1.23837
-0.934411
-2.87369
-2.9855
-0.00915042
-0.0272807
-0.0459914
-0.0653473
-0.0862329
-0.108075
-0.131911
-0.158623
-0.18845
-0.222437
-0.260185
-0.301959
-0.35294
-0.427464
-0.539821
-0.697364
-0.892382
-1.09959
-5.26621
-3.79215
-0.00484988
-0.0147133
-0.0251526
-0.0356077
-0.0473396
-0.058899
-0.0712273
-0.085288
-0.100664
-0.118057
-0.137271
-0.159461
-0.189807
-0.240871
-0.321207
-0.432871
-0.564374
-0.951436
-2.67657
-2.24701
-0.000810853
-0.00267556
-0.00517727
-0.0063897
-0.00969876
-0.0106957
-0.0109587
-0.0123404
-0.0126359
-0.0132984
-0.0142557
-0.0176291
-0.0268475
-0.0486063
-0.0836988
-0.15297
-0.312964
-0.627344
-1.09248
-4.15105
0.041888
0.0813869
0.127163
0.133392
0.152387
0.146595
0.148919
0.139515
0.13442
0.124592
0.117338
0.10878
0.102039
0.0954672
0.0903121
0.0858499
0.0824942
0.0799022
0.0781412
0.0770234
0.1196
0.261178
0.379565
0.408548
0.458405
0.433924
0.443351
0.403942
0.390937
0.355394
0.334556
0.307468
0.288255
0.269408
0.255364
0.243457
0.234794
0.228338
0.224144
0.221681
0.147168
0.348716
0.501351
0.57515
0.628756
0.621318
0.620688
0.574349
0.553672
0.501108
0.479566
0.437415
0.418924
0.393719
0.379629
0.366606
0.358482
0.352904
0.35006
0.349062
0.143534
0.359964
0.510649
0.618775
0.666577
0.688483
0.661279
0.635419
0.59079
0.554951
0.518347
0.490338
0.469323
0.453573
0.44683
0.441047
0.440343
0.441825
0.445419
0.450027
0.0795353
0.220767
0.313651
0.404375
0.436797
0.445649
0.418633
0.393178
0.359764
0.346511
0.33974
0.347606
0.362538
0.382748
0.405503
0.429581
0.4534
0.475949
0.496578
0.514609
-0.00412998
0.00219181
0.00522727
-0.014908
-0.0423083
-0.0900251
-0.130859
-0.162323
-0.163495
-0.133383
-0.0749502
0.00429614
0.0896506
0.174985
0.254882
0.327951
0.392906
0.449564
0.497239
0.535906
-0.0730447
-0.237628
-0.399561
-0.565241
-0.721565
-0.845939
-0.92799
-0.951937
-0.909036
-0.804794
-0.651413
-0.475175
-0.294743
-0.124986
0.0265861
0.15928
0.273412
0.369126
0.446297
0.505556
-0.125853
-0.474521
-0.826203
-1.15326
-1.46822
-1.64123
-1.74398
-1.72623
-1.61593
-1.42056
-1.17412
-0.906144
-0.647451
-0.412332
-0.206261
-0.0283072
0.121093
0.241327
0.334298
0.403373
-0.173502
-0.605173
-1.07495
-1.47673
-1.7914
-1.95951
-1.99344
-1.91005
-1.73627
-1.49657
-1.23057
-0.962485
-0.717582
-0.501684
-0.31707
-0.160593
-0.0330299
0.0666609
0.142251
0.199134
-0.132488
-0.455091
-0.809475
-1.09336
-1.27753
-1.33322
-1.29066
-1.17653
-1.0208
-0.852144
-0.68676
-0.543608
-0.426777
-0.335517
-0.26335
-0.205285
-0.16424
-0.141627
-0.134356
-0.1391
-0.019681
-0.0785514
-0.135091
-0.146307
-0.104031
-0.0151887
0.0908292
0.190881
0.258168
0.289067
0.278158
0.227851
0.148213
0.04965
-0.0478934
-0.140565
-0.24437
-0.376301
-0.521665
-0.660757
0.083706
0.246633
0.421212
0.607171
0.803733
1.00002
1.17213
1.29862
1.35599
1.33799
1.23859
1.0663
0.835815
0.567107
0.299353
0.0380633
-0.250985
-0.605028
-0.985717
-1.35595
0.11787
0.349197
0.586155
0.826994
1.0693
1.31394
1.54189
1.7323
1.86451
1.90845
1.85584
1.69527
1.43521
1.10775
0.713877
0.253342
-0.254847
-0.846208
-1.49435
-2.13627
0.10177
0.303981
0.497373
0.696791
0.901202
1.10818
1.30841
1.49284
1.64479
1.72685
1.73167
1.62055
1.39414
1.07047
0.653371
0.160026
-0.402966
-1.04388
-1.79658
-2.66488
0.0502717
0.161449
0.26106
0.359261
0.457393
0.550076
0.640996
0.719264
0.767322
0.770705
0.712618
0.569319
0.326642
-0.00265873
-0.409794
-0.898642
-1.44897
-2.03061
-2.61408
-3.1993
-0.00871172
-0.00747956
-0.00949367
-0.0237117
-0.047808
-0.0874309
-0.141524
-0.223715
-0.350455
-0.538743
-0.795204
-1.11597
-1.4938
-1.9052
-2.31268
-2.68519
-3.00042
-3.21903
-3.30467
-3.28238
-0.030339
-0.118673
-0.205407
-0.301879
-0.407716
-0.518511
-0.662163
-0.841883
-1.0778
-1.37919
-1.74856
-2.19076
-2.68448
-3.21964
-3.73537
-4.15207
-4.44771
-4.59362
-4.55254
-4.29174
-0.0557232
-0.157095
-0.258372
-0.360533
-0.472003
-0.601703
-0.759654
-0.947239
-1.17559
-1.43948
-1.73752
-2.06541
-2.41676
-2.75995
-3.0761
-3.33001
-3.49772
-3.5688
-3.53076
-3.37701
-0.0632686
-0.179998
-0.299223
-0.417449
-0.535504
-0.654686
-0.77448
-0.900826
-1.02741
-1.14218
-1.23276
-1.28393
-1.29091
-1.22981
-1.1117
-0.998002
-0.901937
-1.31074
-1.74365
-2.14465
-0.0586733
-0.183613
-0.312405
-0.446245
-0.587517
-0.737148
-0.901162
-1.08034
-1.27669
-1.4935
-1.73151
-1.99253
-2.28163
-2.58088
-2.93478
-3.24502
-3.33701
-3.25691
-2.83982
-2.77094
0.0766563
0.0765202
0.076461
0.0764723
0.0765471
0.0766789
0.0768612
0.0770878
0.0773524
0.0776488
0.0779714
0.0783145
0.0786732
0.0790427
0.0794194
0.0797998
0.0801815
0.0805631
0.0809453
0.0813262
0.221032
0.220853
0.220863
0.221047
0.221386
0.221864
0.222466
0.223174
0.223973
0.224847
0.225779
0.226754
0.227759
0.228778
0.229801
0.230816
0.231813
0.232785
0.233728
0.234624
0.349474
0.349892
0.350494
0.351253
0.352146
0.35315
0.354239
0.355391
0.356583
0.357794
0.359005
0.360198
0.361361
0.362479
0.363546
0.364553
0.365496
0.366377
0.3672
0.367954
0.453779
0.455948
0.458159
0.460374
0.462565
0.464702
0.466756
0.468703
0.47052
0.47219
0.473699
0.475036
0.476196
0.477179
0.477987
0.478625
0.479105
0.479451
0.479671
0.479731
0.525296
0.530866
0.535958
0.540542
0.544618
0.548186
0.551253
0.553835
0.555951
0.557623
0.558878
0.559745
0.560257
0.560449
0.560355
0.560016
0.55948
0.558798
0.557987
0.557038
0.556737
0.567219
0.576391
0.584268
0.590926
0.596423
0.600833
0.604236
0.60672
0.608377
0.609307
0.609612
0.609393
0.608744
0.607753
0.606508
0.605099
0.603579
0.601933
0.600164
0.535454
0.55029
0.562898
0.573454
0.582122
0.589073
0.594495
0.598571
0.60148
0.603385
0.604433
0.604751
0.604444
0.603597
0.602301
0.600658
0.598732
0.596505
0.593974
0.591325
0.437986
0.455102
0.469614
0.481955
0.492224
0.50064
0.507314
0.512376
0.515946
0.518163
0.519177
0.519144
0.518229
0.516623
0.514526
0.512058
0.509218
0.50603
0.50275
0.499732
0.228443
0.242232
0.253562
0.262332
0.268784
0.273245
0.275984
0.277395
0.277759
0.277359
0.276392
0.27507
0.273592
0.272098
0.270551
0.268852
0.267083
0.265581
0.26453
0.263543
-0.150809
-0.158432
-0.166601