x,y,z,U_0,U_1,U_2
0,0,0,0.300001,-4.48874e-05,0
0,0.1,0,0.300001,-3.20624e-05,0
0,0.2,0,0.3,-1.92375e-05,0
0,0.3,0,0.3,-6.41248e-06,0
0,0.4,0,0.3,0,0
0,0.5,0,0.3,0,0
0,0.6,0,0.3,0,0
0,0.7,0,0.3,0,0
0,0.8,0,0.3,0,0
0,0.9,0,0.3,0,0
0,1,0,0.3,0,0
0,1.1,0,0.3,0,0
0,1.2,0,0.3,0,0
0,1.3,0,0.3,0,0
0,1.4,0,0.3,0,0
0,1.5,0,0.3,0,0
0,1.6,0,0.3,0,0
0,1.7,0,0.3,0,0
0,1.8,0,0.3,0,0
0,1.9,0,0.3,0,0
0,2,0,0.3,0,0
0,2.1,0,0.3,0,0
0,2.2,0,0.3,0,0
0,2.3,0,0.3,0,0
0,2.4,0,0.3,0,0
0,2.5,0,0.3,0,0
0,2.6,0,0.3,0,0
0,2.7,0,0.3,0,0
0,2.8,0,0.3,0,0
0,2.9,0,0.3,0,0
0,3,0,0.3,0,0
0,3.1,0,0.3,0,0
0,3.2,0,0.3,0,0
0,3.3,0,0.3,0,0
0,3.4,0,0.3,0,0
0,3.5,0,0.3,0,0
0,3.6,0,0.3,0,0
0,3.7,0,0.3,0,0
0,3.8,0,0.3,0,0
0,3.9,0,0.3,0,0
0,4,0,0.3,0,0
0,4.1,0,0.3,0,0
0,4.2,0,0.3,0,0
0,4.3,0,0.3,0,0
0,4.4,0,0.3,0,0
0,4.5,0,0.3,0,0
0,4.6,0,0.3,0,0
0,4.7,0,0.3,0,0
0,4.8,0,0.3,0,0
0,4.9,0,0.3,0,0
0,5,0,0.3,0,0
0,5.1,0,0.3,0,0
0,5.2,0,0.3,0,0
0,5.3,0,0.3,0,0
0,5.4,0,0.3,0,0
0,5.5,0,0.3,0,0
0,5.6,0,0.3,0,0
0,5.7,0,0.3,0,0
0,5.8,0,0.3,0,0
0,5.9,0,0.3,0,0
0,6,0,0.3,0,0
0,6.1,0,0.3,0,0
0,6.2,0,0.3,0,0
0,6.3,0,0.3,0,0
0,6.4,0,0.3,0,0
0,6.5,0,0.3,0,0
0,6.6,0,0.3,0,0
0,6.7,0,0.3,0,0
0,6.8,0,0.3,0,0
0,6.9,0,0.3,0,0
0,7,0,0.3,0,0
0,7.1,0,0.3,0,0
0,7.2,0,0.3,0,0
0,7.3,0,0.3,0,0
0,7.4,0,0.3,0,0
0,7.5,0,0.3,0,0
0,7.6,0,0.3,0,0
0,7.7,0,0.3,0,0
0,7.8,0,0.3,0,0
0,7.9,0,0.3,0,0
0,8,0,0.3,0,0
0,8.1,0,0.3,0,0
0,8.2,0,0.3,0,0
0,8.3,0,0.3,0,0
0,8.4,0,0.3,0,0
0,8.5,0,0.3,0,0
0,8.6,0,0.3,0,0
0,8.7,0,0.3,0,0
0,8.8,0,0.3,0,0
0,8.9,0,0.3,0,0
0,9,0,0.3,0,0
0,9.1,0,0.3,0,0
0,9.2,0,0.3,0,0
0,9.3,0,0.3,0,0
0,9.4,0,0.3,0,0
0,9.5,0,0.3,0,0
0,9.6,0,0.3,0,0
0,9.7,0,0.3,0,0
0,9.8,0,0.3,0,0
0,9.9,0,0.3,0,0
0,10,0,0.3,0,0
0,10.1,0,0.3,0,0
0,10.2,0,0.3,0,0
0,10.3,0,0.3,0,0
0,10.4,0,0.3,0,0
0,10.5,0,0.3,0,0
0,10.6,0,0.3,0,0
0,10.7,0,0.3,0,0
0,10.8,0,0.3,0,0
0,10.9,0,0.3,0,0
0,11,0,0.3,0,0
0,11.1,0,0.3,0,0
0,11.2,0,0.3,0,0
0,11.3,0,0.3,0,0
0,11.4,0,0.3,0,0
0,11.5,0,0.3,0,0
0,11.6,0,0.3,0,0
0,11.7,0,0.3,0,0
0,11.8,0,0.3,0,0
0,11.9,0,0.3,0,0
0,12,0,0.3,0,0
0,12.1,0,0.3,0,0
0,12.2,0,0.3,0,0
0,12.3,0,0.3,0,0
0,12.4,0,0.3,0,0
0,12.5,0,0.300002,-2.79499e-06,0
0,12.6,0,0.300006,-1.07807e-05,0
0,12.7,0,0.300011,-1.87664e-05,0
0.1,0,0,0.300001,-7.6965e-05,0
0.1,0.1,0,0.300001,-5.04267e-05,0
0.1,0.2,0,0.300001,-3.76018e-05,0
0.1,0.3,0,0.3,-2.47768e-05,0
0.1,0.4,0,0.3,-2.30162e-05,0
0.1,0.5,0,0.3,-2.30162e-05,0
0.1,0.6,0,0.3,-2.30162e-05,0
0.1,0.7,0,0.299999,-3.68935e-05,0
0.1,0.8,0,0.3,-2.1773e-05,0
0.1,0.9,0,0.3,-2.1773e-05,0
0.1,1,0,0.3,-2.1773e-05,0
0.1,1.1,0,0.299999,-1.99221e-05,0
0.1,1.2,0,0.299999,-1.99221e-05,0
0.1,1.3,0,0.299999,-1.99221e-05,0
0.1,1.4,0,0.299998,-3.56677e-05,0
0.1,1.5,0,0.299999,-1.75222e-05,0
0.1,1.6,0,0.299999,-1.75222e-05,0
0.1,1.7,0,0.299999,-1.75222e-05,0
0.1,1.8,0,0.299998,-1.46529e-05,0
0.1,1.9,0,0.299998,-1.46529e-05,0
0.1,2,0,0.299998,-1.46529e-05,0
0.1,2.1,0,0.299997,-3.37079e-05,0
0.1,2.2,0,0.299998,-1.14184e-05,0
0.1,2.3,0,0.299998,-1.14184e-05,0
0.1,2.4,0,0.299998,-1.14184e-05,0
0.1,2.5,0,0.299997,-7.94995e-06,0
0.1,2.6,0,0.299997,-7.94995e-06,0
0.1,2.7,0,0.299997,-7.94995e-06,0
0.1,2.8,0,0.299997,-3.0986e-05,0
0.1,2.9,0,0.299996,-4.41094e-06,0
0.1,3,0,0.299996,-4.41094e-06,0
0.1,3.1,0,0.299996,-4.41094e-06,0
0.1,3.2,0,0.299995,-1.02492e-06,0
0.1,3.3,0,0.299995,-1.02492e-06,0
0.1,3.4,0,0.299995,-1.02492e-06,0
0.1,3.5,0,0.299997,-2.74337e-05,0
0.1,3.6,0,0.299993,2.00059e-06,0
0.1,3.7,0,0.299993,2.00059e-06,0
0.1,3.8,0,0.299993,2.00059e-06,0
0.1,3.9,0,0.299991,4.37471e-06,0
0.1,4,0,0.299991,4.37471e-06,0
0.1,4.1,0,0.299991,4.37471e-06,0
0.1,4.2,0,0.299998,-2.2872e-05,0
0.1,4.3,0,0.299988,5.73532e-06,0
0.1,4.4,0,0.299988,5.73532e-06,0
0.1,4.5,0,0.299988,5.73532e-06,0
0.1,4.6,0,0.299986,5.81633e-06,0
0.1,4.7,0,0.299986,5.81633e-06,0
0.1,4.8,0,0.299986,5.81633e-06,0
0.1,4.9,0,0.299999,-1.70441e-05,0
0.1,5,0,0.299986,4.46381e-06,0
0.1,5.1,0,0.299986,4.46381e-06,0
0.1,5.2,0,0.299986,4.46381e-06,0
0.1,5.3,0,0.29999,1.7476e-06,0
0.1,5.4,0,0.29999,1.7476e-06,0
0.1,5.5,0,0.29999,1.7476e-06,0
0.1,5.6,0,0.3,-9.74129e-06,0
0.1,5.7,0,0.299999,-1.82096e-06,0
0.1,5.8,0,0.299999,-1.82096e-06,0
0.1,5.9,0,0.299999,-1.82096e-06,0
0.1,6,0,0.300015,-5.46252e-06,0
0.1,6.1,0,0.300015,-5.46252e-06,0
0.1,6.2,0,0.300015,-5.46252e-06,0
0.1,6.3,0,0.299997,-1.21287e-06,0
0.1,6.4,0,0.300036,-7.99689e-06,0
0.1,6.5,0,0.300036,-7.99689e-06,0
0.1,6.6,0,0.300036,-7.99689e-06,0
0.1,6.7,0,0.300059,-9.55666e-06,0
0.1,6.8,0,0.300059,-9.55666e-06,0
0.1,6.9,0,0.300059,-9.55666e-06,0
0.1,7,0,0.299992,6.61338e-06,0
0.1,7.1,0,0.299991,7.95305e-06,0
0.1,7.2,0,0.299991,8.65799e-06,0
0.1,7.3,0,0.29999,9.34572e-06,0
0.1,7.4,0,0.29999,1.00348e-05,0
0.1,7.5,0,0.29999,1.07217e-05,0
0.1,7.6,0,0.29999,1.14049e-05,0
0.1,7.7,0,0.29999,1.20844e-05,0
0.1,7.8,0,0.29999,1.2759e-05,0
0.1,7.9,0,0.299991,1.34424e-05,0
0.1,8,0,0.299991,1.44463e-05,0
0.1,8.1,0,0.300081,1.45273e-05,0
0.1,8.2,0,0.300081,1.45273e-05,0
0.1,8.3,0,0.300068,1.61414e-05,0
0.1,8.4,0,0.300068,1.61414e-05,0
0.1,8.5,0,0.300052,1.65526e-05,0
0.1,8.6,0,0.300052,1.65526e-05,0
0.1,8.7,0,0.300007,2.021e-05,0
0.1,8.8,0,0.300035,1.5747e-05,0
0.1,8.9,0,0.300035,1.5747e-05,0
0.1,9,0,0.300017,1.37571e-05,0
0.1,9.1,0,0.300017,1.37571e-05,0
0.1,9.2,0,0.300001,1.2249e-05,0
0.1,9.3,0,0.3,1.08227e-05,0
0.1,9.4,0,0.300002,2.17705e-05,0
0.1,9.5,0,0.299987,7.28007e-06,0
0.1,9.6,0,0.299987,7.28007e-06,0
0.1,9.7,0,0.299977,3.49362e-06,0
0.1,9.8,0,0.299977,3.49362e-06,0
0.1,9.9,0,0.29998,8.73045e-06,0
0.1,10,0,0.299971,-1.95995e-07,0
0.1,10.1,0,0.299986,1.53842e-05,0
0.1,10.2,0,0.299969,-3.52492e-06,0
0.1,10.3,0,0.299969,-3.52492e-06,0
0.1,10.4,0,0.29997,-6.30732e-06,0
0.1,10.5,0,0.29997,-6.30732e-06,0
0.1,10.6,0,0.299987,1.22776e-05,0
0.1,10.7,0,0.299974,-8.44816e-06,0
0.1,10.8,0,0.299981,4.42431e-06,0
0.1,10.9,0,0.299978,-9.95299e-06,0
0.1,11,0,0.299978,-9.95299e-06,0
0.1,11.1,0,0.299984,-1.08888e-05,0
0.1,11.2,0,0.299984,-1.08888e-05,0
0.1,11.3,0,0.299996,2.14909e-05,0
0.1,11.4,0,0.29999,-1.13583e-05,0
0.1,11.5,0,0.299991,-6.35281e-06,0
0.1,11.6,0,0.299995,-1.14759e-05,0
0.1,11.7,0,0.299995,-1.14759e-05,0
0.1,11.8,0,0.299999,-1.13492e-05,0
0.1,11.9,0,0.299999,-1.13492e-05,0
0.1,12,0,0.3,3.25703e-05,0
0.1,12.1,0,0.300002,-1.10565e-05,0
0.1,12.2,0,0.300002,-1.10565e-05,0
0.1,12.3,0,0.300004,-1.06062e-05,0
0.1,12.4,0,0.300004,-1.06062e-05,0
0.1,12.5,0,0.300006,-1.06444e-05,0
0.1,12.6,0,0.30001,-1.86301e-05,0
0.1,12.7,0,0.300008,2.66807e-05,0
0.2,0,0,0.3,-0.000109043,0
0.2,0.1,0,0.300001,-6.8791e-05,0
0.2,0.2,0,0.300001,-5.59661e-05,0
0.2,0.3,0,0.3,-5.79673e-05,0
0.2,0.4,0,0.3,-5.72035e-05,0
0.2,0.5,0,0.3,-4.60323e-05,0
0.2,0.6,0,0.3,-4.60323e-05,0
0.2,0.7,0,0.299998,-7.3787e-05,0
0.2,0.8,0,0.3,-4.3546e-05,0
0.2,0.9,0,0.3,-4.3546e-05,0
0.2,1,0,0.299999,-5.50162e-05,0
0.2,1.1,0,0.299998,-5.27687e-05,0
0.2,1.2,0,0.299999,-3.98442e-05,0
0.2,1.3,0,0.299999,-3.98442e-05,0
0.2,1.4,0,0.299996,-7.13354e-05,0
0.2,1.5,0,0.299998,-3.50444e-05,0
0.2,1.6,0,0.299998,-3.50444e-05,0
0.2,1.7,0,0.299997,-4.86044e-05,0
0.2,1.8,0,0.299996,-4.51203e-05,0
0.2,1.9,0,0.299997,-2.93059e-05,0
0.2,2,0,0.299997,-2.93059e-05,0
0.2,2.1,0,0.299995,-6.74157e-05,0
0.2,2.2,0,0.299996,-2.28368e-05,0
0.2,2.3,0,0.299996,-2.28368e-05,0
0.2,2.4,0,0.299995,-3.93581e-05,0
0.2,2.5,0,0.299994,-3.51464e-05,0
0.2,2.6,0,0.299994,-1.58999e-05,0
0.2,2.7,0,0.299994,-1.58999e-05,0
0.2,2.8,0,0.299994,-6.19719e-05,0
0.2,2.9,0,0.299992,-8.82188e-06,0
0.2,3,0,0.299992,-8.82188e-06,0
0.2,3.1,0,0.299993,-2.83945e-05,0
0.2,3.2,0,0.299991,-2.42828e-05,0
0.2,3.3,0,0.29999,-2.04983e-06,0
0.2,3.4,0,0.29999,-2.04983e-06,0
0.2,3.5,0,0.299994,-5.48673e-05,0
0.2,3.6,0,0.299986,4.00118e-06,0
0.2,3.7,0,0.299986,4.00118e-06,0
0.2,3.8,0,0.299989,-1.74436e-05,0
0.2,3.9,0,0.299986,-1.45608e-05,0
0.2,4,0,0.299981,8.74941e-06,0
0.2,4.1,0,0.299981,8.74941e-06,0
0.2,4.2,0,0.299996,-4.5744e-05,0
0.2,4.3,0,0.299976,1.14706e-05,0
0.2,4.4,0,0.299976,1.14706e-05,0
0.2,4.5,0,0.299984,-8.85659e-06,0
0.2,4.6,0,0.299982,-8.75821e-06,0
0.2,4.7,0,0.299972,1.16327e-05,0
0.2,4.8,0,0.299972,1.16327e-05,0
0.2,4.9,0,0.299998,-3.40883e-05,0
0.2,5,0,0.299972,8.92762e-06,0
0.2,5.1,0,0.299972,8.92762e-06,0
0.2,5.2,0,0.299983,-5.2487e-06,0
0.2,5.3,0,0.299987,-8.54696e-06,0
0.2,5.4,0,0.299979,3.49519e-06,0
0.2,5.5,0,0.299979,3.49519e-06,0
0.2,5.6,0,0.3,-1.94826e-05,0
0.2,5.7,0,0.299998,-3.64193e-06,0
0.2,5.8,0,0.299998,-3.64193e-06,0
0.2,5.9,0,0.299998,-6.59272e-06,0
0.2,6,0,0.300017,-1.10146e-05,0
0.2,6.1,0,0.30003,-1.0925e-05,0
0.2,6.2,0,0.30003,-1.0925e-05,0
0.2,6.3,0,0.299994,-2.42574e-06,0
0.2,6.4,0,0.300072,-1.59938e-05,0
0.2,6.5,0,0.300072,-1.59938e-05,0
0.2,6.6,0,0.300039,-7.11715e-06,0
0.2,6.7,0,0.300067,-9.01115e-06,0
0.2,6.8,0,0.300117,-1.91133e-05,0
0.2,6.9,0,0.300117,-1.91133e-05,0
0.2,7,0,0.299985,1.32268e-05,0
0.2,7.1,0,0.299983,1.59061e-05,0
0.2,7.2,0,0.299982,1.7316e-05,0
0.2,7.3,0,0.299981,1.86914e-05,0
0.2,7.4,0,0.29998,2.00697e-05,0
0.2,7.5,0,0.29998,2.14434e-05,0
0.2,7.6,0,0.29998,2.28099e-05,0
0.2,7.7,0,0.29998,2.41688e-05,0
0.2,7.8,0,0.299981,2.55181e-05,0
0.2,7.9,0,0.299981,2.68849e-05,0
0.2,8,0,0.299983,2.88926e-05,0
0.2,8.1,0,0.300162,2.90547e-05,0
0.2,8.2,0,0.300097,3.03373e-05,0
0.2,8.3,0,0.300137,3.22827e-05,0
0.2,8.4,0,0.300137,3.22827e-05,0
0.2,8.5,0,0.300053,3.50082e-05,0
0.2,8.6,0,0.300105,3.31052e-05,0
0.2,8.7,0,0.300005,4.12274e-05,0
0.2,8.8,0,0.300069,3.14941e-05,0
0.2,8.9,0,0.30005,3.57205e-05,0
0.2,9,0,0.300033,2.75142e-05,0
0.2,9.1,0,0.300033,2.75142e-05,0
0.2,9.2,0,0.300002,3.79687e-05,0
0.2,9.3,0,0.300001,2.16455e-05,0
0.2,9.4,0,0.300005,4.97448e-05,0
0.2,9.5,0,0.299974,1.45601e-05,0
0.2,9.6,0,0.29998,2.30589e-05,0
0.2,9.7,0,0.299955,7.27035e-06,0
0.2,9.8,0,0.299954,6.98725e-06,0
0.2,9.9,0,0.299984,4.0807e-05,0
0.2,10,0,0.299943,-3.9199e-07,0
0.2,10.1,0,0.299989,4.92471e-05,0
0.2,10.2,0,0.299938,-7.04984e-06,0
0.2,10.3,0,0.299945,4.14399e-07,0
0.2,10.4,0,0.299947,-4.6176e-06,0
0.2,10.5,0,0.299941,-1.26146e-05,0
0.2,10.6,0,0.299988,4.91368e-05,0
0.2,10.7,0,0.299947,-1.68963e-05,0
0.2,10.8,0,0.299982,4.25151e-05,0
0.2,10.9,0,0.299957,-1.9906e-05,0
0.2,11,0,0.299957,-1.93834e-05,0
0.2,11.1,0,0.299974,-3.13983e-06,0
0.2,11.2,0,0.299968,-2.17776e-05,0
0.2,11.3,0,0.299996,6.15964e-05,0
0.2,11.4,0,0.299979,-2.27165e-05,0
0.2,11.5,0,0.29999,3.45681e-05,0
0.2,11.6,0,0.299989,-2.29517e-05,0
0.2,11.7,0,0.299989,-2.29517e-05,0
0.2,11.8,0,0.299998,6.60402e-06,0
0.2,11.9,0,0.299998,-2.26983e-05,0
0.2,12,0,0.299998,7.47726e-05,0
0.2,12.1,0,0.300005,-2.2113e-05,0
0.2,12.2,0,0.300002,2.70459e-05,0
0.2,12.3,0,0.300009,-2.12125e-05,0
0.2,12.4,0,0.300009,-2.12125e-05,0
0.2,12.5,0,0.300006,1.88784e-05,0
0.2,12.6,0,0.300015,-2.64794e-05,0
0.2,12.7,0,0.300006,7.21277e-05,0
0.3,0,0,0.3,-0.00014112,0
0.3,0.1,0,0.300001,-9.49915e-05,0
0.3,0.2,0,0.300001,-7.43304e-05,0
0.3,0.3,0,0.3,-9.52012e-05,0
0.3,0.4,0,0.299999,-9.44374e-05,0
0.3,0.5,0,0.300001,-6.90485e-05,0
0.3,0.6,0,0.3,-7.69784e-05,0
0.3,0.7,0,0.299997,-0.00011068,0
0.3,0.8,0,0.299999,-7.39593e-05,0
0.3,0.9,0,0.299999,-6.5319e-05,0
0.3,1,0,0.299997,-9.13877e-05,0
0.3,1.1,0,0.299997,-8.91402e-05,0
0.3,1.2,0,0.299998,-5.97663e-05,0
0.3,1.3,0,0.299997,-6.87638e-05,0
0.3,1.4,0,0.299995,-0.000107003,0
0.3,1.5,0,0.299996,-6.29355e-05,0
0.3,1.6,0,0.299996,-5.25666e-05,0
0.3,1.7,0,0.299995,-8.33849e-05,0
0.3,1.8,0,0.299994,-7.99008e-05,0
0.3,1.9,0,0.299995,-4.39588e-05,0
0.3,2,0,0.299995,-5.48473e-05,0
0.3,2.1,0,0.299992,-0.000101124,0
0.3,2.2,0,0.299993,-4.6992e-05,0
0.3,2.3,0,0.299994,-3.42551e-05,0
0.3,2.4,0,0.299992,-7.18035e-05,0
0.3,2.5,0,0.299992,-6.75919e-05,0
0.3,2.6,0,0.299992,-2.38499e-05,0
0.3,2.7,0,0.299991,-3.70133e-05,0
0.3,2.8,0,0.299991,-9.29579e-05,0
0.3,2.9,0,0.299989,-2.84186e-05,0
0.3,3,0,0.299989,-1.32328e-05,0
0.3,3.1,0,0.29999,-5.77159e-05,0
0.3,3.2,0,0.299988,-5.36043e-05,0
0.3,3.3,0,0.299984,-3.07475e-06,0
0.3,3.4,0,0.299986,-1.81655e-05,0
0.3,3.5,0,0.299991,-8.2301e-05,0
0.3,3.6,0,0.299981,-1.08178e-05,0
0.3,3.7,0,0.299979,6.00177e-06,0
0.3,3.8,0,0.299987,-4.27365e-05,0
0.3,3.9,0,0.299984,-3.98536e-05,0
0.3,4,0,0.299972,1.31241e-05,0
0.3,4.1,0,0.299976,-2.44542e-06,0
0.3,4.2,0,0.299993,-6.86159e-05,0
0.3,4.3,0,0.299969,8.58924e-07,0
0.3,4.4,0,0.299963,1.7206e-05,0
0.3,4.5,0,0.299982,-2.89923e-05,0
0.3,4.6,0,0.29998,-2.88939e-05,0
0.3,4.7,0,0.299958,1.7449e-05,0
0.3,4.8,0,0.299965,4.38587e-06,0
0.3,4.9,0,0.299998,-5.11324e-05,0
0.3,5,0,0.299965,1.10118e-06,0
0.3,5.1,0,0.299958,1.33914e-05,0
0.3,5.2,0,0.299982,-1.88275e-05,0
0.3,5.3,0,0.299987,-2.21257e-05,0
0.3,5.4,0,0.299969,5.24279e-06,0
0.3,5.5,0,0.299975,-1.32229e-06,0
0.3,5.6,0,0.299999,-2.92239e-05,0
0.3,5.7,0,0.299998,-9.98879e-06,0
0.3,5.8,0,0.299997,-5.46289e-06,0
0.3,5.9,0,0.299997,-1.21692e-05,0
0.3,6,0,0.300016,-1.65911e-05,0
0.3,6.1,0,0.300044,-1.63876e-05,0
0.3,6.2,0,0.300034,-1.39592e-05,0
0.3,6.3,0,0.299991,-3.6386e-06,0
0.3,6.4,0,0.300085,-2.01141e-05,0
0.3,6.5,0,0.300107,-2.39907e-05,0
0.3,6.6,0,0.300034,-3.8165e-06,0
0.3,6.7,0,0.300062,-5.7105e-06,0
0.3,6.8,0,0.300176,-2.867e-05,0
0.3,6.9,0,0.300138,-1.943e-05,0
0.3,7,0,0.299977,1.98401e-05,0
0.3,7.1,0,0.299974,2.38591e-05,0
0.3,7.2,0,0.299972,2.5974e-05,0
0.3,7.3,0,0.299971,2.80372e-05,0
0.3,7.4,0,0.29997,3.01045e-05,0
0.3,7.5,0,0.29997,3.21651e-05,0
0.3,7.6,0,0.29997,3.42148e-05,0
0.3,7.7,0,0.29997,3.62531e-05,0
0.3,7.8,0,0.299971,3.82771e-05,0
0.3,7.9,0,0.299972,4.03273e-05,0
0.3,8,0,0.299974,4.33389e-05,0
0.3,8.1,0,0.300243,4.3582e-05,0
0.3,8.2,0,0.30009,4.66119e-05,0
0.3,8.3,0,0.300156,4.85106e-05,0
0.3,8.4,0,0.300171,4.95902e-05,0
0.3,8.5,0,0.300048,5.36409e-05,0
0.3,8.6,0,0.300157,4.96578e-05,0
0.3,8.7,0,0.300003,6.22448e-05,0
0.3,8.8,0,0.300104,4.72411e-05,0
0.3,8.9,0,0.30005,5.91077e-05,0
0.3,9,0,0.300036,4.92622e-05,0
0.3,9.1,0,0.300046,4.47073e-05,0
0.3,9.2,0,0.300004,6.36883e-05,0
0.3,9.3,0,0.300001,3.24682e-05,0
0.3,9.4,0,0.300008,7.7719e-05,0
0.3,9.5,0,0.299961,2.18402e-05,0
0.3,9.6,0,0.299984,5.31644e-05,0
0.3,9.7,0,0.299958,3.73758e-05,0
0.3,9.8,0,0.299934,1.35216e-05,0
0.3,9.9,0,0.299988,7.28835e-05,0
0.3,10,0,0.299914,-5.87984e-07,0
0.3,10.1,0,0.299993,8.31101e-05,0
0.3,10.2,0,0.299908,-1.05748e-05,0
0.3,10.3,0,0.299948,3.58694e-05,0
0.3,10.4,0,0.29995,3.08374e-05,0
0.3,10.5,0,0.299911,-1.8922e-05,0
0.3,10.6,0,0.29999,8.5996e-05,0
0.3,10.7,0,0.299921,-2.53445e-05,0
0.3,10.8,0,0.299983,8.06059e-05,0
0.3,10.9,0,0.299937,-2.47479e-05,0
0.3,11,0,0.299957,1.97835e-05,0
0.3,11.1,0,0.299974,3.60271e-05,0
0.3,11.2,0,0.299952,-3.26664e-05,0
0.3,11.3,0,0.299995,0.000101702,0
0.3,11.4,0,0.299969,-3.40748e-05,0
0.3,11.5,0,0.299989,7.5489e-05,0
0.3,11.6,0,0.299985,-1.93774e-05,0
0.3,11.7,0,0.299987,9.63105e-06,0
0.3,11.8,0,0.299997,4.82245e-05,0
0.3,11.9,0,0.299997,-3.40475e-05,0
0.3,12,0,0.299997,0.000116975,0
0.3,12.1,0,0.300007,-3.31695e-05,0
0.3,12.2,0,0.3,6.97211e-05,0
0.3,12.3,0,0.300011,-6.87842e-06,0
0.3,12.4,0,0.30001,3.00946e-06,0
0.3,12.5,0,0.300005,6.19418e-05,0
0.3,12.6,0,0.300019,-3.43288e-05,0
0.3,12.7,0,0.300004,0.000117575,0
0.4,0,0,0.3,-0.000173198,0
0.4,0.1,0,0.300001,-0.000127069,0
0.4,0.2,0,0.300002,-9.94338e-05,0
0.4,0.3,0,0.299999,-0.000132435,0
0.4,0.4,0,0.299999,-0.000131671,0
0.4,0.5,0,0.300001,-9.71424e-05,0
0.4,0.6,0,0.299999,-0.000113872,0
0.4,0.7,0,0.299996,-0.000147574,0
0.4,0.8,0,0.299998,-0.000110853,0
0.4,0.9,0,0.299999,-9.23057e-05,0
0.4,1,0,0.299996,-0.000127759,0
0.4,1.1,0,0.299995,-0.000125512,0
0.4,1.2,0,0.299997,-8.55632e-05,0
0.4,1.3,0,0.299995,-0.000104431,0
0.4,1.4,0,0.299993,-0.000142671,0
0.4,1.5,0,0.299994,-9.86032e-05,0
0.4,1.6,0,0.299995,-7.62525e-05,0
0.4,1.7,0,0.299993,-0.000118165,0
0.4,1.8,0,0.299992,-0.000114681,0
0.4,1.9,0,0.299993,-6.58002e-05,0
0.4,2,0,0.299992,-8.85552e-05,0
0.4,2.1,0,0.29999,-0.000134831,0
0.4,2.2,0,0.299991,-8.06998e-05,0
0.4,2.3,0,0.299991,-5.31832e-05,0
0.4,2.4,0,0.29999,-0.000104249,0
0.4,2.5,0,0.299989,-0.000100037,0
0.4,2.6,0,0.299989,-4.05482e-05,0
0.4,2.7,0,0.299989,-6.79993e-05,0
0.4,2.8,0,0.299988,-0.000123944,0
0.4,2.9,0,0.299986,-5.94045e-05,0
0.4,3,0,0.299985,-2.65404e-05,0
0.4,3.1,0,0.299987,-8.70374e-05,0
0.4,3.2,0,0.299985,-8.29258e-05,0
0.4,3.3,0,0.29998,-1.42056e-05,0
0.4,3.4,0,0.299983,-4.55991e-05,0
0.4,3.5,0,0.299988,-0.000109735,0
0.4,3.6,0,0.299978,-3.82515e-05,0
0.4,3.7,0,0.299973,-1.74529e-06,0
0.4,3.8,0,0.299984,-6.80293e-05,0
0.4,3.9,0,0.299981,-6.51464e-05,0
0.4,4,0,0.299965,6.90328e-06,0
0.4,4.1,0,0.299974,-2.53174e-05,0
0.4,4.2,0,0.299991,-9.14879e-05,0
0.4,4.3,0,0.299967,-2.20131e-05,0
0.4,4.4,0,0.299955,1.37016e-05,0
0.4,4.5,0,0.299981,-4.9128e-05,0
0.4,4.6,0,0.299979,-4.90296e-05,0
0.4,4.7,0,0.299948,1.39967e-05,0
0.4,4.8,0,0.299965,-1.26583e-05,0
0.4,4.9,0,0.299997,-6.81765e-05,0
0.4,5,0,0.299965,-1.59429e-05,0
0.4,5.1,0,0.299948,1.14115e-05,0
0.4,5.2,0,0.299982,-3.24063e-05,0
0.4,5.3,0,0.299987,-3.57045e-05,0
0.4,5.4,0,0.299962,1.51668e-06,0
0.4,5.5,0,0.299974,-1.10636e-05,0
0.4,5.6,0,0.299999,-3.89652e-05,0
0.4,5.7,0,0.299997,-1.97301e-05,0
0.4,5.8,0,0.299996,-8.62513e-06,0
0.4,5.9,0,0.299996,-1.77457e-05,0
0.4,6,0,0.300015,-2.21676e-05,0
0.4,6.1,0,0.300054,-2.18908e-05,0
0.4,6.2,0,0.300031,-1.5172e-05,0
0.4,6.3,0,0.299988,-4.85147e-06,0
0.4,6.4,0,0.300082,-2.1327e-05,0
0.4,6.5,0,0.300128,-2.79527e-05,0
0.4,6.6,0,0.300029,-5.15855e-07,0
0.4,6.7,0,0.300056,-2.40985e-06,0
0.4,6.8,0,0.300212,-3.36347e-05,0
0.4,6.9,0,0.30013,-1.28166e-05,0
0.4,7,0,0.29997,2.64535e-05,0
0.4,7.1,0,0.299966,3.18122e-05,0
0.4,7.2,0,0.299963,3.46319e-05,0
0.4,7.3,0,0.299962,3.73829e-05,0
0.4,7.4,0,0.29996,4.01393e-05,0
0.4,7.5,0,0.29996,4.28868e-05,0
0.4,7.6,0,0.29996,4.56198e-05,0
0.4,7.7,0,0.29996,4.83375e-05,0
0.4,7.8,0,0.299961,5.10362e-05,0
0.4,7.9,0,0.299963,5.37698e-05,0
0.4,8,0,0.299966,5.77852e-05,0
0.4,8.1,0,0.300289,5.80783e-05,0
0.4,8.2,0,0.300083,6.28866e-05,0
0.4,8.3,0,0.300149,6.47852e-05,0
0.4,8.4,0,0.300166,6.82229e-05,0
0.4,8.5,0,0.300043,7.22736e-05,0
0.4,8.6,0,0.300199,6.71128e-05,0
0.4,8.7,0,0.3,8.32622e-05,0
0.4,8.8,0,0.300117,6.59597e-05,0
0.4,8.9,0,0.300049,8.24948e-05,0
0.4,9,0,0.300036,7.26493e-05,0
0.4,9.1,0,0.300047,7.0427e-05,0
0.4,9.2,0,0.300005,8.9408e-05,0
0.4,9.3,0,0.300002,4.36558e-05,0
0.4,9.4,0,0.300011,0.000105693,0
0.4,9.5,0,0.29996,4.45309e-05,0
0.4,9.6,0,0.299988,8.32698e-05,0
0.4,9.7,0,0.299962,6.74812e-05,0
0.4,9.8,0,0.299938,4.55981e-05,0
0.4,9.9,0,0.299991,0.00010496,0
0.4,10,0,0.299885,-7.83979e-07,0
0.4,10.1,0,0.299996,0.000116973,0
0.4,10.2,0,0.299908,2.0504e-05,0
0.4,10.3,0,0.29995,7.13243e-05,0
0.4,10.4,0,0.299952,6.62923e-05,0
0.4,10.5,0,0.299911,1.47228e-05,0
0.4,10.6,0,0.299992,0.000122855,0
0.4,10.7,0,0.299895,-3.37927e-05,0
0.4,10.8,0,0.299984,0.000118697,0
0.4,10.9,0,0.299939,1.33429e-05,0
0.4,11,0,0.299957,5.89504e-05,0
0.4,11.1,0,0.299975,7.5194e-05,0
0.4,11.2,0,0.299948,-5.58077e-06,0
0.4,11.3,0,0.299995,0.000141807,0
0.4,11.4,0,0.299959,-4.43381e-05,0
0.4,11.5,0,0.299988,0.00011641,0
0.4,11.6,0,0.299984,2.15435e-05,0
0.4,11.7,0,0.299986,5.12515e-05,0
0.4,11.8,0,0.299996,8.98449e-05,0
0.4,11.9,0,0.299996,-1.52027e-05,0
0.4,12,0,0.299996,0.000159177,0
0.4,12.1,0,0.300009,-3.34609e-05,0
0.4,12.2,0,0.299999,0.000112396,0
0.4,12.3,0,0.30001,3.57969e-05,0
0.4,12.4,0,0.300009,4.60729e-05,0
0.4,12.5,0,0.300004,0.000105005,0
0.4,12.6,0,0.300021,-2.17668e-05,0
0.4,12.7,0,0.300002,0.000163022,0
0.5,0,0,0.299999,-0.000205275,0
0.5,0.1,0,0.300001,-0.000159147,0
0.5,0.2,0,0.300001,-0.000138627,0
0.5,0.3,0,0.299999,-0.000169669,0
0.5,0.4,0,0.299999,-0.000168905,0
0.5,0.5,0,0.3,-0.000136359,0
0.5,0.6,0,0.299998,-0.000150765,0
0.5,0.7,0,0.299996,-0.000184467,0
0.5,0.8,0,0.299997,-0.000147746,0
0.5,0.9,0,0.299997,-0.000130837,0
0.5,1,0,0.299995,-0.000164131,0
0.5,1.1,0,0.299994,-0.000161883,0
0.5,1.2,0,0.299995,-0.000124184,0
0.5,1.3,0,0.299994,-0.000140099,0
0.5,1.4,0,0.299991,-0.000178338,0
0.5,1.5,0,0.299993,-0.000134271,0
0.5,1.6,0,0.299993,-0.000113625,0
0.5,1.7,0,0.29999,-0.000152946,0
0.5,1.8,0,0.29999,-0.000149462,0
0.5,1.9,0,0.299991,-0.000103303,0
0.5,2,0,0.29999,-0.000122263,0
0.5,2.1,0,0.299988,-0.000168539,0
0.5,2.2,0,0.299988,-0.000114408,0
0.5,2.3,0,0.299988,-8.88129e-05,0
0.5,2.4,0,0.299987,-0.000136694,0
0.5,2.5,0,0.299986,-0.000132483,0
0.5,2.6,0,0.299986,-7.62846e-05,0
0.5,2.7,0,0.299986,-9.89852e-05,0
0.5,2.8,0,0.299985,-0.00015493,0
0.5,2.9,0,0.299983,-9.03905e-05,0
0.5,3,0,0.299982,-5.96583e-05,0
0.5,3.1,0,0.299984,-0.000116359,0
0.5,3.2,0,0.299982,-0.000112247,0
0.5,3.3,0,0.299977,-4.72997e-05,0
0.5,3.4,0,0.29998,-7.30328e-05,0
0.5,3.5,0,0.299985,-0.000137168,0
0.5,3.6,0,0.299975,-6.56851e-05,0
0.5,3.7,0,0.299971,-3.1243e-05,0
0.5,3.8,0,0.299981,-9.33221e-05,0
0.5,3.9,0,0.299978,-9.04393e-05,0
0.5,4,0,0.299963,-2.22819e-05,0
0.5,4.1,0,0.299971,-4.81894e-05,0
0.5,4.2,0,0.299989,-0.00011436,0
0.5,4.3,0,0.299965,-4.4885e-05,0
0.5,4.4,0,0.299955,-1.05208e-05,0
0.5,4.5,0,0.299979,-6.92637e-05,0
0.5,4.6,0,0.299977,-6.91653e-05,0
0.5,4.7,0,0.299948,-9.40473e-06,0
0.5,4.8,0,0.299964,-2.97024e-05,0
0.5,4.9,0,0.299996,-8.52206e-05,0
0.5,5,0,0.299964,-3.29871e-05,0
0.5,5.1,0,0.29995,-5.23988e-06,0
0.5,5.2,0,0.299982,-4.5985e-05,0
0.5,5.3,0,0.299987,-4.92833e-05,0
0.5,5.4,0,0.299963,-1.37034e-05,0
0.5,5.5,0,0.299974,-2.08049e-05,0
0.5,5.6,0,0.299999,-4.87064e-05,0
0.5,5.7,0,0.299997,-2.94714e-05,0
0.5,5.8,0,0.299995,-1.53331e-05,0
0.5,5.9,0,0.299995,-2.33223e-05,0
0.5,6,0,0.300014,-2.77441e-05,0
0.5,6.1,0,0.30005,-2.68602e-05,0
0.5,6.2,0,0.300029,-1.63849e-05,0
0.5,6.3,0,0.299986,-6.06434e-06,0
0.5,6.4,0,0.300079,-2.25398e-05,0
0.5,6.5,0,0.300117,-2.36829e-05,0
0.5,6.6,0,0.300023,2.78479e-06,0
0.5,6.7,0,0.300051,8.90792e-07,0
0.5,6.8,0,0.300197,-2.80241e-05,0
0.5,6.9,0,0.300123,-6.20319e-06,0
0.5,7,0,0.299962,3.30669e-05,0
0.5,7.1,0,0.299957,3.97652e-05,0
0.5,7.2,0,0.299954,4.32899e-05,0
0.5,7.3,0,0.299952,4.67286e-05,0
0.5,7.4,0,0.29995,5.01742e-05,0
0.5,7.5,0,0.29995,5.36085e-05,0
0.5,7.6,0,0.299949,5.70247e-05,0
0.5,7.7,0,0.29995,6.04219e-05,0
0.5,7.8,0,0.299951,6.37952e-05,0
0.5,7.9,0,0.299954,6.72122e-05,0
0.5,8,0,0.299957,7.22315e-05,0
0.5,8.1,0,0.300271,7.27291e-05,0
0.5,8.2,0,0.300076,7.91612e-05,0
0.5,8.3,0,0.300143,8.10599e-05,0
0.5,8.4,0,0.300162,8.68556e-05,0
0.5,8.5,0,0.300038,9.09063e-05,0
0.5,8.6,0,0.300179,8.87498e-05,0
0.5,8.7,0,0.299998,0.00010428,0
0.5,8.8,0,0.300115,8.69772e-05,0
0.5,8.9,0,0.300049,0.000105882,0
0.5,9,0,0.300036,9.60365e-05,0
0.5,9.1,0,0.300049,9.61466e-05,0
0.5,9.2,0,0.300007,0.000115128,0
0.5,9.3,0,0.300005,7.87616e-05,0
0.5,9.4,0,0.300014,0.000133668,0
0.5,9.5,0,0.299963,7.25051e-05,0
0.5,9.6,0,0.299991,0.000113375,0
0.5,9.7,0,0.299965,9.75866e-05,0
0.5,9.8,0,0.299942,7.76747e-05,0
0.5,9.9,0,0.299995,0.000137037,0
0.5,10,0,0.299905,4.89302e-05,0
0.5,10.1,0,0.3,0.000150836,0
0.5,10.2,0,0.299912,5.4367e-05,0
0.5,10.3,0,0.299953,0.000106779,0
0.5,10.4,0,0.299955,0.000101747,0
0.5,10.5,0,0.299913,5.1582e-05,0
0.5,10.6,0,0.299994,0.000159715,0
0.5,10.7,0,0.29991,2.65326e-05,0
0.5,10.8,0,0.299985,0.000156788,0
0.5,10.9,0,0.29994,5.14337e-05,0
0.5,11,0,0.299958,9.81173e-05,0
0.5,11.1,0,0.299975,0.000114361,0
0.5,11.2,0,0.299947,3.45247e-05,0
0.5,11.3,0,0.299995,0.000181913,0
0.5,11.4,0,0.299963,2.07946e-05,0
0.5,11.5,0,0.299988,0.000157331,0
0.5,11.6,0,0.299984,6.24644e-05,0
0.5,11.7,0,0.299985,9.28719e-05,0
0.5,11.8,0,0.299995,0.000131465,0
0.5,11.9,0,0.299995,2.69995e-05,0
0.5,12,0,0.299995,0.000201379,0
0.5,12.1,0,0.300007,2.47465e-05,0
0.5,12.2,0,0.299998,0.000155072,0
0.5,12.3,0,0.300009,7.84721e-05,0
0.5,12.4,0,0.300008,8.91363e-05,0
0.5,12.5,0,0.300003,0.000148069,0
0.5,12.6,0,0.300018,2.96382e-05,0
0.5,12.7,0,0.299999,0.000208469,0
0.6,0,0,0.299999,-0.000237353,0
0.6,0.1,0,0.3,-0.000191224,0
0.6,0.2,0,0.3,-0.000189574,0
0.6,0.3,0,0.299998,-0.000206903,0
0.6,0.4,0,0.299998,-0.000206139,0
0.6,0.5,0,0.299999,-0.00018747,0
0.6,0.6,0,0.299997,-0.000187659,0
0.6,0.7,0,0.299995,-0.000221361,0
0.6,0.8,0,0.299996,-0.00018464,0
0.6,0.9,0,0.299995,-0.000182329,0
0.6,1,0,0.299993,-0.000200502,0
0.6,1.1,0,0.299993,-0.000198255,0
0.6,1.2,0,0.299993,-0.000176301,0
0.6,1.3,0,0.299992,-0.000175767,0
0.6,1.4,0,0.299989,-0.000214006,0
0.6,1.5,0,0.299991,-0.000169939,0
0.6,1.6,0,0.29999,-0.000166551,0
0.6,1.7,0,0.299988,-0.000187726,0
0.6,1.8,0,0.299988,-0.000184242,0
0.6,1.9,0,0.299988,-0.000157138,0
0.6,2,0,0.299987,-0.000155971,0
0.6,2.1,0,0.299985,-0.000202247,0
0.6,2.2,0,0.299986,-0.000148116,0
0.6,2.3,0,0.299985,-0.000143548,0
0.6,2.4,0,0.299984,-0.00016914,0
0.6,2.5,0,0.299983,-0.000164928,0
0.6,2.6,0,0.299983,-0.000131766,0
0.6,2.7,0,0.299983,-0.000129971,0
0.6,2.8,0,0.299982,-0.000185916,0
0.6,2.9,0,0.29998,-0.000121376,0
0.6,3,0,0.29998,-0.000115555,0
0.6,3.1,0,0.299981,-0.00014568,0
0.6,3.2,0,0.299979,-0.000141569,0
0.6,3.3,0,0.299977,-0.00010303,0
0.6,3.4,0,0.299977,-0.000100466,0
0.6,3.5,0,0.299982,-0.000164602,0
0.6,3.6,0,0.299972,-9.31188e-05,0
0.6,3.7,0,0.299973,-8.59701e-05,0
0.6,3.8,0,0.299979,-0.000118615,0
0.6,3.9,0,0.299976,-0.000115732,0
0.6,4,0,0.299968,-7.48214e-05,0
0.6,4.1,0,0.299969,-7.10614e-05,0
0.6,4.2,0,0.299987,-0.000137232,0
0.6,4.3,0,0.299962,-6.7757e-05,0
0.6,4.4,0,0.299963,-5.92638e-05,0
0.6,4.5,0,0.299978,-8.93994e-05,0
0.6,4.6,0,0.299976,-8.9301e-05,0
0.6,4.7,0,0.29996,-5.24009e-05,0
0.6,4.8,0,0.299963,-4.67465e-05,0
0.6,4.9,0,0.299995,-0.000102265,0
0.6,5,0,0.299963,-5.00312e-05,0
0.6,5.1,0,0.299963,-4.03266e-05,0
0.6,5.2,0,0.299982,-5.95638e-05,0
0.6,5.3,0,0.299986,-6.28621e-05,0
0.6,5.4,0,0.299973,-3.8771e-05,0
0.6,5.5,0,0.299974,-3.05462e-05,0
0.6,5.6,0,0.299999,-5.84477e-05,0
0.6,5.7,0,0.299997,-3.92127e-05,0
0.6,5.8,0,0.299995,-2.88299e-05,0
0.6,5.9,0,0.299994,-2.88988e-05,0
0.6,6,0,0.300013,-3.33206e-05,0
0.6,6.1,0,0.300031,-2.81871e-05,0
0.6,6.2,0,0.300026,-1.75978e-05,0
0.6,6.3,0,0.299983,-7.27721e-06,0
0.6,6.4,0,0.300077,-2.37527e-05,0
0.6,6.5,0,0.300073,-1.35983e-05,0
0.6,6.6,0,0.300018,6.08544e-06,0
0.6,6.7,0,0.300046,4.19144e-06,0
0.6,6.8,0,0.300125,-8.5534e-06,0
0.6,6.9,0,0.300115,4.10193e-07,0
0.6,7,0,0.299955,3.96803e-05,0
0.6,7.1,0,0.299948,4.77183e-05,0
0.6,7.2,0,0.299945,5.19479e-05,0
0.6,7.3,0,0.299942,5.60743e-05,0
0.6,7.4,0,0.29994,6.0209e-05,0
0.6,7.5,0,0.299939,6.43302e-05,0
0.6,7.6,0,0.299939,6.84297e-05,0
0.6,7.7,0,0.29994,7.25063e-05,0
0.6,7.8,0,0.299942,7.65543e-05,0
0.6,7.9,0,0.299944,8.06547e-05,0
0.6,8,0,0.299949,8.66778e-05,0
0.6,8.1,0,0.300174,8.89227e-05,0
0.6,8.2,0,0.300069,9.54359e-05,0
0.6,8.3,0,0.300136,9.73345e-05,0
0.6,8.4,0,0.300154,0.000105493,0
0.6,8.5,0,0.300033,0.000109539,0
0.6,8.6,0,0.30012,0.000111847,0
0.6,8.7,0,0.299995,0.000125297,0
0.6,8.8,0,0.30008,0.000115147,0
0.6,8.9,0,0.300049,0.000129269,0
0.6,9,0,0.300035,0.000119424,0
0.6,9.1,0,0.300047,0.000123915,0
0.6,9.2,0,0.300009,0.000140847,0
0.6,9.3,0,0.300009,0.000121633,0
0.6,9.4,0,0.300017,0.000161642,0
0.6,9.5,0,0.299978,0.00011772,0
0.6,9.6,0,0.299995,0.000143481,0
0.6,9.7,0,0.299969,0.000127692,0
0.6,9.8,0,0.299956,0.000120226,0
0.6,9.9,0,0.299999,0.000169113,0
0.6,10,0,0.299941,0.000115066,0
0.6,10.1,0,0.300003,0.000184699,0
0.6,10.2,0,0.299934,0.000110623,0
0.6,10.3,0,0.299956,0.000142234,0
0.6,10.4,0,0.299958,0.000137202,0
0.6,10.5,0,0.299933,0.000112432,0
0.6,10.6,0,0.299996,0.000196574,0
0.6,10.7,0,0.299939,0.000109931,0
0.6,10.8,0,0.299986,0.000194878,0
0.6,10.9,0,0.299949,0.000108859,0
0.6,11,0,0.299958,0.000137284,0
0.6,11.1,0,0.299975,0.000153528,0
0.6,11.2,0,0.299959,0.000112438,0
0.6,11.3,0,0.299994,0.000222018,0
0.6,11.4,0,0.299972,0.000113179,0
0.6,11.5,0,0.299987,0.000198252,0
0.6,11.6,0,0.299984,0.000114682,0
0.6,11.7,0,0.299984,0.000134492,0
0.6,11.8,0,0.299994,0.000173086,0
0.6,11.9,0,0.299994,0.00011879,0
0.6,12,0,0.299994,0.000243582,0
0.6,12.1,0,0.300002,0.000120681,0
0.6,12.2,0,0.299997,0.000197747,0
0.6,12.3,0,0.300007,0.00012286,0
0.6,12.4,0,0.300007,0.0001322,0
0.6,12.5,0,0.300002,0.000191132,0
0.6,12.6,0,0.300011,0.000125998,0
0.6,12.7,0,0.299997,0.000253916,0
0.7,0,0,0.299999,-0.000269431,0
0.7,0.1,0,0.299999,-0.000240824,0
0.7,0.2,0,0.299999,-0.000240521,0
0.7,0.3,0,0.299998,-0.000244137,0
0.7,0.4,0,0.299998,-0.000243373,0
0.7,0.5,0,0.299997,-0.000238581,0
0.7,0.6,0,0.299996,-0.000237755,0
0.7,0.7,0,0.299994,-0.000258254,0
0.7,0.8,0,0.299994,-0.000235089,0
0.7,0.9,0,0.299993,-0.000233821,0
0.7,1,0,0.299992,-0.000236874,0
0.7,1.1,0,0.299991,-0.000234626,0
0.7,1.2,0,0.299991,-0.000228418,0
0.7,1.3,0,0.299989,-0.000226709,0
0.7,1.4,0,0.299987,-0.000249674,0
0.7,1.5,0,0.299988,-0.000221632,0
0.7,1.6,0,0.299987,-0.000219477,0
0.7,1.7,0,0.299986,-0.000222507,0
0.7,1.8,0,0.299985,-0.000219022,0
0.7,1.9,0,0.299985,-0.000210973,0
0.7,2,0,0.299984,-0.000208369,0
0.7,2.1,0,0.299983,-0.000235955,0
0.7,2.2,0,0.299983,-0.000201349,0
0.7,2.3,0,0.299982,-0.000198283,0
0.7,2.4,0,0.299981,-0.000201585,0
0.7,2.5,0,0.299981,-0.000197374,0
0.7,2.6,0,0.29998,-0.000187248,0
0.7,2.7,0,0.29998,-0.000183703,0
0.7,2.8,0,0.299979,-0.000216902,0
0.7,2.9,0,0.299978,-0.000175494,0
0.7,3,0,0.299978,-0.000171451,0
0.7,3.1,0,0.299978,-0.000175002,0
0.7,3.2,0,0.299976,-0.00017089,0
0.7,3.3,0,0.299976,-0.00015876,0
0.7,3.4,0,0.299976,-0.000154175,0
0.7,3.5,0,0.299979,-0.000192036,0
0.7,3.6,0,0.299973,-0.000145896,0
0.7,3.7,0,0.299974,-0.000140697,0
0.7,3.8,0,0.299976,-0.000143908,0
0.7,3.9,0,0.299973,-0.000141025,0
0.7,4,0,0.299972,-0.000127361,0
0.7,4.1,0,0.299973,-0.000121482,0
0.7,4.2,0,0.299985,-0.000160104,0
0.7,4.3,0,0.29997,-0.000114652,0
0.7,4.4,0,0.299972,-0.000108007,0
0.7,4.5,0,0.299976,-0.000109535,0
0.7,4.6,0,0.299974,-0.000109437,0
0.7,4.7,0,0.299972,-9.5397e-05,0
0.7,4.8,0,0.299974,-8.7889e-05,0
0.7,4.9,0,0.299995,-0.000119309,0
0.7,5,0,0.299975,-8.38292e-05,0
0.7,5.1,0,0.299976,-7.54133e-05,0
0.7,5.2,0,0.299981,-7.31426e-05,0
0.7,5.3,0,0.299986,-7.64409e-05,0
0.7,5.4,0,0.299983,-6.38387e-05,0
0.7,5.5,0,0.299983,-5.45191e-05,0
0.7,5.6,0,0.299998,-6.8189e-05,0
0.7,5.7,0,0.299997,-5.24412e-05,0
0.7,5.8,0,0.299994,-4.23268e-05,0
0.7,5.9,0,0.299993,-3.44753e-05,0
0.7,6,0,0.300012,-3.88972e-05,0
0.7,6.1,0,0.300012,-2.95139e-05,0
0.7,6.2,0,0.300008,-1.89165e-05,0
0.7,6.3,0,0.29998,-8.49007e-06,0
0.7,6.4,0,0.300036,-1.4475e-05,0
0.7,6.5,0,0.300029,-3.5136e-06,0
0.7,6.6,0,0.300012,9.38609e-06,0
0.7,6.7,0,0.30004,7.49209e-06,0
0.7,6.8,0,0.300054,1.09173e-05,0