x,y,z,p
0,0,0,0.00899455
0,0.1,0,0.0197904
0,0.2,0,0.0305862
0,0.3,0,0.0432058
0,0.4,0,0.0576492
0,0.5,0,0.0720925
0,0.6,0,0.0866367
0,0.7,0,0.101181
0,0.8,0,0.115776
0,0.9,0,0.130421
0,1,0,0.145067
0,1.1,0,0.159802
0,1.2,0,0.174537
0,1.3,0,0.189301
0,1.4,0,0.204094
0,1.5,0,0.218887
0,1.6,0,0.233683
0,1.7,0,0.248478
0,1.8,0,0.263238
0,1.9,0,0.277961
0,2,0,0.292684
0,2.1,0,0.307237
0,2.2,0,0.321791
0,2.3,0,0.336207
0,2.4,0,0.350486
0,2.5,0,0.364765
0,2.6,0,0.378717
0,2.7,0,0.392667
0,2.8,0,0.40648
0,2.9,0,0.420155
0,3,0,0.433829
0,3.1,0,0.447352
0,3.2,0,0.460875
0,3.3,0,0.474411
0,3.4,0,0.487961
0,3.5,0,0.501511
0,3.6,0,0.515486
0,3.7,0,0.529461
0,3.8,0,0.54412
0,3.9,0,0.559464
0,4,0,0.574808
0,4.1,0,0.591935
0,4.2,0,0.609062
0,4.3,0,0.625767
0,4.4,0,0.642048
0,4.5,0,0.658329
0,4.6,0,0.670886
0,4.7,0,0.683442
0,4.8,0,0.693789
0,4.9,0,0.701926
0,5,0,0.710064
0,5.1,0,0.721458
0,5.2,0,0.729769
0,5.3,0,0.737208
0,5.4,0,0.743235
0,5.5,0,0.747503
0,5.6,0,0.749866
0,5.7,0,0.750367
0,5.8,0,0.749238
0,5.9,0,0.746985
0,6,0,0.74201
0,6.1,0,0.737279
0,6.2,0,0.732548
0,6.3,0,0.727818
0,6.4,0,0.720962
0,6.5,0,0.712962
0,6.6,0,0.704963
0,6.7,0,0.696581
0,6.8,0,0.687308
0,6.9,0,0.678034
0,7,0,0.668761
0,7.1,0,0.65943
0,7.2,0,0.650095
0,7.3,0,0.64076
0,7.4,0,0.631496
0,7.5,0,0.622279
0,7.6,0,0.613062
0,7.7,0,0.603639
0,7.8,0,0.593598
0,7.9,0,0.583558
0,8,0,0.573517
0,8.1,0,0.56253
0,8.2,0,0.551439
0,8.3,0,0.540347
0,8.4,0,0.528697
0,8.5,0,0.516591
0,8.6,0,0.504484
0,8.7,0,0.492221
0,8.8,0,0.479329
0,8.9,0,0.466438
0,9,0,0.453547
0,9.1,0,0.4404
0,9.2,0,0.427209
0,9.3,0,0.414018
0,9.4,0,0.400846
0,9.5,0,0.387693
0,9.6,0,0.374541
0,9.7,0,0.361416
0,9.8,0,0.348445
0,9.9,0,0.335475
0,10,0,0.322505
0,10.1,0,0.309726
0,10.2,0,0.296995
0,10.3,0,0.284264
0,10.4,0,0.271652
0,10.5,0,0.259187
0,10.6,0,0.246721
0,10.7,0,0.234282
0,10.8,0,0.222082
0,10.9,0,0.209882
0,11,0,0.197681
0,11.1,0,0.185665
0,11.2,0,0.173711
0,11.3,0,0.161757
0,11.4,0,0.14989
0,11.5,0,0.138151
0,11.6,0,0.126413
0,11.7,0,0.114683
0,11.8,0,0.103114
0,11.9,0,0.0915454
0,12,0,0.0799768
0,12.1,0,0.0684904
0,12.2,0,0.0570392
0,12.3,0,0.045588
0,12.4,0,0.0351427
0,12.5,0,0.0265657
0,12.6,0,0.0179886
0,12.7,0,0.00941159
0.1,0,0,0.00539673
0.1,0.1,0,0.0161902
0.1,0.2,0,0.0287211
0.1,0.3,0,0.0431171
0.1,0.4,0,0.0576019
0.1,0.5,0,0.0718454
0.1,0.6,0,0.0865831
0.1,0.7,0,0.10098
0.1,0.8,0,0.115578
0.1,0.9,0,0.130373
0.1,1,0,0.144655
0.1,1.1,0,0.159761
0.1,1.2,0,0.174316
0.1,1.3,0,0.189092
0.1,1.4,0,0.204077
0.1,1.5,0,0.218617
0.1,1.6,0,0.233697
0.1,1.7,0,0.248509
0.1,1.8,0,0.26329
0.1,1.9,0,0.278019
0.1,2,0,0.293311
0.1,2.1,0,0.307349
0.1,2.2,0,0.322621
0.1,2.3,0,0.337063
0.1,2.4,0,0.350649
0.1,2.5,0,0.367645
0.1,2.6,0,0.378882
0.1,2.7,0,0.395052
0.1,2.8,0,0.408838
0.1,2.9,0,0.420266
0.1,3,0,0.440338
0.1,3.1,0,0.447392
0.1,3.2,0,0.464945
0.1,3.3,0,0.478428
0.1,3.4,0,0.487894
0.1,3.5,0,0.510227
0.1,3.6,0,0.515129
0.1,3.7,0,0.53314
0.1,3.8,0,0.547472
0.1,3.9,0,0.558453
0.1,4,0,0.579239
0.1,4.1,0,0.591163
0.1,4.2,0,0.608238
0.1,4.3,0,0.626137
0.1,4.4,0,0.643666
0.1,4.5,0,0.65189
0.1,4.6,0,0.672992
0.1,4.7,0,0.679099
0.1,4.8,0,0.689549
0.1,4.9,0,0.704239
0.1,5,0,0.696863
0.1,5.1,0,0.707334
0.1,5.2,0,0.715029
0.1,5.3,0,0.721938
0.1,5.4,0,0.727544
0.1,5.5,0,0.731537
0.1,5.6,0,0.733792
0.1,5.7,0,0.734347
0.1,5.8,0,0.733421
0.1,5.9,0,0.731492
0.1,6,0,0.727576
0.1,6.1,0,0.736059
0.1,6.2,0,0.735821
0.1,6.3,0,0.721644
0.1,6.4,0,0.716601
0.1,6.5,0,0.71407
0.1,6.6,0,0.704259
0.1,6.7,0,0.694631
0.1,6.8,0,0.687809
0.1,6.9,0,0.679044
0.1,7,0,0.671188
0.1,7.1,0,0.65979
0.1,7.2,0,0.649578
0.1,7.3,0,0.644401
0.1,7.4,0,0.634645
0.1,7.5,0,0.622638
0.1,7.6,0,0.615555
0.1,7.7,0,0.608012
0.1,7.8,0,0.594642
0.1,7.9,0,0.584794
0.1,8,0,0.576804
0.1,8.1,0,0.564123
0.1,8.2,0,0.552103
0.1,8.3,0,0.541822
0.1,8.4,0,0.530093
0.1,8.5,0,0.517286
0.1,8.6,0,0.505287
0.1,8.7,0,0.493093
0.1,8.8,0,0.47975
0.1,8.9,0,0.466825
0.1,9,0,0.454093
0.1,9.1,0,0.440638
0.1,9.2,0,0.427254
0.1,9.3,0,0.414266
0.1,9.4,0,0.401041
0.1,9.5,0,0.387596
0.1,9.6,0,0.37456
0.1,9.7,0,0.361596
0.1,9.8,0,0.348351
0.1,9.9,0,0.335355
0.1,10,0,0.322573
0.1,10.1,0,0.309664
0.1,10.2,0,0.29682
0.1,10.3,0,0.284207
0.1,10.4,0,0.271608
0.1,10.5,0,0.259005
0.1,10.6,0,0.246591
0.1,10.7,0,0.234245
0.1,10.8,0,0.221935
0.1,10.9,0,0.209716
0.1,11,0,0.197607
0.1,11.1,0,0.185555
0.1,11.2,0,0.173555
0.1,11.3,0,0.161656
0.1,11.4,0,0.149811
0.1,11.5,0,0.138019
0.1,11.6,0,0.126305
0.1,11.7,0,0.114631
0.1,11.8,0,0.103028
0.1,11.9,0,0.0914514
0.1,12,0,0.0799286
0.1,12.1,0,0.0684417
0.1,12.2,0,0.0569776
0.1,12.3,0,0.0455496
0.1,12.4,0,0.0341407
0.1,12.5,0,0.0227759
0.1,12.6,0,0.0142052
0.1,12.7,0,0.00564696
0.2,0,0,0.00179891
0.2,0.1,0,0.0143274
0.2,0.2,0,0.028591
0.2,0.3,0,0.042987
0.2,0.4,0,0.0573134
0.2,0.5,0,0.0715983
0.2,0.6,0,0.0861889
0.2,0.7,0,0.100632
0.2,0.8,0,0.11523
0.2,0.9,0,0.129812
0.2,1,0,0.144244
0.2,1.1,0,0.159169
0.2,1.2,0,0.173914
0.2,1.3,0,0.188691
0.2,1.4,0,0.203615
0.2,1.5,0,0.218346
0.2,1.6,0,0.233443
0.2,1.7,0,0.248556
0.2,1.8,0,0.263338
0.2,1.9,0,0.27864
0.2,2,0,0.293937
0.2,2.1,0,0.308694
0.2,2.2,0,0.324169
0.2,2.3,0,0.338611
0.2,2.4,0,0.354221
0.2,2.5,0,0.370524
0.2,2.6,0,0.38398
0.2,2.7,0,0.399657
0.2,2.8,0,0.413442
0.2,2.9,0,0.429021
0.2,3,0,0.446847
0.2,3.1,0,0.457931
0.2,3.2,0,0.473045
0.2,3.3,0,0.486528
0.2,3.4,0,0.500694
0.2,3.5,0,0.518943
0.2,3.6,0,0.527881
0.2,3.7,0,0.540855
0.2,3.8,0,0.555187
0.2,3.9,0,0.567247
0.2,4,0,0.58367
0.2,4.1,0,0.595542
0.2,4.2,0,0.607361
0.2,4.3,0,0.625261
0.2,4.4,0,0.63598
0.2,4.5,0,0.645452
0.2,4.6,0,0.660104
0.2,4.7,0,0.668306
0.2,4.8,0,0.678756
0.2,4.9,0,0.684486
0.2,5,0,0.683663
0.2,5.1,0,0.69321
0.2,5.2,0,0.700288
0.2,5.3,0,0.706668
0.2,5.4,0,0.711852
0.2,5.5,0,0.71557
0.2,5.6,0,0.717717
0.2,5.7,0,0.718327
0.2,5.8,0,0.717604
0.2,5.9,0,0.715998
0.2,6,0,0.713142
0.2,6.1,0,0.718477
0.2,6.2,0,0.717418
0.2,6.3,0,0.712131
0.2,6.4,0,0.707088
0.2,6.5,0,0.70424
0.2,6.6,0,0.701335
0.2,6.7,0,0.691945
0.2,6.8,0,0.686015
0.2,6.9,0,0.68061
0.2,7,0,0.673685
0.2,7.1,0,0.663526
0.2,7.2,0,0.656365
0.2,7.3,0,0.649811
0.2,7.4,0,0.640055
0.2,7.5,0,0.630432
0.2,7.6,0,0.621063
0.2,7.7,0,0.613218
0.2,7.8,0,0.601037
0.2,7.9,0,0.589718
0.2,8,0,0.580296
0.2,8.1,0,0.567825
0.2,8.2,0,0.555534
0.2,8.3,0,0.543706
0.2,8.4,0,0.531978
0.2,8.5,0,0.51916
0.2,8.6,0,0.506366
0.2,8.7,0,0.494056
0.2,8.8,0,0.480797
0.2,8.9,0,0.467613
0.2,9,0,0.454664
0.2,9.1,0,0.441252
0.2,9.2,0,0.42791
0.2,9.3,0,0.414634
0.2,9.4,0,0.401409
0.2,9.5,0,0.388106
0.2,9.6,0,0.374844
0.2,9.7,0,0.361817
0.2,9.8,0,0.348662
0.2,9.9,0,0.335606
0.2,10,0,0.322679
0.2,10.1,0,0.309789
0.2,10.2,0,0.296998
0.2,10.3,0,0.284232
0.2,10.4,0,0.271633
0.2,10.5,0,0.259104
0.2,10.6,0,0.2466
0.2,10.7,0,0.234219
0.2,10.8,0,0.221948
0.2,10.9,0,0.209729
0.2,11,0,0.197556
0.2,11.1,0,0.18551
0.2,11.2,0,0.173552
0.2,11.3,0,0.1616
0.2,11.4,0,0.149754
0.2,11.5,0,0.138004
0.2,11.6,0,0.126271
0.2,11.7,0,0.114581
0.2,11.8,0,0.102996
0.2,11.9,0,0.0914386
0.2,12,0,0.0798941
0.2,12.1,0,0.0684083
0.2,12.2,0,0.0569705
0.2,12.3,0,0.0455332
0.2,12.4,0,0.0341243
0.2,12.5,0,0.022744
0.2,12.6,0,0.0113698
0.2,12.7,0,0.00188232
0.3,0,0,0
0.3,0.1,0,0.014192
0.3,0.2,0,0.0284556
0.3,0.3,0,0.0426021
0.3,0.4,0,0.0569284
0.3,0.5,0,0.0713586
0.3,0.6,0,0.0855854
0.3,0.7,0,0.100029
0.3,0.8,0,0.114442
0.3,0.9,0,0.129024
0.3,1,0,0.143872
0.3,1.1,0,0.158311
0.3,1.2,0,0.173056
0.3,1.3,0,0.187944
0.3,1.4,0,0.202868
0.3,1.5,0,0.218264
0.3,1.6,0,0.233109
0.3,1.7,0,0.248222
0.3,1.8,0,0.263861
0.3,1.9,0,0.279163
0.3,2,0,0.294975
0.3,2.1,0,0.310677
0.3,2.2,0,0.326152
0.3,2.3,0,0.34282
0.3,2.4,0,0.35843
0.3,2.5,0,0.373846
0.3,2.6,0,0.391287
0.3,2.7,0,0.406963
0.3,2.8,0,0.424552
0.3,2.9,0,0.440131
0.3,3,0,0.453281
0.3,3.1,0,0.472858
0.3,3.2,0,0.487972
0.3,3.3,0,0.504002
0.3,3.4,0,0.518168
0.3,3.5,0,0.526928
0.3,3.6,0,0.54527
0.3,3.7,0,0.558244
0.3,3.8,0,0.568658
0.3,3.9,0,0.580718
0.3,4,0,0.587849
0.3,4.1,0,0.599796
0.3,4.2,0,0.611615
0.3,4.3,0,0.6175
0.3,4.4,0,0.628219
0.3,4.5,0,0.640429
0.3,4.6,0,0.64211
0.3,4.7,0,0.650312
0.3,4.8,0,0.65358
0.3,4.9,0,0.659309
0.3,5,0,0.67468
0.3,5.1,0,0.683935
0.3,5.2,0,0.690728
0.3,5.3,0,0.696802
0.3,5.4,0,0.70173
0.3,5.5,0,0.705292
0.3,5.6,0,0.707402
0.3,5.7,0,0.708085
0.3,5.8,0,0.707507
0.3,5.9,0,0.706044
0.3,6,0,0.70351
0.3,6.1,0,0.691443
0.3,6.2,0,0.690385
0.3,6.3,0,0.694711
0.3,6.4,0,0.696192
0.3,6.5,0,0.693221
0.3,6.6,0,0.690316
0.3,6.7,0,0.690989
0.3,6.8,0,0.686291
0.3,6.9,0,0.680886
0.3,7,0,0.676253
0.3,7.1,0,0.673239
0.3,7.2,0,0.666078
0.3,7.3,0,0.657848
0.3,7.4,0,0.651315
0.3,7.5,0,0.642358
0.3,7.6,0,0.632989
0.3,7.7,0,0.62001
0.3,7.8,0,0.609935
0.3,7.9,0,0.598616
0.3,8,0,0.584999
0.3,8.1,0,0.572896
0.3,8.2,0,0.560605
0.3,8.3,0,0.547843
0.3,8.4,0,0.534402
0.3,8.5,0,0.521627
0.3,8.6,0,0.508833
0.3,8.7,0,0.49522
0.3,8.8,0,0.482182
0.3,8.9,0,0.468998
0.3,9,0,0.455383
0.3,9.1,0,0.44215
0.3,9.2,0,0.428808
0.3,9.3,0,0.415372
0.3,9.4,0,0.401907
0.3,9.5,0,0.388683
0.3,9.6,0,0.37542
0.3,9.7,0,0.361963
0.3,9.8,0,0.34897
0.3,9.9,0,0.335913
0.3,10,0,0.322757
0.3,10.1,0,0.309905
0.3,10.2,0,0.297114
0.3,10.3,0,0.28431
0.3,10.4,0,0.27159
0.3,10.5,0,0.259088
0.3,10.6,0,0.246584
0.3,10.7,0,0.234085
0.3,10.8,0,0.221858
0.3,10.9,0,0.209639
0.3,11,0,0.197425
0.3,11.1,0,0.185395
0.3,11.2,0,0.173437
0.3,11.3,0,0.161481
0.3,11.4,0,0.14963
0.3,11.5,0,0.137893
0.3,11.6,0,0.12616
0.3,11.7,0,0.114465
0.3,11.8,0,0.102908
0.3,11.9,0,0.0913507
0.3,12,0,0.0798095
0.3,12.1,0,0.0683584
0.3,12.2,0,0.0569206
0.3,12.3,0,0.0454836
0.3,12.4,0,0.0340968
0.3,12.5,0,0.0227282
0.3,12.6,0,0.011354
0.3,12.7,0,0
0.4,0,0,0
0.4,0.1,0,0.0141205
0.4,0.2,0,0.028336
0.4,0.3,0,0.0424825
0.4,0.4,0,0.0565922
0.4,0.5,0,0.0711262
0.4,0.6,0,0.0851365
0.4,0.7,0,0.0997064
0.4,0.8,0,0.11412
0.4,0.9,0,0.128426
0.4,1,0,0.143541
0.4,1.1,0,0.157673
0.4,1.2,0,0.17285
0.4,1.3,0,0.187737
0.4,1.4,0,0.202501
0.4,1.5,0,0.218371
0.4,1.6,0,0.232947
0.4,1.7,0,0.248872
0.4,1.8,0,0.264511
0.4,1.9,0,0.280104
0.4,2,0,0.296425
0.4,2.1,0,0.312353
0.4,2.2,0,0.328654
0.4,2.3,0,0.345322
0.4,2.4,0,0.362391
0.4,2.5,0,0.377612
0.4,2.6,0,0.396818
0.4,2.7,0,0.41209
0.4,2.8,0,0.429679
0.4,2.9,0,0.448919
0.4,3,0,0.459638
0.4,3.1,0,0.483678
0.4,3.2,0,0.495133
0.4,3.3,0,0.511164
0.4,3.4,0,0.530828
0.4,3.5,0,0.534183
0.4,3.6,0,0.557892
0.4,3.7,0,0.564587
0.4,3.8,0,0.575001
0.4,3.9,0,0.589573
0.4,4,0,0.591776
0.4,4.1,0,0.60385
0.4,4.2,0,0.611539
0.4,4.3,0,0.617424
0.4,4.4,0,0.623121
0.4,4.5,0,0.636821
0.4,4.6,0,0.631981
0.4,4.7,0,0.645391
0.4,4.8,0,0.648658
0.4,4.9,0,0.644903
0.4,5,0,0.669914
0.4,5.1,0,0.679508
0.4,5.2,0,0.686346
0.4,5.3,0,0.692341
0.4,5.4,0,0.697179
0.4,5.5,0,0.700702
0.4,5.6,0,0.702846
0.4,5.7,0,0.703621
0.4,5.8,0,0.70313
0.4,5.9,0,0.70163
0.4,6,0,0.698678
0.4,6.1,0,0.68119
0.4,6.2,0,0.674809
0.4,6.3,0,0.690416
0.4,6.4,0,0.691896
0.4,6.5,0,0.687418
0.4,6.6,0,0.688923
0.4,6.7,0,0.689764
0.4,6.8,0,0.686272
0.4,6.9,0,0.683422
0.4,7,0,0.679263
0.4,7.1,0,0.677918
0.4,7.2,0,0.674308
0.4,7.3,0,0.663548
0.4,7.4,0,0.657015
0.4,7.5,0,0.65204
0.4,7.6,0,0.639321
0.4,7.7,0,0.62588
0.4,7.8,0,0.617524
0.4,7.9,0,0.60479
0.4,8,0,0.589441
0.4,8.1,0,0.577507
0.4,8.2,0,0.564757
0.4,8.3,0,0.550409
0.4,8.4,0,0.536968
0.4,8.5,0,0.524084
0.4,8.6,0,0.510166
0.4,8.7,0,0.496397
0.4,8.8,0,0.483523
0.4,8.9,0,0.469878
0.4,9,0,0.455865
0.4,9.1,0,0.442689
0.4,9.2,0,0.429379
0.4,9.3,0,0.415536
0.4,9.4,0,0.402071
0.4,9.5,0,0.388975
0.4,9.6,0,0.375464
0.4,9.7,0,0.361941
0.4,9.8,0,0.349006
0.4,9.9,0,0.335882
0.4,10,0,0.322612
0.4,10.1,0,0.309768
0.4,10.2,0,0.296979
0.4,10.3,0,0.284089
0.4,10.4,0,0.27137
0.4,10.5,0,0.258869
0.4,10.6,0,0.246335
0.4,10.7,0,0.233828
0.4,10.8,0,0.221595
0.4,10.9,0,0.209373
0.4,11,0,0.197167
0.4,11.1,0,0.185135
0.4,11.2,0,0.173176
0.4,11.3,0,0.161249
0.4,11.4,0,0.149398
0.4,11.5,0,0.137656
0.4,11.6,0,0.12596
0.4,11.7,0,0.114278
0.4,11.8,0,0.102721
0.4,11.9,0,0.0911941
0.4,12,0,0.0796802
0.4,12.1,0,0.0682294
0.4,12.2,0,0.0568183
0.4,12.3,0,0.0454196
0.4,12.4,0,0.0340328
0.4,12.5,0,0.0226764
0.4,12.6,0,0.011344
0.4,12.7,0,0
0.5,0,0,0
0.5,0.1,0,0.014144
0.5,0.2,0,0.0282879
0.5,0.3,0,0.0424667
0.5,0.4,0,0.0566803
0.5,0.5,0,0.0708939
0.5,0.6,0,0.0852473
0.5,0.7,0,0.0996007
0.5,0.8,0,0.114064
0.5,0.9,0,0.128636
0.5,1,0,0.143209
0.5,1.1,0,0.15808
0.5,1.2,0,0.172951
0.5,1.3,0,0.188004
0.5,1.4,0,0.20324
0.5,1.5,0,0.218477
0.5,1.6,0,0.234133
0.5,1.7,0,0.24979
0.5,1.8,0,0.26567
0.5,1.9,0,0.281772
0.5,2,0,0.297874
0.5,2.1,0,0.314402
0.5,2.2,0,0.330929
0.5,2.3,0,0.34763
0.5,2.4,0,0.364504
0.5,2.5,0,0.381378
0.5,2.6,0,0.398415
0.5,2.7,0,0.415452
0.5,2.8,0,0.432375
0.5,2.9,0,0.449186
0.5,3,0,0.465996
0.5,3.1,0,0.481914
0.5,3.2,0,0.497832
0.5,3.3,0,0.512921
0.5,3.4,0,0.527179
0.5,3.5,0,0.541438
0.5,3.6,0,0.5535
0.5,3.7,0,0.565562
0.5,3.8,0,0.576415
0.5,3.9,0,0.586059
0.5,4,0,0.595703
0.5,4.1,0,0.60352
0.5,4.2,0,0.611336
0.5,4.3,0,0.618838
0.5,4.4,0,0.626026
0.5,4.5,0,0.633214
0.5,4.6,0,0.640102
0.5,4.7,0,0.64699
0.5,4.8,0,0.653377
0.5,4.9,0,0.659263
0.5,5,0,0.665149
0.5,5.1,0,0.675081
0.5,5.2,0,0.681964
0.5,5.3,0,0.687881
0.5,5.4,0,0.692627
0.5,5.5,0,0.696113
0.5,5.6,0,0.698291
0.5,5.7,0,0.699156
0.5,5.8,0,0.698753
0.5,5.9,0,0.697216
0.5,6,0,0.693846
0.5,6.1,0,0.693188
0.5,6.2,0,0.692529
0.5,6.3,0,0.69187
0.5,6.4,0,0.691241
0.5,6.5,0,0.690628
0.5,6.6,0,0.690015
0.5,6.7,0,0.688913
0.5,6.8,0,0.686667
0.5,6.9,0,0.684422
0.5,7,0,0.682176
0.5,7.1,0,0.677168
0.5,7.2,0,0.672015
0.5,7.3,0,0.666862
0.5,7.4,0,0.659255
0.5,7.5,0,0.650013
0.5,7.6,0,0.640771
0.5,7.7,0,0.630744
0.5,7.8,0,0.618358
0.5,7.9,0,0.605972
0.5,8,0,0.593586
0.5,8.1,0,0.580025
0.5,8.2,0,0.566334
0.5,8.3,0,0.552642
0.5,8.4,0,0.538874
0.5,8.5,0,0.525043
0.5,8.6,0,0.511213
0.5,8.7,0,0.497408
0.5,8.8,0,0.483705
0.5,8.9,0,0.470003
0.5,9,0,0.456301
0.5,9.1,0,0.442703
0.5,9.2,0,0.429123
0.5,9.3,0,0.415543
0.5,9.4,0,0.402052
0.5,9.5,0,0.388651
0.5,9.6,0,0.37525
0.5,9.7,0,0.361887
0.5,9.8,0,0.348739
0.5,9.9,0,0.335591
0.5,10,0,0.322443
0.5,10.1,0,0.309535
0.5,10.2,0,0.296687
0.5,10.3,0,0.28384
0.5,10.4,0,0.271134
0.5,10.5,0,0.258603
0.5,10.6,0,0.246072
0.5,10.7,0,0.233572
0.5,10.8,0,0.221352
0.5,10.9,0,0.209132
0.5,11,0,0.196912
0.5,11.1,0,0.184903
0.5,11.2,0,0.172965
0.5,11.3,0,0.161027
0.5,11.4,0,0.149184
0.5,11.5,0,0.137484
0.5,11.6,0,0.125784
0.5,11.7,0,0.114094
0.5,11.8,0,0.102579
0.5,11.9,0,0.0910652
0.5,12,0,0.079551
0.5,12.1,0,0.0681244
0.5,12.2,0,0.0567355
0.5,12.3,0,0.0453465
0.5,12.4,0,0.0339795
0.5,12.5,0,0.022653
0.5,12.6,0,0.0113265
0.5,12.7,0,0
0.6,0,0,0
0.6,0.1,0,0.0141318
0.6,0.2,0,0.0282559
0.6,0.3,0,0.0424329
0.6,0.4,0,0.0566646
0.6,0.5,0,0.070791
0.6,0.6,0,0.0851823
0.6,0.7,0,0.0994992
0.6,0.8,0,0.113969
0.6,0.9,0,0.128584
0.6,1,0,0.143071
0.6,1.1,0,0.158154
0.6,1.2,0,0.172939
0.6,1.3,0,0.188127
0.6,1.4,0,0.203582
0.6,1.5,0,0.218456
0.6,1.6,0,0.234878
0.6,1.7,0,0.250193
0.6,1.8,0,0.266311
0.6,1.9,0,0.282992
0.6,2,0,0.298002
0.6,2.1,0,0.316048
0.6,2.2,0,0.331836
0.6,2.3,0,0.348624
0.6,2.4,0,0.366326
0.6,2.5,0,0.38155
0.6,2.6,0,0.399978
0.6,2.7,0,0.416286
0.6,2.8,0,0.432804
0.6,2.9,0,0.449938
0.6,3,0,0.465913
0.6,3.1,0,0.481449
0.6,3.2,0,0.497439
0.6,3.3,0,0.511945
0.6,3.4,0,0.525551
0.6,3.5,0,0.54105
0.6,3.6,0,0.551482
0.6,3.7,0,0.564525
0.6,3.8,0,0.575861
0.6,3.9,0,0.585007
0.6,4,0,0.596501
0.6,4.1,0,0.604381
0.6,4.2,0,0.612923
0.6,4.3,0,0.621479
0.6,4.4,0,0.628996
0.6,4.5,0,0.637864
0.6,4.6,0,0.648757
0.6,4.7,0,0.654974
0.6,4.8,0,0.664948
0.6,4.9,0,0.675093
0.6,5,0,0.674299
0.6,5.1,0,0.685035
0.6,5.2,0,0.692362
0.6,5.3,0,0.698639
0.6,5.4,0,0.703659
0.6,5.5,0,0.707313
0.6,5.6,0,0.709544
0.6,5.7,0,0.710346
0.6,5.8,0,0.709768
0.6,5.9,0,0.707919
0.6,6,0,0.703686
0.6,6.1,0,0.707297
0.6,6.2,0,0.70809
0.6,6.3,0,0.701122
0.6,6.4,0,0.697401
0.6,6.5,0,0.695875
0.6,6.6,0,0.694601
0.6,6.7,0,0.692534
0.6,6.8,0,0.689483
0.6,6.9,0,0.687102
0.6,7,0,0.684497
0.6,7.1,0,0.680079
0.6,7.2,0,0.675176
0.6,7.3,0,0.668903
0.6,7.4,0,0.661677
0.6,7.5,0,0.653491
0.6,7.6,0,0.643362
0.6,7.7,0,0.632567
0.6,7.8,0,0.621621
0.6,7.9,0,0.60904
0.6,8,0,0.595302
0.6,8.1,0,0.58199
0.6,8.2,0,0.568486
0.6,8.3,0,0.554198
0.6,8.4,0,0.539924
0.6,8.5,0,0.525801
0.6,8.6,0,0.51188
0.6,8.7,0,0.497849
0.6,8.8,0,0.483692
0.6,8.9,0,0.469926
0.6,9,0,0.456219
0.6,9.1,0,0.442393
0.6,9.2,0,0.428683
0.6,9.3,0,0.415114
0.6,9.4,0,0.401557
0.6,9.5,0,0.388033
0.6,9.6,0,0.374646
0.6,9.7,0,0.361296
0.6,9.8,0,0.348064
0.6,9.9,0,0.334906
0.6,10,0,0.321801
0.6,10.1,0,0.308855
0.6,10.2,0,0.295975
0.6,10.3,0,0.283176
0.6,10.4,0,0.270483
0.6,10.5,0,0.257909
0.6,10.6,0,0.245413
0.6,10.7,0,0.232982
0.6,10.8,0,0.220719
0.6,10.9,0,0.208497
0.6,11,0,0.19637
0.6,11.1,0,0.18436
0.6,11.2,0,0.172402
0.6,11.3,0,0.160536
0.6,11.4,0,0.148743
0.6,11.5,0,0.137026
0.6,11.6,0,0.125362
0.6,11.7,0,0.113757
0.6,11.8,0,0.102241
0.6,11.9,0,0.0907289
0.6,12,0,0.0792957
0.6,12.1,0,0.0679055
0.6,12.2,0,0.0565276
0.6,12.3,0,0.0451851
0.6,12.4,0,0.0338754
0.6,12.5,0,0.0225872
0.6,12.6,0,0.0112774
0.6,12.7,0,0
0.7,0,0,0
0.7,0.1,0,0.014112
0.7,0.2,0,0.0282041
0.7,0.3,0,0.0423811
0.7,0.4,0,0.0565437
0.7,0.5,0,0.0706881
0.7,0.6,0,0.0850429
0.7,0.7,0,0.0993612
0.7,0.8,0,0.113831
0.7,0.9,0,0.128403
0.7,1,0,0.142933
0.7,1.1,0,0.157931
0.7,1.2,0,0.172843
0.7,1.3,0,0.188031
0.7,1.4,0,0.203342
0.7,1.5,0,0.218435
0.7,1.6,0,0.234516
0.7,1.7,0,0.250256
0.7,1.8,0,0.266373
0.7,1.9,0,0.28254
0.7,2,0,0.298129
0.7,2.1,0,0.315435
0.7,2.2,0,0.332001
0.7,2.3,0,0.34879
0.7,2.4,0,0.36567
0.7,2.5,0,0.381722
0.7,2.6,0,0.399421
0.7,2.7,0,0.416391
0.7,2.8,0,0.432909
0.7,2.9,0,0.449532
0.7,3,0,0.46583
0.7,3.1,0,0.481438
0.7,3.2,0,0.497117
0.7,3.3,0,0.511624
0.7,3.4,0,0.525816
0.7,3.5,0,0.540662
0.7,3.6,0,0.552075
0.7,3.7,0,0.564468
0.7,3.8,0,0.575804
0.7,3.9,0,0.586303
0.7,4,0,0.5973
0.7,4.1,0,0.605904
0.7,4.2,0,0.615234
0.7,4.3,0,0.62379
0.7,4.4,0,0.633317
0.7,4.5,0,0.642515
0.7,4.6,0,0.652736
0.7,4.7,0,0.662285
0.7,4.8,0,0.67226
0.7,4.9,0,0.679984
0.7,5,0,0.683449
0.7,5.1,0,0.694988
0.7,5.2,0,0.70276
0.7,5.3,0,0.709396
0.7,5.4,0,0.71469
0.7,5.5,0,0.718514
0.7,5.6,0,0.720797
0.7,5.7,0,0.721535
0.7,5.8,0,0.720783
0.7,5.9,0,0.718621
0.7,6,0,0.713526
0.7,6.1,0,0.715033
0.7,6.2,0,0.712271
0.7,6.3,0,0.708143
0.7,6.4,0,0.704422
0.7,6.5,0,0.701474
0.7,6.6,0,0.698504
0.7,6.7,0,0.696398
0.7,6.8,0,0.693121
0.7,6.9,0,0.689711
0.7,7,0,0.6868
0.7,7.1,0,0.682049
0.7,7.2,0,0.676345
0.7,7.3,0,0.670468
0.7,7.4,0,0.663242
0.7,7.5,0,0.654029
0.7,7.6,0,0.644711
0.7,7.7,0,0.63403
0.7,7.8,0,0.6223
0.7,7.9,0,0.610002
0.7,8,0,0.596883
0.7,8.1,0,0.583416
0.7,8.2,0,0.569481
0.7,8.3,0,0.555451
0.7,8.4,0,0.541178
0.7,8.5,0,0.526829
0.7,8.6,0,0.51246
0.7,8.7,0,0.498381
0.7,8.8,0,0.484222
0.7,8.9,0,0.470062
0.7,9,0,0.456137
0.7,9.1,0,0.442314
0.7,9.2,0,0.42848
0.7,9.3,0,0.414691
0.7,9.4,0,0.401134
0.7,9.5,0,0.387612
0.7,9.6,0,0.374094
0.7,9.7,0,0.360718
0.7,9.8,0,0.347506
0.7,9.9,0,0.334317
0.7,10,0,0.321168
0.7,10.1,0,0.30823
0.7,10.2,0,0.295385
0.7,10.3,0,0.282547
0.7,10.4,0,0.269854
0.7,10.5,0,0.257337
0.7,10.6,0,0.244838
0.7,10.7,0,0.232395
0.7,10.8,0,0.220173
0.7,10.9,0,0.208003
0.7,11,0,0.195852
0.7,11.1,0,0.183849
0.7,11.2,0,0.171975
0.7,11.3,0,0.160103
0.7,11.4,0,0.14831
0.7,11.5,0,0.136658
0.7,11.6,0,0.12503
0.7,11.7,0,0.113421
0.7,11.8,0,0.101935
0.7,11.9,0,0.0904994
0.7,12,0,0.0790647
0.7,12.1,0,0.0676766
0.7,12.2,0,0.0563722
0.7,12.3,0,0.0450675
0.7,12.4,0,0.0337578
0.7,12.5,0,0.0225034
0.7,12.6,0,0.0112647
0.7,12.7,0,0
0.8,0,0,0
0.8,0.1,0,0.0140551
0.8,0.2,0,0.0281472
0.8,0.3,0,0.042189
0.8,0.4,0,0.0563515
0.8,0.5,0,0.0704642
0.8,0.6,0,0.0847644
0.8,0.7,0,0.0990827
0.8,0.8,0,0.113455
0.8,0.9,0,0.128028
0.8,1,0,0.142531
0.8,1.1,0,0.157434
0.8,1.2,0,0.172347
0.8,1.3,0,0.187361
0.8,1.4,0,0.202673
0.8,1.5,0,0.217905
0.8,1.6,0,0.233596
0.8,1.7,0,0.249336
0.8,1.8,0,0.265132
0.8,1.9,0,0.281299
0.8,2,0,0.297459
0.8,2.1,0,0.313894
0.8,2.2,0,0.33046
0.8,2.3,0,0.347179
0.8,2.4,0,0.364059
0.8,2.5,0,0.380932
0.8,2.6,0,0.398171
0.8,2.7,0,0.415141
0.8,2.8,0,0.432489
0.8,2.9,0,0.449112
0.8,3,0,0.464808
0.8,3.1,0,0.482131
0.8,3.2,0,0.49781
0.8,3.3,0,0.513396
0.8,3.4,0,0.527589
0.8,3.5,0,0.539729
0.8,3.6,0,0.554594
0.8,3.7,0,0.566987
0.8,3.8,0,0.578546
0.8,3.9,0,0.589045
0.8,4,0,0.598365
0.8,4.1,0,0.608373
0.8,4.2,0,0.617703
0.8,4.3,0,0.627363
0.8,4.4,0,0.63689
0.8,4.5,0,0.648591
0.8,4.6,0,0.656439
0.8,4.7,0,0.665989
0.8,4.8,0,0.674321
0.8,4.9,0,0.682045
0.8,5,0,0.693981
0.8,5.1,0,0.70628
0.8,5.2,0,0.714488
0.8,5.3,0,0.72147
0.8,5.4,0,0.72702
0.8,5.5,0,0.730995
0.8,5.6,0,0.733319
0.8,5.7,0,0.733989
0.8,5.8,0,0.733062
0.8,5.9,0,0.730598
0.8,6,0,0.724686
0.8,6.1,0,0.716684
0.8,6.2,0,0.713922
0.8,6.3,0,0.713053
0.8,6.4,0,0.710075
0.8,6.5,0,0.707039
0.8,6.6,0,0.70407
0.8,6.7,0,0.701013
0.8,6.8,0,0.697166
0.8,6.9,0,0.693756
0.8,7,0,0.689638
0.8,7.1,0,0.685167
0.8,7.2,0,0.679463
0.8,7.3,0,0.672856
0.8,7.4,0,0.665154
0.8,7.5,0,0.656012
0.8,7.6,0,0.646695
0.8,7.7,0,0.634992
0.8,7.8,0,0.623513
0.8,7.9,0,0.611215
0.8,8,0,0.597795
0.8,8.1,0,0.584731
0.8,8.2,0,0.570795
0.8,8.3,0,0.556586
0.8,8.4,0,0.542117
0.8,8.5,0,0.527805
0.8,8.6,0,0.513436
0.8,8.7,0,0.498688
0.8,8.8,0,0.484522
0.8,8.9,0,0.470361
0.8,9,0,0.456043
0.8,9.1,0,0.442038
0.8,9.2,0,0.428204
0.8,9.3,0,0.414345
0.8,9.4,0,0.400549
0.8,9.5,0,0.387016
0.8,9.6,0,0.373499
0.8,9.7,0,0.359982
0.8,9.8,0,0.346759
0.8,9.9,0,0.333571
0.8,10,0,0.320386
0.8,10.1,0,0.307446
0.8,10.2,0,0.294601
0.8,10.3,0,0.281762
0.8,10.4,0,0.269091
0.8,10.5,0,0.256586
0.8,10.6,0,0.244087
0.8,10.7,0,0.231676
0.8,10.8,0,0.219499
0.8,10.9,0,0.20733
0.8,11,0,0.195202
0.8,11.1,0,0.183278
0.8,11.2,0,0.171403
0.8,11.3,0,0.159536
0.8,11.4,0,0.147824
0.8,11.5,0,0.136199
0.8,11.6,0,0.124571
0.8,11.7,0,0.113019
0.8,11.8,0,0.101598
0.8,11.9,0,0.090162
0.8,12,0,0.0787601
0.8,12.1,0,0.0674697
0.8,12.2,0,0.0561654
0.8,12.3,0,0.0448627
0.8,12.4,0,0.0336519
0.8,12.5,0,0.0224298
0.8,12.6,0,0.0111911
0.8,12.7,0,0
0.9,0,0,0
0.9,0.1,0,0.014018
0.9,0.2,0,0.0279707
0.9,0.3,0,0.0420124
0.9,0.4,0,0.0560564
0.9,0.5,0,0.0701193
0.9,0.6,0,0.0844014
0.9,0.7,0,0.0985777
0.9,0.8,0,0.11295
0.9,0.9,0,0.127431
0.9,1,0,0.141865
0.9,1.1,0,0.156759
0.9,1.2,0,0.171506
0.9,1.3,0,0.18652
0.9,1.4,0,0.201713
0.9,1.5,0,0.216865
0.9,1.6,0,0.232508
0.9,1.7,0,0.24808
0.9,1.8,0,0.263875
0.9,1.9,0,0.279839
0.9,2,0,0.295991
0.9,2.1,0,0.312296
0.9,2.2,0,0.328826
0.9,2.3,0,0.345545
0.9,2.4,0,0.362314
0.9,2.5,0,0.37918
0.9,2.6,0,0.396688
0.9,2.7,0,0.413275
0.9,2.8,0,0.430623
0.9,2.9,0,0.448076
0.9,3,0,0.462845
0.9,3.1,0,0.481813
0.9,3.2,0,0.495912
0.9,3.3,0,0.511498
0.9,3.4,0,0.528163
0.9,3.5,0,0.538251
0.9,3.6,0,0.555587
0.9,3.7,0,0.566484
0.9,3.8,0,0.578043
0.9,3.9,0,0.591557
0.9,4,0,0.599698
0.9,4.1,0,0.610384
0.9,4.2,0,0.621882
0.9,4.3,0,0.631542
0.9,4.4,0,0.642218
0.9,4.5,0,0.656094
0.9,4.6,0,0.66224
0.9,4.7,0,0.676281
0.9,4.8,0,0.684614
0.9,4.9,0,0.689747
0.9,5,0,0.705894
0.9,5.1,0,0.71891
0.9,5.2,0,0.727545
0.9,5.3,0,0.73486
0.9,5.4,0,0.740646
0.9,5.5,0,0.744757
0.9,5.6,0,0.74711
0.9,5.7,0,0.747706
0.9,5.8,0,0.746603
0.9,5.9,0,0.74385
0.9,6,0,0.737167
0.9,6.1,0,0.726584
0.9,6.2,0,0.719905
0.9,6.3,0,0.722981
0.9,6.4,0,0.720003
0.9,6.5,0,0.713908
0.9,6.6,0,0.710344
0.9,6.7,0,0.707306
0.9,6.8,0,0.702714
0.9,6.9,0,0.697368
0.9,7,0,0.692815
0.9,7.1,0,0.688835
0.9,7.2,0,0.682845
0.9,7.3,0,0.673901
0.9,7.4,0,0.666199
0.9,7.5,0,0.658571
0.9,7.6,0,0.64711
0.9,7.7,0,0.635154
0.9,7.8,0,0.624806
0.9,7.9,0,0.612199
0.9,8,0,0.597933
0.9,8.1,0,0.585179
0.9,8.2,0,0.571899
0.9,8.3,0,0.55687
0.9,8.4,0,0.542401
0.9,8.5,0,0.528378
0.9,8.6,0,0.513605
0.9,8.7,0,0.498775
0.9,8.8,0,0.484603
0.9,8.9,0,0.470173
0.9,9,0,0.45571
0.9,9.1,0,0.441684
0.9,9.2,0,0.42766
0.9,9.3,0,0.41366
0.9,9.4,0,0.399864
0.9,9.5,0,0.386245
0.9,9.6,0,0.372622
0.9,9.7,0,0.359094
0.9,9.8,0,0.345841
0.9,9.9,0,0.332604
0.9,10,0,0.319425
0.9,10.1,0,0.306479
0.9,10.2,0,0.293617
0.9,10.3,0,0.280818
0.9,10.4,0,0.268147
0.9,10.5,0,0.25563
0.9,10.6,0,0.2432
0.9,10.7,0,0.23081
0.9,10.8,0,0.218627
0.9,10.9,0,0.206519
0.9,11,0,0.194447
0.9,11.1,0,0.182523
0.9,11.2,0,0.170689
0.9,11.3,0,0.158913
0.9,11.4,0,0.147201
0.9,11.5,0,0.135591
0.9,11.6,0,0.124066
0.9,11.7,0,0.112541
0.9,11.8,0,0.101128
0.9,11.9,0,0.0897796
0.9,12,0,0.0784351
0.9,12.1,0,0.0671459
0.9,12.2,0,0.0559093
0.9,12.3,0,0.0446975
0.9,12.4,0,0.0334867
0.9,12.5,0,0.0223008
0.9,12.6,0,0.0111676
0.9,12.7,0,0
1,0,0,0
1,0.1,0,0.0139156
1,0.2,0,0.0278312
1,0.3,0,0.0417861
1,0.4,0,0.0557802
1,0.5,0,0.0697743
1,0.6,0,0.0839325
1,0.7,0,0.0980907
1,0.8,0,0.112376
1,0.9,0,0.126788
1,1,0,0.141199
1,1.1,0,0.155936
1,1.2,0,0.170673
1,1.3,0,0.185599
1,1.4,0,0.200712
1,1.5,0,0.215826
1,1.6,0,0.231349
1,1.7,0,0.246871
1,1.8,0,0.262611
1,1.9,0,0.278567
1,2,0,0.294524
1,2.1,0,0.310923
1,2.2,0,0.327323
1,2.3,0,0.343904
1,2.4,0,0.360666
1,2.5,0,0.377428
1,2.6,0,0.394284
1,2.7,0,0.411139
1,2.8,0,0.42783
1,2.9,0,0.444356
1,3,0,0.460883
1,3.1,0,0.476626
1,3.2,0,0.492369
1,3.3,0,0.507547
1,3.4,0,0.52216
1,3.5,0,0.536773
1,3.6,0,0.550141
1,3.7,0,0.56351
1,3.8,0,0.576361
1,3.9,0,0.588696
1,4,0,0.601031
1,4.1,0,0.613207
1,4.2,0,0.625384
1,4.3,0,0.637897
1,4.4,0,0.650747
1,4.5,0,0.663596
1,4.6,0,0.675936
1,4.7,0,0.688276
1,4.8,0,0.699118
1,4.9,0,0.708463
1,5,0,0.717808
1,5.1,0,0.73154
1,5.2,0,0.740603
1,5.3,0,0.748249
1,5.4,0,0.754273
1,5.5,0,0.758519
1,5.6,0,0.7609
1,5.7,0,0.761423
1,5.8,0,0.760145
1,5.9,0,0.757102
1,6,0,0.749649
1,6.1,0,0.744981
1,6.2,0,0.740314
1,6.3,0,0.735647
1,6.4,0,0.73032
1,6.5,0,0.724636
1,6.6,0,0.718953
1,6.7,0,0.713255
1,6.8,0,0.70752
1,6.9,0,0.701786
1,7,0,0.696051
1,7.1,0,0.688834
1,7.2,0,0.681539
1,7.3,0,0.674244
1,7.4,0,0.665339
1,7.5,0,0.655363
1,7.6,0,0.645386
1,7.7,0,0.634824
1,7.8,0,0.622508
1,7.9,0,0.610192
1,8,0,0.597876
1,8.1,0,0.5842
1,8.2,0,0.570373
1,8.3,0,0.556547
1,8.4,0,0.542341
1,8.5,0,0.527825
1,8.6,0,0.51331
1,8.7,0,0.498802
1,8.8,0,0.484327
1,8.9,0,0.469853
1,9,0,0.455378
1,9.1,0,0.441225
1,9.2,0,0.427128
1,9.3,0,0.413032
1,9.4,0,0.39915
1,9.5,0,0.385481
1,9.6,0,0.371813
1,9.7,0,0.358208
1,9.8,0,0.344964
1,9.9,0,0.33172
1,10,0,0.318476
1,10.1,0,0.305562
1,10.2,0,0.29273
1,10.3,0,0.279898
1,10.4,0,0.267241
1,10.5,0,0.2548
1,10.6,0,0.242358
1,10.7,0,0.229952
1,10.8,0,0.217867
1,10.9,0,0.205781
1,11,0,0.193695
1,11.1,0,0.181842
1,11.2,0,0.170066
1,11.3,0,0.158291
1,11.4,0,0.146617
1,11.5,0,0.135098
1,11.6,0,0.123578
1,11.7,0,0.112068
1,11.8,0,0.100746
1,11.9,0,0.0894247
1,12,0,0.0781032
1,12.1,0,0.0668772
1,12.2,0,0.0556921
1,12.3,0,0.0445071
1,12.4,0,0.0333464
1,12.5,0,0.0222309
1,12.6,0,0.0111155
1,12.7,0,0
1.1,0,0,0
1.1,0.1,0,0.0137716
1.1,0.2,0,0.027576
1.1,0.3,0,0.0414071
1.1,0.4,0,0.0553886
1.1,0.5,0,0.0690517
1.1,0.6,0,0.0832509
1.1,0.7,0,0.0972194
1.1,0.8,0,0.111376
1.1,0.9,0,0.125849
1.1,1,0,0.139808
1.1,1.1,0,0.154758
1.1,1.2,0,0.169227
1.1,1.3,0,0.184042
1.1,1.4,0,0.199314
1.1,1.5,0,0.213809
1.1,1.6,0,0.229767
1.1,1.7,0,0.244952
1.1,1.8,0,0.260624
1.1,1.9,0,0.276851
1.1,2,0,0.292133
1.1,2.1,0,0.309109
1.1,2.2,0,0.325232
1.1,2.3,0,0.341754
1.1,2.4,0,0.358734
1.1,2.5,0,0.375297
1.1,2.6,0,0.391976
1.1,2.7,0,0.409191
1.1,2.8,0,0.425457
1.1,2.9,0,0.441198
1.1,3,0,0.460218
1.1,3.1,0,0.472443
1.1,3.2,0,0.490555
1.1,3.3,0,0.505452
1.1,3.4,0,0.517414
1.1,3.5,0,0.538589
1.1,3.6,0,0.545927
1.1,3.7,0,0.562881
1.1,3.8,0,0.576827
1.1,3.9,0,0.586671
1.1,4,0,0.60512
1.1,4.1,0,0.615509
1.1,4.2,0,0.629338
1.1,4.3,0,0.644552
1.1,4.4,0,0.65845
1.1,4.5,0,0.670858
1.1,4.6,0,0.691478
1.1,4.7,0,0.700176
1.1,4.8,0,0.714677
1.1,4.9,0,0.731322
1.1,5,0,0.726752
1.1,5.1,0,0.741152
1.1,5.2,0,0.750713
1.1,5.3,0,0.758781
1.1,5.4,0,0.765097
1.1,5.5,0,0.769489
1.1,5.6,0,0.771866
1.1,5.7,0,0.772233
1.1,5.8,0,0.770671
1.1,5.9,0,0.767234
1.1,6,0,0.759143
1.1,6.1,0,0.765095
1.1,6.2,0,0.764038
1.1,6.3,0,0.748435
1.1,6.4,0,0.73983
1.1,6.5,0,0.734772
1.1,6.6,0,0.727889
1.1,6.7,0,0.7204
1.1,6.8,0,0.713075
1.1,6.9,0,0.707275
1.1,7,0,0.701533
1.1,7.1,0,0.69195
1.1,7.2,0,0.683684
1.1,7.3,0,0.677403
1.1,7.4,0,0.667558
1.1,7.5,0,0.655889
1.1,7.6,0,0.646513
1.1,7.7,0,0.636373
1.1,7.8,0,0.622691
1.1,7.9,0,0.610368
1.1,8,0,0.598535
1.1,8.1,0,0.584425
1.1,8.2,0,0.570363
1.1,8.3,0,0.556666
1.1,8.4,0,0.542359
1.1,8.5,0,0.527604
1.1,8.6,0,0.513133
1.1,8.7,0,0.498595
1.1,8.8,0,0.483635
1.1,8.9,0,0.469133
1.1,9,0,0.45487
1.1,9.1,0,0.440351
1.1,9.2,0,0.426025
1.1,9.3,0,0.412095
1.1,9.4,0,0.398125
1.1,9.5,0,0.384142
1.1,9.6,0,0.370566
1.1,9.7,0,0.357083
1.1,9.8,0,0.343577
1.1,9.9,0,0.330308
1.1,10,0,0.317239
1.1,10.1,0,0.304223
1.1,10.2,0,0.2913
1.1,10.3,0,0.278601
1.1,10.4,0,0.265994
1.1,10.5,0,0.253466
1.1,10.6,0,0.241094
1.1,10.7,0,0.228825
1.1,10.8,0,0.216692
1.1,10.9,0,0.204608
1.1,11,0,0.192671
1.1,11.1,0,0.180845
1.1,11.2,0,0.169063
1.1,11.3,0,0.157389
1.1,11.4,0,0.145805
1.1,11.5,0,0.134299
1.1,11.6,0,0.122829
1.1,11.7,0,0.111441
1.1,11.8,0,0.100154
1.1,11.9,0,0.088847
1.1,12,0,0.0776427
1.1,12.1,0,0.0664879
1.1,12.2,0,0.0553358
1.1,12.3,0,0.0442235
1.1,12.4,0,0.0331568
1.1,12.5,0,0.0221136
1.1,12.6,0,0.0110279
1.1,12.7,0,0
1.2,0,0,0
1.2,0.1,0,0.0136604
1.2,0.2,0,0.0272096
1.2,0.3,0,0.0410407
1.2,0.4,0,0.0546786
1.2,0.5,0,0.068329
1.2,0.6,0,0.0823385
1.2,0.7,0,0.0961584
1.2,0.8,0,0.110315
1.2,0.9,0,0.124397
1.2,1,0,0.138417
1.2,1.1,0,0.153099
1.2,1.2,0,0.167511
1.2,1.3,0,0.182327
1.2,1.4,0,0.197138
1.2,1.5,0,0.211792
1.2,1.6,0,0.227412
1.2,1.7,0,0.242695
1.2,1.8,0,0.258367
1.2,1.9,0,0.27419
1.2,2,0,0.289743
1.2,2.1,0,0.306441
1.2,2.2,0,0.322863
1.2,2.3,0,0.339386
1.2,2.4,0,0.356385
1.2,2.5,0,0.373166
1.2,2.6,0,0.390205
1.2,2.7,0,0.407603
1.2,2.8,0,0.423868
1.2,2.9,0,0.441318
1.2,3,0,0.459554
1.2,3.1,0,0.474148
1.2,3.2,0,0.491111
1.2,3.3,0,0.506007
1.2,3.4,0,0.521881
1.2,3.5,0,0.540405
1.2,3.6,0,0.551329
1.2,3.7,0,0.565837
1.2,3.8,0,0.579783
1.2,3.9,0,0.593251
1.2,4,0,0.609209
1.2,4.1,0,0.621251
1.2,4.2,0,0.634945
1.2,4.3,0,0.650159
1.2,4.4,0,0.664664
1.2,4.5,0,0.67812
1.2,4.6,0,0.695098
1.2,4.7,0,0.708435
1.2,4.8,0,0.722937
1.2,4.9,0,0.732966
1.2,5,0,0.735695
1.2,5.1,0,0.750765
1.2,5.2,0,0.760823
1.2,5.3,0,0.769312
1.2,5.4,0,0.775921
1.2,5.5,0,0.780459
1.2,5.6,0,0.782833
1.2,5.7,0,0.783044
1.2,5.8,0,0.781198
1.2,5.9,0,0.777366
1.2,6,0,0.768638
1.2,6.1,0,0.770944
1.2,6.2,0,0.765849
1.2,6.3,0,0.757356
1.2,6.4,0,0.748751
1.2,6.5,0,0.742136
1.2,6.6,0,0.735484
1.2,6.7,0,0.728023
1.2,6.8,0,0.720693
1.2,6.9,0,0.71336
1.2,7,0,0.707014
1.2,7.1,0,0.697733
1.2,7.2,0,0.689027
1.2,7.3,0,0.680993
1.2,7.4,0,0.671148