x,y,z,U_0,U_1,U_2
0,0,0,0.3,-0.000613425,0
0,0.1,0,0.3,-0.000368055,0
0,0.2,0,0.3,-0.000122685,0
0,0.3,0,0.3,0,0
0,0.4,0,0.3,0,0
0,0.5,0,0.3,0,0
0,0.6,0,0.3,0,0
0,0.7,0,0.3,0,0
0,0.8,0,0.3,0,0
0,0.9,0,0.3,0,0
0,1,0,0.3,0,0
0,1.1,0,0.3,0,0
0,1.2,0,0.3,0,0
0,1.3,0,0.3,0,0
0,1.4,0,0.3,0,0
0,1.5,0,0.3,0,0
0,1.6,0,0.3,0,0
0,1.7,0,0.3,0,0
0,1.8,0,0.3,0,0
0,1.9,0,0.3,0,0
0,2,0,0.3,0,0
0,2.1,0,0.3,0,0
0,2.2,0,0.3,0,0
0,2.3,0,0.3,0,0
0,2.4,0,0.3,0,0
0,2.5,0,0.3,0,0
0,2.6,0,0.3,0,0
0,2.7,0,0.3,0,0
0,2.8,0,0.3,0,0
0,2.9,0,0.3,0,0
0,3,0,0.3,0,0
0,3.1,0,0.3,0,0
0,3.2,0,0.3,0,0
0,3.3,0,0.3,0,0
0,3.4,0,0.3,0,0
0,3.5,0,0.3,0,0
0,3.6,0,0.3,0,0
0,3.7,0,0.3,0,0
0,3.8,0,0.3,0,0
0,3.9,0,0.3,0,0
0,4,0,0.3,0,0
0,4.1,0,0.3,0,0
0,4.2,0,0.3,0,0
0,4.3,0,0.3,0,0
0,4.4,0,0.3,0,0
0,4.5,0,0.3,0,0
0,4.6,0,0.3,0,0
0,4.7,0,0.3,0,0
0,4.8,0,0.3,0,0
0,4.9,0,0.3,0,0
0,5,0,0.3,0,0
0,5.1,0,0.3,0,0
0,5.2,0,0.3,0,0
0,5.3,0,0.3,0,0
0,5.4,0,0.3,0,0
0,5.5,0,0.3,0,0
0,5.6,0,0.3,0,0
0,5.7,0,0.3,0,0
0,5.8,0,0.3,0,0
0,5.9,0,0.3,0,0
0,6,0,0.3,0,0
0,6.1,0,0.3,0,0
0,6.2,0,0.3,0,0
0,6.3,0,0.3,0,0
0,6.4,0,0.3,0,0
0,6.5,0,0.3,0,0
0,6.6,0,0.3,0,0
0,6.7,0,0.3,0,0
0,6.8,0,0.3,0,0
0,6.9,0,0.3,0,0
0,7,0,0.3,0,0
0,7.1,0,0.3,0,0
0,7.2,0,0.3,0,0
0,7.3,0,0.3,0,0
0,7.4,0,0.3,0,0
0,7.5,0,0.3,0,0
0,7.6,0,0.3,0,0
0,7.7,0,0.3,0,0
0,7.8,0,0.3,0,0
0,7.9,0,0.3,0,0
0,8,0,0.3,0,0
0,8.1,0,0.3,0,0
0,8.2,0,0.3,0,0
0,8.3,0,0.3,0,0
0,8.4,0,0.3,0,0
0,8.5,0,0.3,0,0
0,8.6,0,0.3,0,0
0,8.7,0,0.3,0,0
0,8.8,0,0.3,0,0
0,8.9,0,0.3,0,0
0,9,0,0.3,0,0
0,9.1,0,0.3,0,0
0,9.2,0,0.3,0,0
0,9.3,0,0.3,0,0
0,9.4,0,0.3,0,0
0,9.5,0,0.3,0,0
0,9.6,0,0.3,0,0
0,9.7,0,0.3,0,0
0,9.8,0,0.3,0,0
0,9.9,0,0.3,0,0
0,10,0,0.3,0,0
0,10.1,0,0.3,0,0
0,10.2,0,0.3,0,0
0,10.3,0,0.3,0,0
0,10.4,0,0.3,0,0
0,10.5,0,0.3,0,0
0,10.6,0,0.3,0,0
0,10.7,0,0.3,0,0
0,10.8,0,0.3,0,0
0,10.9,0,0.3,0,0
0,11,0,0.3,0,0
0,11.1,0,0.3,0,0
0,11.2,0,0.3,0,0
0,11.3,0,0.3,0,0
0,11.4,0,0.3,0,0
0,11.5,0,0.3,0,0
0,11.6,0,0.3,0,0
0,11.7,0,0.3,0,0
0,11.8,0,0.3,0,0
0,11.9,0,0.3,0,0
0,12,0,0.3,0,0
0,12.1,0,0.3,0,0
0,12.2,0,0.3,0,0
0,12.3,0,0.3,0,0
0,12.4,0,0.3,0,0
0,12.5,0,0.3,0.000161844,0
0,12.6,0,0.3,0.00035225,0
0,12.7,0,0.3,0.000542655,0
0.1,0,0,0.3,-0.00134996,0
0.1,0.1,0,0.3,-0.00110417,0
0.1,0.2,0,0.3,-0.000981799,0
0.1,0.3,0,0.3,-0.000982007,0
0.1,0.4,0,0.3,-0.000981896,0
0.1,0.5,0,0.300001,-0.000982723,0
0.1,0.6,0,0.3,-0.000982656,0
0.1,0.7,0,0.3,-0.000983133,0
0.1,0.8,0,0.3,-0.000983614,0
0.1,0.9,0,0.3,-0.000983616,0
0.1,1,0,0.300001,-0.000984604,0
0.1,1.1,0,0.3,-0.00098456,0
0.1,1.2,0,0.3,-0.000985009,0
0.1,1.3,0,0.3,-0.000985341,0
0.1,1.4,0,0.3,-0.000985224,0
0.1,1.5,0,0.3,-0.000985863,0
0.1,1.6,0,0.3,-0.00098524,0
0.1,1.7,0,0.3,-0.00098533,0
0.1,1.8,0,0.3,-0.000984798,0
0.1,1.9,0,0.3,-0.000984176,0
0.1,2,0,0.299999,-0.000983639,0
0.1,2.1,0,0.3,-0.000981496,0
0.1,2.2,0,0.299999,-0.000980717,0
0.1,2.3,0,0.299998,-0.000978245,0
0.1,2.4,0,0.299999,-0.000976552,0
0.1,2.5,0,0.299996,-0.00097362,0
0.1,2.6,0,0.299999,-0.0009686,0
0.1,2.7,0,0.299996,-0.000966244,0
0.1,2.8,0,0.299996,-0.000960336,0
0.1,2.9,0,0.299998,-0.000956784,0
0.1,3,0,0.299991,-0.000949833,0
0.1,3.1,0,0.299998,-0.000940152,0
0.1,3.2,0,0.299993,-0.0009353,0
0.1,3.3,0,0.299993,-0.000924048,0
0.1,3.4,0,0.299998,-0.000917648,0
0.1,3.5,0,0.299984,-0.000904645,0
0.1,3.6,0,0.299997,-0.000888176,0
0.1,3.7,0,0.299988,-0.000879736,0
0.1,3.8,0,0.299988,-0.000860948,0
0.1,3.9,0,0.299996,-0.0008506,0
0.1,4,0,0.299975,-0.000829268,0
0.1,4.1,0,0.299994,-0.000803864,0
0.1,4.2,0,0.299982,-0.00079068,0
0.1,4.3,0,0.299981,-0.000762271,0
0.1,4.4,0,0.299994,-0.000747046,0
0.1,4.5,0,0.299964,-0.000715138,0
0.1,4.6,0,0.299993,-0.000679861,0
0.1,4.7,0,0.299975,-0.000661091,0
0.1,4.8,0,0.299975,-0.000623527,0
0.1,4.9,0,0.299992,-0.000604734,0
0.1,5,0,0.299953,-0.000576627,0
0.1,5.1,0,0.299951,-0.000522491,0
0.1,5.2,0,0.299949,-0.000483681,0
0.1,5.3,0,0.299947,-0.000443303,0
0.1,5.4,0,0.299945,-0.000401367,0
0.1,5.5,0,0.299943,-0.00035796,0
0.1,5.6,0,0.299942,-0.000313183,0
0.1,5.7,0,0.29994,-0.000267154,0
0.1,5.8,0,0.299939,-0.00022001,0
0.1,5.9,0,0.299938,-0.000171902,0
0.1,6,0,0.299937,-0.000122994,0
0.1,6.1,0,0.299936,-7.34616e-05,0
0.1,6.2,0,0.299936,-2.34915e-05,0
0.1,6.3,0,0.299935,2.67245e-05,0
0.1,6.4,0,0.299936,7.69895e-05,0
0.1,6.5,0,0.299936,0.000127105,0
0.1,6.6,0,0.299936,0.000176876,0
0.1,6.7,0,0.299937,0.000226113,0
0.1,6.8,0,0.299938,0.00027463,0
0.1,6.9,0,0.299939,0.000322321,0
0.1,7,0,0.29994,0.000394528,0
0.1,7.1,0,0.299984,0.000430501,0
0.1,7.2,0,0.299978,0.00044972,0
0.1,7.3,0,0.29995,0.00049882,0
0.1,7.4,0,0.29999,0.00054851,0
0.1,7.5,0,0.299975,0.000568891,0
0.1,7.6,0,0.299961,0.000614345,0
0.1,7.7,0,0.299991,0.000650826,0
0.1,7.8,0,0.299974,0.00067438,0
0.1,7.9,0,0.299972,0.000712489,0
0.1,8,0,0.299993,0.000737255,0
0.1,8.1,0,0.299976,0.000761487,0
0.1,8.2,0,0.299981,0.000791612,0
0.1,8.3,0,0.299994,0.000806936,0
0.1,8.4,0,0.299979,0.000829727,0
0.1,8.5,0,0.299989,0.000852081,0
0.1,8.6,0,0.299996,0.000861132,0
0.1,8.7,0,0.299983,0.000880044,0
0.1,8.8,0,0.299994,0.000895287,0
0.1,8.9,0,0.299996,0.000901305,0
0.1,9,0,0.299989,0.000914054,0
0.1,9.1,0,0.299998,0.000923311,0
0.1,9.2,0,0.299997,0.000926808,0
0.1,9.3,0,0.299995,0.000934001,0
0.1,9.4,0,0.299999,0.000938344,0
0.1,9.5,0,0.299999,0.000940149,0
0.1,9.6,0,0.299999,0.000942873,0
0.1,9.7,0,0.3,0.000943616,0
0.1,9.8,0,0.300001,0.000943911,0
0.1,9.9,0,0.300001,0.000943224,0
0.1,10,0,0.300001,0.000942048,0
0.1,10.1,0,0.300003,0.000940557,0
0.1,10.2,0,0.300002,0.000937433,0
0.1,10.3,0,0.300001,0.000935576,0
0.1,10.4,0,0.300004,0.000932327,0
0.1,10.5,0,0.300002,0.000927619,0
0.1,10.6,0,0.300001,0.000925521,0
0.1,10.7,0,0.300005,0.000921171,0
0.1,10.8,0,0.300002,0.000915606,0
0.1,10.9,0,0.300002,0.000913413,0
0.1,11,0,0.300005,0.000908627,0
0.1,11.1,0,0.300001,0.000902901,0
0.1,11.2,0,0.300002,0.000900896,0
0.1,11.3,0,0.300004,0.000896131,0
0.1,11.4,0,0.300001,0.00089132,0
0.1,11.5,0,0.300003,0.000889129,0
0.1,11.6,0,0.300003,0.000884789,0
0.1,11.7,0,0.300001,0.000881264,0
0.1,11.8,0,0.300003,0.000879012,0
0.1,11.9,0,0.300002,0.000875421,0
0.1,12,0,0.300001,0.000873144,0
0.1,12.1,0,0.300002,0.000871253,0
0.1,12.2,0,0.300002,0.000868651,0
0.1,12.3,0,0.300001,0.00086744,0
0.1,12.4,0,0.300001,0.00086636,0
0.1,12.5,0,0.3,0.000864911,0
0.1,12.6,0,0.3,0.000999686,0
0.1,12.7,0,0.300001,0.00119028,0
0.2,0,0,0.3,-0.00208649,0
0.2,0.1,0,0.3,-0.0019637,0
0.2,0.2,0,0.3,-0.00196392,0
0.2,0.3,0,0.3,-0.00196412,0
0.2,0.4,0,0.300001,-0.00196473,0
0.2,0.5,0,0.300001,-0.00196545,0
0.2,0.6,0,0.300001,-0.00196586,0
0.2,0.7,0,0.300001,-0.00196674,0
0.2,0.8,0,0.300001,-0.00196722,0
0.2,0.9,0,0.300001,-0.00196822,0
0.2,1,0,0.300001,-0.00196921,0
0.2,1.1,0,0.300001,-0.00196961,0
0.2,1.2,0,0.300001,-0.00197047,0
0.2,1.3,0,0.300001,-0.0019708,0
0.2,1.4,0,0.3,-0.0019712,0
0.2,1.5,0,0.3,-0.00197173,0
0.2,1.6,0,0.3,-0.00197119,0
0.2,1.7,0,0.299999,-0.00197075,0
0.2,1.8,0,0.299999,-0.00197022,0
0.2,1.9,0,0.299999,-0.00196844,0
0.2,2,0,0.299997,-0.00196728,0
0.2,2.1,0,0.299997,-0.00196436,0
0.2,2.2,0,0.299996,-0.00196065,0
0.2,2.3,0,0.299996,-0.00195818,0
0.2,2.4,0,0.299994,-0.00195186,0
0.2,2.5,0,0.299992,-0.00194724,0
0.2,2.6,0,0.299992,-0.00193986,0
0.2,2.7,0,0.29999,-0.00193013,0
0.2,2.8,0,0.29999,-0.00192422,0
0.2,2.9,0,0.299987,-0.00191017,0
0.2,3,0,0.299983,-0.00189967,0
0.2,3.1,0,0.299985,-0.00188513,0
0.2,3.2,0,0.299982,-0.00186575,0
0.2,3.3,0,0.299981,-0.00185449,0
0.2,3.4,0,0.299977,-0.00182869,0
0.2,3.5,0,0.299969,-0.00180929,0
0.2,3.6,0,0.299973,-0.00178438,0
0.2,3.7,0,0.299968,-0.00175103,0
0.2,3.8,0,0.299968,-0.00173224,0
0.2,3.9,0,0.299963,-0.00169022,0
0.2,4,0,0.29995,-0.00165854,0
0.2,4.1,0,0.299957,-0.00161995,0
0.2,4.2,0,0.299951,-0.00156818,0
0.2,4.3,0,0.299951,-0.00153977,0
0.2,4.4,0,0.299945,-0.00147741,0
0.2,4.5,0,0.299927,-0.00143028,0
0.2,4.6,0,0.299939,-0.00137623,0
0.2,4.7,0,0.299933,-0.00130341,0
0.2,4.8,0,0.299932,-0.00126585,0
0.2,4.9,0,0.299928,-0.00120015,0
0.2,5,0,0.299907,-0.00115325,0
0.2,5.1,0,0.299901,-0.00104498,0
0.2,5.2,0,0.299898,-0.000967363,0
0.2,5.3,0,0.299894,-0.000886606,0
0.2,5.4,0,0.29989,-0.000802734,0
0.2,5.5,0,0.299887,-0.000715921,0
0.2,5.6,0,0.299884,-0.000626366,0
0.2,5.7,0,0.299881,-0.000534308,0
0.2,5.8,0,0.299878,-0.00044002,0
0.2,5.9,0,0.299875,-0.000343804,0
0.2,6,0,0.299874,-0.000245987,0
0.2,6.1,0,0.299872,-0.000146923,0
0.2,6.2,0,0.299871,-4.6983e-05,0
0.2,6.3,0,0.299871,5.3449e-05,0
0.2,6.4,0,0.299871,0.000153979,0
0.2,6.5,0,0.299872,0.000254211,0
0.2,6.6,0,0.299872,0.000353752,0
0.2,6.7,0,0.299874,0.000452225,0
0.2,6.8,0,0.299875,0.00054926,0
0.2,6.9,0,0.299877,0.000644642,0
0.2,7,0,0.29988,0.000789057,0
0.2,7.1,0,0.299906,0.000846059,0
0.2,7.2,0,0.29991,0.000930938,0
0.2,7.3,0,0.299894,0.00099011,0
0.2,7.4,0,0.299915,0.00106717,0
0.2,7.5,0,0.29992,0.00116368,0
0.2,7.6,0,0.299912,0.00121566,0
0.2,7.7,0,0.299927,0.00128823,0
0.2,7.8,0,0.299933,0.00137072,0
0.2,7.9,0,0.299931,0.00140883,0
0.2,8,0,0.29994,0.00147354,0
0.2,8.1,0,0.299943,0.00153607,0
0.2,8.2,0,0.299947,0.00156696,0
0.2,8.3,0,0.299954,0.00162095,0
0.2,8.4,0,0.299954,0.00166586,0
0.2,8.5,0,0.299961,0.00169161,0
0.2,8.6,0,0.299968,0.00173179,0
0.2,8.7,0,0.299965,0.00176198,0
0.2,8.8,0,0.299974,0.00178149,0
0.2,8.9,0,0.299979,0.00180926,0
0.2,9,0,0.299977,0.00182764,0
0.2,9.1,0,0.299984,0.00184066,0
0.2,9.2,0,0.299989,0.00185776,0
0.2,9.3,0,0.299988,0.00186708,0
0.2,9.4,0,0.299992,0.00187402,0
0.2,9.5,0,0.299996,0.00188232,0
0.2,9.6,0,0.299996,0.00188542,0
0.2,9.7,0,0.299999,0.00188672,0
0.2,9.8,0,0.300002,0.00188805,0
0.2,9.9,0,0.300002,0.00188737,0
0.2,10,0,0.300004,0.00188377,0
0.2,10.1,0,0.300006,0.00188045,0
0.2,10.2,0,0.300006,0.00187705,0
0.2,10.3,0,0.300007,0.00186981,0
0.2,10.4,0,0.300009,0.00186396,0
0.2,10.5,0,0.300008,0.00185825,0
0.2,10.6,0,0.300009,0.00184888,0
0.2,10.7,0,0.300011,0.00184213,0
0.2,10.8,0,0.300009,0.00183478,0
0.2,10.9,0,0.300009,0.00182447,0
0.2,11,0,0.300011,0.00181783,0
0.2,11.1,0,0.300009,0.00180969,0
0.2,11.2,0,0.300009,0.00179941,0
0.2,11.3,0,0.30001,0.00179361,0
0.2,11.4,0,0.300008,0.00178545,0
0.2,11.5,0,0.300008,0.00177598,0
0.2,11.6,0,0.300008,0.00177148,0
0.2,11.7,0,0.300007,0.00176401,0
0.2,11.8,0,0.300007,0.00175655,0
0.2,11.9,0,0.300006,0.00175296,0
0.2,12,0,0.300005,0.0017469,0
0.2,12.1,0,0.300005,0.00174183,0
0.2,12.2,0,0.300004,0.00173909,0
0.2,12.3,0,0.300003,0.00173524,0
0.2,12.4,0,0.300003,0.00173256,0
0.2,12.5,0,0.300002,0.00173116,0
0.2,12.6,0,0.300001,0.00172984,0
0.2,12.7,0,0.300002,0.00183791,0
0.3,0,0,0.300001,-0.00294602,0
0.3,0.1,0,0.300001,-0.00294602,0
0.3,0.2,0,0.300001,-0.00294624,0
0.3,0.3,0,0.300001,-0.00294689,0
0.3,0.4,0,0.300001,-0.0029475,0
0.3,0.5,0,0.300002,-0.00294855,0
0.3,0.6,0,0.300002,-0.00294943,0
0.3,0.7,0,0.300002,-0.00295032,0
0.3,0.8,0,0.300002,-0.00295182,0
0.3,0.9,0,0.300002,-0.00295282,0
0.3,1,0,0.300002,-0.00295436,0
0.3,1.1,0,0.300002,-0.00295525,0
0.3,1.2,0,0.300002,-0.00295611,0
0.3,1.3,0,0.300002,-0.00295721,0
0.3,1.4,0,0.300001,-0.00295762,0
0.3,1.5,0,0.300001,-0.00295842,0
0.3,1.6,0,0.3,-0.00295777,0
0.3,1.7,0,0.299999,-0.00295732,0
0.3,1.8,0,0.299998,-0.0029559,0
0.3,1.9,0,0.299997,-0.00295412,0
0.3,2,0,0.299995,-0.00295217,0
0.3,2.1,0,0.299994,-0.00294756,0
0.3,2.2,0,0.299993,-0.00294385,0
0.3,2.3,0,0.29999,-0.00293668,0
0.3,2.4,0,0.299989,-0.00293036,0
0.3,2.5,0,0.299984,-0.00292269,0
0.3,2.6,0,0.299983,-0.00291069,0
0.3,2.7,0,0.299981,-0.00290096,0
0.3,2.8,0,0.299977,-0.00288356,0
0.3,2.9,0,0.299974,-0.00286951,0
0.3,3,0,0.299966,-0.00285208,0
0.3,3.1,0,0.299966,-0.00282819,0
0.3,3.2,0,0.299963,-0.0028088,0
0.3,3.3,0,0.299956,-0.00277543,0
0.3,3.4,0,0.299953,-0.00274962,0
0.3,3.5,0,0.29994,-0.00271737,0
0.3,3.6,0,0.299941,-0.0026762,0
0.3,3.7,0,0.299936,-0.00264285,0
0.3,3.8,0,0.299927,-0.00258682,0
0.3,3.9,0,0.299922,-0.0025448,0
0.3,4,0,0.299903,-0.00249206,0
0.3,4.1,0,0.299907,-0.00242798,0
0.3,4.2,0,0.299901,-0.00237621,0
0.3,4.3,0,0.299891,-0.00229082,0
0.3,4.4,0,0.299885,-0.00222846,0
0.3,4.5,0,0.299859,-0.0021502,0
0.3,4.6,0,0.299867,-0.00205883,0
0.3,4.7,0,0.299861,-0.00198601,0
0.3,4.8,0,0.29985,-0.00186794,0
0.3,4.9,0,0.299845,-0.00180225,0
0.3,5,0,0.299818,-0.00173412,0
0.3,5.1,0,0.299806,-0.0015716,0
0.3,5.2,0,0.299799,-0.0014552,0
0.3,5.3,0,0.299791,-0.00133396,0
0.3,5.4,0,0.299784,-0.00120798,0
0.3,5.5,0,0.299777,-0.00107751,0
0.3,5.6,0,0.29977,-0.000942875,0
0.3,5.7,0,0.299764,-0.000804439,0
0.3,5.8,0,0.299759,-0.000662612,0
0.3,5.9,0,0.299754,-0.000517857,0
0.3,6,0,0.299751,-0.000370673,0
0.3,6.1,0,0.299748,-0.000221594,0
0.3,6.2,0,0.299746,-7.11851e-05,0
0.3,6.3,0,0.299745,7.99688e-05,0
0.3,6.4,0,0.299746,0.000231268,0
0.3,6.5,0,0.299747,0.000382108,0
0.3,6.6,0,0.299749,0.000531887,0
0.3,6.7,0,0.299752,0.000680021,0
0.3,6.8,0,0.299755,0.000825934,0
0.3,6.9,0,0.299759,0.000969236,0
0.3,7,0,0.299767,0.00118639,0
0.3,7.1,0,0.299798,0.00127635,0
0.3,7.2,0,0.299802,0.00136123,0
0.3,7.3,0,0.299791,0.00150002,0
0.3,7.4,0,0.299818,0.001618,0
0.3,7.5,0,0.299824,0.00171451,0
0.3,7.6,0,0.299825,0.00184766,0
0.3,7.7,0,0.299844,0.00194333,0
0.3,7.8,0,0.299851,0.00202745,0
0.3,7.9,0,0.299861,0.00214248,0
0.3,8,0,0.299873,0.0022157,0
0.3,8.1,0,0.299877,0.00228953,0
0.3,8.2,0,0.299895,0.00237894,0
0.3,8.3,0,0.299902,0.00243293,0
0.3,8.4,0,0.299904,0.00249431,0
0.3,8.5,0,0.299922,0.00255684,0
0.3,8.6,0,0.299929,0.00259702,0
0.3,8.7,0,0.299931,0.00264491,0
0.3,8.8,0,0.299947,0.00268478,0
0.3,8.9,0,0.299952,0.00271255,0
0.3,9,0,0.299956,0.00274634,0
0.3,9.1,0,0.299968,0.00276874,0
0.3,9.2,0,0.299973,0.00278584,0
0.3,9.3,0,0.299978,0.00280552,0
0.3,9.4,0,0.299985,0.00281576,0
0.3,9.5,0,0.299989,0.00282406,0
0.3,9.6,0,0.299995,0.00283152,0
0.3,9.7,0,0.299999,0.00283319,0
0.3,9.8,0,0.300002,0.00283453,0
0.3,9.9,0,0.300006,0.00283205,0
0.3,10,0,0.300008,0.0028282,0
0.3,10.1,0,0.300011,0.00282383,0
0.3,10.2,0,0.300014,0.00281459,0
0.3,10.3,0,0.300015,0.00280734,0
0.3,10.4,0,0.300018,0.00279854,0
0.3,10.5,0,0.300018,0.00278577,0
0.3,10.6,0,0.300019,0.0027764,0
0.3,10.7,0,0.300022,0.0027645,0
0.3,10.8,0,0.30002,0.00275063,0
0.3,10.9,0,0.30002,0.00274032,0
0.3,11,0,0.300022,0.00272656,0
0.3,11.1,0,0.30002,0.00271343,0
0.3,11.2,0,0.300019,0.00270315,0
0.3,11.3,0,0.30002,0.00268895,0
0.3,11.4,0,0.300018,0.00267764,0
0.3,11.5,0,0.300017,0.00266818,0
0.3,11.6,0,0.300017,0.00265491,0
0.3,11.7,0,0.300015,0.00264601,0
0.3,11.8,0,0.300014,0.0026376,0
0.3,11.9,0,0.300012,0.00262686,0
0.3,12,0,0.300011,0.00262066,0
0.3,12.1,0,0.300011,0.002614,0
0.3,12.2,0,0.300008,0.00260705,0
0.3,12.3,0,0.300007,0.00260321,0
0.3,12.4,0,0.300006,0.002599,0
0.3,12.5,0,0.300004,0.00259607,0
0.3,12.6,0,0.300003,0.00259475,0
0.3,12.7,0,0.300003,0.00259373,0
0.4,0,0,0.300001,-0.00392855,0
0.4,0.1,0,0.300001,-0.00392834,0
0.4,0.2,0,0.300002,-0.00392902,0
0.4,0.3,0,0.300002,-0.00392967,0
0.4,0.4,0,0.300002,-0.00393054,0
0.4,0.5,0,0.300003,-0.00393203,0
0.4,0.6,0,0.300003,-0.0039329,0
0.4,0.7,0,0.300004,-0.00393483,0
0.4,0.8,0,0.300004,-0.00393634,0
0.4,0.9,0,0.300004,-0.00393797,0
0.4,1,0,0.300004,-0.00394006,0
0.4,1.1,0,0.300004,-0.00394099,0
0.4,1.2,0,0.300003,-0.00394291,0
0.4,1.3,0,0.300003,-0.00394402,0
0.4,1.4,0,0.300002,-0.00394474,0
0.4,1.5,0,0.300001,-0.00394594,0
0.4,1.6,0,0.3,-0.00394508,0
0.4,1.7,0,0.299998,-0.00394478,0
0.4,1.8,0,0.299997,-0.00394336,0
0.4,1.9,0,0.299994,-0.00394043,0
0.4,2,0,0.299992,-0.0039383,0
0.4,2.1,0,0.29999,-0.00393278,0
0.4,2.2,0,0.299986,-0.00392683,0
0.4,2.3,0,0.299984,-0.00391966,0
0.4,2.4,0,0.29998,-0.00390901,0
0.4,2.5,0,0.299973,-0.00389998,0
0.4,2.6,0,0.299973,-0.00388571,0
0.4,2.7,0,0.299965,-0.00386923,0
0.4,2.8,0,0.29996,-0.00385183,0
0.4,2.9,0,0.299956,-0.00382788,0
0.4,3,0,0.299943,-0.00380707,0
0.4,3.1,0,0.299945,-0.00377868,0
0.4,3.2,0,0.299931,-0.00374525,0
0.4,3.3,0,0.299924,-0.00371188,0
0.4,3.4,0,0.299919,-0.00366759,0
0.4,3.5,0,0.299897,-0.00362889,0
0.4,3.6,0,0.299904,-0.0035799,0
0.4,3.7,0,0.299882,-0.00352187,0
0.4,3.8,0,0.299873,-0.00346584,0
0.4,3.9,0,0.299868,-0.00339328,0
0.4,4,0,0.299835,-0.00332984,0
0.4,4.1,0,0.299848,-0.00325344,0
0.4,4.2,0,0.299818,-0.00316286,0
0.4,4.3,0,0.299807,-0.00307747,0
0.4,4.4,0,0.299805,-0.00296907,0
0.4,4.5,0,0.29976,-0.0028749,0
0.4,4.6,0,0.299782,-0.00276498,0
0.4,4.7,0,0.299745,-0.00263763,0
0.4,4.8,0,0.299733,-0.00251957,0
0.4,4.9,0,0.299738,-0.00238979,0
0.4,5,0,0.299688,-0.00231923,0
0.4,5.1,0,0.299666,-0.00210235,0
0.4,5.2,0,0.299653,-0.00194718,0
0.4,5.3,0,0.299639,-0.00178537,0
0.4,5.4,0,0.299626,-0.00161709,0
0.4,5.5,0,0.299614,-0.00144273,0
0.4,5.6,0,0.299602,-0.00126271,0
0.4,5.7,0,0.299592,-0.00107754,0
0.4,5.8,0,0.299582,-0.000887785,0
0.4,5.9,0,0.299575,-0.000694062,0
0.4,6,0,0.299568,-0.00049705,0
0.4,6.1,0,0.299564,-0.000297474,0
0.4,6.2,0,0.299561,-9.60979e-05,0
0.4,6.3,0,0.299559,0.000106284,0
0.4,6.4,0,0.29956,0.000308857,0
0.4,6.5,0,0.299562,0.000510797,0
0.4,6.6,0,0.299565,0.000711282,0
0.4,6.7,0,0.299571,0.000909501,0
0.4,6.8,0,0.299578,0.00110465,0
0.4,6.9,0,0.299585,0.0012961,0
0.4,7,0,0.2996,0.00158653,0
0.4,7.1,0,0.299653,0.00168032,0
0.4,7.2,0,0.299659,0.00183866,0
0.4,7.3,0,0.299638,0.00199931,0
0.4,7.4,0,0.299693,0.00214741,0
0.4,7.5,0,0.299694,0.00231971,0
0.4,7.6,0,0.299692,0.00245898,0
0.4,7.7,0,0.299739,0.00259413,0
0.4,7.8,0,0.299739,0.00273459,0
0.4,7.9,0,0.299749,0.00284962,0
0.4,8,0,0.299789,0.00296591,0
0.4,8.1,0,0.299787,0.00307499,0
0.4,8.2,0,0.299806,0.00316532,0
0.4,8.3,0,0.299839,0.0032604,0
0.4,8.4,0,0.299836,0.00334085,0
0.4,8.5,0,0.299859,0.00340751,0
0.4,8.6,0,0.299885,0.00347979,0
0.4,8.7,0,0.299882,0.00353637,0
0.4,8.8,0,0.299905,0.00358158,0
0.4,8.9,0,0.299923,0.00363052,0
0.4,9,0,0.299924,0.00366834,0
0.4,9.1,0,0.299943,0.00369564,0
0.4,9.2,0,0.299956,0.00372474,0
0.4,9.3,0,0.299961,0.00374576,0
0.4,9.4,0,0.299974,0.00375941,0
0.4,9.5,0,0.299983,0.00377236,0
0.4,9.6,0,0.299989,0.00377997,0
0.4,9.7,0,0.299998,0.00378243,0
0.4,9.8,0,0.300005,0.00378338,0
0.4,9.9,0,0.30001,0.0037809,0
0.4,10,0,0.300014,0.00377438,0
0.4,10.1,0,0.300021,0.00376735,0
0.4,10.2,0,0.300023,0.0037578,0
0.4,10.3,0,0.300026,0.00374454,0
0.4,10.4,0,0.300031,0.00373284,0
0.4,10.5,0,0.300031,0.00371888,0
0.4,10.6,0,0.300032,0.00370155,0
0.4,10.7,0,0.300037,0.00368731,0
0.4,10.8,0,0.300034,0.0036712,0
0.4,10.9,0,0.300034,0.00365235,0
0.4,11,0,0.300038,0.00363694,0
0.4,11.1,0,0.300034,0.0036206,0
0.4,11.2,0,0.300034,0.00360211,0
0.4,11.3,0,0.300035,0.00358706,0
0.4,11.4,0,0.30003,0.00357138,0
0.4,11.5,0,0.300031,0.0035552,0
0.4,11.6,0,0.30003,0.00354181,0
0.4,11.7,0,0.300025,0.00352781,0
0.4,11.8,0,0.300025,0.00351503,0
0.4,11.9,0,0.300023,0.00350428,0
0.4,12,0,0.300019,0.00349305,0
0.4,12.1,0,0.300018,0.0034842,0
0.4,12.2,0,0.300015,0.00347685,0
0.4,12.3,0,0.300011,0.00346935,0
0.4,12.4,0,0.30001,0.00346461,0
0.4,12.5,0,0.300007,0.00346114,0
0.4,12.6,0,0.300005,0.00345852,0
0.4,12.7,0,0.300006,0.00345773,0
0.5,0,0,0.300002,-0.00491108,0
0.5,0.1,0,0.300002,-0.00491155,0
0.5,0.2,0,0.300002,-0.00491202,0
0.5,0.3,0,0.300003,-0.0049129,0
0.5,0.4,0,0.300004,-0.00491421,0
0.5,0.5,0,0.300005,-0.00491552,0
0.5,0.6,0,0.300005,-0.00491743,0
0.5,0.7,0,0.300006,-0.00491935,0
0.5,0.8,0,0.300006,-0.0049214,0
0.5,0.9,0,0.300006,-0.00492357,0
0.5,1,0,0.300006,-0.00492575,0
0.5,1.1,0,0.300005,-0.00492771,0
0.5,1.2,0,0.300005,-0.00492967,0
0.5,1.3,0,0.300004,-0.00493122,0
0.5,1.4,0,0.300003,-0.00493234,0
0.5,1.5,0,0.300001,-0.00493346,0
0.5,1.6,0,0.299999,-0.00493295,0
0.5,1.7,0,0.299997,-0.00493245,0
0.5,1.8,0,0.299995,-0.00493065,0
0.5,1.9,0,0.299991,-0.00492754,0
0.5,2,0,0.299988,-0.00492444,0
0.5,2.1,0,0.299984,-0.00491758,0
0.5,2.2,0,0.299979,-0.00491071,0
0.5,2.3,0,0.299974,-0.00490128,0
0.5,2.4,0,0.299968,-0.00488927,0
0.5,2.5,0,0.299962,-0.00487727,0
0.5,2.6,0,0.299955,-0.00485851,0
0.5,2.7,0,0.299947,-0.00483976,0
0.5,2.8,0,0.299938,-0.00481672,0
0.5,2.9,0,0.299929,-0.00478939,0
0.5,3,0,0.299919,-0.00476207,0
0.5,3.1,0,0.299907,-0.00472414,0
0.5,3.2,0,0.299896,-0.00468621,0
0.5,3.3,0,0.299883,-0.00464187,0
0.5,3.4,0,0.299869,-0.00459114,0
0.5,3.5,0,0.299855,-0.0045404,0
0.5,3.6,0,0.299838,-0.00447455,0
0.5,3.7,0,0.299822,-0.00440871,0
0.5,3.8,0,0.299804,-0.00433415,0
0.5,3.9,0,0.299785,-0.00425088,0
0.5,4,0,0.299767,-0.00416762,0
0.5,4.1,0,0.299746,-0.00406472,0
0.5,4.2,0,0.299726,-0.00396183,0
0.5,4.3,0,0.299704,-0.00384823,0
0.5,4.4,0,0.299682,-0.00372392,0
0.5,4.5,0,0.29966,-0.00359961,0
0.5,4.6,0,0.299637,-0.00345371,0
0.5,4.7,0,0.299614,-0.00330781,0
0.5,4.8,0,0.299594,-0.00316876,0
0.5,4.9,0,0.299576,-0.00303654,0
0.5,5,0,0.299558,-0.00290433,0
0.5,5.1,0,0.299526,-0.00263309,0
0.5,5.2,0,0.299506,-0.00243917,0
0.5,5.3,0,0.299486,-0.00223678,0
0.5,5.4,0,0.299468,-0.00202621,0
0.5,5.5,0,0.29945,-0.00180795,0
0.5,5.6,0,0.299434,-0.00158255,0
0.5,5.7,0,0.299419,-0.00135065,0
0.5,5.8,0,0.299406,-0.00111296,0
0.5,5.9,0,0.299395,-0.000870266,0
0.5,6,0,0.299386,-0.000623428,0
0.5,6.1,0,0.299379,-0.000373354,0
0.5,6.2,0,0.299375,-0.000121011,0
0.5,6.3,0,0.299373,0.000132599,0
0.5,6.4,0,0.299374,0.000386446,0
0.5,6.5,0,0.299377,0.000639486,0
0.5,6.6,0,0.299382,0.000890676,0
0.5,6.7,0,0.29939,0.00113898,0
0.5,6.8,0,0.2994,0.00138337,0
0.5,6.9,0,0.299411,0.00162297,0
0.5,7,0,0.299434,0.00198668,0
0.5,7.1,0,0.299449,0.00215853,0
0.5,7.2,0,0.299464,0.00233038,0
0.5,7.3,0,0.29948,0.00250568,0
0.5,7.4,0,0.299503,0.00270047,0
0.5,7.5,0,0.299526,0.00289526,0
0.5,7.6,0,0.29955,0.00308183,0
0.5,7.7,0,0.299576,0.00324922,0
0.5,7.8,0,0.299602,0.00341661,0
0.5,7.9,0,0.299628,0.00357048,0
0.5,8,0,0.299655,0.00370783,0
0.5,8.1,0,0.299682,0.00384518,0
0.5,8.2,0,0.299708,0.00396466,0
0.5,8.3,0,0.299734,0.00407221,0
0.5,8.4,0,0.299759,0.00417977,0
0.5,8.5,0,0.299783,0.00426635,0
0.5,8.6,0,0.299807,0.00434594,0
0.5,8.7,0,0.299831,0.00442554,0
0.5,8.8,0,0.299852,0.00448259,0
0.5,8.9,0,0.299872,0.00453715,0
0.5,9,0,0.299893,0.00459062,0
0.5,9.1,0,0.29991,0.00462372,0
0.5,9.2,0,0.299927,0.00465682,0
0.5,9.3,0,0.299944,0.0046864,0
0.5,9.4,0,0.299958,0.0047019,0
0.5,9.5,0,0.299972,0.00471741,0
0.5,9.6,0,0.299985,0.0047281,0
0.5,9.7,0,0.299995,0.00472985,0
0.5,9.8,0,0.300006,0.00473161,0
0.5,9.9,0,0.300015,0.00472828,0
0.5,10,0,0.300022,0.00471988,0
0.5,10.1,0,0.30003,0.00471148,0
0.5,10.2,0,0.300035,0.00469858,0
0.5,10.3,0,0.30004,0.00468325,0
0.5,10.4,0,0.300045,0.00466792,0
0.5,10.5,0,0.300048,0.00464929,0
0.5,10.6,0,0.30005,0.00462984,0
0.5,10.7,0,0.300053,0.00461039,0
0.5,10.8,0,0.300054,0.00458926,0
0.5,10.9,0,0.300054,0.00456804,0
0.5,11,0,0.300055,0.00454685,0
0.5,11.1,0,0.300054,0.00452581,0
0.5,11.2,0,0.300053,0.00450477,0
0.5,11.3,0,0.300051,0.00448416,0
0.5,11.4,0,0.300049,0.00446486,0
0.5,11.5,0,0.300047,0.00444556,0
0.5,11.6,0,0.300044,0.00442744,0
0.5,11.7,0,0.300041,0.0044111,0
0.5,11.8,0,0.300038,0.00439476,0
0.5,11.9,0,0.300034,0.00438057,0
0.5,12,0,0.300031,0.00436813,0
0.5,12.1,0,0.300027,0.00435569,0
0.5,12.2,0,0.300023,0.00434645,0
0.5,12.3,0,0.300019,0.00433857,0
0.5,12.4,0,0.300015,0.0043307,0
0.5,12.5,0,0.300012,0.0043272,0
0.5,12.6,0,0.30001,0.00432447,0
0.5,12.7,0,0.300008,0.00432174,0
0.6,0,0,0.300002,-0.00589378,0
0.6,0.1,0,0.300002,-0.00589382,0
0.6,0.2,0,0.300003,-0.00589467,0
0.6,0.3,0,0.300004,-0.00589589,0
0.6,0.4,0,0.300005,-0.00589714,0
0.6,0.5,0,0.300007,-0.00589947,0
0.6,0.6,0,0.300007,-0.0059015,0
0.6,0.7,0,0.300008,-0.00590402,0
0.6,0.8,0,0.300008,-0.00590682,0
0.6,0.9,0,0.300008,-0.00590913,0
0.6,1,0,0.300009,-0.00591265,0
0.6,1.1,0,0.300008,-0.00591493,0
0.6,1.2,0,0.300007,-0.00591756,0
0.6,1.3,0,0.300006,-0.00591989,0
0.6,1.4,0,0.300004,-0.00592112,0
0.6,1.5,0,0.300003,-0.00592343,0
0.6,1.6,0,0.299999,-0.00592289,0
0.6,1.7,0,0.299997,-0.0059228,0
0.6,1.8,0,0.299993,-0.00592115,0
0.6,1.9,0,0.29999,-0.00591778,0
0.6,2,0,0.299983,-0.0059149,0
0.6,2.1,0,0.299978,-0.00590677,0
0.6,2.2,0,0.299972,-0.00589956,0
0.6,2.3,0,0.299964,-0.00588861,0
0.6,2.4,0,0.299958,-0.00587543,0
0.6,2.5,0,0.299945,-0.00586147,0
0.6,2.6,0,0.299938,-0.00583892,0
0.6,2.7,0,0.299925,-0.00581835,0
0.6,2.8,0,0.299912,-0.00579064,0
0.6,2.9,0,0.299904,-0.00576045,0
0.6,3,0,0.29988,-0.00572734,0
0.6,3.1,0,0.299872,-0.00568126,0
0.6,3.2,0,0.299851,-0.00563909,0
0.6,3.3,0,0.299832,-0.00558494,0
0.6,3.4,0,0.299821,-0.00552862,0
0.6,3.5,0,0.299784,-0.00546613,0
0.6,3.6,0,0.299775,-0.00538548,0
0.6,3.7,0,0.299745,-0.00531179,0
0.6,3.8,0,0.299719,-0.00521986,0
0.6,3.9,0,0.299705,-0.00512705,0
0.6,4,0,0.299653,-0.0050235,0
0.6,4.1,0,0.299646,-0.00489669,0
0.6,4.2,0,0.299606,-0.00478099,0
0.6,4.3,0,0.299574,-0.0046399,0
0.6,4.4,0,0.299561,-0.00450091,0
0.6,4.5,0,0.299493,-0.0043452,0
0.6,4.6,0,0.299493,-0.00416349,0
0.6,4.7,0,0.299444,-0.00399931,0
0.6,4.8,0,0.299409,-0.00380454,0
0.6,4.9,0,0.299404,-0.00363489,0
0.6,5,0,0.299337,-0.00351085,0
0.6,5.1,0,0.299288,-0.00318419,0
0.6,5.2,0,0.299257,-0.00295054,0
0.6,5.3,0,0.299226,-0.00270653,0
0.6,5.4,0,0.299198,-0.00245251,0
0.6,5.5,0,0.299171,-0.00218907,0
0.6,5.6,0,0.299145,-0.00191685,0
0.6,5.7,0,0.299123,-0.00163665,0
0.6,5.8,0,0.299103,-0.00134931,0
0.6,5.9,0,0.299086,-0.00105579,0
0.6,6,0,0.299072,-0.000757144,0
0.6,6.1,0,0.299062,-0.000454482,0
0.6,6.2,0,0.299055,-0.00014899,0
0.6,6.3,0,0.299052,0.0001581,0
0.6,6.4,0,0.299053,0.000465522,0
0.6,6.5,0,0.299058,0.00077199,0
0.6,6.6,0,0.299066,0.00107622,0
0.6,6.7,0,0.299078,0.00137692,0
0.6,6.8,0,0.299094,0.00167285,0
0.6,6.9,0,0.299113,0.00196291,0
0.6,7,0,0.299148,0.0024031,0
0.6,7.1,0,0.299217,0.00256777,0
0.6,7.2,0,0.29923,0.00276675,0
0.6,7.3,0,0.299227,0.00303276,0
0.6,7.4,0,0.299308,0.00328214,0
0.6,7.5,0,0.299319,0.00349699,0
0.6,7.6,0,0.299339,0.00373002,0
0.6,7.7,0,0.299411,0.00393817,0
0.6,7.8,0,0.299424,0.00412728,0
0.6,7.9,0,0.299461,0.00431942,0
0.6,8,0,0.299521,0.0044844,0
0.6,8.1,0,0.299537,0.00464297,0
0.6,8.2,0,0.299582,0.00479278,0
0.6,8.3,0,0.29963,0.00491732,0
0.6,8.4,0,0.299647,0.0050436,0
0.6,8.5,0,0.299695,0.00515295,0
0.6,8.6,0,0.299731,0.00524221,0
0.6,8.7,0,0.29975,0.005336,0
0.6,8.8,0,0.299795,0.00540893,0
0.6,8.9,0,0.299821,0.00546892,0
0.6,9,0,0.299842,0.00553083,0
0.6,9.1,0,0.299879,0.00557373,0
0.6,9.2,0,0.299899,0.00560894,0
0.6,9.3,0,0.299919,0.00564235,0
0.6,9.4,0,0.299946,0.00566221,0
0.6,9.5,0,0.299962,0.00567772,0
0.6,9.6,0,0.29998,0.00568861,0
0.6,9.7,0,0.299997,0.00569081,0
0.6,9.8,0,0.30001,0.00569088,0
0.6,9.9,0,0.300023,0.005685,0
0.6,10,0,0.300033,0.00567501,0
0.6,10.1,0,0.300045,0.00566316,0
0.6,10.2,0,0.300053,0.00564573,0
0.6,10.3,0,0.300058,0.00562813,0
0.6,10.4,0,0.300067,0.00560777,0
0.6,10.5,0,0.30007,0.0055833,0
0.6,10.6,0,0.300072,0.0055613,0
0.6,10.7,0,0.300079,0.00553613,0
0.6,10.8,0,0.300077,0.00550842,0
0.6,10.9,0,0.300078,0.0054846,0
0.6,11,0,0.300082,0.00545768,0
0.6,11.1,0,0.300076,0.0054299,0
0.6,11.2,0,0.300076,0.00540661,0
0.6,11.3,0,0.300076,0.00538058,0
0.6,11.4,0,0.300069,0.00535557,0
0.6,11.5,0,0.300068,0.00533396,0
0.6,11.6,0,0.300065,0.00531099,0
0.6,11.7,0,0.300058,0.00529041,0
0.6,11.8,0,0.300056,0.00527185,0
0.6,11.9,0,0.30005,0.00525357,0
0.6,12,0,0.300043,0.0052383,0
0.6,12.1,0,0.30004,0.00522416,0
0.6,12.2,0,0.300033,0.00521177,0
0.6,12.3,0,0.300027,0.00520229,0
0.6,12.4,0,0.300022,0.00519364,0
0.6,12.5,0,0.300015,0.0051879,0
0.6,12.6,0,0.300011,0.00518458,0
0.6,12.7,0,0.300012,0.00518274,0
0.7,0,0,0.300003,-0.00687649,0
0.7,0.1,0,0.300003,-0.00687691,0
0.7,0.2,0,0.300004,-0.00687771,0
0.7,0.3,0,0.300005,-0.00687893,0
0.7,0.4,0,0.300007,-0.00688115,0
0.7,0.5,0,0.300009,-0.00688342,0
0.7,0.6,0,0.30001,-0.00688606,0
0.7,0.7,0,0.300011,-0.00688931,0
0.7,0.8,0,0.300011,-0.0068921,0
0.7,0.9,0,0.300011,-0.00689589,0
0.7,1,0,0.300012,-0.00689954,0
0.7,1.1,0,0.300011,-0.00690249,0
0.7,1.2,0,0.30001,-0.00690611,0
0.7,1.3,0,0.300008,-0.00690844,0
0.7,1.4,0,0.300006,-0.00691098,0
0.7,1.5,0,0.300004,-0.0069134,0
0.7,1.6,0,0.3,-0.00691327,0
0.7,1.7,0,0.299995,-0.00691355,0
0.7,1.8,0,0.299992,-0.0069119,0
0.7,1.9,0,0.299985,-0.0069085,0
0.7,2,0,0.299978,-0.00690536,0
0.7,2.1,0,0.299971,-0.00689688,0
0.7,2.2,0,0.299961,-0.00688806,0
0.7,2.3,0,0.299953,-0.00687711,0
0.7,2.4,0,0.29994,-0.00686081,0
0.7,2.5,0,0.299927,-0.00684568,0
0.7,2.6,0,0.299915,-0.00682131,0
0.7,2.7,0,0.299898,-0.00679512,0
0.7,2.8,0,0.299885,-0.00676741,0
0.7,2.9,0,0.299864,-0.00672859,0
0.7,3,0,0.299842,-0.00669262,0
0.7,3.1,0,0.299824,-0.0066423,0
0.7,3.2,0,0.299798,-0.00658774,0
0.7,3.3,0,0.299779,-0.00653359,0
0.7,3.4,0,0.299748,-0.00645993,0
0.7,3.5,0,0.299714,-0.00639185,0
0.7,3.6,0,0.299691,-0.00630336,0
0.7,3.7,0,0.299654,-0.00620703,0
0.7,3.8,0,0.299628,-0.0061151,0
0.7,3.9,0,0.299586,-0.00599247,0
0.7,4,0,0.29954,-0.00587939,0
0.7,4.1,0,0.299513,-0.00573977,0
0.7,4.2,0,0.299466,-0.00558735,0
0.7,4.3,0,0.299434,-0.00544626,0
0.7,4.4,0,0.299384,-0.00526118,0
0.7,4.5,0,0.299325,-0.00509079,0
0.7,4.6,0,0.299299,-0.00489079,0
0.7,4.7,0,0.299247,-0.00467252,0
0.7,4.8,0,0.299213,-0.00447775,0
0.7,4.9,0,0.299171,-0.00427884,0
0.7,5,0,0.299117,-0.00411737,0
0.7,5.1,0,0.29905,-0.00373529,0
0.7,5.2,0,0.299008,-0.0034619,0
0.7,5.3,0,0.298966,-0.00317628,0
0.7,5.4,0,0.298927,-0.00287882,0
0.7,5.5,0,0.298891,-0.00257019,0
0.7,5.6,0,0.298857,-0.00225116,0
0.7,5.7,0,0.298826,-0.00192265,0
0.7,5.8,0,0.298799,-0.00158566,0
0.7,5.9,0,0.298776,-0.00124132,0
0.7,6,0,0.298758,-0.000890861,0
0.7,6.1,0,0.298744,-0.000535611,0
0.7,6.2,0,0.298736,-0.000176969,0
0.7,6.3,0,0.298732,0.000183602,0
0.7,6.4,0,0.298733,0.000544598,0
0.7,6.5,0,0.298739,0.000904494,0
0.7,6.6,0,0.298751,0.00126176,0
0.7,6.7,0,0.298767,0.00161487,0
0.7,6.8,0,0.298789,0.00196233,0
0.7,6.9,0,0.298814,0.00230286,0
0.7,7,0,0.298863,0.00281953,0
0.7,7.1,0,0.298918,0.0030259,0
0.7,7.2,0,0.298954,0.00328757,0
0.7,7.3,0,0.298966,0.00355157,0
0.7,7.4,0,0.299031,0.00382794,0
0.7,7.5,0,0.299084,0.00412345,0
0.7,7.6,0,0.299112,0.00436365,0
0.7,7.7,0,0.299177,0.00460644,0
0.7,7.8,0,0.299235,0.00485819,0
0.7,7.9,0,0.299272,0.00505033,0
0.7,8,0,0.299334,0.00525296,0
0.7,8.1,0,0.299386,0.00545223,0
0.7,8.2,0,0.29943,0.00560267,0
0.7,8.3,0,0.299488,0.00576272,0
0.7,8.4,0,0.299533,0.0059127,0
0.7,8.5,0,0.29958,0.0060246,0
0.7,8.6,0,0.299633,0.00614173,0
0.7,8.7,0,0.29967,0.00624788,0
0.7,8.8,0,0.299714,0.00632357,0
0.7,8.9,0,0.29976,0.00640254,0
0.7,9,0,0.299791,0.00647055,0
0.7,9.1,0,0.299828,0.00651519,0
0.7,9.2,0,0.299867,0.00656171,0