/*--------------------------------*- C++ -*----------------------------------*\
| =========                 |                                                 |
| \\      /  F ield         | OpenFOAM: The Open Source CFD Toolbox           |
|  \\    /   O peration     | Version:  v1806                                 |
|   \\  /    A nd           | Web:      www.OpenFOAM.com                      |
|    \\/     M anipulation  |                                                 |
\*---------------------------------------------------------------------------*/
FoamFile
{
    version     2.0;
    format      ascii;
    class       surfaceScalarField;
    location    "1";
    object      phi;
}
// * * * * * * * * * * * * * * * * * * * * * * * * * * * * * * * * * * * * * //

dimensions      [0 3 -1 0 0 0 0];
oriented        oriented;


internalField   nonuniform List<scalar> 
4680
(
0.748574
-0.0203026
0.752971
-0.00111165
0.754294
-0.0186073
0.744596
-0.115147
0.736455
-0.169768
0.742785
-0.115278
0.755141
-0.0397137
0.756747
-0.0625131
0.738808
-0.206406
0.702977
-0.40134
0.655754
-0.56756
0.603707
-0.671143
0.55121
-0.719067
0.500377
-0.731846
0.452054
-0.726235
0.406689
-0.711649
0.364546
-0.69215
0.325856
-0.66958
0.290524
-0.644606
-0.618197
0.258757
0.748486
-0.0187881
0.751848
-0.00447382
0.752625
-0.0193842
0.744406
-0.106928
0.739397
-0.164759
0.742037
-0.117918
0.743811
-0.0414881
0.739283
-0.0579845
0.726513
-0.193635
0.699625
-0.374453
0.66074
-0.528675
0.617284
-0.627687
0.574275
-0.676058
0.533072
-0.690642
0.493405
-0.686568
0.455071
-0.673315
0.418142
-0.655221
0.382996
-0.634433
0.349944
-0.611554
-0.587256
0.319002
0.748698
-0.0174857
0.75311
-0.00888644
0.752147
-0.0184209
0.742185
-0.0969666
0.734405
-0.156978
0.734875
-0.118388
0.741142
-0.0477551
0.743301
-0.0601439
0.727508
-0.177842
0.692223
-0.339168
0.645933
-0.482385
0.599595
-0.581349
0.556292
-0.632755
0.515711
-0.650061
0.476933
-0.64779
0.439717
-0.636098
0.404059
-0.619564
0.37027
-0.600644
0.338494
-0.579778
-0.557905
0.309143
0.750054
-0.01754
0.751416
-0.0102478
0.749595
-0.0166007
0.743811
-0.0911817
0.736376
-0.149544
0.732672
-0.114684
0.732518
-0.0476005
0.726295
-0.0539206
0.706792
-0.15834
0.67993
-0.312306
0.652448
-0.454902
0.624225
-0.553127
0.593608
-0.602138
0.561089
-0.617542
0.527967
-0.614668
0.495206
-0.603338
0.462959
-0.587316
0.431517
-0.569202
0.400767
-0.549028
-0.528218
0.371079
0.749063
-0.0166035
0.748076
-0.00926042
0.750033
-0.0185581
0.746086
-0.0872344
0.735983
-0.139441
0.733089
-0.11179
0.737097
-0.051608
0.733357
-0.050181
0.720835
-0.145818
0.702351
-0.293822
0.675154
-0.427705
0.636697
-0.51467
0.59183
-0.557271
0.547076
-0.572789
0.505475
-0.573067
0.468209
-0.566072
0.434792
-0.5539
0.405025
-0.539434
0.377961
-0.521965
-0.503359
0.353103
0.748305
-0.014908
0.751069
-0.0120247
0.751507
-0.0189964
0.742251
-0.077978
0.733948
-0.131138
0.734255
-0.112097
0.736354
-0.0537074
0.736217
-0.0500438
0.73174
-0.141341
0.71796
-0.280042
0.691688
-0.401433
0.660048
-0.48303
0.629402
-0.526625
0.599867
-0.543254
0.569256
-0.542456
0.537459
-0.534276
0.504247
-0.520688
0.471258
-0.506444
0.438742
-0.489449
-0.472715
0.408098
0.749997
-0.0149051
0.749857
-0.0118851
0.74752
-0.0166586
0.744581
-0.0750391
0.739696
-0.126254
0.731726
-0.104126
0.726587
-0.0485687
0.721997
-0.0454544
0.700977
-0.12032
0.660752
-0.239818
0.617486
-0.358167
0.581905
-0.447449
0.553667
-0.498387
0.529534
-0.519122
0.50673
-0.519652
0.485491
-0.513037
0.464031
-0.499228
0.443338
-0.485751
0.422137
-0.468249
-0.451556
0.400979
0.748813
-0.0137184
0.748812
-0.0118842
0.749966
-0.0178124
0.745058
-0.0701308
0.735205
-0.116401
0.733155
-0.102076
0.740627
-0.0560407
0.744428
-0.0492557
0.740631
-0.116522
0.735947
-0.235134
0.729222
-0.351442
0.712513
-0.43074
0.681696
-0.467569
0.643146
-0.480572
0.601582
-0.478088
0.562749
-0.474204
0.525662
-0.462141
0.493185
-0.453274
0.462655
-0.437719
-0.424368
0.435467
0.749288
-0.0130062
0.749804
-0.0124003
0.748863
-0.0168715
0.743826
-0.0650934
0.7387
-0.111275
0.734687
-0.098064
0.728535
-0.0498879
0.720644
-0.0413647
0.709408
-0.105287
0.686938
-0.212663
0.651768
-0.316272
0.61417
-0.393142
0.582833
-0.436232
0.560898
-0.458637
0.541137
-0.458327
0.524239
-0.457305
0.504007
-0.441909
0.485389
-0.434656
0.464271
-0.416602
-0.40394
0.443844
0.749265
-0.0122712
0.748944
-0.0120793
0.748662
-0.0165894
0.745125
-0.0615564
0.737592
-0.103742
0.732335
-0.0928072
0.734515
-0.0520681
0.738525
-0.0453745
0.733706
-0.100467
0.718433
-0.19739
0.698459
-0.296299
0.677569
-0.372251
0.652176
-0.41084
0.624492
-0.430953
0.59232
-0.426155
0.565123
-0.430109
0.534879
-0.411664
0.511639
-0.411416
0.486643
-0.391606
-0.382526
0.465229
0.749203
-0.0114743
0.749081
-0.0119574
0.748665
-0.0161737
0.744504
-0.0573953
0.738342
-0.0975795
0.734608
-0.0890731
0.73245
-0.0499102
0.727595
-0.04052
0.718538
-0.0914095
0.705446
-0.184299
0.685978
-0.27683
0.661199
-0.347472
0.632698
-0.382339
0.607967
-0.406222
0.580504
-0.398692
0.561944
-0.411549
0.535742
-0.385462
0.519769
-0.395443
0.497956
-0.369794
-0.364959
0.480389
0.749254
-0.0107278
0.748931
-0.0116344
0.748432
-0.015675
0.744838
-0.0538016
0.738327
-0.0910681
0.732728
-0.0834748
0.731114
-0.0482962
0.731495
-0.0409007
0.727463
-0.0873774
0.714428
-0.171264
0.693221
-0.255623
0.66922
-0.323471
0.642982
-0.356101
0.620804
-0.384043
0.592362
-0.37025
0.576509
-0.395696
0.546938
-0.355891
0.535289
-0.383793
0.513111
-0.347617
-0.350211
0.498364
0.749246
-0.00997333
0.748845
-0.0112341
0.748269
-0.0150987
0.744494
-0.0500271
0.738017
-0.0845908
0.733187
-0.0786451
0.731785
-0.046894
0.729908
-0.0390235
0.7233
-0.0807693
0.710699
-0.158663
0.693007
-0.237931
0.671672
-0.302136
0.646609
-0.331038
0.625218
-0.362653
0.595767
-0.340799
0.584409
-0.384338
0.551637
-0.323118
0.547742
-0.379898
0.525795
-0.325669
-0.340354
0.515938
0.749246
-0.00921899
0.748722
-0.0107102
0.748019
-0.0143959
0.744348
-0.0463559
0.737999
-0.0782422
0.732627
-0.0732726
0.73032
-0.0445868
0.728717
-0.0374207
0.724052
-0.076105
0.712506
-0.147117
0.6948
-0.220225
0.672373
-0.279709
0.647967
-0.306632
0.627371
-0.342057
0.598502
-0.31193
0.591762
-0.377599
0.555229
-0.286585
0.560359
-0.385029
0.536978
-0.302288
-0.337935
0.534559
0.749233
-0.0084522
0.748605
-0.0100817
0.747818
-0.0136097
0.74408
-0.0426179
0.737583
-0.0717449
0.731969
-0.0676585
0.729599
-0.0422168
0.72776
-0.0355821
0.722688
-0.0710321
0.710685
-0.135114
0.693882
-0.203422
0.671886
-0.257714
0.649156
-0.283901
0.628067
-0.320968
0.600829
-0.284692
0.595736
-0.372506
0.557742
-0.248591
0.571062
-0.398348
0.543676
-0.274903
-0.347931
0.553673
0.749223
-0.00767502
0.748491
-0.00934963
0.747571
-0.0126904
0.743743
-0.0387889
0.737163
-0.0651653
0.731338
-0.0618336
0.728538
-0.0394168
0.72626
-0.0333038
0.721075
-0.0658475
0.709235
-0.123275
0.692336
-0.186522
0.669815
-0.235192
0.6474
-0.261486
0.624564
-0.298132
0.601243
-0.261371
0.592121
-0.363384
0.560801
-0.217272
0.576696
-0.414243
0.544161
-0.242367
-0.377416
0.573646
0.749209
-0.00688373
0.748379
-0.00851945
0.747335
-0.0116469
0.743387
-0.0348407
0.736642
-0.0584206
0.730609
-0.0558003
0.727364
-0.0361721
0.724798
-0.0307378
0.718925
-0.0599747
0.707176
-0.111525
0.689095
-0.168441
0.666846
-0.212944
0.643183
-0.237824
0.617388
-0.272337
0.600055
-0.244037
0.577133
-0.340461
0.565596
-0.205736
0.570902
-0.419549
0.539565
-0.21103
-0.435627
0.597776
0.749179
-0.00606295
0.748281
-0.00762098
0.747122
-0.0104879
0.743029
-0.0307475
0.736095
-0.0514874
0.729902
-0.0496066
0.72612
-0.0323904
0.72328
-0.0278982
0.716426
-0.0531207
0.704939
-0.100038
0.684873
-0.148375
0.663473
-0.191544
0.636358
-0.210708
0.609965
-0.245944
0.593329
-0.227401
0.554713
-0.301846
0.569635
-0.220658
0.548144
-0.398058
0.536022
-0.198908
-0.5307
0.631095
0.749137
-0.00520021
0.748184
-0.00666799
0.746905
-0.00920829
0.742658
-0.0265011
0.735629
-0.0444587
0.729236
-0.043213
0.724913
-0.0280677
0.721643
-0.0246284
0.714122
-0.0455991
0.702083
-0.0879988
0.680936
-0.127228
0.65832
-0.168928
0.628753
-0.181141
0.600722
-0.217914
0.577357
-0.204035
0.538277
-0.262766
0.54942
-0.231801
0.501742
-0.35038
0.557808
-0.254974
-0.579316
0.606423
0.749135
-0.00433515
0.748155
-0.00568804
0.746643
-0.00769653
0.742235
-0.0220925
0.735225
-0.0374487
0.728558
-0.036546
0.723934
-0.0234441
0.719882
-0.0205765
0.712602
-0.0383194
0.698419
-0.0738153
0.678637
-0.107446
0.65067
-0.140961
0.62388
-0.154352
0.586974
-0.181007
0.559327
-0.176388
0.51756
-0.220999
0.493927
-0.208168
0.448636
-0.305088
0.517124
-0.323463
0.505664
-0.567855
0.204306
-1.15276
0.159685
-1.03872
0.123645
-0.927166
0.0948903
-0.821236
0.0722982
-0.723083
0.0548436
-0.633809
0.0415526
-0.55381
0.0315453
-0.483018
0.0240576
-0.421054
-0.367196
0.0185133
0.264062
-1.09782
0.217208
-0.991864
0.177229
-0.887188
0.14333
-0.787337
0.114908
-0.694661
0.0914617
-0.610362
0.07245
-0.534798
0.0572709
-0.467839
0.0452995
-0.409082
-0.357858
0.0359609
0.257105
-1.04578
0.213478
-0.948238
0.177107
-0.850817
0.146752
-0.756981
0.121318
-0.669227
0.0999788
-0.589023
0.082134
-0.516954
0.0673107
-0.453016
0.0551045
-0.396876
-0.347883
0.0451301
0.314863
-0.989563
0.264264
-0.897638
0.219829
-0.806382
0.181707
-0.718859
0.149631
-0.637152
0.122983
-0.562375
0.101015
-0.494985
0.0829902
-0.434992
0.0682595
-0.382146
-0.335884
0.0562598
0.307896
-0.944356
0.266888
-0.85663
0.229298
-0.768792
0.195088
-0.684649
0.164583
-0.606646
0.137951
-0.535743
0.115113
-0.472147
0.095799
-0.415678
0.0796459
-0.365992
-0.322483
0.0662459
0.351409
-0.887668
0.301112
-0.806333
0.256708
-0.724388
0.21768
-0.645621
0.183726
-0.572693
0.154479
-0.506496
0.129508
-0.447176
0.108358
-0.394528
0.0905847
-0.348219
-0.307648
0.0757489
0.357665
-0.844354
0.314781
-0.763449
0.273379
-0.682986
0.234708
-0.606949
0.199839
-0.537824
0.169172
-0.475828
0.14264
-0.420644
0.119953
-0.371842
0.10074
-0.329006
-0.291501
0.0845937
0.384723
-0.79361
0.337694
-0.71642
0.293416
-0.638708
0.252393
-0.565927
0.21551
-0.500941
0.18305
-0.443367
0.154887
-0.392481
0.130706
-0.347661
0.110133
-0.308434
-0.27413
0.0927623
0.399956
-0.749723
0.355563
-0.672027
0.311034
-0.594178
0.268527
-0.52342
0.229924
-0.462338
0.19581
-0.409254
0.166125
-0.362796
0.140554
-0.322089
0.118721
-0.286601
-0.255622
0.100213
0.420091
-0.704585
0.375101
-0.627037
0.328665
-0.547742
0.283892
-0.478647
0.243298
-0.421743
0.207492
-0.373448
0.176342
-0.331645
0.14947
-0.295218
0.12647
-0.263601
-0.236059
0.106907
0.437997
-0.662193
0.394134
-0.583174
0.3456
-0.499209
0.298211
-0.431257
0.255504
-0.379037
0.218022
-0.335966
0.18549
-0.299113
0.15742
-0.267149
0.13335
-0.239531
-0.215516
0.112808
0.457153
-0.620983
0.414113
-0.540134
0.362143
-0.447238
0.31146
-0.380575
0.266469
-0.334045
0.227331
-0.296828
0.193522
-0.265304
0.164372
-0.237999
0.139333
-0.214491
-0.194064
0.11788
0.476869
-0.581914
0.435009
-0.498275
0.377908
-0.390137
0.323413
-0.32608
0.276038
-0.28667
0.235319
-0.256109
0.200385
-0.23037
0.170298
-0.207911
0.144395
-0.188588
-0.171758
0.122089
0.498165
-0.545519
0.456822
-0.456932
0.392401
-0.325716
0.333738
-0.267417
0.283986
-0.236918
0.24186
-0.213983
0.206027
-0.194537
0.175176
-0.177061
0.148523
-0.161935
-0.148637
0.125403
0.521125
-0.512972
0.478777
-0.414584
0.404547
-0.251485
0.341891
-0.204761
0.289942
-0.184969
0.246793
-0.170834
0.210402
-0.158147
0.179004
-0.145663
0.15172
-0.134651
-0.124717
0.1278
0.544438
-0.483765
0.498533
-0.368678
0.412681
-0.165634
0.3471
-0.13918
0.293451
-0.13132
0.24997
-0.127353
0.213494
-0.121671
0.181798
-0.113967
0.153998
-0.10685
-0.0999754
0.129256
0.56317
-0.449159
0.506185
-0.311693
0.41302
-0.0724691
0.348003
-0.0741633
0.294099
-0.0774156
0.251258
-0.0845116
0.215284
-0.085697
0.183576
-0.0822586
0.155357
-0.0786316
-0.0743262
0.129708
0.563273
-0.381337
0.477413
-0.225833
0.382649
0.022295
0.329999
-0.0215128
0.286118
-0.0335345
0.248892
-0.0472861
0.215124
-0.0519286
0.184014
-0.0511489
0.155571
-0.0501889
-0.0476023
0.128847
0.486183
-0.261097
0.398536
-0.138186
0.344061
0.0767699
0.309487
0.0130606
0.27476
0.0011931
0.241643
-0.0141691
0.20987
-0.0201563
0.179992
-0.02127
0.151949
-0.022146
-0.0208837
0.12523
0.244567
0.106382
0.183151
0.196212
0.197405
0.183236
0.16308
0.14181
0.119664
0.0987799
0.0126156
-0.477952
0.00880941
-0.390502
0.0063398
-0.320665
0.00469251
-0.264639
0.00356047
-0.219115
0.00275665
-0.181759
0.00216866
-0.15085
0.00172757
-0.125129
0.0013901
-0.103641
0.00112814
-0.0856399
0.00092282
-0.0705252
0.000760998
-0.0577995
0.000633283
-0.0470451
0.000532818
-0.0379073
0.00045451
-0.0300804
0.000394582
-0.0233002
0.000350236
-0.0173338
0.000319508
-0.011974
0.00030117
-0.00703176
-0.00237241
0.0255305
-0.467522
0.0184658
-0.383437
0.013677
-0.315876
0.0103681
-0.26133
0.00802476
-0.216772
0.00631741
-0.180052
0.00504
-0.149573
0.00406256
-0.124151
0.00330167
-0.10288
0.00270212
-0.0850403
0.0022261
-0.0700492
0.00184682
-0.0574202
0.00154477
-0.0467431
0.0013054
-0.0376679
0.00111776
-0.0298928
0.000973593
-0.023156
0.000866724
-0.0172269
0.000792796
-0.0119
0.000749113
-0.00698808
-0.00235762
0.0334274
-0.455819
0.0250992
-0.375109
0.0191884
-0.309965
0.0149414
-0.257083
0.0118289
-0.21366
0.00949143
-0.177714
0.00769492
-0.147776
0.00628723
-0.122743
0.0051684
-0.101761
0.00427086
-0.0841428
0.00354726
-0.0693256
0.00296327
-0.0568362
0.00249319
-0.046273
0.00211746
-0.0372922
0.00182097
-0.0295963
0.00159212
-0.0229272
0.00142212
-0.0170569
0.00130472
-0.0117826
0.00123598
-0.00691934
-0.0023346
0.0421329
-0.441692
0.0320202
-0.364997
0.0247742
-0.302719
0.0195084
-0.251817
0.0156006
-0.209752
0.0126284
-0.174742
0.010316
-0.145464
0.00848341
-0.120911
0.00701215
-0.10029
0.00582148
-0.0829521
0.00485433
-0.0683584
0.00406883
-0.0560507
0.00343323
-0.0456374
0.00292305
-0.036782
0.00251914
-0.0291924
0.00220668
-0.0226147
0.00197434
-0.0168246
0.00181397
-0.0116223
0.00172036
-0.00682573
-0.00230337
0.0501979
-0.425644
0.0385591
-0.353358
0.0301205
-0.29428
0.0239204
-0.245617
0.0192689
-0.2051
0.015694
-0.171167
0.0128857
-0.142655
0.0106413
-0.118666
0.00882628
-0.0984746
0.00734859
-0.0814744
0.00614234
-0.0671522
0.00515869
-0.0550671
0.00436017
-0.0448389
0.00371756
-0.0361394
0.00320781
-0.0286826
0.00281293
-0.0222198
0.0025191
-0.0165308
0.0023163
-0.0114195
0.002198
-0.00670743
-0.0022639
0.0578377
-0.407733
0.0447707
-0.340291
0.0352313
-0.284741
0.0281675
-0.238553
0.0228221
-0.199755
0.0186777
-0.167023
0.0153954
-0.139373
0.0127536
-0.116025
0.0106048
-0.0963258
0.00884715
-0.0797167
0.00740699
-0.065712
0.00622915
-0.0538892
0.00527078
-0.0438805
0.00449815
-0.0353668
0.00388445
-0.0280689
0.0034086
-0.021744
0.00305433
-0.0161765
0.00280977
-0.0111749
0.00266705
-0.0065647
-0.00221624
0.0649703
-0.388109
0.05061
-0.32593
0.0400784
-0.27421
0.032231
-0.230705
0.0262468
-0.193771
0.0215695
-0.162346
0.0178371
-0.135641
0.0148139
-0.113001
0.0123422
-0.0938542
0.0103123
-0.0776869
0.00864413
-0.0640438
0.00727661
-0.0525217
0.00616194
-0.0427658
0.00526211
-0.0344669
0.00454667
-0.0273535
0.00399154
-0.0211889
0.00357808
-0.015763
0.00329257
-0.0108894
0.00312581
-0.00639795
-0.00216047
0.0715602
-0.366907
0.0560464
-0.310417
0.0446396
-0.262803
0.0360951
-0.222161
0.0295316
-0.187207
0.0243604
-0.157174
0.0202035
-0.131484
0.0168158
-0.109614
0.014033
-0.0910714
0.0117396
-0.0753934
0.00984975
-0.062154
0.00829758
-0.0509695
0.00703062
-0.0414989
0.00600677
-0.0334431
0.00519211
-0.0265388
0.00455965
-0.0205564
0.00408843
-0.0152918
0.00376292
-0.0105639
0.00357262
-0.00620765
-0.00209674
0.0775655
-0.34426
0.0610501
-0.293901
0.0488953
-0.250648
0.0397469
-0.213013
0.0326671
-0.180127
0.0270431
-0.15155
0.0224883
-0.126929
0.0187539
-0.105879
0.0156724
-0.0879899
0.0131244
-0.0728455
0.01102
-0.0600496
0.0092887
-0.0492382
0.00787386
-0.040084
0.00672953
-0.0322988
0.00581847
-0.0256277
0.00511088
-0.0198488
0.00458352
-0.0147644
0.00421911
-0.0101995
0.00400586
-0.0059944
-0.00202522
0.0829449
-0.320298
0.0655936
-0.27655
0.0528289
-0.237883
0.0431764
-0.20336
0.0356465
-0.172597
0.0296118
-0.145516
0.0246861
-0.122003
0.0206231
-0.101816
0.0172557
-0.0846225
0.0144628
-0.0700525
0.0121512
-0.057738
0.0102467
-0.0473338
0.0086888
-0.0385261
0.00742789
-0.0310379
0.00642355
-0.0246234
0.00564325
-0.0190685
0.00506156
-0.0141828
0.00465947
-0.00979738
0.00442396
-0.00575889
-0.00194613
0.0876547
-0.295145
0.0696514
-0.258546
0.0564279
-0.22466
0.0463773
-0.193309
0.0384653
-0.164685
0.0320623
-0.139113
0.0267927
-0.116734
0.0224191
-0.0974428
0.0187788
-0.0809821
0.0157507
-0.0670245
0.0132398
-0.055227
0.0111684
-0.0452624
0.00947267
-0.0368304
0.00809941
-0.0296646
0.0070052
-0.0235292
0.00615484
-0.0182181
0.0055208
-0.0135487
0.0050824
-0.00935898
0.00482539
-0.00550188
-0.00185971
0.0916477
-0.268912
0.0732007
-0.240099
0.0596832
-0.211142
0.0493469
-0.182973
0.0411219
-0.156461
0.0343921
-0.132383
0.0288046
-0.111146
0.0241381
-0.0927763
0.0202376
-0.0770816
0.0169845
-0.0637714
0.0142824
-0.0525249
0.0120509
-0.0430309
0.0102228
-0.0350023
0.00874175
-0.0281835
0.00756132
-0.0223488
0.00664379
-0.0173006
0.00595956
-0.0128645
0.00548633
-0.00888575
0.00520868
-0.00522423
-0.00176624
0.0948717
-0.241695
0.0762219
-0.22145
0.0625912
-0.197512
0.0520869
-0.172469
0.0436176
-0.147991
0.0366005
-0.125366
0.0307194
-0.105265
0.0257767
-0.0878336
0.0216287
-0.0729337
0.0181607
-0.0603034
0.0152758
-0.0496399
0.0128912
-0.0406464
0.0109367
-0.0330478
0.00935264
-0.0265995
0.00808995
-0.0210861
0.00710833
-0.016319
0.00637624
-0.0121324
0.00586979
-0.00837931
0.00557244
-0.00492687
-0.00166604
0.0972664
-0.213559
0.078701
-0.202884
0.0651539
-0.183965
0.0546042
-0.161919
0.0459568
-0.139344
0.0386883
-0.118097
0.0325356
-0.0991126
0.027332
-0.08263
0.0229488
-0.0685505
0.019276
-0.0566306
0.0162169
-0.0465808
0.0136866
-0.038116
0.0116118
-0.030973
0.00992994
-0.0249177
0.00858916
-0.0197453
0.00754677
-0.0152766
0.00676931
-0.0113549
0.00623137
-0.00784137
0.00591533
-0.00461083
-0.00155943
0.0987608
-0.18452
0.0806355
-0.184759
0.06738
-0.170709
0.0569118
-0.151451
0.0481475
-0.130579
0.0406583
-0.110608
0.0342524
-0.0927066
0.0288018
-0.0771794
0.0241948
-0.0639435
0.0203273
-0.0527631
0.0171028
-0.0433564
0.0144343
-0.0354475
0.0122458
-0.0287845
0.0104716
-0.0231434
0.00905716
-0.0183308
0.00795749
-0.0141769
0.0071373
-0.0105347
0.00656972
-0.00727379
0.00623607
-0.00427717
-0.0014468
0.0992693
-0.154533
0.0820265
-0.167516
0.0692858
-0.157968
0.0590292
-0.141194
0.0502011
-0.121751
0.0425145
-0.102921
0.0358696
-0.0860617
0.0301836
-0.0714935
0.0253637
-0.0591235
0.0213115
-0.0487109
0.0179307
-0.0399756
0.015132
-0.0326488
0.0128366
-0.026489
0.0109756
-0.0212825
0.00949222
-0.0168474
0.00833898
-0.0130237
0.00747886
-0.00967463
0.00688359
-0.00667852
0.00653348
-0.00392707
-0.00132852
0.0986823
-0.123508
0.0828328
-0.151667
0.0708975
-0.146033
0.0609845
-0.131281
0.0521329
-0.1129
0.0442622
-0.0950507
0.0373873
-0.0791867
0.0314756
-0.0655818
0.0264527
-0.0541007
0.0222257
-0.0444839
0.0186978
-0.0364477
0.0157771
-0.0297281
0.0133819
-0.0240938
0.0114402
-0.0193408
0.00989273
-0.0153
0.0086898
-0.0118208
0.0077927
-0.00877753
0.00717179
-0.00605761
0.00680646
-0.00356173
-0.00120501
0.0967776
-0.0914385
0.0829663
-0.137856
0.0722572
-0.135324
0.0628172
-0.121841
0.0539616
-0.104044
0.0459075
-0.0869966
0.0388058
-0.072085
0.0326755
-0.0594515
0.0274591
-0.0488843
0.0230672
-0.040092
0.0194016
-0.0327822
0.0163674
-0.0266938
0.0138797
-0.0216061
0.0118636
-0.0173247
0.0102572
-0.0136935
0.00900864
-0.0105722
0.00807763
-0.00784652
0.00743324
-0.00541323
0.00705396
-0.00318245
-0.00107671
0.0923178
-0.058526
0.0821502
-0.127688
0.073428
-0.126602
0.0645835
-0.112997
0.0557086
-0.0951693
0.0474563
-0.0787443
0.0401248
-0.0647535
0.033781
-0.0531076
0.0283799
-0.0434832
0.023833
-0.0355452
0.0200395
-0.0289888
0.0169006
-0.0235549
0.0143283
-0.0190338
0.0122442
-0.0152406
0.0105842
-0.0120335
0.00929425
-0.0092823
0.00833255
-0.00688482
0.00766694
-0.00474762
0.00727506
-0.00279056
-0.000944079
0.0802277
-0.0399739
0.0802924
-0.127753
0.074499
-0.120808
0.0663613
-0.104859
0.0574013
-0.0862093
0.0489177
-0.0702607
0.0413465
-0.0571823
0.0347918
-0.0465528
0.0292141
-0.0379055
0.0245221
-0.0308532
0.0206104
-0.0250771
0.0173759
-0.0203203
0.0147265
-0.0163845
0.0125811
-0.0130952
0.0108729
-0.0103253
0.00954595
-0.00795532
0.00855685
-0.00589572
0.0078723
-0.00406308
0.00746922
-0.00238748
-0.000807566
0.0220709
-0.0620448
0.0307055
-0.136387
0.0300936
-0.120196
0.0270528
-0.101818
0.0234328
-0.0825893
0.0199618
-0.0667897
0.0168615
-0.054082
0.01418
-0.0438713
0.0119008
-0.0356264
0.00998539
-0.0289377
0.00838958
-0.0234813
0.00707093
-0.0190017
0.0059912
-0.0153047
0.00511733
-0.0122213
0.00442167
-0.00962968
0.00388143
-0.00741508
0.00347885
-0.00549314
0.00320022
-0.00378445
0.00303615
-0.00222341
-0.000752025
0.0201259
-0.0821706
0.0305999
-0.146861
0.0303702
-0.119967
0.0273608
-0.0988088
0.0236978
-0.0789263
0.0201772
-0.0632691
0.0170352
-0.0509401
0.0143204
-0.0411566
0.012015
-0.033321
0.0100787
-0.0270014
0.00846617
-0.0218688
0.00713428
-0.0176698
0.00604396
-0.0142144
0.00516177
-0.0113391
0.00445959
-0.00892749
0.00391437
-0.00686987
0.00350814
-0.00508691
0.00322698
-0.00350329
0.00306142
-0.00205785
-0.000695992
0.0194182
-0.101589
0.0306894
-0.158132
0.0307183
-0.119995
0.027686
-0.0957765
0.0239611
-0.0752014
0.0203852
-0.0596932
0.0172002
-0.0477551
0.0144524
-0.0384087
0.0121214
-0.03099
0.010165
-0.025045
0.00853675
-0.0202405
0.0071924
-0.0163254
0.00609222
-0.0131142
0.0052023
-0.0104492
0.00449409
-0.00821929
0.00394429
-0.00632007
0.00353469
-0.0046773
0.00325121
-0.00321981
0.00308429
-0.00189093
-0.000639485
0.0191127
-0.120702
0.0309324
-0.169952
0.0311383
-0.120201
0.0280282
-0.0926664
0.024224
-0.0713972
0.0205874
-0.0560567
0.0173582
-0.0445258
0.0145775
-0.0356281
0.0122216
-0.028634
0.0102459
-0.0230693
0.00860258
-0.0185972
0.00724642
-0.0149693
0.00613696
-0.0120048
0.00523978
-0.00955202
0.00452595
-0.00750545
0.00397188
-0.005766
0.00355914
-0.00426456
0.00327351
-0.00293418
0.00310531
-0.00172274
-0.00058254
0.0191015
-0.139803
0.0313314
-0.182182
0.0316343
-0.120504
0.0283879
-0.08942
0.0244861
-0.0674954
0.0207835
-0.052354
0.0175089
-0.0412512
0.0146956
-0.0328148
0.0123154
-0.0262538
0.0103212
-0.0210752
0.0086636
-0.0169395
0.00729631
-0.013602
0.00617814
-0.0108866
0.00527421
-0.00864808
0.00455513
-0.00678638
0.00399711
-0.00520798
0.00358146
-0.00384891
0.00329384
-0.00264657
0.00312447
-0.00155337
-0.000525195
0.019688
-0.159491
0.0319252
-0.194419
0.0322125
-0.120792
0.0287657
-0.0859732
0.0247471
-0.0634768
0.0209731
-0.04858
0.0176521
-0.0379303
0.0148066
-0.0299693
0.0124028
-0.02385
0.0103909
-0.0190633
0.00871977
-0.0152684
0.00734203
-0.0122242
0.00621575
-0.00976031
0.00530553
-0.00773787
0.00458162
-0.00606246
0.00401995
-0.00464631
0.00360163
-0.00343059
0.0033122
-0.00235714
0.00314176
-0.00138292
-0.000467484
0.0216744
-0.181165
0.0328194
-0.205564
0.0328833
-0.120855
0.0291615
-0.0822514
0.0250062
-0.0593215
0.0211557
-0.0447295
0.0177876
-0.0345622
0.0149102
-0.0270919
0.0124837
-0.0214234
0.010455
-0.0170346
0.00877103
-0.0135844
0.00738354
-0.0108368
0.00624973
-0.00862649
0.00533374
-0.00682188
0.00460539
-0.00533412
0.0040404
-0.00408132
0.00361965
-0.00300984
0.00332857
-0.00206605
0.00315714
-0.0012115
-0.000409445
0.0264119
-0.207577
0.034234
-0.213386
0.0336647
-0.120286
0.0295753
-0.078162
0.0252625
-0.0550087
0.0213309
-0.040798
0.0179151
-0.0311463
0.0150064
-0.0241833
0.0125579
-0.018975
0.0105132
-0.0149899
0.00881734
-0.0118886
0.0074208
-0.00944022
0.00628007
-0.00748576
0.0053588
-0.00590061
0.00462643
-0.00460175
0.00405844
-0.00351333
0.0036355
-0.0025869
0.00334293
-0.00177349
0.00317064
-0.0010392
-0.000351112
0.0350778
-0.242655
0.0364992
-0.214808
0.0345887
-0.118376
0.0300083
-0.0735816
0.0255149
-0.0505153
0.0214982
-0.0367812
0.0180343
-0.0276824
0.015095
-0.021244
0.0126255
-0.0165054
0.0105657
-0.0129301
0.00885864
-0.0101816
0.00745377
-0.00803535
0.00630674
-0.00633873
0.00538071
-0.00497458
0.00464473
-0.00386576
0.00407406
-0.00294266
0.00364918
-0.00216201
0.0033553
-0.00147962
0.00318223
-0.000866125
-0.000292524
0.0469492
-0.289604
0.0399187
-0.207777
0.0356692
-0.114126
0.0304697
-0.0683822
0.025757
-0.0458025
0.0216518
-0.0326761
0.0181406
-0.0241712
0.0151722
-0.0182756
0.0126831
-0.0140163
0.0106096
-0.0108566
0.00889271
-0.00846467
0.00748057
-0.00662321
0.00632815
-0.00518632
0.0053981
-0.00404452
0.00465911
-0.00312677
0.00408625
-0.0023698
0.00365976
-0.00173552
0.00336483
-0.00118469
0.00319113
-0.000692428
-0.000233697
0.247246
-0.215981
-0.320869
0.16492
-0.125452
0.12839
-0.0775961
0.105435
-0.0454263
0.0879809
-0.0283489
0.0735742
-0.0182694
0.061472
-0.012069
0.0513231
-0.00812667
0.0428507
-0.00554397
0.0358124
-0.00381832
0.0299961
-0.0026483
0.0252185
-0.00184562
0.021324
-0.00129179
0.0181833
-0.000903841
0.0156893
-0.000632807
0.013757
-0.000437471
0.0123187
-0.000297208
0.0113244
-0.000190395
0.0107388
-0.000106854
-3.52257e-05
0.223569
-0.120316
-0.319233
0.165695
-0.0675781
0.132154
-0.0440551
0.108581
-0.0218537
0.0899818
-0.00974941
0.0748036
-0.00309117
0.0622461
0.000488583
0.051826
0.00229335
0.0431849
0.00309715
0.0360381
0.00332853
0.0301502
0.00323955
0.0253247
0.00297991
0.0213979
0.00263504
0.0182351
0.00225892
0.0157262
0.00187609
0.0137837
0.00150501
0.0123387
0.00114783
0.0113401
0.000808136
0.0107522
0.000481106
0.000163974
0.222808
-0.0402909
-0.302834
0.172132
-0.0169012
0.136728
-0.00865142
0.111078
0.00379616
0.0913476
0.00998104
0.0755345
0.0127219
0.0626229
0.0134002
0.0519977
0.0129185
0.0432399
0.0118549
0.0360281
0.0105404
0.0301052
0.00916238
0.0252625
0.00782268
0.0213285
0.00656896
0.0181644
0.00542308
0.015657
0.00438349
0.0137172
0.00344479
0.0122751
0.00258997
0.011279
0.00180422
0.0106927
0.00106742
0.00036254
0.221902
0.0276877
-0.28988
0.174101
0.0308997
0.138416
0.0270332
0.112234
0.0299787
0.0919159
0.0302988
0.0757008
0.028937
0.0625567
0.0265444
0.0518125
0.0236628
0.0430019
0.0206655
0.0357747
0.0177675
0.0298569
0.0150802
0.0250293
0.0126503
0.0211145
0.0104837
0.0179701
0.00856749
0.0154811
0.00687256
0.013557
0.0053688
0.0121276
0.00401943
0.0111407
0.00279108
0.0105601
0.00164804
0.000559089
0.217842
0.0877664
-0.277921
0.173722
0.07502
0.138699
0.062056
0.112294
0.056384
0.0916864
0.0509061
0.075276
0.0453474
0.0620333
0.039787
0.0512612
0.0344349
0.0424651
0.0294616
0.0352748
0.0249578
0.0294035
0.0209515
0.0246243
0.0174295
0.0207556
0.0143524
0.0176525
0.0116706
0.0151989
0.00932621
0.0133038
0.00726384
0.0118968
0.00542641
0.010926
0.0037619
0.0103552
0.0022189
0.000752234
0.212907
0.141794
-0.266935
0.171252
0.116675
0.137387
0.095921
0.111228
0.0825428
0.0906474
0.0714871
0.0742452
0.0617497
0.0610405
0.0529917
0.0503361
0.0451393
0.0416253
0.0381725
0.0345263
0.0320568
0.0287444
0.0267334
0.0240478
0.022126
0.0202526
0.0181476
0.0172126
0.0147106
0.0148116
0.0117273
0.0129587
0.00911668
0.0115841
0.00680107
0.0106361
0.0047099
0.010079
0.00277597
0.000940594
0.206692
0.191251
-0.256149
0.167147
0.15622
0.134697
0.12837
0.109103
0.108137
0.0888103
0.0917802
0.0726053
0.0779548
0.0595729
0.0660241
0.0490337
0.0556784
0.040481
0.0467252
0.0335293
0.0390085
0.0278806
0.0323821
0.0233016
0.0267051
0.0196075
0.0218417
0.0166524
0.0176656
0.0143211
0.0140586
0.0125236
0.0109142
0.011191
0.0081337
0.0102725
0.00562835
0.00973323
0.00331527
0.00112281
0.199277
0.237028
-0.245053
0.161724
0.193773
0.130764
0.15933
0.105981
0.13292
0.0861974
0.111563
0.0703628
0.0937894
0.0576324
0.0787545
0.0473553
0.0659555
0.0390341
0.0550464
0.0322863
0.0457562
0.0268152
0.0378532
0.0223885
0.0311319
0.0188231
0.0254071
0.0159748
0.0205139
0.0137301
0.0163033
0.012001
0.0126433
0.01072
0.00941471
0.00983765
0.00651068
0.00932
0.00383293
0.00129755
0.190706
0.279696
-0.233374
0.155139
0.22934
0.125702
0.188768
0.101922
0.1567
0.0828388
0.130646
0.0675324
0.109096
0.0552274
0.0910595
0.0453069
0.075876
0.0372899
0.0630634
0.0308024
0.0522437
0.0255529
0.0431027
0.0213131
0.0353717
0.0179036
0.0288167
0.0151834
0.0232341
0.0130421
0.0184446
0.011394
0.0142914
0.0101739
0.0106348
0.00933412
0.00735047
0.00884188
0.00432516
0.00146355
0.181016
0.31965
-0.22097
0.147446
0.26291
0.119601
0.216612
0.0969852
0.179316
0.0787693
0.148862
0.0641351
0.12373
0.0523715
0.102823
0.0428987
0.0853488
0.0352568
0.0707054
0.0290847
0.0584158
0.0241
0.0480875
0.0200811
0.0393906
0.0168541
0.0320436
0.014283
0.0258052
0.0122611
0.0204665
0.0107064
0.0158461
0.00955626
0.0117849
0.00876516
0.00814157
0.00830195
0.00478838
0.00161958
0.170245
0.357129
-0.207724
0.138702
0.294453
0.112538
0.242776
0.0912279
0.200626
0.074027
0.166063
0.0601965
0.13756
0.049083
0.113937
0.0401446
0.0942872
0.032946
0.077904
0.0271429
0.0642188
0.0224649
0.0527655
0.0186997
0.0431558
0.0156811
0.0350622
0.013279
0.0282073
0.0113922
0.0223533
0.00994257
0.0172958
0.00887101
0.0128565
0.00813447
0.00887811
0.00770369
0.00521916
0.00176448
0.158423
0.39222
-0.193515
0.128965
0.323911
0.104579
0.267162
0.0847042
0.220501
0.0686522
0.182115
0.0557461
0.150466
0.045384
0.124299
0.0370619
0.102609
0.0303717
0.0845942
0.0249887
0.0696018
0.0206575
0.0570968
0.0171774
0.0466358
0.0143917
0.0378479
0.0121779
0.0304211
0.0104409
0.0240903
0.00910754
0.0186292
0.00812266
0.0138414
0.0074462
0.00955456
0.00705105
0.00561431
0.00189721
0.145578
0.42491
-0.178267
0.118288
0.351201
0.0957825
0.289668
0.0774673
0.238816
0.0626875
0.196895
0.050817
0.162337
0.0413004
0.133815
0.0336713
0.110238
0.0275505
0.090715
0.022636
0.0745163
0.0186894
0.0610433
0.0155242
0.049801
0.0129946
0.0403776
0.010987
0.0324286
0.00941355
0.0256637
0.00820685
0.0198359
0.00731622
0.014732
0.00670496
0.0101658
0.00634836
0.00597091
0.00201679
0.131737
0.455113
-0.16194
0.106721
0.376218
0.0862077
0.310181
0.06957
0.255454
0.0561774
0.210287
0.0454452
0.173069
0.036861