/*--------------------------------*- C++ -*----------------------------------*\
| =========                 |                                                 |
| \\      /  F ield         | OpenFOAM: The Open Source CFD Toolbox           |
|  \\    /   O peration     | Version:  v1806                                 |
|   \\  /    A nd           | Web:      www.OpenFOAM.com                      |
|    \\/     M anipulation  |                                                 |
\*---------------------------------------------------------------------------*/
FoamFile
{
    version     2.0;
    format      ascii;
    class       surfaceScalarField;
    location    "140";
    object      phi;
}
// * * * * * * * * * * * * * * * * * * * * * * * * * * * * * * * * * * * * * //

dimensions      [0 3 -1 0 0 0 0];
oriented        oriented;


internalField   nonuniform List<scalar> 
8600
(
0.0501799
-0.0643248
-0.0446651
0.0588101
0.0442002
-0.0769908
0.0829705
0.0355857
-0.0827318
0.0913464
0.028684
-0.0866837
0.0935854
0.0237304
-0.089088
0.0940416
0.0202021
-0.0903936
0.093922
0.0176461
-0.0909663
0.0935223
0.0157411
-0.0910808
0.0929857
0.0142828
-0.0909303
0.0923887
0.0131429
-0.0906299
0.0917698
0.0122379
-0.0902438
0.0911489
0.0115108
-0.089809
0.0905361
0.0109223
-0.0893475
0.0899361
0.0104444
-0.088873
0.0893508
0.0100574
-0.0883933
0.0887804
0.00974693
-0.0879131
0.0882236
0.00950271
-0.0874344
0.0876786
0.00931696
-0.0869587
0.0871445
0.00918329
-0.0864951
0.0866288
-0.0861029
0.0861903
0.0299147
-0.0621729
-0.0320666
0.0254739
-0.07255
0.022382
-0.0796399
0.0202379
-0.0845396
0.0184669
-0.087317
0.0168629
-0.0887896
0.0154352
-0.0895386
0.0142116
-0.0898573
0.013184
-0.0899028
0.0123257
-0.0897716
0.0116084
-0.0895265
0.0110081
-0.0892087
0.0105059
-0.0888453
0.0100872
-0.0884543
0.0097409
-0.088047
0.00945861
-0.0876308
0.00923407
-0.0872098
0.00906276
-0.0867874
0.008941
-0.0863733
-0.0860183
0.024807
-0.0649487
-0.0220312
0.025187
-0.0729301
0.0239969
-0.0784498
0.0217608
-0.0823036
0.0193942
-0.0849505
0.0173219
-0.0867173
0.0156183
-0.087835
0.0142357
-0.0884747
0.0131091
-0.0887762
0.0121847
-0.0888472
0.0114217
-0.0887636
0.01079
-0.0885769
0.0102666
-0.0883219
0.00983426
-0.088022
0.00948001
-0.0876928
0.00919398
-0.0873448
0.00896886
-0.0869847
0.00879935
-0.0866179
0.00868042
-0.0862544
-0.0859404
0.0178127
-0.0678635
-0.014898
0.018195
-0.0733123
0.017577
-0.0778318
0.0166662
-0.0813927
0.0157128
-0.0839971
0.0147535
-0.085758
0.0138095
-0.086891
0.0129207
-0.0875859
0.0121158
-0.0879713
0.0114051
-0.0881365
0.0107873
-0.0881457
0.0102556
-0.0880453
0.00980213
-0.0878685
0.00941932
-0.0876392
0.00910045
-0.0873739
0.00884003
-0.0870843
0.00863368
-0.0867784
0.00847796
-0.0864622
0.00836938
-0.0861458
-0.0858708
0.0141786
-0.0709997
-0.0110423
0.0156808
-0.0748145
0.01611
-0.078261
0.0157831
-0.0810658
0.0150169
-0.0832309
0.0140927
-0.0848339
0.0131729
-0.0859711
0.0123232
-0.0867363
0.0115638
-0.0872118
0.0108961
-0.0874687
0.010315
-0.0875646
0.0098137
-0.087544
0.00938504
-0.0874398
0.00902243
-0.0872765
0.00872013
-0.0870716
0.00847337
-0.0868376
0.00827831
-0.0865833
0.00813193
-0.0863158
0.00803113
-0.086045
-0.085808
0.0109308
-0.0735657
-0.00836481
0.0123169
-0.0762005
0.0128537
-0.0787978
0.0128754
-0.0810875
0.0126116
-0.0829671
0.01219
-0.0844122
0.0116835
-0.0854647
0.0111435
-0.0861962
0.0106077
-0.0866761
0.0101007
-0.0869618
0.00963611
-0.0871
0.00921995
-0.0871278
0.00885411
-0.087074
0.00853822
-0.0869607
0.0082709
-0.0868043
0.0080504
-0.0866171
0.00787505
-0.086408
0.00774331
-0.0861841
0.00765317
-0.0859549
-0.0857528
0.00880984
-0.0758261
-0.00654943
0.0103055
-0.0776962
0.0111423
-0.0796346
0.0114644
-0.0814096
0.0114163
-0.082919
0.0111396
-0.0841355
0.0107443
-0.0850694
0.0103011
-0.085753
0.0098514
-0.0862264
0.00941892
-0.0865293
0.00901675
-0.0866978
0.00865187
-0.0867629
0.00832762
-0.0867497
0.00804518
-0.0866782
0.00780459
-0.0865637
0.00760531
-0.0864178
0.00744656
-0.0862492
0.00732754
-0.0860651
0.0072468
-0.0858741
-0.0857045
0.00711244
-0.0776605
-0.00527807
0.00841304
-0.0789968
0.00921898
-0.0804405
0.00963399
-0.0818246
0.00976601
-0.083051
0.00970342
-0.0840729
0.00951413
-0.0848801
0.00924789
-0.0854868
0.00894177
-0.0859203
0.00862278
-0.0862103
0.00830955
-0.0863846
0.00801421
-0.0864676
0.00774432
-0.0864799
0.00750436
-0.0864383
0.00729688
-0.0863562
0.00712322
-0.0862441
0.00698403
-0.08611
0.00687953
-0.0859606
0.00680904
-0.0858037
-0.0856631
0.00584727
-0.0792294
-0.00427838
0.00704616
-0.0801957
0.00787254
-0.0812669
0.00837144
-0.0823235
0.00860544
-0.083285
0.00864199
-0.0841095
0.00854388
-0.084782
0.00836191
-0.0853048
0.00813284
-0.0856912
0.0078825
-0.08596
0.00762881
-0.0861309
0.00738398
-0.0862228
0.00715624
-0.0862521
0.00695097
-0.086233
0.00677166
-0.0861769
0.00662051
-0.086093
0.00649888
-0.0859884
0.00640756
-0.0858692
0.00634638
-0.0857425
-0.0856279
0.00483855
-0.0805188
-0.00354918
0.00586446
-0.0812216
0.00661344
-0.0820159
0.00710958
-0.0828197
0.00739524
-0.0835707
0.00751623
-0.0842305
0.00751477
-0.0847805
0.00742746
-0.0852175
0.00728421
-0.085548
0.00710845
-0.0857842
0.00691798
-0.0859405
0.00672597
-0.0860307
0.00654186
-0.086068
0.00637228
-0.0860634
0.00622181
-0.0860264
0.00609359
-0.0859647
0.00598974
-0.0858846
0.00591163
-0.0857911
0.00585956
-0.0856904
-0.0855985
0.00402305
-0.0816138
-0.00292805
0.00492423
-0.0821228
0.00561439
-0.0827061
0.0061019
-0.0833072
0.00641074
-0.0838795
0.0065725
-0.0843922
0.00662062
-0.0848286
0.00658611
-0.085183
0.00649539
-0.0854572
0.0063695
-0.0856583
0.00622467
-0.0857956
0.0060732
-0.0858793
0.00592426
-0.0859191
0.00578457
-0.0859237
0.005659
-0.0859009
0.00555102
-0.0858568
0.00546309
-0.0857967
0.00539688
-0.0857249
0.005353
-0.0856465
-0.0855743
0.00335359
-0.0825193
-0.00244806
0.00411718
-0.0828864
0.00472224
-0.0833111
0.00517017
-0.0837551
0.00547543
-0.0841848
0.00565932
-0.0845761
0.00574525
-0.0849145
0.00575595
-0.0851937
0.00571202
-0.0854133
0.00563112
-0.0855774
0.00552772
-0.0856922
0.00541327
-0.0857648
0.00529666
-0.0858024
0.00518463
-0.0858117
0.00508223
-0.0857985
0.00499317
-0.0857677
0.00492015
-0.0857236
0.00486504
-0.0856698
0.0048287
-0.0856102
-0.0855546
0.00278212
-0.0832798
-0.0020216
0.00343468
-0.0835389
0.00396484
-0.0838413
0.00437067
-0.0841609
0.00466008
-0.0844742
0.00484719
-0.0847633
0.00494933
-0.0850167
0.00498444
-0.0852288
0.00496939
-0.0853983
0.004919
-0.085527
0.00484577
-0.085619
0.00475981
-0.0856789
0.00466918
-0.0857118
0.00458015
-0.0857227
0.0044975
-0.0857158
0.00442487
-0.0856951
0.00436495
-0.0856637
0.00431964
-0.0856245
0.00428993
-0.0855805
-0.0855389
0.00229401
-0.0839027
-0.00167109
0.00283656
-0.0840815
0.00328647
-0.0842912
0.00364021
-0.0845147
0.00390182
-0.0847358
0.00408062
-0.0849421
0.00418876
-0.0851248
0.00423944
-0.0852795
0.00424561
-0.0854044
0.00421916
-0.0855006
0.00417048
-0.0855703
0.00410834
-0.0856167
0.00403988
-0.0856434
0.00397079
-0.0856536
0.00390552
-0.0856505
0.00384748
-0.085637
0.00379926
-0.0856155
0.00376271
-0.085588
0.00373888
-0.0855566
-0.0855266
0.00185969
-0.0844115
-0.00135088
0.00230709
-0.0845289
0.00268328
-0.0846674
0.00298464
-0.084816
0.00321312
-0.0849643
0.00337477
-0.0851037
0.00347829
-0.0852284
0.00353362
-0.0853348
0.00355087
-0.0854217
0.00353953
-0.0854893
0.0035081
-0.0855389
0.00346387
-0.0855725
0.00341289
-0.0855924
0.0033601
-0.0856008
0.0033094
-0.0855998
0.00326384
-0.0855915
0.00322574
-0.0855774
0.0031968
-0.085559
0.00317804
-0.0855379
-0.0855172
0.00147259
-0.0848123
-0.00107184
0.0018282
-0.0848845
0.00213091
-0.0849701
0.00237718
-0.0850623
0.00256762
-0.0851547
0.0027061
-0.0852422
0.00279863
-0.0853209
0.00285238
-0.0853885
0.00287487
-0.0854442
0.00287336
-0.0854878
0.00285453
-0.08552
0.00282424
-0.0855422
0.00278746
-0.0855556
0.00274828
-0.0855616
0.00271
-0.0855616
0.00267523
-0.0855567
0.00264597
-0.0855481
0.0026237
-0.0855367
0.00260933
-0.0855235
-0.0855103
0.00111498
-0.0851173
-0.000809968
0.00138714
-0.0851566
0.0016205
-0.0852034
0.00181223
-0.085254
0.00196245
-0.085305
0.00207363
-0.0853534
0.00214988
-0.0853971
0.0021963
-0.085435
0.00221839
-0.0854662
0.00222154
-0.0854909
0.00221079
-0.0855093
0.00219062
-0.085522
0.00216487
-0.0855298
0.00213676
-0.0855335
0.00210889
-0.0855337
0.00208334
-0.0855312
0.00206173
-0.0855265
0.00204525
-0.0855203
0.00203468
-0.0855129
-0.0855055
0.00078235
-0.0853305
-0.000569123
0.00097381
-0.0853481
0.0011389
-0.0853685
0.00127556
-0.0853907
0.00138366
-0.0854131
0.0014647
-0.0854344
0.00152132
-0.0854537
0.00155687
-0.0854705
0.00157506
-0.0854844
0.00157959
-0.0854954
0.00157395
-0.0855037
0.00156131
-0.0855094
0.00154441
-0.0855129
0.00152554
-0.0855146
0.00150661
-0.0855148
0.00148913
-0.0855137
0.00147428
-0.0855117
0.00146293
-0.0855089
0.00145568
-0.0855057
-0.0855023
0.000464301
-0.0854587
-0.000336078
0.000578632
-0.0854624
0.000677392
-0.0854673
0.000759427
-0.0854727
0.000824637
-0.0854783
0.000873825
-0.0854836
0.000908484
-0.0854884
0.000930553
-0.0854926
0.000942189
-0.0854961
0.000945575
-0.0854988
0.000942787
-0.0855009
0.000935705
-0.0855023
0.000925973
-0.0855032
0.000914983
-0.0855036
0.000903888
-0.0855037
0.00089361
-0.0855034
0.000884862
-0.0855029
0.000878168
-0.0855022
0.000873892
-0.0855014
-0.0855005
0.000155079
-0.000113827
0.000192654
0.000225358
0.000252626
0.000274348
0.000290765
0.000302359
0.000309768
0.000313703
0.000314887
0.000314007
0.000311689
0.000308482
0.00030485
0.000301176
0.000297767
0.000294862
0.000292638
0.000291229
-0.0393903
-0.00698096
0.0463712
-0.0333278
-0.00606251
-0.0279227
-0.00540508
-0.0230251
-0.00489755
-0.0185284
-0.00449672
-0.0143472
-0.00418117
-0.0104092
-0.00393801
-0.00665158
-0.00375766
-0.00301812
-0.00363347
0.000542922
-0.00356104
0.0040808
-0.00353787
0.007644
-0.0035632
0.011282
-0.00363797
0.015047
-0.00376504
0.0189967
-0.00394965
0.023197
-0.00420039
0.0277282
-0.0045312
0.0326939
-0.0049657
0.038246
-0.0055521
-0.00641907
-0.025245
-0.00902914
0.0272932
-0.0227474
-0.0085601
-0.0200082
-0.00814423
-0.0171181
-0.00778764
-0.0141263
-0.00748852
-0.011064
-0.00724352
-0.00795263
-0.00704937
-0.00480703
-0.00690326
-0.00163746
-0.00680303
0.00154867
-0.00674717
0.00474566
-0.00673486
0.00794842
-0.00676596
0.0111515
-0.00684102
0.0143478
-0.0069614
0.0175276
-0.00712938
0.0206757
-0.00734853
0.0237686
-0.00762414
0.0267672
-0.00796425
0.0295978
-0.00838272
-0.00888786
-0.0163962
-0.0102677
0.0176348
-0.0149176
-0.0100386
-0.0132344
-0.00982742
-0.011385
-0.00963704
-0.00940382
-0.00946974
-0.00731999
-0.00932735
-0.00515806
-0.0092113
-0.00293865
-0.00912267
-0.000679423
-0.00906226
0.00160401
-0.0090306
0.00389724
-0.0090281
0.00618629
-0.00905501
0.00845679
-0.00911152
0.0106931
-0.00919774
0.0128774
-0.00931369
0.0149883
-0.00945935
0.0169988
-0.00963468
0.0188745
-0.0098399
0.020568
-0.0100763
-0.0103511
-0.0100386
-0.0112536
0.0110245
-0.00896563
-0.0111116
-0.00781278
-0.0109803
-0.00658788
-0.0108619
-0.00529934
-0.0107583
-0.00395608
-0.0106706
-0.00256752
-0.0105999
-0.00114343
-0.0105468
0.000306195
-0.0105119
0.00177116
-0.0104956
0.00324115
-0.0104981
0.00470572
-0.0105196
0.00615425
-0.0105601
0.00757601
-0.0106195
0.00896005
-0.0106977
0.0102952
-0.0107945
0.0115701
-0.0109096
0.0127728
-0.0110426
0.0138901
-0.0111935
-0.0113589
-0.00718421
-0.0119936
0.00792421
-0.00638443
-0.0119113
-0.00552871
-0.011836
-0.00462222
-0.0117684
-0.00367105
-0.0117095
-0.00268187
-0.0116598
-0.00166166
-0.0116201
-0.000617611
-0.0115908
0.000442972
-0.0115725
0.00151273
-0.0115653
0.00258424
-0.0115696
0.00365003
-0.0115854
0.00470255
-0.0116126
0.00573418
-0.0116511
0.00673715
-0.0117007
0.00770356
-0.0117609
0.00862534
-0.0118314
0.0094942
-0.0119114
0.0103013
-0.0120006
-0.0121
-0.00492227
-0.0125951
0.00552375
-0.00429271
-0.0125409
-0.00363719
-0.0124915
-0.00295809
-0.0124475
-0.00225811
-0.0124094
-0.00154019
-0.0123777
-0.000807573
-0.0123527
-6.37031e-05
-0.0123347
0.000687779
-0.0123239
0.00144309
-0.0123206
0.00219835
-0.0123249
0.00294963
-0.0123366
0.00369299
-0.012356
0.00442456
-0.0123827
0.00514057
-0.0124167
0.00583738
-0.0124578
0.00651159
-0.0125056
0.00715995
-0.0125598
0.00777951
-0.0126202
-0.0126853
-0.00369652
-0.0130668
0.0041682
-0.00320507
-0.0130323
-0.00269524
-0.0130013
-0.00216872
-0.012974
-0.00162746
-0.0129507
-0.00107364
-0.0129315
-0.000509601
-0.0129167
6.21395e-05
-0.0129064
0.000638974
-0.0129008
0.00121821
-0.0128999
0.00179709
-0.0129037
0.00237287
-0.0129124
0.00294276
-0.0129258
0.00350405
-0.012944
0.00405403
-0.0129667
0.00459012
-0.0129938
0.00510983
-0.0130253
0.00561079
-0.0130608
0.00609077
-0.0131001
-0.013144
-0.00273756
-0.0134552
0.003126
-0.00233824
-0.0134317
-0.00192904
-0.0134105
-0.00151104
-0.013392
-0.0010854
-0.0133763
-0.000653367
-0.0133636
-0.000216248
-0.0133538
0.000224579
-0.0133473
0.000667689
-0.0133439
0.00111162
-0.0133438
0.00155489
-0.013347
0.00199601
-0.0133535
0.0024335
-0.0133633
0.00286591
-0.0133764
0.00329182
-0.0133926
0.0037099
-0.0134119
0.00411884
-0.0134342
0.00451744
-0.0134594
0.00490456
-0.0134873
-0.0135175
-0.00213099
-0.013769
0.00244478
-0.00180945
-0.0137532
-0.00148085
-0.0137391
-0.00114594
-0.013727
-0.000805539
-0.0137167
-0.000460554
-0.0137085
-0.000111935
-0.0137025
0.000239319
-0.0136985
0.000592173
-0.0136967
0.000945563
-0.0136972
0.00129841
-0.0136999
0.00164964
-0.0137048
0.00199816
-0.0137119
0.00234293
-0.0137211
0.0026829
-0.0137326
0.00301708
-0.0137461
0.00334451
-0.0137617
0.00366432
-0.0137792
0.00397565
-0.0137986
-0.0138202
-0.0016572
-0.0140303
0.00191841
-0.00139121
-0.0140192
-0.00112094
-0.0140094
-0.000846915
-0.014001
-0.000569701
-0.013994
-0.00028988
-0.0139884
-8.05531e-06
-0.0139843
0.00027515
-0.0139817
0.0005591
-0.0139807
0.00084315
-0.0139812
0.00112665
-0.0139834
0.00140895
-0.0139871
0.0016894
-0.0139923
0.00196737
-0.0139991
0.00224224
-0.0140074
0.0025134
-0.0140173
0.00278026
-0.0140285
0.00304228
-0.0140412
0.0032989
-0.0140552
-0.0140705
-0.00132124
-0.0142449
0.00153587
-0.00110317
-0.0142373
-0.000881995
-0.0142306
-0.000658109
-0.0142249
-0.000431913
-0.0142201
-0.00020383
-0.0142165
2.56972e-05
-0.0142138
0.000256211
-0.0142122
0.000487243
-0.0142117
0.000718315
-0.0142123
0.000948947
-0.014214
0.00117866
-0.0142168
0.00140696
-0.0142206
0.0016334
-0.0142255
0.00185749
-0.0142315
0.0020788
-0.0142386
0.00229688
-0.0142466
0.00251134
-0.0142556
0.00272177
-0.0142656
-0.0142768
-0.00105407
-0.014424
0.00123315
-0.000872682
-0.0144187
-0.00068925
-0.014414
-0.000504053
-0.0144101
-0.000317381
-0.0144068
-0.000129532
-0.0144043
5.91872e-05
-0.0144025
0.000248465
-0.0144015
0.000437985
-0.0144012
0.000627426
-0.0144018
0.000816468
-0.014403
0.00100479
-0.0144051
0.00119207
-0.0144079
0.001378
-0.0144115
0.00156226
-0.0144158
0.00174456
-0.0144209
0.00192459
-0.0144266
0.00210207
-0.0144331
0.00227671
-0.0144403
-0.0144481
-0.000847958
-0.0145713
0.000995333
-0.000698896
-0.0145677
-0.000548343
-0.0145646
-0.000396503
-0.0145619
-0.000243589
-0.0145597
-8.98218e-05
-0.0145581
6.45716e-05
-0.0145569
0.000219359
-0.0145563
0.000374304
-0.0145562
0.000529168
-0.0145566
0.000683711
-0.0145576
0.000837692
-0.0145591
0.000990872
-0.0145611
0.00114302
-0.0145636
0.00129389
-0.0145667
0.00144327
-0.0145702
0.00159093
-0.0145743
0.00173665
-0.0145789
0.00188024
-0.0145839
-0.0145895
-0.000678409
-0.0146928
0.000799862
-0.000555769
-0.0146904
-0.000432089
-0.0146882
-0.000307525
-0.0146865
-0.000182232
-0.014685
-5.63736e-05
-0.0146839
6.98861e-05
-0.0146832
0.00019638
-0.0146828
0.000322939
-0.0146827
0.000449392
-0.0146831
0.00057557
-0.0146838
0.000701301
-0.0146848
0.000826416
-0.0146862
0.000950747
-0.014688
0.00107413
-0.0146901
0.00119639
-0.0146925
0.00131739
-0.0146953
0.00143695
-0.0146984
0.00155493
-0.0147019
-0.0147056
-0.000538478
-0.0147907
0.000636402
-0.000439685
-0.0147891
-0.000340133
-0.0147878
-0.000239936
-0.0147867
-0.00013921
-0.0147858
-3.80752e-05
-0.0147851
6.33458e-05
-0.0147846
0.000164929
-0.0147844
0.000266548
-0.0147844
0.000368077
-0.0147846
0.000469388
-0.0147851
0.000570355
-0.0147858
0.00067085
-0.0147867
0.000770747
-0.0147878
0.000869925
-0.0147892
0.000968259
-0.0147908
0.00106563
-0.0147927
0.00116193
-0.0147947
0.00125703
-0.014797
-0.0147995
-0.000418089
-0.0148682
0.000495582
-0.000339979
-0.0148673
-0.000261333
-0.0148664
-0.000182237
-0.0148658
-0.000102775
-0.0148652
-2.30354e-05
-0.0148648
5.68924e-05
-0.0148645
0.000136918
-0.0148644
0.000216952
-0.0148644
0.000296901
-0.0148646
0.000376675
-0.0148648
0.000456181
-0.0148653
0.000535329
-0.0148658
0.000614028
-0.0148665
0.000692189
-0.0148674
0.000769724
-0.0148684
0.000846545
-0.0148695
0.000922567
-0.0148707
0.000997708
-0.0148721
-0.0148736
-0.00031252
-0.0149267
0.00037098
-0.000253625
-0.0149262
-0.000194351
-0.0149257
-0.00013476
-0.0149254
-7.49129e-05
-0.0149251
-1.48721e-05
-0.0149248
4.52988e-05
-0.0149247
0.000105535
-0.0149246
0.000165773
-0.0149246
0.000225947
-0.0149247
0.000285991
-0.0149249
0.00034584
-0.0149251
0.000405429
-0.0149254
0.000464694
-0.0149258
0.000523571
-0.0149263
0.000581995
-0.0149268
0.000639906
-0.0149274
0.000697241
-0.0149281
0.000753941
-0.0149288
-0.0149296
-0.000216818
-0.0149677
0.000257835
-0.000175514
-0.0149675
-0.000133962
-0.0149673
-9.22033e-05
-0.0149671
-5.02793e-05
-0.014967
-8.23192e-06
-0.0149669
3.38961e-05
-0.0149668
7.60617e-05
-0.0149668
0.000118221
-0.0149668
0.000160332
-0.0149668
0.000202349
-0.0149669
0.00024423
-0.014967
0.000285931
-0.0149671
0.000327408
-0.0149673
0.000368619
-0.0149675
0.000409521
-0.0149677
0.000450069
-0.0149679
0.000490221
-0.0149682
0.000529932
-0.0149685
-0.0149688
-0.000127758
-0.0149919
0.000151984
-0.000103367
-0.0149919
-7.88348e-05
-0.0149918
-5.41845e-05
-0.0149918
-2.94404e-05
-0.0149917
-4.62666e-06
-0.0149917
2.02318e-05
-0.0149917
4.51099e-05
-0.0149917
6.99824e-05
-0.0149917
9.4824e-05
-0.0149917
0.000119609
-0.0149917
0.000144313
-0.0149917
0.00016891
-0.0149917
0.000193376
-0.0149918
0.000217684
-0.0149918
0.000241812
-0.0149918
0.000265734
-0.0149919
0.000289425
-0.0149919
0.000312858
-0.014992
-0.0149921
-4.23355e-05
5.04306e-05
-3.41847e-05
-2.59872e-05
-1.77494e-05
-9.47881e-06
-1.18277e-06
7.13123e-06
1.54558e-05
2.37836e-05
3.21075e-05
4.04205e-05
4.87162e-05
5.69883e-05
6.52313e-05
7.34404e-05
8.16117e-05
8.97425e-05
9.78316e-05
0.000105881
-0.0258495
-0.0144511
0.015367
0.0249335
-0.0268694
-0.0143674
0.0153873
-0.0280439
-0.0142673
0.0154418
-0.0293909
-0.0141651
0.0155121
-0.0309241
-0.0140634
0.0155966
-0.0326492
-0.0139652
0.0156904
-0.0345614
-0.0138722
0.0157843
-0.0366416
-0.0137844
0.0158647
-0.0388545
-0.0136993
0.0159122
-0.0411465
-0.0136107
0.0159028
-0.043446
-0.0135082
0.0158077
-0.045665
-0.0133764
0.0155954
-0.0477021
-0.0131952
0.0152323
-0.0494468
-0.0129396
0.0146843
-0.0507827
-0.0125813
0.0139173
-0.0515891
-0.0120896
0.012896
-0.0517341
-0.0114349
0.0115799
-0.051063
-0.0105899
0.00991887
-0.0493845
-0.00952282
0.00784427
-0.00819222
0.005179
-0.0187763
-0.0142507
0.0185758
-0.0189911
-0.0141526
-0.0192124
-0.014046
-0.0194535
-0.0139239
-0.0197316
-0.0137854
-0.0200671
-0.0136297
-0.0204825
-0.0134567
-0.021
-0.013267
-0.0216379
-0.0130615
-0.0224068
-0.0128418
-0.0233057
-0.0126093
-0.0243174
-0.0123647
-0.0254052
-0.0121074
-0.0265102
-0.0118346
-0.0275501
-0.0115414
-0.0284188
-0.011221
-0.0289888
-0.0108649
-0.0291142
-0.0104645
-0.0286232
-0.0100138
-0.00952225
-0.0199948
-0.0139424
0.0196866
-0.0202888
-0.0138586
-0.0205688
-0.013766
-0.0208257
-0.013667
-0.0210506
-0.0135605
-0.0212353
-0.013445
-0.0213731
-0.0133189
-0.0214594
-0.0131806
-0.0214923
-0.0130285
-0.0214728
-0.0128614
-0.0214038
-0.0126783
-0.0212895
-0.0124791
-0.0211325
-0.0122643
-0.0209317
-0.0120354
-0.020679
-0.0117942
-0.0203566
-0.0115434
-0.0199356
-0.0112859
-0.0193751
-0.0110251
-0.0186237
-0.0107652
-0.0105112
-0.0148891
-0.0138443
0.014791
-0.0149937
-0.013754
-0.0151004
-0.0136593
-0.0152077
-0.0135598
-0.0153125
-0.0134557
-0.01541
-0.0133474
-0.015494
-0.013235
-0.0155562
-0.0131185
-0.0155866
-0.0129981
-0.0155743
-0.0128737
-0.0155076
-0.012745
-0.0153749
-0.0126118
-0.0151654
-0.0124738
-0.0148698
-0.012331
-0.0144808
-0.0121832
-0.0139931
-0.012031
-0.0134037
-0.0118753
-0.0127114
-0.0117174
-0.0119172
-0.0115594
-0.0114039
-0.0136276
-0.0138764
0.0136598
-0.0135752
-0.0138065
-0.0135022
-0.0137322
-0.0134078
-0.0136542
-0.0132911
-0.0135724
-0.0131516
-0.0134869
-0.0129889
-0.0133976
-0.0128028
-0.0133047
-0.0125926
-0.0132083
-0.0123574
-0.0131088
-0.0120957
-0.0130067
-0.0118049
-0.0129025
-0.0114819
-0.0127969
-0.0111224
-0.0126905
-0.0107215
-0.0125841
-0.010274
-0.0124786
-0.00977456
-0.0123747
-0.00921851
-0.0122735
-0.00860234
-0.0121756
-0.012082
-0.0109699
-0.0139305
0.011024
-0.0109054
-0.013871
-0.0108281
-0.0138095
-0.0107357
-0.0137466
-0.0106257
-0.0136824
-0.0104958
-0.0136168
-0.0103434
-0.01355
-0.0101659
-0.0134821
-0.00996091
-0.0134132
-0.00972629
-0.0133435
-0.0094601
-0.0132729
-0.0091608
-0.0132018
-0.00882726
-0.0131304
-0.00845877
-0.0130589
-0.00805506
-0.0129878
-0.00761624
-0.0129174
-0.00714278
-0.0128482
-0.00663546
-0.0127808
-0.00609534
-0.0127157
-0.0126536
-0.00939935
-0.0140478
0.00951667
-0.00926932
-0.014001
-0.00912593
-0.0139529
-0.0089689
-0.0139037
-0.0087979
-0.0138534
-0.00861257
-0.0138021
-0.0084125
-0.0137501
-0.00819719
-0.0136975
-0.00796605
-0.0136444
-0.00771841
-0.0135911
-0.00745352
-0.0135378
-0.00717055
-0.0134848
-0.00686863
-0.0134323
-0.0065469
-0.0133807
-0.00620458
-0.0133301
-0.00584099
-0.013281
-0.00545565
-0.0132335
-0.00504831
-0.0131881
-0.00461903
-0.013145
-0.0131044
-0.0078336
-0.0141625
0.00794829
-0.00770865
-0.014126
-0.0075729
-0.0140887
-0.00742556
-0.014051
-0.00726588
-0.0140131
-0.00709316
-0.0139749
-0.00690677
-0.0139365
-0.00670613
-0.0138981
-0.00649077
-0.0138597
-0.00626032
-0.0138215
-0.00601452
-0.0137836
-0.00575322
-0.0137461
-0.0054764
-0.0137091
-0.00518415
-0.0136729
-0.00487669
-0.0136376
-0.00455433
-0.0136033
-0.0042175
-0.0135704
-0.00386674
-0.0135389
-0.00350266
-0.0135091
-0.0134811
-0.00661263
-0.0142899
0.00674003
-0.00647713
-0.0142615
-0.00633304
-0.0142328
-0.00618021
-0.0142038
-0.00601849
-0.0141748
-0.00584773
-0.0141456
-0.00566777
-0.0141165
-0.00547846
-0.0140874
-0.00527963
-0.0140586
-0.00507115
-0.01403
-0.00485288
-0.0140019
-0.00462472
-0.0139743
-0.00438657
-0.0139473
-0.00413841
-0.0139211
-0.00388024
-0.0138958
-0.00361215
-0.0138714
-0.00333429
-0.0138482
-0.00304688
-0.0138263
-0.00275024
-0.0138057
-0.0137866
-0.00557677
-0.0144082
0.00569506
-0.00545151
-0.0143867
-0.00531922
-0.0143651
-0.0051797
-0.0143434
-0.00503274
-0.0143217
-0.00487821
-0.0143002
-0.00471595
-0.0142787
-0.0045459
-0.0142575
-0.00436798
-0.0142365
-0.00418218
-0.0142158
-0.00398853
-0.0141955
-0.0037871
-0.0141757
-0.00357801
-0.0141564
-0.00336142
-0.0141377
-0.00313752
-0.0141197
-0.00290656
-0.0141024
-0.00266882
-0.014086
-0.00242464
-0.0140705
-0.00217437
-0.014056
-0.0140425
-0.00469174
-0.0145208
0.00480433
-0.00457399
-0.0145045
-0.00445085
-0.0144882
-0.00432228
-0.0144719
-0.00418823
-0.0144558
-0.00404869
-0.0144397
-0.00390364
-0.0144238
-0.00375306
-0.0144081
-0.00359696
-0.0143926
-0.00343537
-0.0143774
-0.00326832
-0.0143626
-0.00309586
-0.0143481
-0.00291807
-0.0143342
-0.00273505
-0.0143207
-0.00254692
-0.0143078
-0.00235383
-0.0142955
-0.00215596
-0.0142838
-0.00195351
-0.0142729
-0.00174673
-0.0142627
-0.0142534
-0.00395235
-0.0146216
0.00405312
-0.00384719
-0.0146096
-0.0037377
-0.0145977
-0.00362382
-0.0145858
-0.00350553
-0.0145741
-0.00338283
-0.0145624
-0.0032557
-0.0145509
-0.00312418
-0.0145396
-0.00298829
-0.0145285
-0.00284808
-0.0145176
-0.00270363
-0.014507
-0.00255503
-0.0144968
-0.00240237
-0.0144868
-0.00224579
-0.0144773
-0.00208543
-0.0144681
-0.00192145
-0.0144595
-0.00175403
-0.0144513
-0.00158336
-0.0144436
-0.00140966
-0.0144364
-0.0144299
-0.0032966
-0.0147113
0.00338634
-0.00320363
-0.0147026
-0.00310733
-0.014694
-0.0030077
-0.0146855
-0.00290476
-0.014677
-0.00279852
-0.0146686
-0.002689
-0.0146604
-0.00257624
-0.0146523
-0.00246028
-0.0146444
-0.00234117
-0.0146367
-0.00221896
-0.0146292
-0.00209374
-0.014622
-0.00196557
-0.014615
-0.00183456
-0.0146083
-0.00170081
-0.0146019
-0.00156442
-0.0145958
-0.00142554
-0.0145901
-0.00128429
-0.0145848
-0.00114083
-0.0145799
-0.0145754
-0.00273375
-0.0147886
0.00281101
-0.0026538
-0.0147826
-0.00257122
-0.0147766
-0.00248601
-0.0147707
-0.00239818
-0.0147648
-0.00230776
-0.0147591
-0.00221478
-0.0147534
-0.00211927
-0.0147479
-0.00202127
-0.0147424
-0.00192083
-0.0147372
-0.00181802
-0.014732
-0.0017129
-0.0147271
-0.00160555
-0.0147223
-0.00149606
-0.0147178
-0.00138452
-0.0147134
-0.00127102
-0.0147093
-0.00115569
-0.0147055
-0.00103864
-0.0147019
-0.000919984
-0.0146986
-0.0146955
-0.00222157
-0.0148537
0.00228674
-0.00215443
-0.0148497
-0.00208528
-0.0148457
-0.00201415
-0.0148418
-0.00194105
-0.0148379
-0.00186601
-0.0148341
-0.00178905
-0.0148304
-0.00171021
-0.0148267
-0.00162953
-0.0148231
-0.00154704
-0.0148196
-0.0014628
-0.0148163
-0.00137686
-0.014813
-0.00128928
-0.0148099
-0.00120012
-0.0148069
-0.00110946
-0.0148041
-0.00101737
-0.0148014
-0.000923932
-0.0147989
-0.000829228
-0.0147966
-0.000733353
-0.0147944
-0.0147925
-0.00176446
-0.0149067
0.00181739
-0.00170996
-0.0149042
-0.00165394
-0.0149017
-0.0015964
-0.0148993
-0.00153735
-0.014897
-0.00147683
-0.0148946
-0.00141486
-0.0148923
-0.00135147
-0.0148901
-0.00128668
-0.0148879
-0.00122054
-0.0148858
-0.00115309
-0.0148837
-0.00108436
-0.0148818
-0.00101442
-0.0148799
-0.000943315
-0.014878
-0.000871096
-0.0148763
-0.000797827
-0.0148747
-0.000723572
-0.0148732
-0.000648398
-0.0148718
-0.000572376
-0.0148705
-0.0148693
-0.00133717
-0.0149476
0.00137813
-0.00129512
-0.0149463
-0.00125195
-0.0149449
-0.00120769
-0.0149436
-0.00116236
-0.0149423
-0.00111596
-0.014941
-0.00106852
-0.0149398
-0.00102007
-0.0149385
-0.000970623
-0.0149374
-0.000920211
-0.0149362
-0.000868865
-0.0149351
-0.000816617
-0.014934
-0.000763504
-0.014933
-0.000709563
-0.014932
-0.000654834
-0.0149311
-0.000599361
-0.0149302
-0.000543191
-0.0149293
-0.00048637
-0.0149286
-0.000428949
-0.0149279
-0.0149272
-0.00093956
-0.0149767
0.000968612
-0.000909705
-0.0149761
-0.00087908
-0.0149755
-0.000847697
-0.014975
-0.00081557
-0.0149744
-0.000782714
-0.0149739
-0.000749144
-0.0149733
-0.000714879
-0.0149728
-0.000679936
-0.0149723
-0.000644335
-0.0149718
-0.000608099
-0.0149713
-0.000571251
-0.0149709
-0.000533817
-0.0149704
-0.000495823
-0.01497
-0.000457298
-0.0149696
-0.000418274
-0.0149692
-0.000378781
-0.0149688
-0.000338853
-0.0149685
-0.000298526
-0.0149682
-0.0149679
-0.000556119
-0.014994
0.000573498
-0.000538335
-0.0149939
-0.0005201
-0.0149938
-0.000501425
-0.0149936
-0.000482318
-0.0149935
-0.00046279
-0.0149934
-0.000442849
-0.0149933
-0.000422507
-0.0149932
-0.000401773
-0.014993
-0.00038066
-0.0149929
-0.00035918
-0.0149928
-0.000337349
-0.0149927
-0.00031518
-0.0149926
-0.000292689
-0.0149925
-0.000269893
-0.0149924
-0.000246809
-0.0149923
-0.000223457
-0.0149922
-0.000199855
-0.0149921
-0.000176024
-0.014992
-0.014992
-0.000186322
0.000192274
-0.000180212
-0.000173984
-0.000167634
-0.00016116
-0.000154562
-0.00014784
-0.000140994
-0.000134027
-0.00012694
-0.000119737
-0.000112422
-0.000104998
-9.74706e-05
-8.98442e-05
-8.21243e-05
-7.43167e-05
-6.64274e-05
-5.84629e-05
-0.015606
-0.00399655
0.0196025
-0.0123931
-0.00321282
-0.00977684
-0.0026163
-0.00763546
-0.00214139
-0.00588224
-0.00175321
-0.00445141
-0.00143083
-0.0032912
-0.00116022
-0.00235977
-0.000931431
-0.00162257
-0.000737195
-0.00105053
-0.000572037
-0.000618765
-0.00043177
-0.000305598
-0.000313167
-9.1822e-05
-0.000213776
3.99943e-05
-0.000131816
0.000106174
-6.61796e-05
0.000122928
-1.67538e-05
0.000104009
1.89189e-05
6.4803e-05
3.92062e-05
2.32305e-05
4.15727e-05
2.32305e-05
-0.0136192
-0.00543454
0.0150572
-0.0120769
-0.00475514
-0.0105453
-0.00414792
-0.00908285
-0.00360381
-0.00772127
-0.0031148
-0.0064772
-0.00267489
-0.00535815
-0.00227927
-0.00436569
-0.00192389
-0.00349749
-0.0016054
-0.00274858
-0.00132094
-0.00211221
-0.00106814
-0.0015804
-0.000844977
-0.00114438
-0.000649798
-0.000794921
-0.000481273
-0.000522702
-0.000338399
-0.000318962
-0.000220494
-0.00017287
-0.000127173
-7.52617e-05
-5.84022e-05
-1.93845e-05
-1.43046e-05
3.846e-06
-0.010995
-0.00639135
0.0119519
-0.00997146
-0.00577873
-0.00892368
-0.0051957
-0.00788449
-0.00464301
-0.00687808
-0.0041212
-0.00592217
-0.0036308
-0.00502928
-0.00317215
-0.00420781
-0.00274536
-0.00346282
-0.00235039
-0.00279674
-0.00198703
-0.00220988
-0.00165499
-0.00170095
-0.00135391
-0.00126734
-0.00108341
-0.000905531
-0.000843078
-0.00061138
-0.00063255
-0.00038039
-0.000451484
-0.000207966
-0.000299598
-8.96954e-05
-0.000176672
-2.14392e-05
-8.25607e-05
-1.75931e-05
-0.00902504
-0.00722054
0.00985423
-0.00818753
-0.00661624
-0.00735581
-0.00602742
-0.0065416
-0.00545722
-0.00575485
-0.00490795
-0.00500397
-0.00438168
-0.0042959
-0.00388022
-0.00363613
-0.00340513
-0.00302884
-0.00295769
-0.0024769
-0.00253896
-0.0019821
-0.00214979
-0.00154518
-0.00179083
-0.00116602
-0.00146257
-0.000843769
-0.00116533
-0.000576974
-0.000899345
-0.000363727
-0.000664731
-0.000201795
-0.000461529
-8.87495e-05
-0.000289718
-2.20839e-05
-0.000149226
-3.9677e-05
-0.00827003
-0.00800141
0.0090509
-0.00749477
-0.0073915
-0.00673252
-0.00678966
-0.00599079
-0.00619895
-0.0052764
-0.00562234
-0.00459537
-0.00506271
-0.00395289
-0.00452271
-0.00335323
-0.00400478
-0.00279979
-0.00351112
-0.0022951
-0.00304365
-0.00184087
-0.00260403
-0.00143805
-0.00219365
-0.00108693
-0.00181369
-0.000787211
-0.00146505
-0.000538094
-0.00114846
-0.000338377
-0.000864448
-0.000186546
-0.00061336
-8.08596e-05
-0.000395404
-1.94432e-05
-0.000210643
-5.91201e-05
-0.00793135
-0.00876743
0.00869737
-0.00717613
-0.00814672
-0.00643813
-0.00752767
-0.0057233
-0.00691378
-0.00503719
-0.00630846
-0.00438476
-0.00571513