x,y,z,p
0,0,0,0.0214423
0,0.1,0,0.0343836
0,0.2,0,0.0473248
0,0.3,0,0.0602661
0,0.4,0,0.0732073
0,0.5,0,0.0865911
0,0.6,0,0.103368
0,0.7,0,0.120145
0,0.8,0,0.136922
0,0.9,0,0.153699
0,1,0,0.170259
0,1.1,0,0.186095
0,1.2,0,0.201931
0,1.3,0,0.217767
0,1.4,0,0.233604
0,1.5,0,0.248982
0,1.6,0,0.263497
0,1.7,0,0.278012
0,1.8,0,0.292527
0,1.9,0,0.307042
0,2,0,0.320743
0,2.1,0,0.333495
0,2.2,0,0.346247
0,2.3,0,0.358998
0,2.4,0,0.37175
0,2.5,0,0.383373
0,2.6,0,0.394169
0,2.7,0,0.404965
0,2.8,0,0.415761
0,2.9,0,0.426556
0,3,0,0.435883
0,3.1,0,0.444557
0,3.2,0,0.453231
0,3.3,0,0.461905
0,3.4,0,0.470579
0,3.5,0,0.477678
0,3.6,0,0.484401
0,3.7,0,0.491125
0,3.8,0,0.497849
0,3.9,0,0.504573
0,4,0,0.510323
0,4.1,0,0.515993
0,4.2,0,0.521663
0,4.3,0,0.527333
0,4.4,0,0.532931
0,4.5,0,0.53675
0,4.6,0,0.540568
0,4.7,0,0.544387
0,4.8,0,0.548206
0,4.9,0,0.551886
0,5,0,0.554803
0,5.1,0,0.55772
0,5.2,0,0.560638
0,5.3,0,0.563555
0,5.4,0,0.565645
0,5.5,0,0.565487
0,5.6,0,0.56533
0,5.7,0,0.565173
0,5.8,0,0.565015
0,5.9,0,0.566941
0,6,0,0.572201
0,6.1,0,0.57746
0,6.2,0,0.582719
0,6.3,0,0.587978
0,6.4,0,0.596002
0,6.5,0,0.606791
0,6.6,0,0.617579
0,6.7,0,0.628368
0,6.8,0,0.639157
0,6.9,0,0.64497
0,7,0,0.647675
0,7.1,0,0.650379
0,7.2,0,0.653084
0,7.3,0,0.655788
0,7.4,0,0.654561
0,7.5,0,0.651884
0,7.6,0,0.649208
0,7.7,0,0.646532
0,7.8,0,0.643855
0,7.9,0,0.640821
0,8,0,0.637722
0,8.1,0,0.634623
0,8.2,0,0.631524
0,8.3,0,0.628425
0,8.4,0,0.62271
0,8.5,0,0.61689
0,8.6,0,0.61107
0,8.7,0,0.60525
0,8.8,0,0.599114
0,8.9,0,0.589184
0,9,0,0.579253
0,9.1,0,0.569323
0,9.2,0,0.559392
0,9.3,0,0.549239
0,9.4,0,0.538148
0,9.5,0,0.527057
0,9.6,0,0.515966
0,9.7,0,0.504876
0,9.8,0,0.492968
0,9.9,0,0.479222
0,10,0,0.465477
0,10.1,0,0.451731
0,10.2,0,0.437986
0,10.3,0,0.423412
0,10.4,0,0.40771
0,10.5,0,0.392008
0,10.6,0,0.376306
0,10.7,0,0.360604
0,10.8,0,0.344724
0,10.9,0,0.328693
0,11,0,0.312662
0,11.1,0,0.29663
0,11.2,0,0.280599
0,11.3,0,0.263335
0,11.4,0,0.245418
0,11.5,0,0.227501
0,11.6,0,0.209584
0,11.7,0,0.191668
0,11.8,0,0.172622
0,11.9,0,0.153238
0,12,0,0.133854
0,12.1,0,0.11447
0,12.2,0,0.0950855
0,12.3,0,0.0801162
0,12.4,0,0.0657227
0,12.5,0,0.0513292
0,12.6,0,0.0369357
0,12.7,0,0.0225422
0.1,0,0,0.0171538
0.1,0.1,0,0.0324248
0.1,0.2,0,0.045366
0.1,0.3,0,0.0583073
0.1,0.4,0,0.0712485
0.1,0.5,0,0.0843839
0.1,0.6,0,0.0994601
0.1,0.7,0,0.116237
0.1,0.8,0,0.133014
0.1,0.9,0,0.149791
0.1,1,0,0.166004
0.1,1.1,0,0.180609
0.1,1.2,0,0.196445
0.1,1.3,0,0.212281
0.1,1.4,0,0.228117
0.1,1.5,0,0.243114
0.1,1.6,0,0.256903
0.1,1.7,0,0.271418
0.1,1.8,0,0.285932
0.1,1.9,0,0.300447
0.1,2,0,0.313932
0.1,2.1,0,0.326442
0.1,2.2,0,0.339193
0.1,2.3,0,0.351945
0.1,2.4,0,0.364697
0.1,2.5,0,0.376596
0.1,2.6,0,0.387583
0.1,2.7,0,0.398379
0.1,2.8,0,0.409175
0.1,2.9,0,0.41997
0.1,3,0,0.430436
0.1,3.1,0,0.439578
0.1,3.2,0,0.448252
0.1,3.3,0,0.456926
0.1,3.4,0,0.4656
0.1,3.5,0,0.474848
0.1,3.6,0,0.482023
0.1,3.7,0,0.488746
0.1,3.8,0,0.49547
0.1,3.9,0,0.502194
0.1,4,0,0.510482
0.1,4.1,0,0.516299
0.1,4.2,0,0.521969
0.1,4.3,0,0.527639
0.1,4.4,0,0.533367
0.1,4.5,0,0.540341
0.1,4.6,0,0.54416
0.1,4.7,0,0.547979
0.1,4.8,0,0.551797
0.1,4.9,0,0.555842
0.1,5,0,0.560711
0.1,5.1,0,0.563628
0.1,5.2,0,0.566545
0.1,5.3,0,0.569463
0.1,5.4,0,0.572305
0.1,5.5,0,0.574125
0.1,5.6,0,0.573968
0.1,5.7,0,0.57381
0.1,5.8,0,0.573653
0.1,5.9,0,0.576414
0.1,6,0,0.582959
0.1,6.1,0,0.588218
0.1,6.2,0,0.593478
0.1,6.3,0,0.598737
0.1,6.4,0,0.605283
0.1,6.5,0,0.614662
0.1,6.6,0,0.625451
0.1,6.7,0,0.63624
0.1,6.8,0,0.647028
0.1,6.9,0,0.650812
0.1,7,0,0.652324
0.1,7.1,0,0.655029
0.1,7.2,0,0.657733
0.1,7.3,0,0.660438
0.1,7.4,0,0.658725
0.1,7.5,0,0.655885
0.1,7.6,0,0.653209
0.1,7.7,0,0.650532
0.1,7.8,0,0.647856
0.1,7.9,0,0.643383
0.1,8,0,0.640062
0.1,8.1,0,0.636963
0.1,8.2,0,0.633864
0.1,8.3,0,0.630764
0.1,8.4,0,0.623231
0.1,8.5,0,0.617382
0.1,8.6,0,0.611562
0.1,8.7,0,0.605743
0.1,8.8,0,0.599591
0.1,8.9,0,0.589483
0.1,9,0,0.579552
0.1,9.1,0,0.569622
0.1,9.2,0,0.559692
0.1,9.3,0,0.549397
0.1,9.4,0,0.537732
0.1,9.5,0,0.526641
0.1,9.6,0,0.515551
0.1,9.7,0,0.50446
0.1,9.8,0,0.492483
0.1,9.9,0,0.478588
0.1,10,0,0.464843
0.1,10.1,0,0.451097
0.1,10.2,0,0.437351
0.1,10.3,0,0.422863
0.1,10.4,0,0.407271
0.1,10.5,0,0.391569
0.1,10.6,0,0.375867
0.1,10.7,0,0.360165
0.1,10.8,0,0.344074
0.1,10.9,0,0.32787
0.1,11,0,0.311839
0.1,11.1,0,0.295807
0.1,11.2,0,0.279776
0.1,11.3,0,0.26267
0.1,11.4,0,0.244831
0.1,11.5,0,0.226914
0.1,11.6,0,0.208997
0.1,11.7,0,0.19108
0.1,11.8,0,0.172035
0.1,11.9,0,0.152651
0.1,12,0,0.133267
0.1,12.1,0,0.113882
0.1,12.2,0,0.0951105
0.1,12.3,0,0.0801979
0.1,12.4,0,0.0658044
0.1,12.5,0,0.0514109
0.1,12.6,0,0.0370174
0.1,12.7,0,0.0180338
0.2,0,0,0.0128654
0.2,0.1,0,0.0281535
0.2,0.2,0,0.0434073
0.2,0.3,0,0.0563485
0.2,0.4,0,0.0692898
0.2,0.5,0,0.0824021
0.2,0.6,0,0.0972261
0.2,0.7,0,0.112329
0.2,0.8,0,0.129106
0.2,0.9,0,0.145883
0.2,1,0,0.162129
0.2,1.1,0,0.176324
0.2,1.2,0,0.190959
0.2,1.3,0,0.206795
0.2,1.4,0,0.222631
0.2,1.5,0,0.237644
0.2,1.6,0,0.251007
0.2,1.7,0,0.264823
0.2,1.8,0,0.279338
0.2,1.9,0,0.293853
0.2,2,0,0.307337
0.2,2.1,0,0.31962
0.2,2.2,0,0.33214
0.2,2.3,0,0.344892
0.2,2.4,0,0.357643
0.2,2.5,0,0.369543
0.2,2.6,0,0.380817
0.2,2.7,0,0.391793
0.2,2.8,0,0.402589
0.2,2.9,0,0.413384
0.2,3,0,0.42385
0.2,3.1,0,0.434168
0.2,3.2,0,0.443272
0.2,3.3,0,0.451946
0.2,3.4,0,0.46062
0.2,3.5,0,0.469869
0.2,3.6,0,0.479255
0.2,3.7,0,0.486368
0.2,3.8,0,0.493091
0.2,3.9,0,0.499815
0.2,4,0,0.508103
0.2,4.1,0,0.516521
0.2,4.2,0,0.522275
0.2,4.3,0,0.527945
0.2,4.4,0,0.533673
0.2,4.5,0,0.540854
0.2,4.6,0,0.547752
0.2,4.7,0,0.55157
0.2,4.8,0,0.555389
0.2,4.9,0,0.559434
0.2,5,0,0.564722
0.2,5.1,0,0.569536
0.2,5.2,0,0.572453
0.2,5.3,0,0.57537
0.2,5.4,0,0.578212
0.2,5.5,0,0.580849
0.2,5.6,0,0.582605
0.2,5.7,0,0.582448
0.2,5.8,0,0.582291
0.2,5.9,0,0.585052
0.2,6,0,0.592482
0.2,6.1,0,0.598977
0.2,6.2,0,0.604236
0.2,6.3,0,0.609495
0.2,6.4,0,0.616042
0.2,6.5,0,0.623875
0.2,6.6,0,0.633323
0.2,6.7,0,0.644111
0.2,6.8,0,0.6549
0.2,6.9,0,0.658684
0.2,7,0,0.65809
0.2,7.1,0,0.659678
0.2,7.2,0,0.662383
0.2,7.3,0,0.665087
0.2,7.4,0,0.663375
0.2,7.5,0,0.660034
0.2,7.6,0,0.65721
0.2,7.7,0,0.654533
0.2,7.8,0,0.651857
0.2,7.9,0,0.647384
0.2,8,0,0.642585
0.2,8.1,0,0.639302
0.2,8.2,0,0.636203
0.2,8.3,0,0.633104
0.2,8.4,0,0.625571
0.2,8.5,0,0.617875
0.2,8.6,0,0.612055
0.2,8.7,0,0.606235
0.2,8.8,0,0.600084
0.2,8.9,0,0.589956
0.2,9,0,0.579852
0.2,9.1,0,0.569921
0.2,9.2,0,0.559991
0.2,9.3,0,0.549696
0.2,9.4,0,0.537874
0.2,9.5,0,0.526226
0.2,9.6,0,0.515135
0.2,9.7,0,0.504044
0.2,9.8,0,0.492068
0.2,9.9,0,0.478098
0.2,10,0,0.464208
0.2,10.1,0,0.450463
0.2,10.2,0,0.436717
0.2,10.3,0,0.422228
0.2,10.4,0,0.406726
0.2,10.5,0,0.39113
0.2,10.6,0,0.375428
0.2,10.7,0,0.359725
0.2,10.8,0,0.343634
0.2,10.9,0,0.32721
0.2,11,0,0.311016
0.2,11.1,0,0.294984
0.2,11.2,0,0.278953
0.2,11.3,0,0.261847
0.2,11.4,0,0.244171
0.2,11.5,0,0.226327
0.2,11.6,0,0.20841
0.2,11.7,0,0.190493
0.2,11.8,0,0.171448
0.2,11.9,0,0.152064
0.2,12,0,0.132679
0.2,12.1,0,0.113891
0.2,12.2,0,0.0952174
0.2,12.3,0,0.0802796
0.2,12.4,0,0.0658861
0.2,12.5,0,0.0514926
0.2,12.6,0,0.0326322
0.2,12.7,0,0.0135253
0.3,0,0,0.00857692
0.3,0.1,0,0.023865
0.3,0.2,0,0.0391531
0.3,0.3,0,0.0543897
0.3,0.4,0,0.067331
0.3,0.5,0,0.0804202
0.3,0.6,0,0.0952442
0.3,0.7,0,0.110068
0.3,0.8,0,0.125198
0.3,0.9,0,0.141975
0.3,1,0,0.158253
0.3,1.1,0,0.172448
0.3,1.2,0,0.186643
0.3,1.3,0,0.201309
0.3,1.4,0,0.217145
0.3,1.5,0,0.232174
0.3,1.6,0,0.245537
0.3,1.7,0,0.258901
0.3,1.8,0,0.272743
0.3,1.9,0,0.287258
0.3,2,0,0.300742
0.3,2.1,0,0.313025
0.3,2.2,0,0.325307
0.3,2.3,0,0.337838
0.3,2.4,0,0.35059
0.3,2.5,0,0.362489
0.3,2.6,0,0.373764
0.3,2.7,0,0.385038
0.3,2.8,0,0.396003
0.3,2.9,0,0.406799
0.3,3,0,0.417264
0.3,3.1,0,0.427582
0.3,3.2,0,0.437901
0.3,3.3,0,0.446967
0.3,3.4,0,0.455641
0.3,3.5,0,0.46489
0.3,3.6,0,0.474275
0.3,3.7,0,0.483661
0.3,3.8,0,0.490713
0.3,3.9,0,0.497436
0.3,4,0,0.505724
0.3,4.1,0,0.514142
0.3,4.2,0,0.52256
0.3,4.3,0,0.528251
0.3,4.4,0,0.533979
0.3,4.5,0,0.541161
0.3,4.6,0,0.548342
0.3,4.7,0,0.555162
0.3,4.8,0,0.558981
0.3,4.9,0,0.563025
0.3,5,0,0.568313
0.3,5.1,0,0.573601
0.3,5.2,0,0.578361
0.3,5.3,0,0.581278
0.3,5.4,0,0.58412
0.3,5.5,0,0.586757
0.3,5.6,0,0.589394
0.3,5.7,0,0.591086
0.3,5.8,0,0.590928
0.3,5.9,0,0.593689
0.3,6,0,0.60112
0.3,6.1,0,0.60855
0.3,6.2,0,0.614995
0.3,6.3,0,0.620254
0.3,6.4,0,0.6268
0.3,6.5,0,0.634634
0.3,6.6,0,0.642467
0.3,6.7,0,0.651983
0.3,6.8,0,0.662771
0.3,6.9,0,0.666555
0.3,7,0,0.665962
0.3,7.1,0,0.665368
0.3,7.2,0,0.667033
0.3,7.3,0,0.669737
0.3,7.4,0,0.668024
0.3,7.5,0,0.664684
0.3,7.6,0,0.661343
0.3,7.7,0,0.658534
0.3,7.8,0,0.655858
0.3,7.9,0,0.651385
0.3,8,0,0.646585
0.3,8.1,0,0.641786
0.3,8.2,0,0.638543
0.3,8.3,0,0.635444
0.3,8.4,0,0.62791
0.3,8.5,0,0.6202
0.3,8.6,0,0.612547
0.3,8.7,0,0.606727
0.3,8.8,0,0.600576
0.3,8.9,0,0.590448
0.3,9,0,0.58032
0.3,9.1,0,0.57022
0.3,9.2,0,0.56029
0.3,9.3,0,0.549996
0.3,9.4,0,0.538173
0.3,9.5,0,0.52635
0.3,9.6,0,0.514719
0.3,9.7,0,0.503628
0.3,9.8,0,0.491652
0.3,9.9,0,0.477683
0.3,10,0,0.463713
0.3,10.1,0,0.449828
0.3,10.2,0,0.436083
0.3,10.3,0,0.421594
0.3,10.4,0,0.406092
0.3,10.5,0,0.390589
0.3,10.6,0,0.374988
0.3,10.7,0,0.359286
0.3,10.8,0,0.343195
0.3,10.9,0,0.326771
0.3,11,0,0.310347
0.3,11.1,0,0.294161
0.3,11.2,0,0.27813
0.3,11.3,0,0.261024
0.3,11.4,0,0.243348
0.3,11.5,0,0.225673
0.3,11.6,0,0.207823
0.3,11.7,0,0.189906
0.3,11.8,0,0.170861
0.3,11.9,0,0.151476
0.3,12,0,0.132672
0.3,12.1,0,0.113998
0.3,12.2,0,0.0953244
0.3,12.3,0,0.0803613
0.3,12.4,0,0.0659678
0.3,12.5,0,0.0472306
0.3,12.6,0,0.0281238
0.3,12.7,0,0.00901688
0.4,0,0,0.00428846
0.4,0.1,0,0.0195766
0.4,0.2,0,0.0348647
0.4,0.3,0,0.0501528
0.4,0.4,0,0.0653722
0.4,0.5,0,0.0784384
0.4,0.6,0,0.0932624
0.4,0.7,0,0.108086
0.4,0.8,0,0.12291
0.4,0.9,0,0.138067
0.4,1,0,0.154378
0.4,1.1,0,0.168573
0.4,1.2,0,0.182768
0.4,1.3,0,0.196963
0.4,1.4,0,0.211659
0.4,1.5,0,0.226704
0.4,1.6,0,0.240067
0.4,1.7,0,0.253431
0.4,1.8,0,0.266795
0.4,1.9,0,0.280663
0.4,2,0,0.294148
0.4,2.1,0,0.30643
0.4,2.2,0,0.318712
0.4,2.3,0,0.330995
0.4,2.4,0,0.343537
0.4,2.5,0,0.355436
0.4,2.6,0,0.36671
0.4,2.7,0,0.377984
0.4,2.8,0,0.389259
0.4,2.9,0,0.400213
0.4,3,0,0.410678
0.4,3.1,0,0.420996
0.4,3.2,0,0.431315
0.4,3.3,0,0.441633
0.4,3.4,0,0.450662
0.4,3.5,0,0.45991
0.4,3.6,0,0.469296
0.4,3.7,0,0.478682
0.4,3.8,0,0.488068
0.4,3.9,0,0.495057
0.4,4,0,0.503345
0.4,4.1,0,0.511763
0.4,4.2,0,0.520181
0.4,4.3,0,0.528557
0.4,4.4,0,0.534285
0.4,4.5,0,0.541467
0.4,4.6,0,0.548649
0.4,4.7,0,0.55583
0.4,4.8,0,0.562572
0.4,4.9,0,0.566617
0.4,5,0,0.571905
0.4,5.1,0,0.577193
0.4,5.2,0,0.582481
0.4,5.3,0,0.587185
0.4,5.4,0,0.590027
0.4,5.5,0,0.592665
0.4,5.6,0,0.595302
0.4,5.7,0,0.597939
0.4,5.8,0,0.599566
0.4,5.9,0,0.602327
0.4,6,0,0.609757
0.4,6.1,0,0.617187
0.4,6.2,0,0.624618
0.4,6.3,0,0.631013
0.4,6.4,0,0.637559
0.4,6.5,0,0.645392
0.4,6.6,0,0.653226
0.4,6.7,0,0.661059
0.4,6.8,0,0.670643
0.4,6.9,0,0.674427
0.4,7,0,0.673833
0.4,7.1,0,0.67324
0.4,7.2,0,0.672646
0.4,7.3,0,0.674387
0.4,7.4,0,0.672674
0.4,7.5,0,0.669333
0.4,7.6,0,0.665993
0.4,7.7,0,0.662652
0.4,7.8,0,0.659859
0.4,7.9,0,0.655386
0.4,8,0,0.650586
0.4,8.1,0,0.645787
0.4,8.2,0,0.640987
0.4,8.3,0,0.637783
0.4,8.4,0,0.63025
0.4,8.5,0,0.622539
0.4,8.6,0,0.614829
0.4,8.7,0,0.60722
0.4,8.8,0,0.601069
0.4,8.9,0,0.59094
0.4,9,0,0.580812
0.4,9.1,0,0.570684
0.4,9.2,0,0.560589
0.4,9.3,0,0.550295
0.4,9.4,0,0.538472
0.4,9.5,0,0.52665
0.4,9.6,0,0.514827
0.4,9.7,0,0.503213
0.4,9.8,0,0.491236
0.4,9.9,0,0.477267
0.4,10,0,0.463298
0.4,10.1,0,0.449328
0.4,10.2,0,0.435448
0.4,10.3,0,0.42096
0.4,10.4,0,0.405457
0.4,10.5,0,0.389955
0.4,10.6,0,0.374452
0.4,10.7,0,0.358847
0.4,10.8,0,0.342756
0.4,10.9,0,0.326332
0.4,11,0,0.309908
0.4,11.1,0,0.293483
0.4,11.2,0,0.277307
0.4,11.3,0,0.260201
0.4,11.4,0,0.242525
0.4,11.5,0,0.22485
0.4,11.6,0,0.207174
0.4,11.7,0,0.189319
0.4,11.8,0,0.170273
0.4,11.9,0,0.151452
0.4,12,0,0.132779
0.4,12.1,0,0.114105
0.4,12.2,0,0.0954313
0.4,12.3,0,0.080443
0.4,12.4,0,0.0618291
0.4,12.5,0,0.0427222
0.4,12.6,0,0.0236153
0.4,12.7,0,0.00450844
0.5,0,0,0
0.5,0.1,0,0.0152986
0.5,0.2,0,0.0305972
0.5,0.3,0,0.0458958
0.5,0.4,0,0.0611944
0.5,0.5,0,0.076451
0.5,0.6,0,0.0912772
0.5,0.7,0,0.106103
0.5,0.8,0,0.120928
0.5,0.9,0,0.135752
0.5,1,0,0.150503
0.5,1.1,0,0.164697
0.5,1.2,0,0.178892
0.5,1.3,0,0.193087
0.5,1.4,0,0.207282
0.5,1.5,0,0.221234
0.5,1.6,0,0.234597
0.5,1.7,0,0.247961
0.5,1.8,0,0.261325
0.5,1.9,0,0.274688
0.5,2,0,0.287553
0.5,2.1,0,0.299835
0.5,2.2,0,0.312117
0.5,2.3,0,0.3244
0.5,2.4,0,0.336682
0.5,2.5,0,0.348383
0.5,2.6,0,0.359657
0.5,2.7,0,0.370931
0.5,2.8,0,0.382205
0.5,2.9,0,0.39348
0.5,3,0,0.404092
0.5,3.1,0,0.414411
0.5,3.2,0,0.424729
0.5,3.3,0,0.435047
0.5,3.4,0,0.445366
0.5,3.5,0,0.454931
0.5,3.6,0,0.464317
0.5,3.7,0,0.473702
0.5,3.8,0,0.483088
0.5,3.9,0,0.492474
0.5,4,0,0.500966
0.5,4.1,0,0.509385
0.5,4.2,0,0.517803
0.5,4.3,0,0.526221
0.5,4.4,0,0.534591
0.5,4.5,0,0.541773
0.5,4.6,0,0.548955
0.5,4.7,0,0.556136
0.5,4.8,0,0.563318
0.5,4.9,0,0.570208
0.5,5,0,0.575496
0.5,5.1,0,0.580784
0.5,5.2,0,0.586073
0.5,5.3,0,0.591361
0.5,5.4,0,0.595935
0.5,5.5,0,0.598572
0.5,5.6,0,0.601209
0.5,5.7,0,0.603847
0.5,5.8,0,0.606484
0.5,5.9,0,0.610965
0.5,6,0,0.618395
0.5,6.1,0,0.625825
0.5,6.2,0,0.633255
0.5,6.3,0,0.640686
0.5,6.4,0,0.648317
0.5,6.5,0,0.656151
0.5,6.6,0,0.663984
0.5,6.7,0,0.671818
0.5,6.8,0,0.679651
0.5,6.9,0,0.682298
0.5,7,0,0.681705
0.5,7.1,0,0.681111
0.5,7.2,0,0.680518
0.5,7.3,0,0.679924
0.5,7.4,0,0.677323
0.5,7.5,0,0.673983
0.5,7.6,0,0.670642
0.5,7.7,0,0.667302
0.5,7.8,0,0.663962
0.5,7.9,0,0.659387
0.5,8,0,0.654587
0.5,8.1,0,0.649788
0.5,8.2,0,0.644988
0.5,8.3,0,0.640189
0.5,8.4,0,0.63259
0.5,8.5,0,0.624879
0.5,8.6,0,0.617168
0.5,8.7,0,0.609458
0.5,8.8,0,0.601561
0.5,8.9,0,0.591433
0.5,9,0,0.581305
0.5,9.1,0,0.571176
0.5,9.2,0,0.561048
0.5,9.3,0,0.550594
0.5,9.4,0,0.538772
0.5,9.5,0,0.526949
0.5,9.6,0,0.515126
0.5,9.7,0,0.503304
0.5,9.8,0,0.49082
0.5,9.9,0,0.476851
0.5,10,0,0.462882
0.5,10.1,0,0.448913
0.5,10.2,0,0.434943
0.5,10.3,0,0.420325
0.5,10.4,0,0.404823
0.5,10.5,0,0.389321
0.5,10.6,0,0.373818
0.5,10.7,0,0.358316
0.5,10.8,0,0.342317
0.5,10.9,0,0.325893
0.5,11,0,0.309468
0.5,11.1,0,0.293044
0.5,11.2,0,0.27662
0.5,11.3,0,0.259378
0.5,11.4,0,0.241702
0.5,11.5,0,0.224027
0.5,11.6,0,0.206351
0.5,11.7,0,0.188676
0.5,11.8,0,0.170232
0.5,11.9,0,0.151557
0.5,12,0,0.132882
0.5,12.1,0,0.114207
0.5,12.2,0,0.095532
0.5,12.3,0,0.076478
0.5,12.4,0,0.0573585
0.5,12.5,0,0.038239
0.5,12.6,0,0.0191195
0.5,12.7,0,0
0.6,0,0,0
0.6,0.1,0,0.013912
0.6,0.2,0,0.0292106
0.6,0.3,0,0.0445091
0.6,0.4,0,0.0598077
0.6,0.5,0,0.0750375
0.6,0.6,0,0.0889759
0.6,0.7,0,0.103802
0.6,0.8,0,0.118628
0.6,0.9,0,0.133455
0.6,1,0,0.148144
0.6,1.1,0,0.162117
0.6,1.2,0,0.176314
0.6,1.3,0,0.19051
0.6,1.4,0,0.204707
0.6,1.5,0,0.218589
0.6,1.6,0,0.231827
0.6,1.7,0,0.245197
0.6,1.8,0,0.258567
0.6,1.9,0,0.271936
0.6,2,0,0.284823
0.6,2.1,0,0.297126
0.6,2.2,0,0.309408
0.6,2.3,0,0.321691
0.6,2.4,0,0.333973
0.6,2.5,0,0.345792
0.6,2.6,0,0.357148
0.6,2.7,0,0.368422
0.6,2.8,0,0.379696
0.6,2.9,0,0.39097
0.6,3,0,0.401939
0.6,3.1,0,0.412404
0.6,3.2,0,0.422722
0.6,3.3,0,0.433041
0.6,3.4,0,0.443359
0.6,3.5,0,0.453952
0.6,3.6,0,0.463553
0.6,3.7,0,0.472939
0.6,3.8,0,0.482325
0.6,3.9,0,0.49171
0.6,4,0,0.501992
0.6,4.1,0,0.510515
0.6,4.2,0,0.518933
0.6,4.3,0,0.527351
0.6,4.4,0,0.53582
0.6,4.5,0,0.545406
0.6,4.6,0,0.552588
0.6,4.7,0,0.55977
0.6,4.8,0,0.566951
0.6,4.9,0,0.574281
0.6,5,0,0.581918
0.6,5.1,0,0.587206
0.6,5.2,0,0.592494
0.6,5.3,0,0.597782
0.6,5.4,0,0.602918
0.6,5.5,0,0.607033
0.6,5.6,0,0.60967
0.6,5.7,0,0.612307
0.6,5.8,0,0.614944
0.6,5.9,0,0.61926
0.6,6,0,0.626436
0.6,6.1,0,0.633866
0.6,6.2,0,0.641297
0.6,6.3,0,0.648727
0.6,6.4,0,0.655503
0.6,6.5,0,0.66252
0.6,6.6,0,0.670353
0.6,6.7,0,0.678186
0.6,6.8,0,0.68602
0.6,6.9,0,0.68837
0.6,7,0,0.687602
0.6,7.1,0,0.687008
0.6,7.2,0,0.686414
0.6,7.3,0,0.685821
0.6,7.4,0,0.683078
0.6,7.5,0,0.67969
0.6,7.6,0,0.67635
0.6,7.7,0,0.673009
0.6,7.8,0,0.669669
0.6,7.9,0,0.66379
0.6,8,0,0.658789
0.6,8.1,0,0.653989
0.6,8.2,0,0.64919
0.6,8.3,0,0.64439
0.6,8.4,0,0.635455
0.6,8.5,0,0.627723
0.6,8.6,0,0.620012
0.6,8.7,0,0.612301
0.6,8.8,0,0.604369
0.6,8.9,0,0.593818
0.6,9,0,0.58369
0.6,9.1,0,0.573562
0.6,9.2,0,0.563434
0.6,9.3,0,0.552794
0.6,9.4,0,0.540215
0.6,9.5,0,0.528392
0.6,9.6,0,0.51657
0.6,9.7,0,0.504747
0.6,9.8,0,0.492125
0.6,9.9,0,0.477853
0.6,10,0,0.463883
0.6,10.1,0,0.449914
0.6,10.2,0,0.435945
0.6,10.3,0,0.421221
0.6,10.4,0,0.405579
0.6,10.5,0,0.390077
0.6,10.6,0,0.374574
0.6,10.7,0,0.359072
0.6,10.8,0,0.342644
0.6,10.9,0,0.32588
0.6,11,0,0.309456
0.6,11.1,0,0.293031
0.6,11.2,0,0.276607
0.6,11.3,0,0.259356
0.6,11.4,0,0.241681
0.6,11.5,0,0.224005
0.6,11.6,0,0.20633
0.6,11.7,0,0.188417
0.6,11.8,0,0.169892
0.6,11.9,0,0.151217
0.6,12,0,0.132543
0.6,12.1,0,0.113868
0.6,12.2,0,0.0952657
0.6,12.3,0,0.0762144
0.6,12.4,0,0.0570949
0.6,12.5,0,0.0379754
0.6,12.6,0,0.0188559
0.6,12.7,0,0
0.7,0,0,0
0.7,0.1,0,0.0139019
0.7,0.2,0,0.0278239
0.7,0.3,0,0.0431225
0.7,0.4,0,0.0584211
0.7,0.5,0,0.0736584
0.7,0.6,0,0.0875482
0.7,0.7,0,0.101501
0.7,0.8,0,0.116327
0.7,0.9,0,0.131153
0.7,1,0,0.145858
0.7,1.1,0,0.159771
0.7,1.2,0,0.173754
0.7,1.3,0,0.187951
0.7,1.4,0,0.202147
0.7,1.5,0,0.216037
0.7,1.6,0,0.229204
0.7,1.7,0,0.242448
0.7,1.8,0,0.255818
0.7,1.9,0,0.269188
0.7,2,0,0.282074
0.7,2.1,0,0.294397
0.7,2.2,0,0.306699
0.7,2.3,0,0.318981
0.7,2.4,0,0.331264
0.7,2.5,0,0.343082
0.7,2.6,0,0.354561
0.7,2.7,0,0.365912
0.7,2.8,0,0.377186
0.7,2.9,0,0.388461
0.7,3,0,0.399429
0.7,3.1,0,0.410262
0.7,3.2,0,0.420715
0.7,3.3,0,0.431034
0.7,3.4,0,0.441352
0.7,3.5,0,0.451945
0.7,3.6,0,0.462604
0.7,3.7,0,0.472176
0.7,3.8,0,0.481561
0.7,3.9,0,0.490947
0.7,4,0,0.501229
0.7,4.1,0,0.511586
0.7,4.2,0,0.520063
0.7,4.3,0,0.528481
0.7,4.4,0,0.536951
0.7,4.5,0,0.546694
0.7,4.6,0,0.556221
0.7,4.7,0,0.563403
0.7,4.8,0,0.570585
0.7,4.9,0,0.577914
0.7,5,0,0.586056
0.7,5.1,0,0.593628
0.7,5.2,0,0.598916
0.7,5.3,0,0.604204
0.7,5.4,0,0.60934
0.7,5.5,0,0.614064
0.7,5.6,0,0.61813
0.7,5.7,0,0.620768
0.7,5.8,0,0.623405
0.7,5.9,0,0.627721
0.7,6,0,0.634722
0.7,6.1,0,0.641908
0.7,6.2,0,0.649338
0.7,6.3,0,0.656768
0.7,6.4,0,0.663544
0.7,6.5,0,0.669666
0.7,6.6,0,0.676722
0.7,6.7,0,0.684555
0.7,6.8,0,0.692389
0.7,6.9,0,0.694739
0.7,7,0,0.693662
0.7,7.1,0,0.692905
0.7,7.2,0,0.692311
0.7,7.3,0,0.691717
0.7,7.4,0,0.688975
0.7,7.5,0,0.685441
0.7,7.6,0,0.682057
0.7,7.7,0,0.678717
0.7,7.8,0,0.675376
0.7,7.9,0,0.669497
0.7,8,0,0.663156
0.7,8.1,0,0.65819
0.7,8.2,0,0.653391
0.7,8.3,0,0.648591
0.7,8.4,0,0.639656
0.7,8.5,0,0.630567
0.7,8.6,0,0.622856
0.7,8.7,0,0.615145
0.7,8.8,0,0.607212
0.7,8.9,0,0.596615
0.7,9,0,0.586075
0.7,9.1,0,0.575947
0.7,9.2,0,0.565819
0.7,9.3,0,0.555179
0.7,9.4,0,0.542393
0.7,9.5,0,0.529836
0.7,9.6,0,0.518013
0.7,9.7,0,0.506191
0.7,9.8,0,0.493568
0.7,9.9,0,0.479147
0.7,10,0,0.464885
0.7,10.1,0,0.450916
0.7,10.2,0,0.436946
0.7,10.3,0,0.422222
0.7,10.4,0,0.406468
0.7,10.5,0,0.390833
0.7,10.6,0,0.37533
0.7,10.7,0,0.359828
0.7,10.8,0,0.3434
0.7,10.9,0,0.32618
0.7,11,0,0.309443
0.7,11.1,0,0.293018
0.7,11.2,0,0.276594
0.7,11.3,0,0.259334
0.7,11.4,0,0.241659
0.7,11.5,0,0.223984
0.7,11.6,0,0.206077
0.7,11.7,0,0.188084
0.7,11.8,0,0.169553
0.7,11.9,0,0.150878
0.7,12,0,0.132203
0.7,12.1,0,0.113599
0.7,12.2,0,0.0950107
0.7,12.3,0,0.0759508
0.7,12.4,0,0.0568313
0.7,12.5,0,0.0377118
0.7,12.6,0,0.0188505
0.7,12.7,0,0
0.8,0,0,0
0.8,0.1,0,0.0139019
0.8,0.2,0,0.0278038
0.8,0.3,0,0.0417359
0.8,0.4,0,0.0570345
0.8,0.5,0,0.0722794
0.8,0.6,0,0.0861691
0.8,0.7,0,0.100059
0.8,0.8,0,0.114026
0.8,0.9,0,0.128852
0.8,1,0,0.143573
0.8,1.1,0,0.157486
0.8,1.2,0,0.171399
0.8,1.3,0,0.185391
0.8,1.4,0,0.199587
0.8,1.5,0,0.213484
0.8,1.6,0,0.226652
0.8,1.7,0,0.23982
0.8,1.8,0,0.25307
0.8,1.9,0,0.266439
0.8,2,0,0.279326
0.8,2.1,0,0.291648
0.8,2.2,0,0.303971
0.8,2.3,0,0.316272
0.8,2.4,0,0.328555
0.8,2.5,0,0.340373
0.8,2.6,0,0.351852
0.8,2.7,0,0.36333
0.8,2.8,0,0.374677
0.8,2.9,0,0.385951
0.8,3,0,0.39692
0.8,3.1,0,0.407753
0.8,3.2,0,0.418586
0.8,3.3,0,0.429027
0.8,3.4,0,0.439345
0.8,3.5,0,0.449938
0.8,3.6,0,0.460597
0.8,3.7,0,0.471256
0.8,3.8,0,0.480798
0.8,3.9,0,0.490184
0.8,4,0,0.500466
0.8,4.1,0,0.510822
0.8,4.2,0,0.521179
0.8,4.3,0,0.529612
0.8,4.4,0,0.538081
0.8,4.5,0,0.547825
0.8,4.6,0,0.557568
0.8,4.7,0,0.567036
0.8,4.8,0,0.574218
0.8,4.9,0,0.581547
0.8,5,0,0.58969
0.8,5.1,0,0.597832
0.8,5.2,0,0.605337
0.8,5.3,0,0.610625
0.8,5.4,0,0.615762
0.8,5.5,0,0.620486
0.8,5.6,0,0.62521
0.8,5.7,0,0.629228
0.8,5.8,0,0.631865
0.8,5.9,0,0.636181
0.8,6,0,0.643182
0.8,6.1,0,0.650183
0.8,6.2,0,0.657379
0.8,6.3,0,0.66481
0.8,6.4,0,0.671585
0.8,6.5,0,0.677707
0.8,6.6,0,0.683828
0.8,6.7,0,0.690924
0.8,6.8,0,0.698758
0.8,6.9,0,0.701108
0.8,7,0,0.700031
0.8,7.1,0,0.698954
0.8,7.2,0,0.698208
0.8,7.3,0,0.697614
0.8,7.4,0,0.694872
0.8,7.5,0,0.691337
0.8,7.6,0,0.687803
0.8,7.7,0,0.684424
0.8,7.8,0,0.681084
0.8,7.9,0,0.675204
0.8,8,0,0.668863
0.8,8.1,0,0.662522
0.8,8.2,0,0.657592
0.8,8.3,0,0.652793
0.8,8.4,0,0.643858
0.8,8.5,0,0.634757
0.8,8.6,0,0.6257
0.8,8.7,0,0.617989
0.8,8.8,0,0.610056
0.8,8.9,0,0.599459
0.8,9,0,0.588861
0.8,9.1,0,0.578332
0.8,9.2,0,0.568204
0.8,9.3,0,0.557565
0.8,9.4,0,0.544778
0.8,9.5,0,0.531991
0.8,9.6,0,0.519457
0.8,9.7,0,0.507634
0.8,9.8,0,0.495012
0.8,9.9,0,0.48059
0.8,10,0,0.466168
0.8,10.1,0,0.451917
0.8,10.2,0,0.437948
0.8,10.3,0,0.423224
0.8,10.4,0,0.40747
0.8,10.5,0,0.391716
0.8,10.6,0,0.376086
0.8,10.7,0,0.360584
0.8,10.8,0,0.344157
0.8,10.9,0,0.326936
0.8,11,0,0.309716
0.8,11.1,0,0.293005
0.8,11.2,0,0.276581
0.8,11.3,0,0.259313
0.8,11.4,0,0.241638
0.8,11.5,0,0.223737
0.8,11.6,0,0.205745
0.8,11.7,0,0.187752
0.8,11.8,0,0.169214
0.8,11.9,0,0.150539
0.8,12,0,0.131933
0.8,12.1,0,0.113344
0.8,12.2,0,0.0947557
0.8,12.3,0,0.0756872
0.8,12.4,0,0.0565677
0.8,12.5,0,0.037701
0.8,12.6,0,0.0188505
0.8,12.7,0,0
0.9,0,0,0
0.9,0.1,0,0.0139019
0.9,0.2,0,0.0278038
0.9,0.3,0,0.0417057
0.9,0.4,0,0.0556478
0.9,0.5,0,0.0709003
0.9,0.6,0,0.08479
0.9,0.7,0,0.0986798
0.9,0.8,0,0.11257
0.9,0.9,0,0.126551
0.9,1,0,0.141288
0.9,1.1,0,0.155201
0.9,1.2,0,0.169114
0.9,1.3,0,0.183027
0.9,1.4,0,0.197027
0.9,1.5,0,0.210932
0.9,1.6,0,0.2241
0.9,1.7,0,0.237268
0.9,1.8,0,0.250435
0.9,1.9,0,0.263691
0.9,2,0,0.276577
0.9,2.1,0,0.2889
0.9,2.2,0,0.301222
0.9,2.3,0,0.313545
0.9,2.4,0,0.325845
0.9,2.5,0,0.337664
0.9,2.6,0,0.349143
0.9,2.7,0,0.360621
0.9,2.8,0,0.3721
0.9,2.9,0,0.383442
0.9,3,0,0.39441
0.9,3.1,0,0.405243
0.9,3.2,0,0.416076
0.9,3.3,0,0.426909
0.9,3.4,0,0.437338
0.9,3.5,0,0.447931
0.9,3.6,0,0.45859
0.9,3.7,0,0.469249
0.9,3.8,0,0.479907
0.9,3.9,0,0.48942
0.9,4,0,0.499702
0.9,4.1,0,0.510059
0.9,4.2,0,0.520415
0.9,4.3,0,0.530742
0.9,4.4,0,0.539211
0.9,4.5,0,0.548955
0.9,4.6,0,0.558699
0.9,4.7,0,0.568442
0.9,4.8,0,0.577851
0.9,4.9,0,0.585181
0.9,5,0,0.593323
0.9,5.1,0,0.601465
0.9,5.2,0,0.609607
0.9,5.3,0,0.617047
0.9,5.4,0,0.622183
0.9,5.5,0,0.626907
0.9,5.6,0,0.631632
0.9,5.7,0,0.636356
0.9,5.8,0,0.640326
0.9,5.9,0,0.644642
0.9,6,0,0.651643
0.9,6.1,0,0.658644
0.9,6.2,0,0.665645
0.9,6.3,0,0.672851
0.9,6.4,0,0.679627
0.9,6.5,0,0.685748
0.9,6.6,0,0.69187
0.9,6.7,0,0.697991
0.9,6.8,0,0.705127
0.9,6.9,0,0.707477
0.9,7,0,0.7064
0.9,7.1,0,0.705323
0.9,7.2,0,0.704246
0.9,7.3,0,0.703511
0.9,7.4,0,0.700768
0.9,7.5,0,0.697234
0.9,7.6,0,0.6937
0.9,7.7,0,0.690166
0.9,7.8,0,0.686791
0.9,7.9,0,0.680912
0.9,8,0,0.674571
0.9,8.1,0,0.66823
0.9,8.2,0,0.661889
0.9,8.3,0,0.656994
0.9,8.4,0,0.648059
0.9,8.5,0,0.638959
0.9,8.6,0,0.629858
0.9,8.7,0,0.620833
0.9,8.8,0,0.6129
0.9,8.9,0,0.602302
0.9,9,0,0.591705
0.9,9.1,0,0.581107
0.9,9.2,0,0.570589
0.9,9.3,0,0.55995
0.9,9.4,0,0.547163
0.9,9.5,0,0.534377
0.9,9.6,0,0.52159
0.9,9.7,0,0.509077
0.9,9.8,0,0.496455
0.9,9.9,0,0.482033
0.9,10,0,0.467612
0.9,10.1,0,0.45319
0.9,10.2,0,0.438949
0.9,10.3,0,0.424225
0.9,10.4,0,0.408472
0.9,10.5,0,0.392718
0.9,10.6,0,0.376964
0.9,10.7,0,0.36134
0.9,10.8,0,0.344913
0.9,10.9,0,0.327692
0.9,11,0,0.310472
0.9,11.1,0,0.293251
0.9,11.2,0,0.276568
0.9,11.3,0,0.259291
0.9,11.4,0,0.241398
0.9,11.5,0,0.223405
0.9,11.6,0,0.205412
0.9,11.7,0,0.187419
0.9,11.8,0,0.168874
0.9,11.9,0,0.150267
0.9,12,0,0.131678
0.9,12.1,0,0.113089
0.9,12.2,0,0.0945006
0.9,12.3,0,0.0754236
0.9,12.4,0,0.0565515
0.9,12.5,0,0.037701
0.9,12.6,0,0.0188505
0.9,12.7,0,0
1,0,0,0
1,0.1,0,0.0139019
1,0.2,0,0.0278038
1,0.3,0,0.0417057
1,0.4,0,0.0556076
1,0.5,0,0.0695212
1,0.6,0,0.083411
1,0.7,0,0.0973007
1,0.8,0,0.11119
1,0.9,0,0.12508
1,1,0,0.139003
1,1.1,0,0.152916
1,1.2,0,0.166829
1,1.3,0,0.180742
1,1.4,0,0.194655
1,1.5,0,0.20838
1,1.6,0,0.221548
1,1.7,0,0.234716
1,1.8,0,0.247883
1,1.9,0,0.261051
1,2,0,0.273829
1,2.1,0,0.286151
1,2.2,0,0.298474
1,2.3,0,0.310797
1,2.4,0,0.323119
1,2.5,0,0.334955
1,2.6,0,0.346433
1,2.7,0,0.357912
1,2.8,0,0.369391
1,2.9,0,0.380869
1,3,0,0.391901
1,3.1,0,0.402734
1,3.2,0,0.413567
1,3.3,0,0.4244
1,3.4,0,0.435232
1,3.5,0,0.445925
1,3.6,0,0.456583
1,3.7,0,0.467242
1,3.8,0,0.4779
1,3.9,0,0.488559
1,4,0,0.498939
1,4.1,0,0.509295
1,4.2,0,0.519652
1,4.3,0,0.530008
1,4.4,0,0.540342
1,4.5,0,0.550085
1,4.6,0,0.559829
1,4.7,0,0.569573
1,4.8,0,0.579316
1,4.9,0,0.588814
1,5,0,0.596956
1,5.1,0,0.605098
1,5.2,0,0.613241
1,5.3,0,0.621383
1,5.4,0,0.628605
1,5.5,0,0.633329
1,5.6,0,0.638053
1,5.7,0,0.642778
1,5.8,0,0.647502
1,5.9,0,0.653102
1,6,0,0.660103
1,6.1,0,0.667104
1,6.2,0,0.674106
1,6.3,0,0.681107
1,6.4,0,0.687668
1,6.5,0,0.693789
1,6.6,0,0.699911
1,6.7,0,0.706032
1,6.8,0,0.712154
1,6.9,0,0.713846
1,7,0,0.712769
1,7.1,0,0.711692
1,7.2,0,0.710615
1,7.3,0,0.709538
1,7.4,0,0.706665
1,7.5,0,0.703131
1,7.6,0,0.699597
1,7.7,0,0.696062
1,7.8,0,0.692528
1,7.9,0,0.686619
1,8,0,0.680278
1,8.1,0,0.673937
1,8.2,0,0.667596
1,8.3,0,0.661255
1,8.4,0,0.652261
1,8.5,0,0.64316
1,8.6,0,0.63406
1,8.7,0,0.624959
1,8.8,0,0.615744
1,8.9,0,0.605146
1,9,0,0.594549
1,9.1,0,0.583951
1,9.2,0,0.573354
1,9.3,0,0.562335
1,9.4,0,0.549549
1,9.5,0,0.536762
1,9.6,0,0.523975
1,9.7,0,0.511188
1,9.8,0,0.497899
1,9.9,0,0.483477
1,10,0,0.469055
1,10.1,0,0.454634
1,10.2,0,0.440212
1,10.3,0,0.425227
1,10.4,0,0.409473
1,10.5,0,0.393719
1,10.6,0,0.377966
1,10.7,0,0.362212
1,10.8,0,0.345669
1,10.9,0,0.328448
1,11,0,0.311228
1,11.1,0,0.294008
1,11.2,0,0.276787
1,11.3,0,0.259058
1,11.4,0,0.241065
1,11.5,0,0.223072
1,11.6,0,0.20508
1,11.7,0,0.187087
1,11.8,0,0.168601
1,11.9,0,0.150012
1,12,0,0.131423
1,12.1,0,0.112834
1,12.2,0,0.0942456
1,12.3,0,0.075402
1,12.4,0,0.0565515
1,12.5,0,0.037701
1,12.6,0,0.0188505
1,12.7,0,0
1.1,0,0,0
1.1,0.1,0,0.0139019
1.1,0.2,0,0.0278038
1.1,0.3,0,0.0417057
1.1,0.4,0,0.0556173
1.1,0.5,0,0.0701786
1.1,0.6,0,0.0851066
1.1,0.7,0,0.0989801
1.1,0.8,0,0.112854
1.1,0.9,0,0.126727
1.1,1,0,0.140657
1.1,1.1,0,0.155132
1.1,1.2,0,0.169015
1.1,1.3,0,0.182898
1.1,1.4,0,0.19678
1.1,1.5,0,0.210608
1.1,1.6,0,0.224131
1.1,1.7,0,0.237372
1.1,1.8,0,0.250613
1.1,1.9,0,0.263854
1.1,2,0,0.276985
1.1,2.1,0,0.289655
1.1,2.2,0,0.301978
1.1,2.3,0,0.314301
1.1,2.4,0,0.326623
1.1,2.5,0,0.338471
1.1,2.6,0,0.349958
1.1,2.7,0,0.361436
1.1,2.8,0,0.372915
1.1,2.9,0,0.384393
1.1,3,0,0.395175
1.1,3.1,0,0.405905
1.1,3.2,0,0.416738
1.1,3.3,0,0.427571
1.1,3.4,0,0.438404
1.1,3.5,0,0.448844
1.1,3.6,0,0.45945
1.1,3.7,0,0.470108
1.1,3.8,0,0.480767
1.1,3.9,0,0.491425
1.1,4,0,0.501585
1.1,4.1,0,0.511928
1.1,4.2,0,0.522285
1.1,4.3,0,0.532642
1.1,4.4,0,0.542979
1.1,4.5,0,0.552819
1.1,4.6,0,0.562562
1.1,4.7,0,0.572306
1.1,4.8,0,0.58205
1.1,4.9,0,0.5917
1.1,5,0,0.600661
1.1,5.1,0,0.608803
1.1,5.2,0,0.616946
1.1,5.3,0,0.625088
1.1,5.4,0,0.632487
1.1,5.5,0,0.637676
1.1,5.6,0,0.642401
1.1,5.7,0,0.647125
1.1,5.8,0,0.651849
1.1,5.9,0,0.657409
1.1,6,0,0.664349
1.1,6.1,0,0.67135
1.1,6.2,0,0.678351
1.1,6.3,0,0.685352
1.1,6.4,0,0.692062
1.1,6.5,0,0.698326
1.1,6.6,0,0.704447
1.1,6.7,0,0.710568
1.1,6.8,0,0.71669
1.1,6.9,0,0.718753
1.1,7,0,0.717895
1.1,7.1,0,0.716818
1.1,7.2,0,0.715741
1.1,7.3,0,0.714664
1.1,7.4,0,0.712002
1.1,7.5,0,0.708539
1.1,7.6,0,0.705005
1.1,7.7,0,0.701471
1.1,7.8,0,0.697936
1.1,7.9,0,0.692141
1.1,8,0,0.685818
1.1,8.1,0,0.679477
1.1,8.2,0,0.673136
1.1,8.3,0,0.666795
1.1,8.4,0,0.657899
1.1,8.5,0,0.6488
1.1,8.6,0,0.639699
1.1,8.7,0,0.630599
1.1,8.8,0,0.621353
1.1,8.9,0,0.610397
1.1,9,0,0.599799
1.1,9.1,0,0.589202
1.1,9.2,0,0.578604
1.1,9.3,0,0.567474
1.1,9.4,0,0.554233
1.1,9.5,0,0.541446
1.1,9.6,0,0.528659
1.1,9.7,0,0.515873
1.1,9.8,0,0.502343
1.1,9.9,0,0.4874
1.1,10,0,0.472979
1.1,10.1,0,0.458557
1.1,10.2,0,0.444135
1.1,10.3,0,0.428715
1.1,10.4,0,0.412409
1.1,10.5,0,0.396655
1.1,10.6,0,0.380901
1.1,10.7,0,0.365148
1.1,10.8,0,0.348581
1.1,10.9,0,0.331352
1.1,11,0,0.314122
1.1,11.1,0,0.296892
1.1,11.2,0,0.279157
1.1,11.3,0,0.261145
1.1,11.4,0,0.243133
1.1,11.5,0,0.22512
1.1,11.6,0,0.207108
1.1,11.7,0,0.188126
1.1,11.8,0,0.169439
1.1,11.9,0,0.150856
1.1,12,0,0.132272
1.1,12.1,0,0.113688
1.1,12.2,0,0.0946151
1.1,12.3,0,0.0757498
1.1,12.4,0,0.056902
1.1,12.5,0,0.0380543
1.1,12.6,0,0.0192065
1.1,12.7,0,0
1.2,0,0,0
1.2,0.1,0,0.0139019
1.2,0.2,0,0.0278038
1.2,0.3,0,0.041713
1.2,0.4,0,0.0562659
1.2,0.5,0,0.0708235
1.2,0.6,0,0.0858152
1.2,0.7,0,0.10072
1.2,0.8,0,0.114593
1.2,0.9,0,0.128467
1.2,1,0,0.142398
1.2,1.1,0,0.156979
1.2,1.2,0,0.171424
1.2,1.3,0,0.185307
1.2,1.4,0,0.19919
1.2,1.5,0,0.213019
1.2,1.6,0,0.226697
1.2,1.7,0,0.240214
1.2,1.8,0,0.253455
1.2,1.9,0,0.266695
1.2,2,0,0.27983
1.2,2.1,0,0.292827
1.2,2.2,0,0.305482
1.2,2.3,0,0.317805
1.2,2.4,0,0.330127
1.2,2.5,0,0.341975
1.2,2.6,0,0.353474
1.2,2.7,0,0.36496
1.2,2.8,0,0.376439
1.2,2.9,0,0.387917
1.2,3,0,0.398699
1.2,3.1,0,0.409171
1.2,3.2,0,0.41991
1.2,3.3,0,0.430743
1.2,3.4,0,0.441575
1.2,3.5,0,0.452015
1.2,3.6,0,0.462362
1.2,3.7,0,0.472975
1.2,3.8,0,0.483633
1.2,3.9,0,0.494292
1.2,4,0,0.504451
1.2,4.1,0,0.514569
1.2,4.2,0,0.524918
1.2,4.3,0,0.535275
1.2,4.4,0,0.545612
1.2,4.5,0,0.555458
1.2,4.6,0,0.565296
1.2,4.7,0,0.575039
1.2,4.8,0,0.584783
1.2,4.9,0,0.594433
1.2,5,0,0.603571
1.2,5.1,0,0.612509
1.2,5.2,0,0.620651
1.2,5.3,0,0.628793
1.2,5.4,0,0.636192
1.2,5.5,0,0.641574
1.2,5.6,0,0.646748
1.2,5.7,0,0.651472
1.2,5.8,0,0.656197
1.2,5.9,0,0.661757
1.2,6,0,0.668653
1.2,6.1,0,0.675595
1.2,6.2,0,0.682596
1.2,6.3,0,0.689597
1.2,6.4,0,0.696308
1.2,6.5,0,0.702727
1.2,6.6,0,0.708983
1.2,6.7,0,0.715105
1.2,6.8,0,0.721226
1.2,6.9,0,0.723289
1.2,7,0,0.722816
1.2,7.1,0,0.721944
1.2,7.2,0,0.720867
1.2,7.3,0,0.71979
1.2,7.4,0,0.717128