/*--------------------------------*- C++ -*----------------------------------*\
| =========                 |                                                 |
| \\      /  F ield         | OpenFOAM: The Open Source CFD Toolbox           |
|  \\    /   O peration     | Version:  v1806                                 |
|   \\  /    A nd           | Web:      www.OpenFOAM.com                      |
|    \\/     M anipulation  |                                                 |
\*---------------------------------------------------------------------------*/
FoamFile
{
    version     2.0;
    format      ascii;
    class       volVectorField;
    location    "9";
    object      U;
}
// * * * * * * * * * * * * * * * * * * * * * * * * * * * * * * * * * * * * * //

dimensions      [0 1 -1 0 0 0 0];


internalField   nonuniform List<vector> 
24000
(
(2.71582 0.0328988 0.0848826)
(2.45468 0.0470325 0.09414)
(2.1102 0.0436966 0.0773324)
(1.77531 0.0376086 0.0617036)
(1.51458 0.0297904 0.0437294)
(1.33067 0.022192 0.0262453)
(1.20646 0.0166049 0.0138864)
(1.12242 0.013089 0.00709167)
(1.06478 0.0105791 0.00371857)
(1.0252 0.00825216 0.00216272)
(0.99872 0.0058497 0.00163288)
(0.982103 0.00324005 0.00158321)
(0.973167 0.000646769 0.00175529)
(0.970234 -0.00168006 0.00198557)
(0.972098 -0.00357464 0.00215395)
(0.9775 -0.00495319 0.00225187)
(0.985404 -0.00571787 0.00221557)
(0.994666 -0.00581522 0.00205351)
(1.00408 -0.00521595 0.00171537)
(1.01269 -0.00397927 0.00133265)
(2.77002 0.041321 0.0857094)
(2.56346 0.0605545 0.0981214)
(2.30313 0.057119 0.0794682)
(2.04186 0.0498262 0.0657774)
(1.82499 0.0399914 0.0511087)
(1.65976 0.0292796 0.0351439)
(1.54054 0.0198416 0.0219754)
(1.45715 0.0124071 0.0133613)
(1.40085 0.00637473 0.00822679)
(1.36464 0.000864891 0.00524993)
(1.34384 -0.00454484 0.00354481)
(1.33422 -0.0100661 0.00279247)
(1.33327 -0.0153926 0.00250177)
(1.33866 -0.0201947 0.00245912)
(1.34891 -0.0241224 0.00247935)
(1.36263 -0.0268963 0.00245048)
(1.37883 -0.0282439 0.00233451)
(1.39631 -0.0280297 0.002163)
(1.41389 -0.0260828 0.00185396)
(1.43071 -0.0225483 0.00155177)
(2.76951 0.0159586 0.0856825)
(2.55254 0.0290779 0.0982446)
(2.2943 0.0305183 0.0787547)
(2.04285 0.0271934 0.0645694)
(1.83682 0.0213007 0.050329)
(1.68063 0.0134549 0.0349184)
(1.56825 0.00494861 0.0220334)
(1.49023 -0.00380401 0.0133775)
(1.43834 -0.0120266 0.00804193)
(1.40598 -0.0200356 0.00475391)
(1.38876 -0.0277578 0.00271697)
(1.38293 -0.0353113 0.0015471)
(1.38591 -0.0423262 0.000991529)
(1.39527 -0.0485645 0.000796395)
(1.40959 -0.0535457 0.00070496)
(1.42737 -0.0568527 0.000647897)
(1.44761 -0.0580849 0.00052855)
(1.4692 -0.0569778 0.000392393)
(1.49091 -0.0532666 0.000167124)
(1.51193 -0.0470678 -1.84503e-05)
(2.76907 0.0115253 0.0858215)
(2.54289 0.0225583 0.0987984)
(2.27835 0.0245718 0.0792288)
(2.02477 0.0205767 0.0646059)
(1.81928 0.0139772 0.0502318)
(1.66462 0.00513029 0.0348158)
(1.55446 -0.00417855 0.0218584)
(1.47847 -0.0145009 0.0132164)
(1.42878 -0.0244125 0.00789636)
(1.39814 -0.0347367 0.0045991)
(1.38274 -0.0444688 0.0024819)
(1.37843 -0.0541806 0.00126328)
(1.38334 -0.0629642 0.000554901)
(1.39473 -0.0708805 0.0002626)
(1.4115 -0.0770398 6.40988e-05)
(1.43191 -0.0811173 -4.05336e-05)
(1.45512 -0.0824401 -0.000210035)
(1.47983 -0.0806457 -0.000357957)
(1.50479 -0.0753397 -0.000591082)
(1.52896 -0.0666267 -0.000711096)
(2.76871 0.00656182 0.0859595)
(2.53671 0.0108966 0.0990547)
(2.26784 0.0112892 0.0795034)
(2.01189 0.00653798 0.0645716)
(1.80565 0.000280748 0.0500644)
(1.65102 -0.00922934 0.0344782)
(1.54169 -0.0186805 0.0214292)
(1.46649 -0.030328 0.0126432)
(1.4181 -0.0409918 0.00732291)
(1.38801 -0.053336 0.00409063)
(1.37375 -0.0643552 0.00203334)
(1.36998 -0.0762386 0.000893427)
(1.37627 -0.0863668 0.000158364)
(1.38888 -0.0960842 -8.56777e-05)
(1.4077 -0.103258 -0.000343469)
(1.43042 -0.108256 -0.000412597)
(1.45647 -0.109628 -0.0006233)
(1.48442 -0.107165 -0.000758373)
(1.51263 -0.100139 -0.00100205)
(1.54021 -0.0886757 -0.00114183)
(2.76834 0.00424721 0.0861438)
(2.53282 0.00350927 0.0991378)
(2.26144 0.00328071 0.0797594)
(2.0032 -0.00280813 0.0646874)
(1.79503 -0.00850969 0.0503272)
(1.63883 -0.0197112 0.0345617)
(1.52907 -0.0289636 0.0216448)
(1.45301 -0.0432175 0.0127247)
(1.40526 -0.0542787 0.00744245)
(1.37454 -0.0699028 0.00411712)
(1.36167 -0.0818007 0.00207942)
(1.35765 -0.0971639 0.000974341)
(1.36596 -0.108386 0.000185555)
(1.37926 -0.121182 4.74843e-05)
(1.4009 -0.129355 -0.000346228)
(1.42587 -0.13629 -0.000287994)
(1.45562 -0.137876 -0.000642226)
(1.48734 -0.135231 -0.000713845)
(1.51979 -0.126509 -0.00105781)
(1.55162 -0.112078 -0.00119987)
(2.76772 0.00310136 0.0864302)
(2.52949 -0.00323124 0.0990464)
(2.25638 -0.00400176 0.0800672)
(1.99634 -0.013358 0.0647476)
(1.78596 -0.0181146 0.0506319)
(1.62838 -0.0326044 0.0343071)
(1.51821 -0.0402059 0.0217153)
(1.44075 -0.0585341 0.012465)
(1.39382 -0.0681083 0.0074645)
(1.36132 -0.088836 0.0038157)
(1.35071 -0.0996106 0.00200454)
(1.34497 -0.120678 0.000768819)
(1.35677 -0.131217 6.18856e-05)
(1.36922 -0.149517 2.49924e-05)
(1.3954 -0.15741 -0.000559382)
(1.42175 -0.168404 -0.000186688)
(1.45675 -0.169569 -0.000875964)
(1.49254 -0.167872 -0.000652143)
(1.53048 -0.157088 -0.00123551)
(1.56764 -0.139528 -0.00132889)
(2.76671 0.00273875 0.086819)
(2.52665 -0.00917396 0.0986676)
(2.25212 -0.00911605 0.0803716)
(1.99128 -0.0229324 0.0646016)
(1.77787 -0.0250039 0.0510837)
(1.61928 -0.0448724 0.0337874)
(1.50809 -0.0485713 0.0220255)
(1.42859 -0.0739451 0.0119875)
(1.38265 -0.0790177 0.00777596)
(1.34677 -0.108657 0.00325038)
(1.33989 -0.114607 0.00218278)
(1.32974 -0.146075 0.000294343)
(1.34785 -0.151896 0.000118753)
(1.35599 -0.181084 -0.000163899)
(1.39046 -0.184896 -0.00079972)
(1.41511 -0.205186 9.54607e-06)
(1.45903 -0.203146 -0.00136916)
(1.49779 -0.205938 -0.000296695)
(1.54371 -0.191675 -0.00157031)
(1.58708 -0.171524 -0.00130257)
(2.76535 0.00274725 0.0872652)
(2.52425 -0.0144725 0.0980245)
(2.24817 -0.0124257 0.0808334)
(1.98736 -0.0320826 0.0643045)
(1.77022 -0.0296914 0.0516753)
(1.61102 -0.0573508 0.0329901)
(1.49827 -0.0542862 0.0225535)
(1.41622 -0.090336 0.011123)
(1.37161 -0.0866534 0.00831469)
(1.33066 -0.130377 0.002092)
(1.32939 -0.125835 0.00263538)
(1.31132 -0.174781 -0.000966247)
(1.33975 -0.168836 0.000460562)
(1.338 -0.218054 -0.0012318)
(1.38717 -0.20969 -0.00103518)
(1.40348 -0.249792 -0.000297209)
(1.46372 -0.236839 -0.00241635)
(1.50091 -0.253238 0.000318692)
(1.56023 -0.230624 -0.00248876)
(1.60955 -0.211197 -0.0009494)
(2.76412 0.00282833 0.0876773)
(2.5221 -0.0189661 0.0972313)
(2.24482 -0.0140276 0.0813839)
(1.98372 -0.0403334 0.0639143)
(1.76346 -0.0319989 0.052275)
(1.60261 -0.0693083 0.0320726)
(1.48916 -0.0568852 0.0231817)
(1.40258 -0.106851 0.00999138)
(1.36096 -0.0902222 0.00899106)
(1.31171 -0.153228 0.000430189)
(1.3191 -0.131961 0.00337366)
(1.28786 -0.206455 -0.0030848)
(1.33196 -0.179838 0.00129951)
(1.31231 -0.26114 -0.00357907)
(1.38491 -0.228336 -0.000796281)
(1.38199 -0.304929 -0.00177068)
(1.47069 -0.266137 -0.00366179)
(1.49556 -0.314798 0.00117629)
(1.57994 -0.271285 -0.00425003)
(1.6313 -0.263907 0.000684238)
(2.76363 0.00298563 0.0879792)
(2.51979 -0.0227558 0.0964949)
(2.24281 -0.0140109 0.0818976)
(1.97919 -0.0473568 0.0636262)
(1.75844 -0.0319646 0.0527541)
(1.59249 -0.0801153 0.0313428)
(1.48158 -0.05635 0.0237187)
(1.38586 -0.122598 0.00898995)
(1.35141 -0.0896742 0.00957827)
(1.28789 -0.176085 -0.00121306)
(1.3093 -0.132749 0.00417188)
(1.25701 -0.239981 -0.00554152)
(1.32435 -0.18413 0.00244185)
(1.27613 -0.310105 -0.006969)
(1.38335 -0.23887 0.000162197)
(1.3471 -0.373508 -0.00447198)
(1.47967 -0.287073 -0.00444636)
(1.47605 -0.398812 0.00244132)
(1.60394 -0.310082 -0.00645283)
(1.64693 -0.340505 0.00524418)
(2.76389 0.0033943 0.0881458)
(2.51766 -0.0262152 0.0960347)
(2.24209 -0.0122619 0.0822787)
(1.97391 -0.0533323 0.0635918)
(1.75479 -0.0295844 0.0531201)
(1.58079 -0.0898514 0.0310767)
(1.47511 -0.0526709 0.0240438)
(1.36656 -0.137392 0.00849875)
(1.3429 -0.0850756 0.00990688)
(1.25997 -0.198475 -0.00216777)
(1.30065 -0.128413 0.00469751)
(1.2196 -0.274514 -0.00730246)
(1.31873 -0.181897 0.00334688)
(1.22999 -0.363945 -0.0100755)
(1.38534 -0.240809 0.00135556)
(1.29892 -0.45689 -0.0073779)
(1.49412 -0.297239 -0.00476253)
(1.4426 -0.516454 0.00532518)
(1.63637 -0.34387 -0.00887976)
(1.6532 -0.459761 0.0150183)
(2.76363 0.00390565 0.0881677)
(2.5179 -0.0295223 0.0960534)
(2.24061 -0.00910053 0.0825004)
(1.97091 -0.0586318 0.0638937)
(1.74909 -0.0254344 0.0535094)
(1.57233 -0.0990878 0.0314495)
(1.46516 -0.0465474 0.0244802)
(1.35135 -0.151958 0.00892359)
(1.33019 -0.0771323 0.010284)
(1.23685 -0.221384 -0.00178251)
(1.28862 -0.119514 0.0051879)
(1.18649 -0.311419 -0.00734838)
(1.31385 -0.173372 0.00413839)
(1.18421 -0.423843 -0.0113798)
(1.39632 -0.233812 0.00240235)
(1.24385 -0.555031 -0.00957357)
(1.52464 -0.293033 -0.00589483)
(1.39922 -0.674532 0.0101318)
(1.68843 -0.368065 -0.0142393)
(1.65178 -0.649359 0.0332276)
(2.76088 0.00352473 0.0879095)
(2.52395 -0.0320748 0.0967311)
(2.23494 -0.00609594 0.082504)
(1.97522 -0.0626578 0.0646109)
(1.73539 -0.0217085 0.0539534)
(1.57542 -0.107157 0.0325379)
(1.44234 -0.0411021 0.0252395)
(1.35272 -0.165657 0.010334)
(1.29952 -0.0696733 0.0115342)
(1.23576 -0.244698 0.000291115)
(1.2544 -0.10982 0.00705782)
(1.18079 -0.351678 -0.00516406)
(1.28727 -0.16085 0.00734036)
(1.16641 -0.492846 -0.010498)
(1.39993 -0.216967 0.00704635)
(1.20204 -0.671066 -0.0132288)
(1.57627 -0.26801 -0.00645833)
(1.34787 -0.868448 0.0113082)
(1.77363 -0.36602 -0.0298154)
(1.62974 -0.928481 0.0650739)
(2.75527 0.000645352 0.0870429)
(2.53726 -0.031921 0.0980641)
(2.22422 -0.00634624 0.0820889)
(1.98837 -0.0627735 0.0657424)
(1.71107 -0.0227148 0.0541185)
(1.59243 -0.109837 0.0342248)
(1.40069 -0.043155 0.0256125)
(1.37431 -0.172092 0.0123446)
(1.23764 -0.0727934 0.0126595)
(1.26288 -0.259074 0.0033702)
(1.1705 -0.113997 0.0100934)
(1.21456 -0.383069 -0.00115358)
(1.18664 -0.161584 0.0155769)
(1.2021 -0.560726 -0.00956769)
(1.31513 -0.198385 0.0256978)
(1.21248 -0.806381 -0.0211524)
(1.58819 -0.213938 0.0108047)
(1.30578 -1.10773 -0.00626551)
(1.88171 -0.273189 -0.044483)
(1.55663 -1.30353 0.107113)
(2.75143 -0.0056877 0.0855469)
(2.55162 -0.0260802 0.0994676)
(2.21598 -0.0127855 0.0814736)
(1.99997 -0.055017 0.0669939)
(1.68697 -0.0325548 0.0538699)
(1.60616 -0.100034 0.0356065)
(1.35528 -0.059334 0.0252889)
(1.39008 -0.159978 0.0133715)
(1.16252 -0.0977408 0.0124477)
(1.28042 -0.245925 0.00460551)
(1.05704 -0.152922 0.00884363)
(1.23767 -0.373125 0.000809476)
(1.01742 -0.219625 0.0145613)
(1.2469 -0.570405 -0.00599416)
(1.06872 -0.260722 0.044765)
(1.28648 -0.905294 -0.032638)
(1.34802 -0.161285 0.0949152)
(1.33143 -1.4218 -0.0333876)
(1.96699 -0.165441 -0.0448569)
(1.45343 -1.87774 0.104613)
(2.76123 -0.0132758 0.0839488)
(2.54903 -0.0142821 0.10014)
(2.23091 -0.0234817 0.0813265)
(1.98169 -0.0390007 0.0685621)
(1.69816 -0.0500873 0.0529339)
(1.57324 -0.0764492 0.0366695)
(1.36332 -0.0861116 0.0246444)
(1.33794 -0.126989 0.0141632)
(1.16247 -0.140313 0.0116569)
(1.20365 -0.202173 0.00424033)
(1.04438 -0.220977 0.00650038)
(1.1342 -0.31647 0.00132343)
(0.980725 -0.336856 0.00458236)
(1.13157 -0.496743 0.00296191)
(0.967488 -0.488099 0.0124568)
(1.24662 -0.821951 -0.00238211)
(1.043 -0.509067 0.0977072)
(1.47232 -1.67011 -0.0497183)
(1.51075 0.221782 0.272029)
(1.39738 -2.82652 0.0273097)
(2.78823 -0.0149583 0.0829766)
(2.52214 -0.00454189 0.100206)
(2.27444 -0.0283471 0.0818645)
(1.92405 -0.0258234 0.0705814)
(1.75928 -0.0609558 0.0507576)
(1.4839 -0.0551853 0.0386134)
(1.44956 -0.102912 0.0222439)
(1.20687 -0.0975297 0.017331)
(1.27523 -0.169323 0.00860501)
(1.02505 -0.163646 0.00865754)
(1.18534 -0.272303 0.00490406)
(0.900751 -0.268526 0.00933367)
(1.15002 -0.436251 0.00593386)
(0.837504 -0.439279 0.0201917)
(1.16185 -0.714331 0.00767936)
(0.893656 -0.714687 0.0518968)
(1.2125 -1.18957 0.00756994)
(1.21987 -1.39695 0.0918485)
(1.16188 -0.857546 0.279765)
(1.45752 -3.90638 -0.126228)
(2.81276 -0.0110306 0.0837737)
(2.49377 -0.0018553 0.10067)
(2.31106 -0.0233651 0.0820188)
(1.87091 -0.022602 0.0714292)
(1.8139 -0.053802 0.0498581)
(1.40614 -0.049968 0.0393836)
(1.52429 -0.0935722 0.0207712)
(1.10018 -0.0942424 0.0192402)
(1.36855 -0.158762 0.00588508)
(0.894026 -0.167365 0.0120983)
(1.2906 -0.266552 0.00184357)
(0.752277 -0.290733 0.0136226)
(1.25092 -0.45175 0.0060136)
(0.666325 -0.503477 0.0220238)
(1.22661 -0.785712 0.0244875)
(0.626808 -0.877544 0.040675)
(1.22286 -1.43895 0.0412106)
(0.731977 -1.52417 0.135672)
(1.03948 -2.41686 -0.0396147)
(1.31706 -4.52224 -0.348903)
(2.82268 -0.00116658 0.0836017)
(2.48419 -0.0115615 0.102591)
(2.32246 -0.00931331 0.0811032)
(1.84979 -0.0333445 0.0741425)
(1.82871 -0.0282246 0.0477839)
(1.37952 -0.0665475 0.0423009)
(1.53827 -0.0581597 0.0171456)
(1.07309 -0.118996 0.0238249)
(1.37609 -0.111907 -0.000363057)
(0.876558 -0.2042 0.0184115)
(1.27656 -0.208935 -0.00815503)
(0.744275 -0.344726 0.0211746)
(1.18825 -0.386059 -0.00999844)
(0.629918 -0.579705 0.0267089)
(1.07201 -0.716641 -0.00510287)
(0.436344 -0.987664 0.0148101)
(0.923077 -1.39806 0.0196425)
(0.034055 -1.81096 -0.00923611)
(0.454848 -2.84699 -0.189654)
(0.862015 -4.08889 -0.600237)
(2.94057 0.0341164 0.122628)
(2.99512 0.0535309 0.147751)
(2.96012 0.0542374 0.129947)
(2.85846 0.0533186 0.116447)
(2.73953 0.0504218 0.0975176)
(2.62303 0.0457431 0.0742385)
(2.51559 0.0405719 0.0529617)
(2.41806 0.0358359 0.037384)
(2.33114 0.031558 0.0268965)
(2.25592 0.027419 0.0198125)
(2.19318 0.0232273 0.0150559)
(2.14295 0.0189298 0.0119615)
(2.10492 0.014544 0.0100703)
(2.07802 0.010266 0.00898765)
(2.06142 0.00628263 0.00833326)
(2.05354 0.00272406 0.00789983)
(2.05311 -0.000238551 0.00748067)
(2.05836 -0.00245065 0.00707678)
(2.06768 -0.00379292 0.00651083)
(2.07907 -0.00422653 0.00589559)
(2.99976 0.0428217 0.123343)
(3.11721 0.068683 0.151849)
(3.17939 0.0708041 0.133598)
(3.18328 0.0701435 0.121443)
(3.1592 0.0670422 0.107116)
(3.12481 0.0613478 0.0883595)
(3.08868 0.0543116 0.0693586)
(3.05318 0.0469769 0.0537927)
(3.02072 0.0396484 0.042112)
(2.99275 0.0321137 0.0334875)
(2.97158 0.0242427 0.0269405)
(2.9575 0.0159841 0.0221588)
(2.95133 0.00751048 0.0186832)
(2.95239 -0.000881 0.0162289)
(2.96084 -0.00889805 0.0143882)
(2.97543 -0.0161786 0.0129658)
(2.99592 -0.0223683 0.0117786)
(3.02063 -0.0271348 0.0107533)
(3.04898 -0.0301625 0.00974007)
(3.07886 -0.0312501 0.00876664)
(2.99987 0.0164819 0.123136)
(3.10746 0.0323816 0.151735)
(3.17037 0.0376872 0.132735)
(3.18289 0.0384661 0.119331)
(3.17067 0.0370722 0.105145)
(3.14939 0.0331537 0.0870415)
(3.12703 0.0274548 0.0685362)
(3.10564 0.02007 0.0531802)
(3.08725 0.0117358 0.0415971)
(3.07282 0.00244314 0.0329308)
(3.06449 -0.00759434 0.0262116)
(3.06247 -0.0182688 0.0210986)
(3.06768 -0.0293105 0.0172014)
(3.07925 -0.0402688 0.0142894)
(3.09737 -0.05083 0.0120903)
(3.12085 -0.0603187 0.0104069)
(3.14959 -0.0683236 0.00899952)
(3.18206 -0.0742405 0.00777689)
(3.21793 -0.077713 0.00666779)
(3.25521 -0.0782414 0.00563687)
(2.99983 0.0120546 0.123249)
(3.09893 0.0248252 0.152457)
(3.15567 0.0302889 0.133547)
(3.16489 0.0297632 0.11948)
(3.15161 0.027118 0.104996)
(3.12976 0.021322 0.0868627)
(3.10806 0.0142496 0.0681423)
(3.08754 0.00477596 0.0527238)
(3.07097 -0.00557831 0.0409479)
(3.05833 -0.0175877 0.0322363)
(3.05235 -0.0303005 0.025406)
(3.05256 -0.0439663 0.0202094)
(3.06046 -0.0579804 0.0161225)
(3.07476 -0.0719733 0.0131043)
(3.09603 -0.0854211 0.0107397)
(3.12277 -0.0974837 0.00892346)
(3.15519 -0.107662 0.00738416)
(3.19148 -0.115018 0.00606278)
(3.23158 -0.119169 0.00487836)
(3.27306 -0.119324 0.00384096)
(2.99977 0.00732464 0.123462)
(3.09333 0.0118957 0.152797)
(3.14612 0.0148487 0.134104)
(3.15229 0.011672 0.119617)
(3.13749 0.00844446 0.104933)
(3.11393 0.00045881 0.0865237)
(3.09174 -0.00729691 0.0675826)
(3.07025 -0.0191199 0.0518809)
(3.05413 -0.0307012 0.0398667)
(3.04105 -0.0455045 0.031217)
(3.03577 -0.0601799 0.0242897)
(3.03598 -0.076915 0.0192454)
(3.04484 -0.0934311 0.0150877)
(3.05998 -0.110436 0.012185)
(3.08285 -0.126551 0.00975912)
(3.11165 -0.141179 0.00798192)
(3.14665 -0.153491 0.00642555)
(3.18625 -0.162281 0.00509442)
(3.22994 -0.167056 0.00393735)
(3.27555 -0.166705 0.00286381)
(2.99977 0.00577647 0.123876)
(3.0895 0.00333963 0.15279)
(3.14055 0.00618786 0.134614)
(3.14377 -0.000540735 0.119954)
(3.12754 -0.00280632 0.105537)
(3.10067 -0.0144753 0.086945)
(3.07787 -0.0215385 0.0680019)
(3.0531 -0.0374305 0.0523294)
(3.03716 -0.0491575 0.0401274)
(3.02122 -0.0685387 0.0315535)
(3.01683 -0.0844433 0.024316)
(3.01511 -0.105929 0.0195398)
(3.02532 -0.124689 0.0150698)
(3.04 -0.146161 0.0124671)
(3.06484 -0.165231 0.00977401)
(3.09518 -0.183532 0.00819834)
(3.13322 -0.198659 0.00649848)
(3.17639 -0.20963 0.00521623)
(3.22446 -0.215665 0.00400672)
(3.275 -0.215109 0.00290156)
(2.99971 0.00631748 0.124643)
(3.08575 -0.00534521 0.152307)
(3.13643 -0.000361129 0.135279)
(3.13643 -0.0144113 0.120099)
(3.11969 -0.0133564 0.106345)
(3.08857 -0.0325565 0.0868232)
(3.06704 -0.0357656 0.0681277)
(3.0371 -0.0594452 0.0522308)
(3.02362 -0.0677607 0.0400303)
(3.00199 -0.0953345 0.0314922)
(3.00114 -0.109025 0.0238569)
(2.99442 -0.138648 0.0195723)
(3.00859 -0.156975 0.0144769)
(3.02027 -0.185785 0.0126616)
(3.04905 -0.206398 0.00924148)
(3.07972 -0.230387 0.00839444)
(3.12196 -0.248243 0.00621635)
(3.16897 -0.262444 0.00528931)
(3.22224 -0.270193 0.00395766)
(3.27885 -0.269692 0.00286935)
(2.99962 0.00908725 0.125826)
(3.08182 -0.0149653 0.151072)
(3.13352 -0.002786 0.136118)
(3.12983 -0.0289918 0.119581)
(3.11397 -0.0186915 0.107506)
(3.07661 -0.0514621 0.0860304)
(3.05913 -0.0440167 0.0685831)
(3.01993 -0.0827905 0.0517114)
(3.0132 -0.0801411 0.0402141)
(2.97986 -0.124036 0.0312688)
(2.98842 -0.127639 0.0234321)
(2.96944 -0.173775 0.0197381)
(2.99409 -0.184461 0.0136045)
(2.99572 -0.228326 0.0133434)
(3.03415 -0.245255 0.00819578)
(3.06027 -0.280781 0.0093091)
(3.11037 -0.299095 0.00555004)
(3.15968 -0.319687 0.00599159)
(3.21989 -0.329231 0.00401069)
(3.28336 -0.329612 0.00327861)
(2.99996 0.0141557 0.127337)
(3.07726 -0.0264554 0.149112)
(3.13201 -0.000699023 0.137483)
(3.12262 -0.0460023 0.118416)
(3.11046 -0.0184013 0.109173)
(3.06311 -0.0738296 0.0843887)
(3.05444 -0.0455145 0.0695901)
(2.99944 -0.1109 0.0503461)
(3.00685 -0.0847515 0.0408335)
(2.95208 -0.158801 0.0302042)
(2.98047 -0.137904 0.0231584)
(2.93635 -0.216223 0.019328)
(2.98433 -0.204195 0.0123369)
(2.96145 -0.279204 0.0140473)
(3.02265 -0.279017 0.00600152)
(3.03178 -0.340016 0.0110634)
(3.09954 -0.349994 0.00344793)
(3.14479 -0.385808 0.00788028)
(3.21638 -0.394482 0.00367218)
(3.28633 -0.398514 0.00449561)
(3.00214 0.0214039 0.128865)
(3.07079 -0.0399906 0.146773)
(3.13335 0.0060334 0.13918)
(3.11264 -0.0657267 0.116781)
(3.1108 -0.0117267 0.111061)
(3.04558 -0.100157 0.0821288)
(3.05455 -0.0387252 0.0711033)
(2.97254 -0.144802 0.0481899)
(3.0062 -0.079005 0.0420281)
(2.91451 -0.201668 0.0281642)
(2.97903 -0.135882 0.0234745)
(2.88918 -0.269532 0.0180212)
(2.98116 -0.210802 0.0113214)
(2.90889 -0.343688 0.014498)
(3.01624 -0.301349 0.00312544)
(2.98325 -0.414437 0.0140398)
(3.08994 -0.39528 -0.00059138)
(3.11339 -0.466716 0.012663)
(3.20897 -0.463972 0.00239757)
(3.28059 -0.480607 0.00848333)
(3.00759 0.0307357 0.130019)
(3.06106 -0.0554445 0.144694)
(3.13923 0.01708 0.140737)
(3.09787 -0.0877591 0.115334)
(3.11678 0.00119546 0.112766)
(3.02156 -0.12997 0.0801111)
(3.06109 -0.0234987 0.0727288)
(2.93635 -0.184246 0.0460817)
(3.01273 -0.0621425 0.0435459)
(2.86361 -0.253148 0.025896)
(2.98549 -0.119647 0.0244685)
(2.82288 -0.335928 0.0162128)
(2.98639 -0.200519 0.0111526)
(2.83072 -0.426915 0.0146776)
(3.01771 -0.306513 0.000511846)
(2.90493 -0.512838 0.0183706)
(3.08516 -0.428681 -0.0061714)
(3.05456 -0.573234 0.0218088)
(3.2011 -0.534593 -0.000912217)
(3.25994 -0.58534 0.0187102)
(3.01492 0.0420223 0.130643)
(3.05023 -0.0726365 0.143414)
(3.14812 0.0319975 0.141843)
(3.081 -0.111532 0.114618)
(3.12659 0.0196822 0.114103)
(2.99431 -0.162346 0.079097)
(3.07226 -0.00064918 0.0740518)
(2.89501 -0.227811 0.0448186)
(3.02558 -0.0350264 0.0448616)
(2.80409 -0.311621 0.0243708)
(3.00092 -0.0897238 0.025477)
(2.74203 -0.414341 0.0148791)
(3.00434 -0.172513 0.011279)
(2.7302 -0.529833 0.0152426)
(3.03522 -0.290973 -0.00188107)
(2.79831 -0.640856 0.0243342)
(3.0968 -0.443978 -0.0130229)
(2.96979 -0.717964 0.0360639)
(3.20744 -0.601041 -0.00639205)
(3.22647 -0.72695 0.0385621)
(3.01721 0.0543232 0.130943)
(3.04761 -0.0907482 0.143091)
(3.15154 0.0496726 0.142681)
(3.07433 -0.136034 0.114474)
(3.13003 0.0422596 0.115565)
(2.97974 -0.196051 0.078853)
(3.0771 0.0281257 0.0757785)
(2.8681 -0.273831 0.0441128)
(3.03468 0.000542906 0.0466147)
(2.7591 -0.374812 0.0229546)
(3.01964 -0.0479857 0.0268583)
(2.6717 -0.501939 0.0131551)
(3.03888 -0.128564 0.0112587)
(2.62996 -0.649034 0.0151173)
(3.08592 -0.255394 -0.00586746)
(2.67983 -0.795262 0.0308862)
(3.14968 -0.43784 -0.0236157)
(2.87359 -0.902728 0.0556153)
(3.24949 -0.65594 -0.0160329)
(3.19459 -0.919497 0.0697439)
(3.00399 0.064459 0.131243)
(3.06732 -0.106746 0.143407)
(3.13548 0.0665954 0.144018)
(3.09664 -0.157577 0.114001)
(3.10838 0.0649923 0.118477)
(3.00314 -0.226741 0.0779866)
(3.05186 0.0585671 0.0800936)
(2.8887 -0.317599 0.0415574)
(3.01211 0.0406977 0.0522028)
(2.76983 -0.438207 0.0181119)
(3.01204 0.0033235 0.03315)
(2.66037 -0.594766 0.00551533)
(3.06635 -0.0685375 0.0161854)
(2.57823 -0.781733 0.0059885)
(3.16697 -0.199808 -0.00840964)
(2.57677 -0.969931 0.0283332)
(3.27098 -0.413266 -0.0427566)
(2.76291 -1.11102 0.0754108)
(3.34439 -0.696277 -0.0380232)
(3.16338 -1.15505 0.115915)
(2.97107 0.0661506 0.131195)
(3.1151 -0.113121 0.143885)
(3.09185 0.074619 0.146379)
(3.15504 -0.166427 0.112336)
(3.04637 0.0780148 0.123796)
(3.07462 -0.241706 0.0751667)
(2.97008 0.0790328 0.0891242)
(2.97171 -0.342998 0.035115)
(2.91404 0.0731464 0.0658948)
(2.85924 -0.482745 0.0064031)
(2.90983 0.0540614 0.0528912)
(2.74357 -0.674684 -0.0144525)
(2.99086 0.00670714 0.0417377)
(2.62709 -0.9198 -0.0253011)
(3.17195 -0.107488 0.0139182)
(2.54002 -1.17517 -0.00592559)
(3.39942 -0.356552 -0.054181)
(2.61105 -1.34358 0.0746515)
(3.50601 -0.739242 -0.0849043)
(3.06003 -1.38272 0.188944)
(2.93765 0.0515075 0.129407)
(3.16629 -0.0982453 0.144344)
(3.04195 0.0609751 0.148433)
(3.21657 -0.147294 0.110689)
(2.96353 0.0630192 0.128972)
(3.15187 -0.219546 0.0719929)
(2.84207 0.0640478 0.0994533)
(3.06577 -0.319637 0.0281436)
(2.72513 0.0631898 0.0836101)
(2.96904 -0.465615 -0.00700711)
(2.64587 0.0616819 0.084417)
(2.86764 -0.683851 -0.0395889)
(2.65358 0.061282 0.0969498)
(2.75557 -1.0014 -0.0711942)
(2.8261 0.028653 0.102827)
(2.62259 -1.40204 -0.0839054)
(3.22918 -0.200883 0.0346953)
(2.4992 -1.69109 0.0141365)
(3.66968 -0.83673 -0.144154)
(2.75774 -1.57757 0.28935)
(2.96581 0.0206965 0.12375)
(3.14274 -0.0583457 0.147243)
(3.0757 0.021781 0.145451)
(3.17787 -0.0946502 0.115499)
(2.98635 0.00950728 0.125166)
(3.10132 -0.150957 0.0765221)
(2.84263 -0.00691222 0.096902)
(3.00248 -0.229801 0.0339388)
(2.67788 -0.0319222 0.0824019)
(2.89692 -0.352199 -0.000993228)
(2.50585 -0.0604416 0.0872842)
(2.80677 -0.553252 -0.0344264)
(2.33561 -0.0656009 0.115598)
(2.75462 -0.901839 -0.0754185)
(2.21052 0.0198376 0.183755)
(2.74927 -1.49417 -0.130522)
(2.38493 0.159405 0.28081)
(2.67957 -2.22341 -0.123466)
(3.32109 -0.532846 0.138754)
(2.40788 -1.96888 0.345487)
(3.08828 -0.00292822 0.115969)
(3.00281 -0.0188727 0.153395)
(3.24436 -0.0133181 0.13671)
(2.98463 -0.0422164 0.128071)
(3.20027 -0.0419887 0.11091)
(2.85196 -0.0785027 0.0924468)
(3.11193 -0.0807644 0.0765608)
(2.68533 -0.128081 0.0572801)
(3.00521 -0.144308 0.053134)
(2.50546 -0.20523 0.033013)
(2.89321 -0.242657 0.0434315)
(2.34459 -0.334024 0.017215)
(2.76746 -0.381554 0.0507618)
(2.26915 -0.581032 0.00575411)
(2.58212 -0.510987 0.0985328)
(2.41624 -1.14208 -0.016354)
(2.27569 -0.326944 0.301526)
(2.85233 -2.40465 -0.0974589)
(2.52131 0.147726 0.711851)
(2.71701 -3.08284 0.112098)
(3.21136 -0.00261586 0.110841)
(2.85832 -0.00955192 0.161044)
(3.40807 -0.0131189 0.128712)
(2.7927 -0.03048 0.139556)
(3.41185 -0.040706 0.0980105)
(2.60921 -0.0612427 0.107826)
(3.38027 -0.079769 0.0558501)
(2.38605 -0.105009 0.0807795)
(3.33599 -0.147285 0.0216155)
(2.14796 -0.171585 0.0686096)
(3.29848 -0.264574 -0.00421403)
(1.92088 -0.273791 0.0727309)
(3.27732 -0.473741 -0.0219425)
(1.74371 -0.434885 0.0941355)
(3.26883 -0.842407 -0.0192589)
(1.73415 -0.759862 0.135392)
(3.16326 -1.34799 0.0764548)
(2.26926 -1.88176 0.136494)
(2.57896 -0.838204 0.713125)
(3.12542 -4.44821 -0.432928)
(3.24832 0.0248895 0.106319)
(2.82194 -0.0406046 0.170889)
(3.45797 0.0237461 0.121767)
(2.74758 -0.0673061 0.152291)
(3.47553 0.0129154 0.087233)
(2.56573 -0.106782 0.122318)
(3.45724 -0.0085862 0.0388407)
(2.35877 -0.164051 0.098157)
(3.42444 -0.0531854 -0.00366264)
(2.16105 -0.251677 0.0885444)
(3.39475 -0.14101 -0.0402387)
(1.99321 -0.389454 0.0939571)
(3.37582 -0.311992 -0.0710659)
(1.84619 -0.605356 0.111994)
(3.37025 -0.653881 -0.0887732)
(1.62164 -0.93299 0.154099)
(3.34407 -1.38477 -0.0917)
(1.27914 -1.53404 0.262585)
(2.87086 -2.43903 -0.069384)
(2.58959 -4.48464 -1.0914)
(2.94265 0.0338487 0.0636319)
(3.01985 0.0529042 0.0931612)
(3.05988 0.054027 0.0865708)
(3.05621 0.0535742 0.084)
(3.03103 0.0523565 0.07674)
(2.99559 0.0496412 0.0638485)
(2.95342 0.0459263 0.0499676)
(2.90582 0.0420026 0.0390335)
(2.85509 0.0382092 0.0313933)
(2.80448 0.0345021 0.0257987)
(2.75722 0.0306911 0.0214322)
(2.71538 0.0267507 0.0180539)
(2.68044 0.0226517 0.0155616)
(2.65292 0.0185672 0.0137772)
(2.63327 0.0145863 0.0124743)
(2.62108 0.0108626 0.0114639)
(2.61609 0.00754132 0.0106289)
(2.61696 0.0047594 0.00993437)
(2.62284 0.00263337 0.00927404)
(2.63172 0.00126807 0.00861336)
(3.00145 0.0424597 0.0635237)
(3.14299 0.0680094 0.0943642)
(3.27785 0.0707122 0.0901979)
(3.37806 0.0704909 0.0870941)
(3.45198 0.0694002 0.0825392)
(3.50913 0.0663172 0.0734235)
(3.55443 0.0615588 0.0620713)
(3.58921 0.0560163 0.0519767)
(3.61618 0.0501842 0.0442593)
(3.63754 0.0440898 0.0383769)
(3.65694 0.0375146 0.0335516)
(3.67594 0.0304888 0.0295832)
(3.69679 0.0230429 0.0263758)
(3.71965 0.0154783 0.0238736)
(3.74604 0.00797473 0.0217818)
(3.7753 0.000891179 0.019997)
(3.8085 -0.00557292 0.0184363)
(3.84406 -0.0110417 0.0170445)
(3.88266 -0.0153855 0.0158018)
(3.92206 -0.0182064 0.0145668)
(3.00151 0.016374 0.0631772)
(3.13357 0.0324416 0.0940772)
(3.26903 0.0382143 0.0897922)
(3.37657 0.0393217 0.0853476)
(3.46105 0.0390812 0.0806137)
(3.53012 0.0369516 0.0718988)
(3.5888 0.033103 0.0607438)
(3.63812 0.0277615 0.0506827)
(3.68057 0.0213045 0.0430097)
(3.7176 0.0139707 0.037271)
(3.75276 0.00567874 0.0325139)
(3.78709 -0.00333359 0.0285627)
(3.823 -0.0130518 0.0252242)
(3.86024 -0.0229209 0.0224095)
(3.90041 -0.0328464 0.0201071)
(3.94243 -0.0421822 0.0181628)
(3.9877 -0.0507175 0.0164651)
(4.03443 -0.0577212 0.0148793)
(4.08386 -0.0631351 0.0134702)
(4.13335 -0.0662987 0.0120806)
(3.00149 0.0121233 0.0630935)
(3.12528 0.0249794 0.0944321)
(3.2552 0.0309677 0.0902321)
(3.35992 0.0309006 0.0852857)
(3.44359 0.0293114 0.08022)
(3.51209 0.025097 0.0715014)
(3.57091 0.0197107 0.0601586)
(3.62063 0.012337 0.0500142)
(3.6642 0.00385932 0.042064)
(3.70254 -0.00595812 0.0362079)
(3.73947 -0.0168219 0.0313472)
(3.77565 -0.0285702 0.0272912)
(3.81387 -0.0411545 0.0237812)
(3.8535 -0.0538847 0.0208965)
(3.89649 -0.0667364 0.0184909)
(3.94139 -0.0788212 0.0164206)
(3.99003 -0.0899035 0.0146126)
(4.04009 -0.0989018 0.0129097)
(4.09339 -0.105747 0.0114092)
(4.14656 -0.109591 0.00995879)
(3.00151 0.00764605 0.063166)
(3.11973 0.0117905 0.0946272)
(3.24626 0.0154546 0.0906396)
(3.34823 0.0125278 0.085437)
(3.43074 0.0102381 0.0801397)
(3.4976 0.00348245 0.0712709)
(3.5557 -0.00289233 0.0596764)
(3.60414 -0.0126547 0.049394)
(3.64744 -0.0225869 0.0411069)
(3.68497 -0.0350664 0.0353215)
(3.72184 -0.048103 0.0302541)
(3.75769 -0.0626709 0.0263044)
(3.79618 -0.0778897 0.0227035)
(3.83617 -0.0935034 0.0198897)
(3.8801 -0.109195 0.0174465)
(3.92635 -0.12398 0.0153599)
(3.97687 -0.137563 0.0135608)
(4.02925 -0.148542 0.0118146)
(4.08542 -0.156782 0.0103516)
(4.14171 -0.161199 0.00886528)
(3.0018 0.00665577 0.0634644)
(3.11564 0.00268055 0.0945459)
(3.24134 0.0070435 0.0910483)
(3.34024 -3.11961e-05 0.0858308)
(3.42219 -0.00101616 0.0805897)
(3.48599 -0.0119205 0.0717863)
(3.54383 -0.0176824 0.0599278)
(3.58937 -0.0313377 0.049979)
(3.63246 -0.0416287 0.041305)
(3.66749 -0.058239 0.0358299)
(3.70435 -0.0728726 0.0302717)
(3.73854 -0.0915358 0.026694)
(3.77724 -0.109375 0.0227271)
(3.81671 -0.128904 0.0201887)
(3.86146 -0.147913 0.0175448)
(3.90866 -0.166214 0.0155596)
(3.96109 -0.183004 0.0137269)
(4.0159 -0.196641 0.0119594)
(4.07536 -0.206931 0.0105283)
(4.13525 -0.212313 0.00900291)
(3.00258 0.00842169 0.0641048)
(3.11095 -0.00726927 0.0940241)
(3.23836 0.00135117 0.0915585)
(3.33271 -0.0148011 0.0861241)
(3.41591 -0.0111135 0.0812377)
(3.47473 -0.0307711 0.0719733)
(3.53469 -0.0322133 0.0597958)
(3.57507 -0.0538142 0.0502843)
(3.62023 -0.0609768 0.0410185)
(3.65031 -0.0850618 0.0362539)
(3.6892 -0.0983625 0.0296729)
(3.71962 -0.123789 0.0270954)
(3.76009 -0.142344 0.0221203)
(3.79768 -0.167703 0.0205574)
(3.84413 -0.18933 0.0171792)
(3.89189 -0.212319 0.0157804)
(3.94672 -0.232573 0.0137094)
(4.00441 -0.249509 0.0120885)
(4.06771 -0.262341 0.0107492)
(4.13212 -0.268924 0.00920733)
(3.00447 0.0136811 0.0651681)
(3.10465 -0.0195566 0.0928171)
(3.23778 0.000988156 0.0922114)
(3.32426 -0.0315925 0.0858016)
(3.41267 -0.0151226 0.082187)
(3.46205 -0.0513049 0.0716968)
(3.52897 -0.0400827 0.0597035)
(3.55868 -0.0778791 0.050496)
(3.61124 -0.0738093 0.0405795)
(3.63028 -0.113397 0.0370144)
(3.67659 -0.117948 0.0286204)
(3.69739 -0.157363 0.0282163)
(3.74427 -0.17078 0.0208393)
(3.7754 -0.207735 0.0218979)
(3.82665 -0.228466 0.0162218)
(3.87249 -0.259891 0.0169104)