x,y,z,p
0,0,0,0.000231042
0,0.1,0,0.000508685
0,0.2,0,0.000786327
0,0.3,0,0.00111092
0,0.4,0,0.00148245
0,0.5,0,0.00185399
0,0.6,0,0.00222834
0,0.7,0,0.00260269
0,0.8,0,0.00297905
0,0.9,0,0.00335742
0,1,0,0.00373579
0,1.1,0,0.00411917
0,1.2,0,0.00450254
0,1.3,0,0.00488879
0,1.4,0,0.0052779
0,1.5,0,0.00566702
0,1.6,0,0.00606229
0,1.7,0,0.00645756
0,1.8,0,0.00685592
0,1.9,0,0.00725737
0,2,0,0.00765881
0,2.1,0,0.00806597
0,2.2,0,0.00847313
0,2.3,0,0.00888265
0,2.4,0,0.00929453
0,2.5,0,0.0097064
0,2.6,0,0.0101213
0,2.7,0,0.0105363
0,2.8,0,0.0109516
0,2.9,0,0.0113672
0,3,0,0.0117829
0,3.1,0,0.0121961
0,3.2,0,0.0126094
0,3.3,0,0.0130195
0,3.4,0,0.0134264
0,3.5,0,0.0138334
0,3.6,0,0.0142294
0,3.7,0,0.0146254
0,3.8,0,0.0150131
0,3.9,0,0.0153927
0,4,0,0.0157723
0,4.1,0,0.0161295
0,4.2,0,0.0164867
0,4.3,0,0.0168294
0,4.4,0,0.0171578
0,4.5,0,0.0174862
0,4.6,0,0.0177792
0,4.7,0,0.0180722
0,4.8,0,0.018339
0,4.9,0,0.0185795
0,5,0,0.0188199
0,5.1,0,0.0190426
0,5.2,0,0.0192654
0,5.3,0,0.0194331
0,5.4,0,0.0196008
0,5.5,0,0.0197244
0,5.6,0,0.019848
0,5.7,0,0.0199256
0,5.8,0,0.0200033
0,5.9,0,0.0200337
0,6,0,0.0200642
0,6.1,0,0.0200471
0,6.2,0,0.0200301
0,6.3,0,0.019966
0,6.4,0,0.019902
0,6.5,0,0.0197923
0,6.6,0,0.0196826
0,6.7,0,0.0195293
0,6.8,0,0.019376
0,6.9,0,0.0191606
0,7,0,0.0189451
0,7.1,0,0.0187219
0,7.2,0,0.0184987
0,7.3,0,0.0182666
0,7.4,0,0.0179834
0,7.5,0,0.0177002
0,7.6,0,0.0174061
0,7.7,0,0.0170864
0,7.8,0,0.0167668
0,7.9,0,0.0164347
0,8,0,0.0160874
0,8.1,0,0.0157401
0,8.2,0,0.0153812
0,8.3,0,0.0150145
0,8.4,0,0.0146479
0,8.5,0,0.0142724
0,8.6,0,0.0138939
0,8.7,0,0.0135154
0,8.8,0,0.0131322
0,8.9,0,0.0127485
0,9,0,0.0123647
0,9.1,0,0.011981
0,9.2,0,0.0115973
0,9.3,0,0.0112145
0,9.4,0,0.010835
0,9.5,0,0.0104555
0,9.6,0,0.0100785
0,9.7,0,0.00970635
0,9.8,0,0.00933415
0,9.9,0,0.00896661
0,10,0,0.00860374
0,10.1,0,0.00824087
0,10.2,0,0.00788481
0,10.3,0,0.00753242
0,10.4,0,0.00718003
0,10.5,0,0.00683636
0,10.6,0,0.00649488
0,10.7,0,0.00615339
0,10.8,0,0.00582207
0,10.9,0,0.00549129
0,11,0,0.0051615
0,11.1,0,0.00484073
0,11.2,0,0.00451995
0,11.3,0,0.0042014
0,11.4,0,0.00388953
0,11.5,0,0.00357766
0,11.6,0,0.00326879
0,11.7,0,0.00296442
0,11.8,0,0.00266005
0,11.9,0,0.0023589
0,12,0,0.0020604
0,12.1,0,0.0017619
0,12.2,0,0.00146624
0,12.3,0,0.00117179
0,12.4,0,0.000877338
0,12.5,0,0.000646415
0,12.6,0,0.000426701
0,12.7,0,0.000206988
0.1,0,0,0.000138626
0.1,0.1,0,0.000415877
0.1,0.2,0,0.000739603
0.1,0.3,0,0.00111005
0.1,0.4,0,0.00148137
0.1,0.5,0,0.00185277
0.1,0.6,0,0.0022266
0.1,0.7,0,0.00260096
0.1,0.8,0,0.00297704
0.1,0.9,0,0.00335513
0.1,1,0,0.00373363
0.1,1.1,0,0.00411645
0.1,1.2,0,0.00449994
0.1,1.3,0,0.00488604
0.1,1.4,0,0.00527488
0.1,1.5,0,0.00566435
0.1,1.6,0,0.00605916
0.1,1.7,0,0.00645465
0.1,1.8,0,0.00685306
0.1,1.9,0,0.00725433
0.1,2,0,0.0076563
0.1,2.1,0,0.00806329
0.1,2.2,0,0.00847075
0.1,2.3,0,0.00888058
0.1,2.4,0,0.00929249
0.1,2.5,0,0.00970501
0.1,2.6,0,0.0101203
0.1,2.7,0,0.0105356
0.1,2.8,0,0.0109515
0.1,2.9,0,0.0113675
0.1,3,0,0.0117838
0.1,3.1,0,0.0121982
0.1,3.2,0,0.0126117
0.1,3.3,0,0.0130229
0.1,3.4,0,0.0134307
0.1,3.5,0,0.013838
0.1,3.6,0,0.0142361
0.1,3.7,0,0.0146322
0.1,3.8,0,0.0150214
0.1,3.9,0,0.0154024
0.1,4,0,0.0157817
0.1,4.1,0,0.0161422
0.1,4.2,0,0.0164991
0.1,4.3,0,0.0168436
0.1,4.4,0,0.0171739
0.1,4.5,0,0.0175012
0.1,4.6,0,0.0177985
0.1,4.7,0,0.0180908
0.1,4.8,0,0.0183645
0.1,4.9,0,0.0186127
0.1,5,0,0.01884
0.1,5.1,0,0.0190695
0.1,5.2,0,0.0192872
0.1,5.3,0,0.0194502
0.1,5.4,0,0.019624
0.1,5.5,0,0.0197425
0.1,5.6,0,0.0198724
0.1,5.7,0,0.0199443
0.1,5.8,0,0.0200282
0.1,5.9,0,0.0200527
0.1,6,0,0.0200894
0.1,6.1,0,0.0200661
0.1,6.2,0,0.020055
0.1,6.3,0,0.0199846
0.1,6.4,0,0.0199261
0.1,6.5,0,0.0198101
0.1,6.6,0,0.0197056
0.1,6.7,0,0.0195463
0.1,6.8,0,0.0193976
0.1,6.9,0,0.0191934
0.1,7,0,0.0189646
0.1,7.1,0,0.0187639
0.1,7.2,0,0.0185367
0.1,7.3,0,0.0182843
0.1,7.4,0,0.0180067
0.1,7.5,0,0.0177197
0.1,7.6,0,0.0174209
0.1,7.7,0,0.0171047
0.1,7.8,0,0.0167809
0.1,7.9,0,0.0164462
0.1,8,0,0.0161007
0.1,8.1,0,0.0157494
0.1,8.2,0,0.0153891
0.1,8.3,0,0.0150233
0.1,8.4,0,0.0146531
0.1,8.5,0,0.0142769
0.1,8.6,0,0.0138985
0.1,8.7,0,0.0135176
0.1,8.8,0,0.0131337
0.1,8.9,0,0.0127495
0.1,9,0,0.0123645
0.1,9.1,0,0.0119797
0.1,9.2,0,0.0115958
0.1,9.3,0,0.0112125
0.1,9.4,0,0.0108315
0.1,9.5,0,0.0104523
0.1,9.6,0,0.0100751
0.1,9.7,0,0.00970147
0.1,9.8,0,0.00932999
0.1,9.9,0,0.00896207
0.1,10,0,0.00859798
0.1,10.1,0,0.00823632
0.1,10.2,0,0.00787955
0.1,10.3,0,0.00752623
0.1,10.4,0,0.00717552
0.1,10.5,0,0.00683075
0.1,10.6,0,0.00648881
0.1,10.7,0,0.00614923
0.1,10.8,0,0.00581642
0.1,10.9,0,0.00548578
0.1,11,0,0.00515757
0.1,11.1,0,0.00483534
0.1,11.2,0,0.00451522
0.1,11.3,0,0.00419774
0.1,11.4,0,0.00388482
0.1,11.5,0,0.00357384
0.1,11.6,0,0.00326561
0.1,11.7,0,0.00296058
0.1,11.8,0,0.0026572
0.1,11.9,0,0.00235639
0.1,12,0,0.00205755
0.1,12.1,0,0.00176003
0.1,12.2,0,0.00146456
0.1,12.3,0,0.00117002
0.1,12.4,0,0.000876416
0.1,12.5,0,0.000584006
0.1,12.6,0,0.000343349
0.1,12.7,0,0.000124193
0.2,0,0,4.62085e-05
0.2,0.1,0,0.000369544
0.2,0.2,0,0.000738965
0.2,0.3,0,0.00110942
0.2,0.4,0,0.00148037
0.2,0.5,0,0.00185156
0.2,0.6,0,0.00222539
0.2,0.7,0,0.00259923
0.2,0.8,0,0.00297532
0.2,0.9,0,0.00335326
0.2,1,0,0.00373148
0.2,1.1,0,0.00411441
0.2,1.2,0,0.00449746
0.2,1.3,0,0.00488356
0.2,1.4,0,0.00527248
0.2,1.5,0,0.00566168
0.2,1.6,0,0.00605671
0.2,1.7,0,0.00645196
0.2,1.8,0,0.00685037
0.2,1.9,0,0.00725199
0.2,2,0,0.00765379
0.2,2.1,0,0.00806108
0.2,2.2,0,0.00846866
0.2,2.3,0,0.0088785
0.2,2.4,0,0.00929106
0.2,2.5,0,0.00970361
0.2,2.6,0,0.0101192
0.2,2.7,0,0.0105352
0.2,2.8,0,0.0109511
0.2,2.9,0,0.0113681
0.2,3,0,0.0117847
0.2,3.1,0,0.0121993
0.2,3.2,0,0.0126143
0.2,3.3,0,0.0130255
0.2,3.4,0,0.0134344
0.2,3.5,0,0.0138425
0.2,3.6,0,0.0142407
0.2,3.7,0,0.014639
0.2,3.8,0,0.0150283
0.2,3.9,0,0.0154104
0.2,4,0,0.0157912
0.2,4.1,0,0.0161514
0.2,4.2,0,0.0165113
0.2,4.3,0,0.0168557
0.2,4.4,0,0.0171869
0.2,4.5,0,0.0175162
0.2,4.6,0,0.0178127
0.2,4.7,0,0.0181085
0.2,4.8,0,0.0183822
0.2,4.9,0,0.018625
0.2,5,0,0.0188601
0.2,5.1,0,0.0190875
0.2,5.2,0,0.0193092
0.2,5.3,0,0.0194755
0.2,5.4,0,0.0196474
0.2,5.5,0,0.0197692
0.2,5.6,0,0.0198967
0.2,5.7,0,0.019972
0.2,5.8,0,0.0200532
0.2,5.9,0,0.0200808
0.2,6,0,0.0201145
0.2,6.1,0,0.0200942
0.2,6.2,0,0.0200799
0.2,6.3,0,0.0200121
0.2,6.4,0,0.0199503
0.2,6.5,0,0.0198366
0.2,6.6,0,0.0197286
0.2,6.7,0,0.0195712
0.2,6.8,0,0.0194191
0.2,6.9,0,0.0192078
0.2,7,0,0.0189842
0.2,7.1,0,0.0187728
0.2,7.2,0,0.0185473
0.2,7.3,0,0.0183012
0.2,7.4,0,0.0180187
0.2,7.5,0,0.0177326
0.2,7.6,0,0.0174345
0.2,7.7,0,0.0171138
0.2,7.8,0,0.0167912
0.2,7.9,0,0.0164564
0.2,8,0,0.016107
0.2,8.1,0,0.0157565
0.2,8.2,0,0.0153962
0.2,8.3,0,0.015027
0.2,8.4,0,0.0146575
0.2,8.5,0,0.0142808
0.2,8.6,0,0.0139002
0.2,8.7,0,0.0135194
0.2,8.8,0,0.0131351
0.2,8.9,0,0.0127496
0.2,9,0,0.0123644
0.2,9.1,0,0.0119795
0.2,9.2,0,0.0115944
0.2,9.3,0,0.0112108
0.2,9.4,0,0.0108301
0.2,9.5,0,0.0104496
0.2,9.6,0,0.0100723
0.2,9.7,0,0.00969915
0.2,9.8,0,0.0093264
0.2,9.9,0,0.00895848
0.2,10,0,0.00859513
0.2,10.1,0,0.0082323
0.2,10.2,0,0.00787568
0.2,10.3,0,0.00752317
0.2,10.4,0,0.00717137
0.2,10.5,0,0.00682703
0.2,10.6,0,0.00648562
0.2,10.7,0,0.00614517
0.2,10.8,0,0.00581308
0.2,10.9,0,0.00548254
0.2,11,0,0.00515379
0.2,11.1,0,0.00483252
0.2,11.2,0,0.00451212
0.2,11.3,0,0.00419438
0.2,11.4,0,0.00388245
0.2,11.5,0,0.00357105
0.2,11.6,0,0.00326278
0.2,11.7,0,0.00295871
0.2,11.8,0,0.00265499
0.2,11.9,0,0.00235418
0.2,12,0,0.00205625
0.2,12.1,0,0.0017585
0.2,12.2,0,0.00146315
0.2,12.3,0,0.00116934
0.2,12.4,0,0.000875622
0.2,12.5,0,0.000583368
0.2,12.6,0,0.000291724
0.2,12.7,0,4.13976e-05
0.3,0,0,0
0.3,0.1,0,0.000368872
0.3,0.2,0,0.000738292
0.3,0.3,0,0.00110754
0.3,0.4,0,0.00147849
0.3,0.5,0,0.00184903
0.3,0.6,0,0.00222242
0.3,0.7,0,0.00259626
0.3,0.8,0,0.00297139
0.3,0.9,0,0.00334933
0.3,1,0,0.00372697
0.3,1.1,0,0.00410971
0.3,1.2,0,0.00449276
0.3,1.3,0,0.00487833
0.3,1.4,0,0.00526725
0.3,1.5,0,0.00565608
0.3,1.6,0,0.00605126
0.3,1.7,0,0.00644651
0.3,1.8,0,0.00684506
0.3,1.9,0,0.00724668
0.3,2,0,0.0076485
0.3,2.1,0,0.00805635
0.3,2.2,0,0.00846393
0.3,2.3,0,0.00887486
0.3,2.4,0,0.00928743
0.3,2.5,0,0.0097006
0.3,2.6,0,0.0101173
0.3,2.7,0,0.0105332
0.3,2.8,0,0.0109514
0.3,2.9,0,0.0113684
0.3,3,0,0.0117864
0.3,3.1,0,0.0122027
0.3,3.2,0,0.0126176
0.3,3.3,0,0.0130324
0.3,3.4,0,0.0134414
0.3,3.5,0,0.0138519
0.3,3.6,0,0.014252
0.3,3.7,0,0.0146503
0.3,3.8,0,0.0150444
0.3,3.9,0,0.0154266
0.3,4,0,0.0158107
0.3,4.1,0,0.0161729
0.3,4.2,0,0.0165329
0.3,4.3,0,0.0168829
0.3,4.4,0,0.0172141
0.3,4.5,0,0.0175473
0.3,4.6,0,0.0178456
0.3,4.7,0,0.0181413
0.3,4.8,0,0.0184203
0.3,4.9,0,0.0186631
0.3,5,0,0.0189019
0.3,5.1,0,0.0191298
0.3,5.2,0,0.0193549
0.3,5.3,0,0.0195209
0.3,5.4,0,0.019696
0.3,5.5,0,0.019817
0.3,5.6,0,0.0199476
0.3,5.7,0,0.0200215
0.3,5.8,0,0.0201054
0.3,5.9,0,0.0201312
0.3,6,0,0.0201671
0.3,6.1,0,0.0201445
0.3,6.2,0,0.0201319
0.3,6.3,0,0.0200614
0.3,6.4,0,0.0200008
0.3,6.5,0,0.019884
0.3,6.6,0,0.0197767
0.3,6.7,0,0.0196159
0.3,6.8,0,0.0194641
0.3,6.9,0,0.0192493
0.3,7,0,0.019025
0.3,7.1,0,0.0188097
0.3,7.2,0,0.0185842
0.3,7.3,0,0.018335
0.3,7.4,0,0.0180492
0.3,7.5,0,0.0177631
0.3,7.6,0,0.0174603
0.3,7.7,0,0.0171376
0.3,7.8,0,0.0168149
0.3,7.9,0,0.0164746
0.3,8,0,0.0161243
0.3,8.1,0,0.015773
0.3,8.2,0,0.0154074
0.3,8.3,0,0.0150383
0.3,8.4,0,0.0146674
0.3,8.5,0,0.0142868
0.3,8.6,0,0.0139062
0.3,8.7,0,0.0135236
0.3,8.8,0,0.0131366
0.3,8.9,0,0.0127511
0.3,9,0,0.0123639
0.3,9.1,0,0.0119774
0.3,9.2,0,0.0115924
0.3,9.3,0,0.0112068
0.3,9.4,0,0.0108254
0.3,9.5,0,0.0104449
0.3,9.6,0,0.0100659
0.3,9.7,0,0.00969255
0.3,9.8,0,0.00931969
0.3,9.9,0,0.00895075
0.3,10,0,0.00858737
0.3,10.1,0,0.0082243
0.3,10.2,0,0.00786739
0.3,10.3,0,0.00751488
0.3,10.4,0,0.00716283
0.3,10.5,0,0.00681871
0.3,10.6,0,0.0064773
0.3,10.7,0,0.00613671
0.3,10.8,0,0.00580515
0.3,10.9,0,0.00547461
0.3,11,0,0.00514602
0.3,11.1,0,0.00482531
0.3,11.2,0,0.0045049
0.3,11.3,0,0.00418771
0.3,11.4,0,0.00387621
0.3,11.5,0,0.00356481
0.3,11.6,0,0.00325747
0.3,11.7,0,0.00295364
0.3,11.8,0,0.00265002
0.3,11.9,0,0.0023504
0.3,12,0,0.0020525
0.3,12.1,0,0.00175503
0.3,12.2,0,0.00146081
0.3,12.3,0,0.001167
0.3,12.4,0,0.000873792
0.3,12.5,0,0.00058253
0.3,12.6,0,0.000290886
0.3,12.7,0,0
0.4,0,0,0
0.4,0.1,0,0.000368322
0.4,0.2,0,0.000736271
0.4,0.3,0,0.00110551
0.4,0.4,0,0.00147507
0.4,0.5,0,0.00184518
0.4,0.6,0,0.00221812
0.4,0.7,0,0.00259078
0.4,0.8,0,0.00296591
0.4,0.9,0,0.00334277
0.4,1,0,0.00372011
0.4,1.1,0,0.00410254
0.4,1.2,0,0.00448485
0.4,1.3,0,0.00487042
0.4,1.4,0,0.00525883
0.4,1.5,0,0.00564756
0.4,1.6,0,0.00604266
0.4,1.7,0,0.0064379
0.4,1.8,0,0.00683644
0.4,1.9,0,0.00723842
0.4,2,0,0.00764044
0.4,2.1,0,0.00804855
0.4,2.2,0,0.00845715
0.4,2.3,0,0.00886809
0.4,2.4,0,0.00928221
0.4,2.5,0,0.00969598
0.4,2.6,0,0.0101134
0.4,2.7,0,0.0105317
0.4,2.8,0,0.0109499
0.4,2.9,0,0.0113699
0.4,3,0,0.0117891
0.4,3.1,0,0.0122066
0.4,3.2,0,0.0126254
0.4,3.3,0,0.0130403
0.4,3.4,0,0.013454
0.4,3.5,0,0.013866
0.4,3.6,0,0.014268
0.4,3.7,0,0.0146718
0.4,3.8,0,0.0150659
0.4,3.9,0,0.0154542
0.4,4,0,0.0158403
0.4,4.1,0,0.0162049
0.4,4.2,0,0.0165712
0.4,4.3,0,0.0169212
0.4,4.4,0,0.0172593
0.4,4.5,0,0.0175946
0.4,4.6,0,0.0178953
0.4,4.7,0,0.0181973
0.4,4.8,0,0.0184763
0.4,4.9,0,0.0187308
0.4,5,0,0.0189655
0.4,5.1,0,0.0191977
0.4,5.2,0,0.0194244
0.4,5.3,0,0.0195881
0.4,5.4,0,0.0197701
0.4,5.5,0,0.0198879
0.4,5.6,0,0.020025
0.4,5.7,0,0.020095
0.4,5.8,0,0.0201849
0.4,5.9,0,0.0202059
0.4,6,0,0.0202472
0.4,6.1,0,0.020219
0.4,6.2,0,0.0202111
0.4,6.3,0,0.0201344
0.4,6.4,0,0.0200776
0.4,6.5,0,0.0199542
0.4,6.6,0,0.0198499
0.4,6.7,0,0.0196822
0.4,6.8,0,0.0195325
0.4,6.9,0,0.0193192
0.4,7,0,0.019087
0.4,7.1,0,0.0188795
0.4,7.2,0,0.0186446
0.4,7.3,0,0.0183881
0.4,7.4,0,0.0181027
0.4,7.5,0,0.0178071
0.4,7.6,0,0.0175031
0.4,7.7,0,0.0171785
0.4,7.8,0,0.0168471
0.4,7.9,0,0.0165068
0.4,8,0,0.0161529
0.4,8.1,0,0.0157953
0.4,8.2,0,0.0154297
0.4,8.3,0,0.0150558
0.4,8.4,0,0.0146807
0.4,8.5,0,0.0142996
0.4,8.6,0,0.013914
0.4,8.7,0,0.0135292
0.4,8.8,0,0.0131414
0.4,8.9,0,0.0127515
0.4,9,0,0.0123632
0.4,9.1,0,0.0119755
0.4,9.2,0,0.0115872
0.4,9.3,0,0.0112012
0.4,9.4,0,0.0108182
0.4,9.5,0,0.0104358
0.4,9.6,0,0.0100568
0.4,9.7,0,0.00968173
0.4,9.8,0,0.00930823
0.4,9.9,0,0.00893929
0.4,10,0,0.00857439
0.4,10.1,0,0.00821154
0.4,10.2,0,0.00785449
0.4,10.3,0,0.007501
0.4,10.4,0,0.00714965
0.4,10.5,0,0.00680523
0.4,10.6,0,0.00646368
0.4,10.7,0,0.00612384
0.4,10.8,0,0.00579191
0.4,10.9,0,0.00546206
0.4,11,0,0.00513405
0.4,11.1,0,0.00481299
0.4,11.2,0,0.00449395
0.4,11.3,0,0.00417709
0.4,11.4,0,0.00386556
0.4,11.5,0,0.00355583
0.4,11.6,0,0.00324855
0.4,11.7,0,0.00294516
0.4,11.8,0,0.00264307
0.4,11.9,0,0.00234344
0.4,12,0,0.00204648
0.4,12.1,0,0.00175022
0.4,12.2,0,0.00145608
0.4,12.3,0,0.00116366
0.4,12.4,0,0.00087129
0.4,12.5,0,0.000580271
0.4,12.6,0,0.000290315
0.4,12.7,0,0
0.5,0,0,0
0.5,0.1,0,0.000367399
0.5,0.2,0,0.000734798
0.5,0.3,0,0.00110306
0.5,0.4,0,0.0014722
0.5,0.5,0,0.00184133
0.5,0.6,0,0.00221354
0.5,0.7,0,0.00258575
0.5,0.8,0,0.00296013
0.5,0.9,0,0.00333669
0.5,1,0,0.00371325
0.5,1.1,0,0.00409525
0.5,1.2,0,0.00447726
0.5,1.3,0,0.00486242
0.5,1.4,0,0.00525073
0.5,1.5,0,0.00563904
0.5,1.6,0,0.0060342
0.5,1.7,0,0.00642936
0.5,1.8,0,0.00682803
0.5,1.9,0,0.0072302
0.5,2,0,0.00763237
0.5,2.1,0,0.00804124
0.5,2.2,0,0.00845012
0.5,2.3,0,0.00886191
0.5,2.4,0,0.00927663
0.5,2.5,0,0.00969135
0.5,2.6,0,0.0101104
0.5,2.7,0,0.0105294
0.5,2.8,0,0.0109495
0.5,2.9,0,0.0113706
0.5,3,0,0.0117917
0.5,3.1,0,0.0122119
0.5,3.2,0,0.012632
0.5,3.3,0,0.0130497
0.5,3.4,0,0.0134649
0.5,3.5,0,0.0138802
0.5,3.6,0,0.0142858
0.5,3.7,0,0.0146914
0.5,3.8,0,0.0150893
0.5,3.9,0,0.0154796
0.5,4,0,0.0158699
0.5,4.1,0,0.0162385
0.5,4.2,0,0.0166072
0.5,4.3,0,0.0169616
0.5,4.4,0,0.0173017
0.5,4.5,0,0.0176419
0.5,4.6,0,0.0179464
0.5,4.7,0,0.0182509
0.5,4.8,0,0.0185283
0.5,4.9,0,0.0187787
0.5,5,0,0.0190291
0.5,5.1,0,0.0192615
0.5,5.2,0,0.0194939
0.5,5.3,0,0.019669
0.5,5.4,0,0.0198442
0.5,5.5,0,0.0199733
0.5,5.6,0,0.0201025
0.5,5.7,0,0.0201834
0.5,5.8,0,0.0202644
0.5,5.9,0,0.0202958
0.5,6,0,0.0203272
0.5,6.1,0,0.0203087
0.5,6.2,0,0.0202902
0.5,6.3,0,0.0202223
0.5,6.4,0,0.0201545
0.5,6.5,0,0.0200388
0.5,6.6,0,0.0199231
0.5,6.7,0,0.019762
0.5,6.8,0,0.0196009
0.5,6.9,0,0.0193749
0.5,7,0,0.019149
0.5,7.1,0,0.0189157
0.5,7.2,0,0.0186824
0.5,7.3,0,0.0184398
0.5,7.4,0,0.0181446
0.5,7.5,0,0.0178494
0.5,7.6,0,0.0175432
0.5,7.7,0,0.0172115
0.5,7.8,0,0.0168797
0.5,7.9,0,0.0165358
0.5,8,0,0.016177
0.5,8.1,0,0.0158182
0.5,8.2,0,0.0154485
0.5,8.3,0,0.0150715
0.5,8.4,0,0.0146945
0.5,8.5,0,0.0143098
0.5,8.6,0,0.0139224
0.5,8.7,0,0.0135351
0.5,8.8,0,0.0131444
0.5,8.9,0,0.0127534
0.5,9,0,0.0123624
0.5,9.1,0,0.0119731
0.5,9.2,0,0.0115837
0.5,9.3,0,0.0111955
0.5,9.4,0,0.0108119
0.5,9.5,0,0.0104283
0.5,9.6,0,0.0100477
0.5,9.7,0,0.00967281
0.5,9.8,0,0.00929788
0.5,9.9,0,0.00892823
0.5,10,0,0.00856384
0.5,10.1,0,0.00819946
0.5,10.2,0,0.00784255
0.5,10.3,0,0.00748967
0.5,10.4,0,0.00713679
0.5,10.5,0,0.00679331
0.5,10.6,0,0.00645217
0.5,10.7,0,0.00611104
0.5,10.8,0,0.00578071
0.5,10.9,0,0.00545096
0.5,11,0,0.00512226
0.5,11.1,0,0.00480304
0.5,11.2,0,0.00448381
0.5,11.3,0,0.00416692
0.5,11.4,0,0.00385701
0.5,11.5,0,0.0035471
0.5,11.6,0,0.00324032
0.5,11.7,0,0.00293822
0.5,11.8,0,0.00263611
0.5,11.9,0,0.00233736
0.5,12,0,0.00204134
0.5,12.1,0,0.00174533
0.5,12.2,0,0.00145227
0.5,12.3,0,0.00116049
0.5,12.4,0,0.0008687
0.5,12.5,0,0.0005789
0.5,12.6,0,0.00028945
0.5,12.7,0,0
0.6,0,0,0
0.6,0.1,0,0.000365414
0.6,0.2,0,0.000732023
0.6,0.3,0,0.00109864
0.6,0.4,0,0.00146691
0.6,0.5,0,0.00183452
0.6,0.6,0,0.0022052
0.6,0.7,0,0.00257672
0.6,0.8,0,0.00294975
0.6,0.9,0,0.00332566
0.6,1,0,0.00370105
0.6,1.1,0,0.00408203
0.6,1.2,0,0.0044636
0.6,1.3,0,0.00484798
0.6,1.4,0,0.00523596
0.6,1.5,0,0.00562378
0.6,1.6,0,0.00601871
0.6,1.7,0,0.00641386
0.6,1.8,0,0.00681267
0.6,1.9,0,0.00721499
0.6,2,0,0.00761771
0.6,2.1,0,0.00802752
0.6,2.2,0,0.008437
0.6,2.3,0,0.00885023
0.6,2.4,0,0.00926578
0.6,2.5,0,0.00968249
0.6,2.6,0,0.010104
0.6,2.7,0,0.0105245
0.6,2.8,0,0.0109477
0.6,2.9,0,0.0113705
0.6,3,0,0.0117954
0.6,3.1,0,0.0122199
0.6,3.2,0,0.0126424
0.6,3.3,0,0.0130651
0.6,3.4,0,0.013483
0.6,3.5,0,0.0139039
0.6,3.6,0,0.0143158
0.6,3.7,0,0.0147247
0.6,3.8,0,0.0151294
0.6,3.9,0,0.0155233
0.6,4,0,0.0159208
0.6,4.1,0,0.0162972
0.6,4.2,0,0.0166697
0.6,4.3,0,0.017032
0.6,4.4,0,0.0173761
0.6,4.5,0,0.0177242
0.6,4.6,0,0.0180367
0.6,4.7,0,0.018345
0.6,4.8,0,0.0186356
0.6,4.9,0,0.0188955
0.6,5,0,0.0191408
0.6,5.1,0,0.0193811
0.6,5.2,0,0.0196162
0.6,5.3,0,0.0197856
0.6,5.4,0,0.0199748
0.6,5.5,0,0.0200965
0.6,5.6,0,0.0202392
0.6,5.7,0,0.0203111
0.6,5.8,0,0.0204048
0.6,5.9,0,0.0204257
0.6,6,0,0.0204688
0.6,6.1,0,0.0204384
0.6,6.2,0,0.0204301
0.6,6.3,0,0.0203493
0.6,6.4,0,0.0202902
0.6,6.5,0,0.0201608
0.6,6.6,0,0.0200522
0.6,6.7,0,0.019877
0.6,6.8,0,0.0197213
0.6,6.9,0,0.0194991
0.6,7,0,0.0192576
0.6,7.1,0,0.01904
0.6,7.2,0,0.0188002
0.6,7.3,0,0.018532
0.6,7.4,0,0.0182337
0.6,7.5,0,0.0179327
0.6,7.6,0,0.017616
0.6,7.7,0,0.0172805
0.6,7.8,0,0.0169418
0.6,7.9,0,0.016589
0.6,8,0,0.0162266
0.6,8.1,0,0.0158603
0.6,8.2,0,0.0154833
0.6,8.3,0,0.0151033
0.6,8.4,0,0.0147189
0.6,8.5,0,0.014328
0.6,8.6,0,0.0139383
0.6,8.7,0,0.0135446
0.6,8.8,0,0.0131487
0.6,8.9,0,0.0127556
0.6,9,0,0.0123601
0.6,9.1,0,0.0119663
0.6,9.2,0,0.0115755
0.6,9.3,0,0.0111842
0.6,9.4,0,0.010797
0.6,9.5,0,0.0104127
0.6,9.6,0,0.01003
0.6,9.7,0,0.00965266
0.6,9.8,0,0.00927748
0.6,9.9,0,0.00890642
0.6,10,0,0.00854049
0.6,10.1,0,0.00817652
0.6,10.2,0,0.00781865
0.6,10.3,0,0.0074649
0.6,10.4,0,0.00711317
0.6,10.5,0,0.00676899
0.6,10.6,0,0.00642761
0.6,10.7,0,0.00608821
0.6,10.8,0,0.00575736
0.6,10.9,0,0.00542798
0.6,11,0,0.00510114
0.6,11.1,0,0.00478176
0.6,11.2,0,0.00446342
0.6,11.3,0,0.0041483
0.6,11.4,0,0.00383864
0.6,11.5,0,0.00353001
0.6,11.6,0,0.00322491
0.6,11.7,0,0.00292331
0.6,11.8,0,0.00262284
0.6,11.9,0,0.00232571
0.6,12,0,0.0020303
0.6,12.1,0,0.00173622
0.6,12.2,0,0.00144479
0.6,12.3,0,0.00115358
0.6,12.4,0,0.000864002
0.6,12.5,0,0.000575859
0.6,12.6,0,0.000287179
0.6,12.7,0,0
0.7,0,0,0
0.7,0.1,0,0.000364624
0.7,0.2,0,0.000728458
0.7,0.3,0,0.00109507
0.7,0.4,0,0.00146096
0.7,0.5,0,0.00182771
0.7,0.6,0,0.0021977
0.7,0.7,0,0.002567
0.7,0.8,0,0.00294003
0.7,0.9,0,0.00331411
0.7,1,0,0.00368885
0.7,1.1,0,0.00406939
0.7,1.2,0,0.0044495
0.7,1.3,0,0.00483388
0.7,1.4,0,0.00522103
0.7,1.5,0,0.00560851
0.7,1.6,0,0.00600344
0.7,1.7,0,0.00639835
0.7,1.8,0,0.00679716
0.7,1.9,0,0.00720018
0.7,2,0,0.00760305
0.7,2.1,0,0.00801347
0.7,2.2,0,0.0084245
0.7,2.3,0,0.00883773
0.7,2.4,0,0.00925609
0.7,2.5,0,0.00967363
0.7,2.6,0,0.0100966
0.7,2.7,0,0.010521
0.7,2.8,0,0.0109442
0.7,2.9,0,0.0113724
0.7,3,0,0.011799
0.7,3.1,0,0.0122259
0.7,3.2,0,0.0126551
0.7,3.3,0,0.0130778
0.7,3.4,0,0.0135041
0.7,3.5,0,0.0139277
0.7,3.6,0,0.0143428
0.7,3.7,0,0.0147612
0.7,3.8,0,0.015166
0.7,3.9,0,0.0155706
0.7,4,0,0.0159717
0.7,4.1,0,0.016352
0.7,4.2,0,0.0167361
0.7,4.3,0,0.0170983
0.7,4.4,0,0.0174544
0.7,4.5,0,0.0178064
0.7,4.6,0,0.0181227
0.7,4.7,0,0.0184428
0.7,4.8,0,0.0187335
0.7,4.9,0,0.0189977
0.7,5,0,0.0192524
0.7,5.1,0,0.0194968
0.7,5.2,0,0.0197386
0.7,5.3,0,0.019917
0.7,5.4,0,0.0201054
0.7,5.5,0,0.0202354
0.7,5.6,0,0.0203759
0.7,5.7,0,0.0204551
0.7,5.8,0,0.0205453
0.7,5.9,0,0.0205722
0.7,6,0,0.0206103
0.7,6.1,0,0.0205846
0.7,6.2,0,0.0205701
0.7,6.3,0,0.0204926
0.7,6.4,0,0.0204259
0.7,6.5,0,0.0202984
0.7,6.6,0,0.0201813
0.7,6.7,0,0.0200066
0.7,6.8,0,0.0198416
0.7,6.9,0,0.0196088
0.7,7,0,0.0193663
0.7,7.1,0,0.0191359
0.7,7.2,0,0.0188885
0.7,7.3,0,0.0186246
0.7,7.4,0,0.0183187
0.7,7.5,0,0.0180073
0.7,7.6,0,0.0176901
0.7,7.7,0,0.0173453
0.7,7.8,0,0.0169974
0.7,7.9,0,0.0166446
0.7,8,0,0.0162716
0.7,8.1,0,0.0158984
0.7,8.2,0,0.015521
0.7,8.3,0,0.0151302
0.7,8.4,0,0.0147412
0.7,8.5,0,0.0143492
0.7,8.6,0,0.01395
0.7,8.7,0,0.0135534
0.7,8.8,0,0.013156
0.7,8.9,0,0.0127554
0.7,9,0,0.012358
0.7,9.1,0,0.0119628
0.7,9.2,0,0.011566
0.7,9.3,0,0.0111736
0.7,9.4,0,0.0107853
0.7,9.5,0,0.0103963
0.7,9.6,0,0.0100134
0.7,9.7,0,0.00963507
0.7,9.8,0,0.00925688
0.7,9.9,0,0.00888582
0.7,10,0,0.00851951
0.7,10.1,0,0.00815376
0.7,10.2,0,0.00779599
0.7,10.3,0,0.00744257
0.7,10.4,0,0.0070898
0.7,10.5,0,0.00674601
0.7,10.6,0,0.00640544
0.7,10.7,0,0.00606547
0.7,10.8,0,0.00573541
0.7,10.9,0,0.00540709
0.7,11,0,0.00508003
0.7,11.1,0,0.00476186
0.7,11.2,0,0.00444475
0.7,11.3,0,0.00412961
0.7,11.4,0,0.00382159
0.7,11.5,0,0.00351433
0.7,11.6,0,0.00320924
0.7,11.7,0,0.00290978
0.7,11.8,0,0.00261063
0.7,11.9,0,0.00231351
0.7,12,0,0.00202077
0.7,12.1,0,0.00172781
0.7,12.2,0,0.00143666
0.7,12.3,0,0.00114843
0.7,12.4,0,0.000859637
0.7,12.5,0,0.00057213
0.7,12.6,0,0.000286509
0.7,12.7,0,0
0.8,0,0,0
0.8,0.1,0,0.000362342
0.8,0.2,0,0.000726176
0.8,0.3,0,0.00108863
0.8,0.4,0,0.00145452
0.8,0.5,0,0.0018193
0.8,0.6,0,0.00218745
0.8,0.7,0,0.00255675
0.8,0.8,0,0.00292642
0.8,0.9,0,0.0033005
0.8,1,0,0.00367371
0.8,1.1,0,0.00405302
0.8,1.2,0,0.00443312
0.8,1.3,0,0.00481555
0.8,1.4,0,0.0052027
0.8,1.5,0,0.00558944
0.8,1.6,0,0.00598413
0.8,1.7,0,0.00637904
0.8,1.8,0,0.0067781
0.8,1.9,0,0.00718113
0.8,2,0,0.00758446
0.8,2.1,0,0.00799611
0.8,2.2,0,0.00840714
0.8,2.3,0,0.00882378
0.8,2.4,0,0.00924215
0.8,2.5,0,0.00966183
0.8,2.6,0,0.010088
0.8,2.7,0,0.0105124
0.8,2.8,0,0.010943
0.8,2.9,0,0.0113713
0.8,3,0,0.0118022
0.8,3.1,0,0.0122346
0.8,3.2,0,0.0126639
0.8,3.3,0,0.0130988
0.8,3.4,0,0.0135251
0.8,3.5,0,0.0139554
0.8,3.6,0,0.0143784
0.8,3.7,0,0.0147968
0.8,3.8,0,0.0152183
0.8,3.9,0,0.015623
0.8,4,0,0.0160328
0.8,4.1,0,0.0164227
0.8,4.2,0,0.0168068
0.8,4.3,0,0.0171885
0.8,4.4,0,0.0175446
0.8,4.5,0,0.0179063
0.8,4.6,0,0.0182326
0.8,4.7,0,0.0185527
0.8,4.8,0,0.0188622
0.8,4.9,0,0.0191263
0.8,5,0,0.0193889
0.8,5.1,0,0.0196405
0.8,5.2,0,0.0198884
0.8,5.3,0,0.0200722
0.8,5.4,0,0.0202657
0.8,5.5,0,0.0203997
0.8,5.6,0,0.0205439
0.8,5.7,0,0.0206255
0.8,5.8,0,0.0207179
0.8,5.9,0,0.0207456
0.8,6,0,0.0207843
0.8,6.1,0,0.0207577
0.8,6.2,0,0.0207421
0.8,6.3,0,0.020662
0.8,6.4,0,0.0205926
0.8,6.5,0,0.0204611
0.8,6.6,0,0.0203397
0.8,6.7,0,0.0201597
0.8,6.8,0,0.019989
0.8,6.9,0,0.0197498
0.8,7,0,0.0194992
0.8,7.1,0,0.0192599
0.8,7.2,0,0.0190125
0.8,7.3,0,0.0187345
0.8,7.4,0,0.0184203
0.8,7.5,0,0.0181089
0.8,7.6,0,0.017774
0.8,7.7,0,0.0174237
0.8,7.8,0,0.0170754
0.8,7.9,0,0.0167029
0.8,8,0,0.0163277
0.8,8.1,0,0.0159512
0.8,8.2,0,0.0155565
0.8,8.3,0,0.0151657
0.8,8.4,0,0.0147713
0.8,8.5,0,0.0143667
0.8,8.6,0,0.0139676
0.8,8.7,0,0.0135643
0.8,8.8,0,0.0131588
0.8,8.9,0,0.0127581
0.8,9,0,0.0123538
0.8,9.1,0,0.0119538
0.8,9.2,0,0.011557
0.8,9.3,0,0.0111584
0.8,9.4,0,0.0107676
0.8,9.5,0,0.0103786
0.8,9.6,0,0.00999067
0.8,9.7,0,0.00961139
0.8,9.8,0,0.00923293
0.8,9.9,0,0.00885874
0.8,10,0,0.00849227
0.8,10.1,0,0.00812609
0.8,10.2,0,0.00776722
0.8,10.3,0,0.00741379
0.8,10.4,0,0.00706089
0.8,10.5,0,0.00671739
0.8,10.6,0,0.00637681
0.8,10.7,0,0.00603733
0.8,10.8,0,0.00570829
0.8,10.9,0,0.00537997
0.8,11,0,0.00505428
0.8,11.1,0,0.0047373
0.8,11.2,0,0.0044202
0.8,11.3,0,0.00410742
0.8,11.4,0,0.00380042
0.8,11.5,0,0.00349316
0.8,11.6,0,0.00319147
0.8,11.7,0,0.00289263
0.8,11.8,0,0.00259395
0.8,11.9,0,0.00230076
0.8,12,0,0.0020081
0.8,12.1,0,0.00171626
0.8,12.2,0,0.0014288
0.8,12.3,0,0.00114057
0.8,12.4,0,0.000853641
0.8,12.5,0,0.00056936
0.8,12.6,0,0.000283738
0.8,12.7,0,0
0.9,0,0,0
0.9,0.1,0,0.00036085
0.9,0.2,0,0.000720952
0.9,0.3,0,0.00108341
0.9,0.4,0,0.00144561
0.9,0.5,0,0.00180928
0.9,0.6,0,0.00217628
0.9,0.7,0,0.00254239
0.9,0.8,0,0.00291207
0.9,0.9,0,0.00328329
0.9,1,0,0.00365562
0.9,1.1,0,0.00403414
0.9,1.2,0,0.00441212
0.9,1.3,0,0.00479454
0.9,1.4,0,0.00518021
0.9,1.5,0,0.00556654
0.9,1.6,0,0.00596102
0.9,1.7,0,0.00635555
0.9,1.8,0,0.00675461
0.9,1.9,0,0.00715829
0.9,2,0,0.00756193
0.9,2.1,0,0.00797422
0.9,2.2,0,0.00838742
0.9,2.3,0,0.00880406
0.9,2.4,0,0.00922608
0.9,2.5,0,0.00964707
0.9,2.6,0,0.010075
0.9,2.7,0,0.010505
0.9,2.8,0,0.0109357
0.9,2.9,0,0.0113715
0.9,3,0,0.011805
0.9,3.1,0,0.0122406
0.9,3.2,0,0.0126796
0.9,3.3,0,0.0131145
0.9,3.4,0,0.0135527
0.9,3.5,0,0.0139869
0.9,3.6,0,0.0144147
0.9,3.7,0,0.014847
0.9,3.8,0,0.0152685
0.9,3.9,0,0.0156889
0.9,4,0,0.016104
0.9,4.1,0,0.0164997
0.9,4.2,0,0.0169007
0.9,4.3,0,0.0172825
0.9,4.4,0,0.0176564
0.9,4.5,0,0.0180238
0.9,4.6,0,0.0183563
0.9,4.7,0,0.0186934
0.9,4.8,0,0.0190029
0.9,4.9,0,0.0192893
0.9,5,0,0.0195502
0.9,5.1,0,0.0198117
0.9,5.2,0,0.0200659
0.9,5.3,0,0.0202511
0.9,5.4,0,0.0204556
0.9,5.5,0,0.0205891
0.9,5.6,0,0.0207431
0.9,5.7,0,0.0208222
0.9,5.8,0,0.0209227
0.9,5.9,0,0.0209458
0.9,6,0,0.0209908
0.9,6.1,0,0.0209576
0.9,6.2,0,0.0209462
0.9,6.3,0,0.0208576
0.9,6.4,0,0.0207904
0.9,6.5,0,0.0206487
0.9,6.6,0,0.0205275
0.9,6.7,0,0.020336
0.9,6.8,0,0.0201636
0.9,6.9,0,0.0199213
0.9,7,0,0.0196561
0.9,7.1,0,0.0194229
0.9,7.2,0,0.0191554
0.9,7.3,0,0.0188676
0.9,7.4,0,0.0185493
0.9,7.5,0,0.0182167
0.9,7.6,0,0.0178795
0.9,7.7,0,0.0175208
0.9,7.8,0,0.0171535
0.9,7.9,0,0.016781
0.9,8,0,0.0163938
0.9,8.1,0,0.0160036
0.9,8.2,0,0.0156087
0.9,8.3,0,0.0152039
0.9,8.4,0,0.0148008
0.9,8.5,0,0.0143948
0.9,8.6,0,0.0139824
0.9,8.7,0,0.0135745
0.9,8.8,0,0.0131665
0.9,8.9,0,0.0127551
0.9,9,0,0.0123483
0.9,9.1,0,0.0119454
0.9,9.2,0,0.0115407
0.9,9.3,0,0.0111411
0.9,9.4,0,0.0107469
0.9,9.5,0,0.010353
0.9,9.6,0,0.0099649
0.9,9.7,0,0.00958238
0.9,9.8,0,0.00920176
0.9,9.9,0,0.00882758
0.9,10,0,0.00845856
0.9,10.1,0,0.00809213
0.9,10.2,0,0.0077331
0.9,10.3,0,0.00737844
0.9,10.4,0,0.00702631
0.9,10.5,0,0.00668256
0.9,10.6,0,0.00634236
0.9,10.7,0,0.0060039
0.9,10.8,0,0.00567471
0.9,10.9,0,0.00534821
0.9,11,0,0.00502338
0.9,11.1,0,0.00470654
0.9,11.2,0,0.0043924
0.9,11.3,0,0.00408015
0.9,11.4,0,0.00377405
0.9,11.5,0,0.00347026
0.9,11.6,0,0.00316866
0.9,11.7,0,0.00287172
0.9,11.8,0,0.00257622
0.9,11.9,0,0.00228304
0.9,12,0,0.00199336
0.9,12.1,0,0.00170408
0.9,12.2,0,0.00141689
0.9,12.3,0,0.00113245
0.9,12.4,0,0.000847344
0.9,12.5,0,0.000563685
0.9,12.6,0,0.000282318
0.9,12.7,0,0
1,0,0,0
1,0.1,0,0.00035861
1,0.2,0,0.000717221
1,0.3,0,0.00107707
1,0.4,0,0.00143817
1,0.5,0,0.00179926
1,0.6,0,0.00216422
1,0.7,0,0.00252918
1,0.8,0,0.00289684
1,0.9,0,0.00326719
1,1,0,0.00363753
1,1.1,0,0.00401472
1,1.2,0,0.0043919
1,1.3,0,0.00477313
1,1.4,0,0.00515839
1,1.5,0,0.00554365
1,1.6,0,0.00593797
1,1.7,0,0.00633228
1,1.8,0,0.00673143
1,1.9,0,0.00713541
1,2,0,0.0075394
1,2.1,0,0.00795324
1,2.2,0,0.00836708
1,2.3,0,0.00878566
1,2.4,0,0.00920899
1,2.5,0,0.00963232
1,2.6,0,0.0100641
1,2.7,0,0.0104959
1,2.8,0,0.0109309
1,2.9,0,0.0113693
1,3,0,0.0118077
1,3.1,0,0.0122499
1,3.2,0,0.0126921
1,3.3,0,0.0131342
1,3.4,0,0.0135764
1,3.5,0,0.0140185
1,3.6,0,0.0144555
1,3.7,0,0.0148925
1,3.8,0,0.0153239
1,3.9,0,0.0157495
1,4,0,0.0161751
1,4.1,0,0.016582
1,4.2,0,0.0169888
1,4.3,0,0.017382
1,4.4,0,0.0177617
1,4.5,0,0.0181413
1,4.6,0,0.0184846
1,4.7,0,0.018828
1,4.8,0,0.019142
1,4.9,0,0.0194267
1,5,0,0.0197115
1,5.1,0,0.0199774
1,5.2,0,0.0202433
1,5.3,0,0.0204444
1,5.4,0,0.0206455
1,5.5,0,0.0207939
1,5.6,0,0.0209424
1,5.7,0,0.021035
1,5.8,0,0.0211276
1,5.9,0,0.0211624
1,6,0,0.0211973
1,6.1,0,0.0211738
1,6.2,0,0.0211502
1,6.3,0,0.0210692
1,6.4,0,0.0209881
1,6.5,0,0.0208517
1,6.6,0,0.0207152
1,6.7,0,0.0205266
1,6.8,0,0.0203381
1,6.9,0,0.0200756
1,7,0,0.0198131
1,7.1,0,0.0195448
1,7.2,0,0.0192764
1,7.3,0,0.018998
1,7.4,0,0.0186624
1,7.5,0,0.0183268
1,7.6,0,0.0179803
1,7.7,0,0.0176082
1,7.8,0,0.0172362
1,7.9,0,0.016853
1,8,0,0.0164563
1,8.1,0,0.0160595
1,8.2,0,0.0156543
1,8.3,0,0.0152434
1,8.4,0,0.0148326
1,8.5,0,0.0144177
1,8.6,0,0.0140016
1,8.7,0,0.0135855
1,8.8,0,0.013171
1,8.9,0,0.0127566
1,9,0,0.0123427
1,9.1,0,0.0119355
1,9.2,0,0.0115283
1,9.3,0,0.0111233
1,9.4,0,0.0107269
1,9.5,0,0.0103306
1,9.6,0,0.00993885
1,9.7,0,0.00955571
1,9.8,0,0.00917257
1,9.9,0,0.00879663
1,10,0,0.00842791
1,10.1,0,0.00805919
1,10.2,0,0.00770006
1,10.3,0,0.00734609
1,10.4,0,0.00699213
1,10.5,0,0.00664967
1,10.6,0,0.0063101
1,10.7,0,0.00597052
1,10.8,0,0.00564375
1,10.9,0,0.00531765
1,11,0,0.00499278
1,11.1,0,0.00467885
1,11.2,0,0.00436493
1,11.3,0,0.00405366
1,11.4,0,0.00375031
1,11.5,0,0.00344696
1,11.6,0,0.00314711
1,11.7,0,0.00285251
1,11.8,0,0.00255791
1,11.9,0,0.00226704
1,12,0,0.00197921
1,12.1,0,0.00169139
1,12.2,0,0.00140689
1,12.3,0,0.00112381
1,12.4,0,0.00084074
1,12.5,0,0.000560196
1,12.6,0,0.000280098
1,12.7,0,0
1.1,0,0,0
1.1,0.1,0,0.000354506
1.1,0.2,0,0.00071165
1.1,0.3,0,0.00106828
1.1,0.4,0,0.00142762
1.1,0.5,0,0.00178572
1.1,0.6,0,0.00214753
1.1,0.7,0,0.00251109
1.1,0.8,0,0.00287596
1.1,0.9,0,0.00324493
1.1,1,0,0.00361285
1.1,1.1,0,0.00398778
1.1,1.2,0,0.004364
1.1,1.3,0,0.00474347
1.1,1.4,0,0.00512793
1.1,1.5,0,0.00551192
1.1,1.6,0,0.00590545
1.1,1.7,0,0.00629953
1.1,1.8,0,0.00669856
1.1,1.9,0,0.00710266
1.1,2,0,0.00750715
1.1,2.1,0,0.00792243
1.1,2.2,0,0.00833711
1.1,2.3,0,0.00875797
1.1,2.4,0,0.00918274
1.1,2.5,0,0.00960912
1.1,2.6,0,0.0100454
1.1,2.7,0,0.0104795
1.1,2.8,0,0.0109201
1.1,2.9,0,0.0113617
1.1,3,0,0.0118064
1.1,3.1,0,0.0122571
1.1,3.2,0,0.0127034
1.1,3.3,0,0.0131549
1.1,3.4,0,0.0136023
1.1,3.5,0,0.0140546
1.1,3.6,0,0.0145043
1.1,3.7,0,0.0149473
1.1,3.8,0,0.0153919
1.1,3.9,0,0.0158249
1.1,4,0,0.0162638
1.1,4.1,0,0.016687
1.1,4.2,0,0.017101
1.1,4.3,0,0.0175102
1.1,4.4,0,0.0178986
1.1,4.5,0,0.0182929
1.1,4.6,0,0.018654
1.1,4.7,0,0.0190044
1.1,4.8,0,0.0193406
1.1,4.9,0,0.0196404
1.1,5,0,0.0199236
1.1,5.1,0,0.020206
1.1,5.2,0,0.0204778
1.1,5.3,0,0.0206784
1.1,5.4,0,0.0208975
1.1,5.5,0,0.0210424
1.1,5.6,0,0.0212074
1.1,5.7,0,0.0212934
1.1,5.8,0,0.0214005
1.1,5.9,0,0.0214258
1.1,6,0,0.0214726
1.1,6.1,0,0.0214366
1.1,6.2,0,0.0214222
1.1,6.3,0,0.0213262
1.1,6.4,0,0.0212512
1.1,6.5,0,0.0210978
1.1,6.6,0,0.0209643
1.1,6.7,0,0.0207574
1.1,6.8,0,0.0205688
1.1,6.9,0,0.020308
1.1,7,0,0.0200194
1.1,7.1,0,0.0197643
1.1,7.2,0,0.0194856
1.1,7.3,0,0.0191697
1.1,7.4,0,0.0188241
1.1,7.5,0,0.0184785
1.1,7.6,0,0.0181123
1.1,7.7,0,0.0177302
1.1,7.8,0,0.0173459
1.1,7.9,0,0.0169458
1.1,8,0,0.0165404
1.1,8.1,0,0.0161305
1.1,8.2,0,0.015711
1.1,8.3,0,0.0152936
1.1,8.4,0,0.0148698
1.1,8.5,0,0.014443
1.1,8.6,0,0.0140222
1.1,8.7,0,0.0135948
1.1,8.8,0,0.0131706
1.1,8.9,0,0.0127524
1.1,9,0,0.0123304
1.1,9.1,0,0.0119153
1.1,9.2,0,0.0115056
1.1,9.3,0,0.0110951
1.1,9.4,0,0.0106929
1.1,9.5,0,0.0102951
1.1,9.6,0,0.00989987