x,y,z,p
0,0,0,8.59072e-05
0,0.1,0,0.000137733
0,0.2,0,0.000189558
0,0.3,0,0.000241384
0,0.4,0,0.000293209
0,0.5,0,0.00034688
0,0.6,0,0.000414699
0,0.7,0,0.000482518
0,0.8,0,0.000550337
0,0.9,0,0.000618156
0,1,0,0.000685456
0,1.1,0,0.000751025
0,1.2,0,0.000816594
0,1.3,0,0.000882163
0,1.4,0,0.000947732
0,1.5,0,0.00101239
0,1.6,0,0.00107531
0,1.7,0,0.00113823
0,1.8,0,0.00120116
0,1.9,0,0.00126408
0,2,0,0.00132543
0,2.1,0,0.00138493
0,2.2,0,0.00144443
0,2.3,0,0.00150393
0,2.4,0,0.00156344
0,2.5,0,0.00162042
0,2.6,0,0.00167556
0,2.7,0,0.0017307
0,2.8,0,0.00178584
0,2.9,0,0.00184098
0,3,0,0.00189249
0,3.1,0,0.00194238
0,3.2,0,0.00199227
0,3.3,0,0.00204217
0,3.4,0,0.00209206
0,3.5,0,0.00213707
0,3.6,0,0.00218091
0,3.7,0,0.00222475
0,3.8,0,0.00226859
0,3.9,0,0.00231243
0,4,0,0.00235008
0,4.1,0,0.0023872
0,4.2,0,0.00242433
0,4.3,0,0.00246146
0,4.4,0,0.00249831
0,4.5,0,0.00252812
0,4.6,0,0.00255793
0,4.7,0,0.00258775
0,4.8,0,0.00261756
0,4.9,0,0.00264617
0,5,0,0.00266815
0,5.1,0,0.00269013
0,5.2,0,0.00271212
0,5.3,0,0.0027341
0,5.4,0,0.00275386
0,5.5,0,0.00276762
0,5.6,0,0.00278137
0,5.7,0,0.00279513
0,5.8,0,0.00280889
0,5.9,0,0.00281938
0,6,0,0.00282465
0,6.1,0,0.00282993
0,6.2,0,0.0028352
0,6.3,0,0.00284048
0,6.4,0,0.00284146
0,6.5,0,0.00283814
0,6.6,0,0.00283482
0,6.7,0,0.00283151
0,6.8,0,0.00282819
0,6.9,0,0.0028196
0,7,0,0.00280772
0,7.1,0,0.00279584
0,7.2,0,0.00278396
0,7.3,0,0.00277208
0,7.4,0,0.00275405
0,7.5,0,0.00273377
0,7.6,0,0.00271348
0,7.7,0,0.00269319
0,7.8,0,0.00267291
0,7.9,0,0.00264575
0,8,0,0.00261734
0,8.1,0,0.00258894
0,8.2,0,0.00256053
0,8.3,0,0.00253213
0,8.4,0,0.00249637
0,8.5,0,0.00246031
0,8.6,0,0.00242426
0,8.7,0,0.0023882
0,8.8,0,0.0023516
0,8.9,0,0.00230851
0,9,0,0.00226541
0,9.1,0,0.00222231
0,9.2,0,0.00217921
0,9.3,0,0.00213489
0,9.4,0,0.00208541
0,9.5,0,0.00203593
0,9.6,0,0.00198645
0,9.7,0,0.00193697
0,9.8,0,0.00188576
0,9.9,0,0.00183067
0,10,0,0.00177558
0,10.1,0,0.00172049
0,10.2,0,0.0016654
0,10.3,0,0.00160811
0,10.4,0,0.00154783
0,10.5,0,0.00148755
0,10.6,0,0.00142727
0,10.7,0,0.00136699
0,10.8,0,0.00130425
0,10.9,0,0.00123941
0,11,0,0.00117457
0,11.1,0,0.00110972
0,11.2,0,0.00104488
0,11.3,0,0.000977682
0,11.4,0,0.000909236
0,11.5,0,0.000840791
0,11.6,0,0.000772345
0,11.7,0,0.0007039
0,11.8,0,0.000634108
0,11.9,0,0.000563912
0,12,0,0.000493717
0,12.1,0,0.000423521
0,12.2,0,0.000353325
0,12.3,0,0.000298432
0,12.4,0,0.000245534
0,12.5,0,0.000192636
0,12.6,0,0.000139738
0,12.7,0,8.68399e-05
0.1,0,0,6.87258e-05
0.1,0.1,0,0.000138177
0.1,0.2,0,0.000190002
0.1,0.3,0,0.000241828
0.1,0.4,0,0.000293654
0.1,0.5,0,0.000347426
0.1,0.6,0,0.000415299
0.1,0.7,0,0.000483118
0.1,0.8,0,0.000550937
0.1,0.9,0,0.000618756
0.1,1,0,0.000686056
0.1,1.1,0,0.000751625
0.1,1.2,0,0.000817194
0.1,1.3,0,0.000882763
0.1,1.4,0,0.000948507
0.1,1.5,0,0.00101351
0.1,1.6,0,0.00107644
0.1,1.7,0,0.00113936
0.1,1.8,0,0.00120229
0.1,1.9,0,0.00126546
0.1,2,0,0.00132711
0.1,2.1,0,0.00138661
0.1,2.2,0,0.00144611
0.1,2.3,0,0.00150562
0.1,2.4,0,0.0015654
0.1,2.5,0,0.0016226
0.1,2.6,0,0.00167774
0.1,2.7,0,0.00173288
0.1,2.8,0,0.00178802
0.1,2.9,0,0.00184342
0.1,3,0,0.00189505
0.1,3.1,0,0.00194494
0.1,3.2,0,0.00199483
0.1,3.3,0,0.00204473
0.1,3.4,0,0.00209489
0.1,3.5,0,0.00213996
0.1,3.6,0,0.0021838
0.1,3.7,0,0.00222764
0.1,3.8,0,0.00227148
0.1,3.9,0,0.0023156
0.1,4,0,0.00235327
0.1,4.1,0,0.0023904
0.1,4.2,0,0.00242753
0.1,4.3,0,0.00246466
0.1,4.4,0,0.00250178
0.1,4.5,0,0.0025316
0.1,4.6,0,0.00256141
0.1,4.7,0,0.00259122
0.1,4.8,0,0.00262107
0.1,4.9,0,0.00264989
0.1,5,0,0.00267187
0.1,5.1,0,0.00269385
0.1,5.2,0,0.00271583
0.1,5.3,0,0.00273786
0.1,5.4,0,0.00275778
0.1,5.5,0,0.00277154
0.1,5.6,0,0.00278529
0.1,5.7,0,0.00279905
0.1,5.8,0,0.00281286
0.1,5.9,0,0.00282345
0.1,6,0,0.00282872
0.1,6.1,0,0.002834
0.1,6.2,0,0.00283927
0.1,6.3,0,0.00284459
0.1,6.4,0,0.00284561
0.1,6.5,0,0.00284229
0.1,6.6,0,0.00283897
0.1,6.7,0,0.00283566
0.1,6.8,0,0.00283233
0.1,6.9,0,0.00282374
0.1,7,0,0.00281186
0.1,7.1,0,0.00279998
0.1,7.2,0,0.0027881
0.1,7.3,0,0.00277614
0.1,7.4,0,0.00275809
0.1,7.5,0,0.0027378
0.1,7.6,0,0.00271752
0.1,7.7,0,0.00269723
0.1,7.8,0,0.00267681
0.1,7.9,0,0.00264963
0.1,8,0,0.00262122
0.1,8.1,0,0.00259282
0.1,8.2,0,0.00256441
0.1,8.3,0,0.00253579
0.1,8.4,0,0.00250002
0.1,8.5,0,0.00246397
0.1,8.6,0,0.00242791
0.1,8.7,0,0.00239184
0.1,8.8,0,0.00235495
0.1,8.9,0,0.00231185
0.1,9,0,0.00226876
0.1,9.1,0,0.00222566
0.1,9.2,0,0.00218249
0.1,9.3,0,0.00213784
0.1,9.4,0,0.00208836
0.1,9.5,0,0.00203888
0.1,9.6,0,0.0019894
0.1,9.7,0,0.00193977
0.1,9.8,0,0.0018882
0.1,9.9,0,0.00183311
0.1,10,0,0.00177802
0.1,10.1,0,0.00172293
0.1,10.2,0,0.00166759
0.1,10.3,0,0.00160993
0.1,10.4,0,0.00154965
0.1,10.5,0,0.00148937
0.1,10.6,0,0.00142909
0.1,10.7,0,0.00136838
0.1,10.8,0,0.00130525
0.1,10.9,0,0.0012404
0.1,11,0,0.00117556
0.1,11.1,0,0.00111072
0.1,11.2,0,0.00104588
0.1,11.3,0,0.000978574
0.1,11.4,0,0.000910056
0.1,11.5,0,0.000841611
0.1,11.6,0,0.000773165
0.1,11.7,0,0.000704719
0.1,11.8,0,0.000634931
0.1,11.9,0,0.000564735
0.1,12,0,0.000494539
0.1,12.1,0,0.000424344
0.1,12.2,0,0.000354079
0.1,12.3,0,0.000299116
0.1,12.4,0,0.000246218
0.1,12.5,0,0.00019332
0.1,12.6,0,0.000140422
0.1,12.7,0,6.91314e-05
0.2,0,0,5.15443e-05
0.2,0.1,0,0.000121468
0.2,0.2,0,0.000190447
0.2,0.3,0,0.000242272
0.2,0.4,0,0.000294098
0.2,0.5,0,0.000347965
0.2,0.6,0,0.000415847
0.2,0.7,0,0.000483718
0.2,0.8,0,0.000551537
0.2,0.9,0,0.000619356
0.2,1,0,0.000686656
0.2,1.1,0,0.000752225
0.2,1.2,0,0.000817794
0.2,1.3,0,0.000883525
0.2,1.4,0,0.000949634
0.2,1.5,0,0.00101464
0.2,1.6,0,0.00107757
0.2,1.7,0,0.00114049
0.2,1.8,0,0.00120365
0.2,1.9,0,0.00126714
0.2,2,0,0.00132879
0.2,2.1,0,0.00138829
0.2,2.2,0,0.00144779
0.2,2.3,0,0.00150757
0.2,2.4,0,0.00156758
0.2,2.5,0,0.00162478
0.2,2.6,0,0.00167992
0.2,2.7,0,0.00173506
0.2,2.8,0,0.00179045
0.2,2.9,0,0.00184598
0.2,3,0,0.00189761
0.2,3.1,0,0.0019475
0.2,3.2,0,0.0019974
0.2,3.3,0,0.00204755
0.2,3.4,0,0.00209778
0.2,3.5,0,0.00214285
0.2,3.6,0,0.00218669
0.2,3.7,0,0.00223053
0.2,3.8,0,0.00227465
0.2,3.9,0,0.0023188
0.2,4,0,0.00235647
0.2,4.1,0,0.0023936
0.2,4.2,0,0.00243072
0.2,4.3,0,0.00246814
0.2,4.4,0,0.00250526
0.2,4.5,0,0.00253507
0.2,4.6,0,0.00256489
0.2,4.7,0,0.00259473
0.2,4.8,0,0.00262479
0.2,4.9,0,0.0026536
0.2,5,0,0.00267558
0.2,5.1,0,0.00269756
0.2,5.2,0,0.00271959
0.2,5.3,0,0.00274178
0.2,5.4,0,0.0027617
0.2,5.5,0,0.00277545
0.2,5.6,0,0.00278921
0.2,5.7,0,0.00280302
0.2,5.8,0,0.00281693
0.2,5.9,0,0.00282752
0.2,6,0,0.00283279
0.2,6.1,0,0.00283807
0.2,6.2,0,0.00284338
0.2,6.3,0,0.00284873
0.2,6.4,0,0.00284975
0.2,6.5,0,0.00284644
0.2,6.6,0,0.00284312
0.2,6.7,0,0.0028398
0.2,6.8,0,0.00283647
0.2,6.9,0,0.00282788
0.2,7,0,0.00281599
0.2,7.1,0,0.00280411
0.2,7.2,0,0.00279216
0.2,7.3,0,0.00278018
0.2,7.4,0,0.00276213
0.2,7.5,0,0.00274184
0.2,7.6,0,0.00272155
0.2,7.7,0,0.00270114
0.2,7.8,0,0.00268068
0.2,7.9,0,0.0026535
0.2,8,0,0.0026251
0.2,8.1,0,0.00259669
0.2,8.2,0,0.00256808
0.2,8.3,0,0.00253945
0.2,8.4,0,0.00250368
0.2,8.5,0,0.00246762
0.2,8.6,0,0.00243156
0.2,8.7,0,0.00239519
0.2,8.8,0,0.0023583
0.2,8.9,0,0.0023152
0.2,9,0,0.0022721
0.2,9.1,0,0.00222894
0.2,9.2,0,0.00218544
0.2,9.3,0,0.00214079
0.2,9.4,0,0.00209131
0.2,9.5,0,0.00204183
0.2,9.6,0,0.00199221
0.2,9.7,0,0.00194221
0.2,9.8,0,0.00189065
0.2,9.9,0,0.00183556
0.2,10,0,0.00178047
0.2,10.1,0,0.00172514
0.2,10.2,0,0.00166941
0.2,10.3,0,0.00161176
0.2,10.4,0,0.00155148
0.2,10.5,0,0.0014912
0.2,10.6,0,0.00143051
0.2,10.7,0,0.00136939
0.2,10.8,0,0.00130624
0.2,10.9,0,0.0012414
0.2,11,0,0.00117655
0.2,11.1,0,0.00111172
0.2,11.2,0,0.00104688
0.2,11.3,0,0.000979599
0.2,11.4,0,0.00091095
0.2,11.5,0,0.000842431
0.2,11.6,0,0.000773985
0.2,11.7,0,0.000705539
0.2,11.8,0,0.000635753
0.2,11.9,0,0.000565558
0.2,12,0,0.000495362
0.2,12.1,0,0.000425097
0.2,12.2,0,0.000354823
0.2,12.3,0,0.0002998
0.2,12.4,0,0.000246902
0.2,12.5,0,0.000194004
0.2,12.6,0,0.000122887
0.2,12.7,0,5.14228e-05
0.3,0,0,3.43629e-05
0.3,0.1,0,0.000104287
0.3,0.2,0,0.000174211
0.3,0.3,0,0.000242716
0.3,0.4,0,0.000294542
0.3,0.5,0,0.000348504
0.3,0.6,0,0.000416386
0.3,0.7,0,0.000484267
0.3,0.8,0,0.000552137
0.3,0.9,0,0.000619956
0.3,1,0,0.000687256
0.3,1.1,0,0.000752825
0.3,1.2,0,0.000818543
0.3,1.3,0,0.000884653
0.3,1.4,0,0.000950762
0.3,1.5,0,0.00101577
0.3,1.6,0,0.00107869
0.3,1.7,0,0.00114184
0.3,1.8,0,0.00120533
0.3,1.9,0,0.00126882
0.3,2,0,0.00133047
0.3,2.1,0,0.00138997
0.3,2.2,0,0.00144973
0.3,2.3,0,0.00150975
0.3,2.4,0,0.00156976
0.3,2.5,0,0.00162696
0.3,2.6,0,0.0016821
0.3,2.7,0,0.00173748
0.3,2.8,0,0.00179301
0.3,2.9,0,0.00184854
0.3,3,0,0.00190017
0.3,3.1,0,0.00195006
0.3,3.2,0,0.00200021
0.3,3.3,0,0.00205044
0.3,3.4,0,0.00210067
0.3,3.5,0,0.00214574
0.3,3.6,0,0.00218958
0.3,3.7,0,0.00223369
0.3,3.8,0,0.00227784
0.3,3.9,0,0.002322
0.3,4,0,0.00235966
0.3,4.1,0,0.00239679
0.3,4.2,0,0.0024342
0.3,4.3,0,0.00247161
0.3,4.4,0,0.00250873
0.3,4.5,0,0.00253855
0.3,4.6,0,0.00256838
0.3,4.7,0,0.00259844
0.3,4.8,0,0.0026285
0.3,4.9,0,0.00265732
0.3,5,0,0.0026793
0.3,5.1,0,0.00270132
0.3,5.2,0,0.00272351
0.3,5.3,0,0.0027457
0.3,5.4,0,0.00276561
0.3,5.5,0,0.00277937
0.3,5.6,0,0.00279317
0.3,5.7,0,0.00280709
0.3,5.8,0,0.002821
0.3,5.9,0,0.00283159
0.3,6,0,0.00283686
0.3,6.1,0,0.00284217
0.3,6.2,0,0.00284753
0.3,6.3,0,0.00285288
0.3,6.4,0,0.0028539
0.3,6.5,0,0.00285059
0.3,6.6,0,0.00284726
0.3,6.7,0,0.00284393
0.3,6.8,0,0.0028406
0.3,6.9,0,0.00283201
0.3,7,0,0.00282013
0.3,7.1,0,0.00280818
0.3,7.2,0,0.0027962
0.3,7.3,0,0.00278422
0.3,7.4,0,0.00276616
0.3,7.5,0,0.00274588
0.3,7.6,0,0.00272546
0.3,7.7,0,0.00270501
0.3,7.8,0,0.00268456
0.3,7.9,0,0.00265738
0.3,8,0,0.00262897
0.3,8.1,0,0.00260037
0.3,8.2,0,0.00257173
0.3,8.3,0,0.0025431
0.3,8.4,0,0.00250733
0.3,8.5,0,0.00247127
0.3,8.6,0,0.0024349
0.3,8.7,0,0.00239853
0.3,8.8,0,0.00236164
0.3,8.9,0,0.00231854
0.3,9,0,0.0022754
0.3,9.1,0,0.00223189
0.3,9.2,0,0.00218839
0.3,9.3,0,0.00214374
0.3,9.4,0,0.00209426
0.3,9.5,0,0.00204465
0.3,9.6,0,0.00199465
0.3,9.7,0,0.00194465
0.3,9.8,0,0.00189309
0.3,9.9,0,0.001838
0.3,10,0,0.00178268
0.3,10.1,0,0.00172696
0.3,10.2,0,0.00167123
0.3,10.3,0,0.00161358
0.3,10.4,0,0.0015533
0.3,10.5,0,0.00149263
0.3,10.6,0,0.00143151
0.3,10.7,0,0.0013704
0.3,10.8,0,0.00130723
0.3,10.9,0,0.00124239
0.3,11,0,0.00117755
0.3,11.1,0,0.00111272
0.3,11.2,0,0.00104788
0.3,11.3,0,0.000980624
0.3,11.4,0,0.000911975
0.3,11.5,0,0.000843326
0.3,11.6,0,0.000774805
0.3,11.7,0,0.000706359
0.3,11.8,0,0.000636576
0.3,11.9,0,0.000566381
0.3,12,0,0.000496114
0.3,12.1,0,0.000425841
0.3,12.2,0,0.000355567
0.3,12.3,0,0.000300485
0.3,12.4,0,0.000247587
0.3,12.5,0,0.000176643
0.3,12.6,0,0.000105179
0.3,12.7,0,3.37143e-05
0.4,0,0,1.71814e-05
0.4,0.1,0,8.71053e-05
0.4,0.2,0,0.000157029
0.4,0.3,0,0.000226953
0.4,0.4,0,0.000294986
0.4,0.5,0,0.000349043
0.4,0.6,0,0.000416925
0.4,0.7,0,0.000484806
0.4,0.8,0,0.000552687
0.4,0.9,0,0.000620556
0.4,1,0,0.000687855
0.4,1.1,0,0.000753562
0.4,1.2,0,0.000819671
0.4,1.3,0,0.00088578
0.4,1.4,0,0.00095189
0.4,1.5,0,0.0010169
0.4,1.6,0,0.00108003
0.4,1.7,0,0.00114352
0.4,1.8,0,0.00120701
0.4,1.9,0,0.0012705
0.4,2,0,0.00133215
0.4,2.1,0,0.0013919
0.4,2.2,0,0.00145191
0.4,2.3,0,0.00151192
0.4,2.4,0,0.00157194
0.4,2.5,0,0.00162914
0.4,2.6,0,0.00168451
0.4,2.7,0,0.00174004
0.4,2.8,0,0.00179557
0.4,2.9,0,0.0018511
0.4,3,0,0.00190273
0.4,3.1,0,0.00195287
0.4,3.2,0,0.0020031
0.4,3.3,0,0.00205333
0.4,3.4,0,0.00210356
0.4,3.5,0,0.00214863
0.4,3.6,0,0.00219273
0.4,3.7,0,0.00223688
0.4,3.8,0,0.00228104
0.4,3.9,0,0.00232519
0.4,4,0,0.00236286
0.4,4.1,0,0.00240026
0.4,4.2,0,0.00243767
0.4,4.3,0,0.00247509
0.4,4.4,0,0.00251221
0.4,4.5,0,0.00254204
0.4,4.6,0,0.0025721
0.4,4.7,0,0.00260216
0.4,4.8,0,0.00263222
0.4,4.9,0,0.00266103
0.4,5,0,0.00268305
0.4,5.1,0,0.00270524
0.4,5.2,0,0.00272743
0.4,5.3,0,0.00274961
0.4,5.4,0,0.00276953
0.4,5.5,0,0.00278333
0.4,5.6,0,0.00279724
0.4,5.7,0,0.00281115
0.4,5.8,0,0.00282507
0.4,5.9,0,0.00283565
0.4,6,0,0.00284096
0.4,6.1,0,0.00284632
0.4,6.2,0,0.00285168
0.4,6.3,0,0.00285703
0.4,6.4,0,0.00285805
0.4,6.5,0,0.00285473
0.4,6.6,0,0.0028514
0.4,6.7,0,0.00284807
0.4,6.8,0,0.00284474
0.4,6.9,0,0.00283615
0.4,7,0,0.0028242
0.4,7.1,0,0.00281222
0.4,7.2,0,0.00280024
0.4,7.3,0,0.00278825
0.4,7.4,0,0.0027702
0.4,7.5,0,0.00274979
0.4,7.6,0,0.00272934
0.4,7.7,0,0.00270889
0.4,7.8,0,0.00268844
0.4,7.9,0,0.00266126
0.4,8,0,0.00263265
0.4,8.1,0,0.00260402
0.4,8.2,0,0.00257539
0.4,8.3,0,0.00254676
0.4,8.4,0,0.00251099
0.4,8.5,0,0.00247462
0.4,8.6,0,0.00243825
0.4,8.7,0,0.00240188
0.4,8.8,0,0.00236499
0.4,8.9,0,0.00232185
0.4,9,0,0.00227835
0.4,9.1,0,0.00223484
0.4,9.2,0,0.00219134
0.4,9.3,0,0.00214669
0.4,9.4,0,0.00209709
0.4,9.5,0,0.00204709
0.4,9.6,0,0.0019971
0.4,9.7,0,0.0019471
0.4,9.8,0,0.00189553
0.4,9.9,0,0.00184023
0.4,10,0,0.00178451
0.4,10.1,0,0.00172878
0.4,10.2,0,0.00167306
0.4,10.3,0,0.0016154
0.4,10.4,0,0.00155475
0.4,10.5,0,0.00149364
0.4,10.6,0,0.00143252
0.4,10.7,0,0.00137141
0.4,10.8,0,0.00130822
0.4,10.9,0,0.00124339
0.4,11,0,0.00117855
0.4,11.1,0,0.00111372
0.4,11.2,0,0.00104889
0.4,11.3,0,0.000981648
0.4,11.4,0,0.000913
0.4,11.5,0,0.000844351
0.4,11.6,0,0.000775702
0.4,11.7,0,0.000707179
0.4,11.8,0,0.000637399
0.4,11.9,0,0.000567132
0.4,12,0,0.000496859
0.4,12.1,0,0.000426585
0.4,12.2,0,0.000356311
0.4,12.3,0,0.000301169
0.4,12.4,0,0.000230398
0.4,12.5,0,0.000158934
0.4,12.6,0,8.747e-05
0.4,12.7,0,1.60058e-05
0.5,0,0,0
0.5,0.1,0,6.99754e-05
0.5,0.2,0,0.000139951
0.5,0.3,0,0.000209926
0.5,0.4,0,0.000279902
0.5,0.5,0,0.000349598
0.5,0.6,0,0.000417476
0.5,0.7,0,0.000485354
0.5,0.8,0,0.000553232
0.5,0.9,0,0.00062111
0.5,1,0,0.00068858
0.5,1.1,0,0.000754689
0.5,1.2,0,0.000820799
0.5,1.3,0,0.000886908
0.5,1.4,0,0.000953017
0.5,1.5,0,0.00101822
0.5,1.6,0,0.00108171
0.5,1.7,0,0.0011452
0.5,1.8,0,0.00120869
0.5,1.9,0,0.00127218
0.5,2,0,0.00133407
0.5,2.1,0,0.00139408
0.5,2.2,0,0.00145409
0.5,2.3,0,0.0015141
0.5,2.4,0,0.00157411
0.5,2.5,0,0.00163154
0.5,2.6,0,0.00168707
0.5,2.7,0,0.0017426
0.5,2.8,0,0.00179813
0.5,2.9,0,0.00185366
0.5,3,0,0.00190553
0.5,3.1,0,0.00195576
0.5,3.2,0,0.00200599
0.5,3.3,0,0.00205622
0.5,3.4,0,0.00210645
0.5,3.5,0,0.00215177
0.5,3.6,0,0.00219593
0.5,3.7,0,0.00224008
0.5,3.8,0,0.00228423
0.5,3.9,0,0.00232839
0.5,4,0,0.00236632
0.5,4.1,0,0.00240373
0.5,4.2,0,0.00244115
0.5,4.3,0,0.00247856
0.5,4.4,0,0.00251569
0.5,4.5,0,0.00254575
0.5,4.6,0,0.00257581
0.5,4.7,0,0.00260587
0.5,4.8,0,0.00263593
0.5,4.9,0,0.00266478
0.5,5,0,0.00268697
0.5,5.1,0,0.00270915
0.5,5.2,0,0.00273134
0.5,5.3,0,0.00275353
0.5,5.4,0,0.00277349
0.5,5.5,0,0.0027874
0.5,5.6,0,0.00280131
0.5,5.7,0,0.00281522
0.5,5.8,0,0.00282913
0.5,5.9,0,0.00283976
0.5,6,0,0.00284511
0.5,6.1,0,0.00285047
0.5,6.2,0,0.00285583
0.5,6.3,0,0.00286118
0.5,6.4,0,0.0028622
0.5,6.5,0,0.00285887
0.5,6.6,0,0.00285554
0.5,6.7,0,0.00285221
0.5,6.8,0,0.00284888
0.5,6.9,0,0.00284022
0.5,7,0,0.00282824
0.5,7.1,0,0.00281625
0.5,7.2,0,0.00280427
0.5,7.3,0,0.00279229
0.5,7.4,0,0.00277412
0.5,7.5,0,0.00275367
0.5,7.6,0,0.00273322
0.5,7.7,0,0.00271276
0.5,7.8,0,0.00269231
0.5,7.9,0,0.00266494
0.5,8,0,0.00263631
0.5,8.1,0,0.00260768
0.5,8.2,0,0.00257904
0.5,8.3,0,0.00255041
0.5,8.4,0,0.00251434
0.5,8.5,0,0.00247797
0.5,8.6,0,0.00244159
0.5,8.7,0,0.00240522
0.5,8.8,0,0.0023683
0.5,8.9,0,0.0023248
0.5,9,0,0.00228129
0.5,9.1,0,0.00223779
0.5,9.2,0,0.00219429
0.5,9.3,0,0.00214953
0.5,9.4,0,0.00209954
0.5,9.5,0,0.00204954
0.5,9.6,0,0.00199954
0.5,9.7,0,0.00194954
0.5,9.8,0,0.00189778
0.5,9.9,0,0.00184206
0.5,10,0,0.00178633
0.5,10.1,0,0.0017306
0.5,10.2,0,0.00167488
0.5,10.3,0,0.00161689
0.5,10.4,0,0.00155583
0.5,10.5,0,0.00149477
0.5,10.6,0,0.0014337
0.5,10.7,0,0.00137264
0.5,10.8,0,0.00130941
0.5,10.9,0,0.0012446
0.5,11,0,0.0011798
0.5,11.1,0,0.00111499
0.5,11.2,0,0.00105018
0.5,11.3,0,0.000982812
0.5,11.4,0,0.000914178
0.5,11.5,0,0.000845544
0.5,11.6,0,0.000776911
0.5,11.7,0,0.000708277
0.5,11.8,0,0.000638359
0.5,11.9,0,0.000568065
0.5,12,0,0.000497772
0.5,12.1,0,0.000427478
0.5,12.2,0,0.000357185
0.5,12.3,0,0.000285715
0.5,12.4,0,0.000214286
0.5,12.5,0,0.000142857
0.5,12.6,0,7.14287e-05
0.5,12.7,0,0
0.6,0,0,0
0.6,0.1,0,6.99357e-05
0.6,0.2,0,0.000139911
0.6,0.3,0,0.000209887
0.6,0.4,0,0.000279862
0.6,0.5,0,0.000349791
0.6,0.6,0,0.00041915
0.6,0.7,0,0.000487028
0.6,0.8,0,0.000554906
0.6,0.9,0,0.000622784
0.6,1,0,0.000690667
0.6,1.1,0,0.000758127
0.6,1.2,0,0.000824236
0.6,1.3,0,0.000890345
0.6,1.4,0,0.000956455
0.6,1.5,0,0.00102236
0.6,1.6,0,0.00108711
0.6,1.7,0,0.0011506
0.6,1.8,0,0.00121409
0.6,1.9,0,0.00127758
0.6,2,0,0.00133946
0.6,2.1,0,0.00139947
0.6,2.2,0,0.00145948
0.6,2.3,0,0.00151949
0.6,2.4,0,0.00158019
0.6,2.5,0,0.00163814
0.6,2.6,0,0.00169367
0.6,2.7,0,0.0017492
0.6,2.8,0,0.00180473
0.6,2.9,0,0.00186105
0.6,3,0,0.00191327
0.6,3.1,0,0.0019635
0.6,3.2,0,0.00201373
0.6,3.3,0,0.00206396
0.6,3.4,0,0.00211505
0.6,3.5,0,0.00216058
0.6,3.6,0,0.00220473
0.6,3.7,0,0.00224889
0.6,3.8,0,0.00229304
0.6,3.9,0,0.00233812
0.6,4,0,0.00237613
0.6,4.1,0,0.00241354
0.6,4.2,0,0.00245096
0.6,4.3,0,0.00248839
0.6,4.4,0,0.00252639
0.6,4.5,0,0.00255645
0.6,4.6,0,0.00258651
0.6,4.7,0,0.00261657
0.6,4.8,0,0.00264673
0.6,4.9,0,0.00267622
0.6,5,0,0.00269841
0.6,5.1,0,0.0027206
0.6,5.2,0,0.00274279
0.6,5.3,0,0.00276512
0.6,5.4,0,0.00278552
0.6,5.5,0,0.00279943
0.6,5.6,0,0.00281335
0.6,5.7,0,0.00282726
0.6,5.8,0,0.00284132
0.6,5.9,0,0.00285219
0.6,6,0,0.00285755
0.6,6.1,0,0.00286291
0.6,6.2,0,0.00286826
0.6,6.3,0,0.00287371
0.6,6.4,0,0.00287483
0.6,6.5,0,0.0028715
0.6,6.6,0,0.00286817
0.6,6.7,0,0.00286484
0.6,6.8,0,0.00286149
0.6,6.9,0,0.00285282
0.6,7,0,0.00284083
0.6,7.1,0,0.00282885
0.6,7.2,0,0.00281687
0.6,7.3,0,0.00280469
0.6,7.4,0,0.00278645
0.6,7.5,0,0.00276599
0.6,7.6,0,0.00274554
0.6,7.7,0,0.00272509
0.6,7.8,0,0.00270426
0.6,7.9,0,0.00267681
0.6,8,0,0.00264818
0.6,8.1,0,0.00261955
0.6,8.2,0,0.00259091
0.6,8.3,0,0.00256165
0.6,8.4,0,0.00252555
0.6,8.5,0,0.00248918
0.6,8.6,0,0.00245281
0.6,8.7,0,0.00241638
0.6,8.8,0,0.00237855
0.6,8.9,0,0.00233504
0.6,9,0,0.00229154
0.6,9.1,0,0.00224804
0.6,9.2,0,0.00220432
0.6,9.3,0,0.00215856
0.6,9.4,0,0.00210856
0.6,9.5,0,0.00205856
0.6,9.6,0,0.00200857
0.6,9.7,0,0.00195815
0.6,9.8,0,0.00190536
0.6,9.9,0,0.00184963
0.6,10,0,0.00179391
0.6,10.1,0,0.00173818
0.6,10.2,0,0.00168167
0.6,10.3,0,0.00162251
0.6,10.4,0,0.00156145
0.6,10.5,0,0.00150039
0.6,10.6,0,0.00143932
0.6,10.7,0,0.00137736
0.6,10.8,0,0.00131352
0.6,10.9,0,0.00124872
0.6,11,0,0.00118391
0.6,11.1,0,0.0011191
0.6,11.2,0,0.00105305
0.6,11.3,0,0.000985167
0.6,11.4,0,0.000916533
0.6,11.5,0,0.000847899
0.6,11.6,0,0.000779265
0.6,11.7,0,0.000710513
0.6,11.8,0,0.000640575
0.6,11.9,0,0.000570281
0.6,12,0,0.000499988
0.6,12.1,0,0.000429694
0.6,12.2,0,0.000358516
0.6,12.3,0,0.00028599
0.6,12.4,0,0.000214286
0.6,12.5,0,0.000142857
0.6,12.6,0,7.14287e-05
0.6,12.7,0,0
0.7,0,0,0
0.7,0.1,0,6.9935e-05
0.7,0.2,0,0.000139871
0.7,0.3,0,0.000209847
0.7,0.4,0,0.000279822
0.7,0.5,0,0.000349759
0.7,0.6,0,0.000419366
0.7,0.7,0,0.000488702
0.7,0.8,0,0.00055658
0.7,0.9,0,0.000624458
0.7,1,0,0.000692341
0.7,1.1,0,0.00076024
0.7,1.2,0,0.000827673
0.7,1.3,0,0.000893783
0.7,1.4,0,0.000959892
0.7,1.5,0,0.0010258
0.7,1.6,0,0.00109129
0.7,1.7,0,0.00115599
0.7,1.8,0,0.00121948
0.7,1.9,0,0.00128297
0.7,2,0,0.00134485
0.7,2.1,0,0.00140486
0.7,2.2,0,0.00146487
0.7,2.3,0,0.00152554
0.7,2.4,0,0.00158679
0.7,2.5,0,0.00164474
0.7,2.6,0,0.00170027
0.7,2.7,0,0.0017558
0.7,2.8,0,0.00181209
0.7,2.9,0,0.00186879
0.7,3,0,0.00192102
0.7,3.1,0,0.00197125
0.7,3.2,0,0.00202148
0.7,3.3,0,0.00207254
0.7,3.4,0,0.00212385
0.7,3.5,0,0.00216938
0.7,3.6,0,0.00221354
0.7,3.7,0,0.00225769
0.7,3.8,0,0.00230275
0.7,3.9,0,0.00234793
0.7,4,0,0.00238594
0.7,4.1,0,0.00242335
0.7,4.2,0,0.00246077
0.7,4.3,0,0.00249908
0.7,4.4,0,0.00253709
0.7,4.5,0,0.00256715
0.7,4.6,0,0.00259721
0.7,4.7,0,0.00262735
0.7,4.8,0,0.00265817
0.7,4.9,0,0.00268767
0.7,5,0,0.00270986
0.7,5.1,0,0.00273205
0.7,5.2,0,0.00275437
0.7,5.3,0,0.00277716
0.7,5.4,0,0.00279756
0.7,5.5,0,0.00281147
0.7,5.6,0,0.00282538
0.7,5.7,0,0.00283943
0.7,5.8,0,0.00285376
0.7,5.9,0,0.00286463
0.7,6,0,0.00286999
0.7,6.1,0,0.00287534
0.7,6.2,0,0.00288079
0.7,6.3,0,0.00288635
0.7,6.4,0,0.00288746
0.7,6.5,0,0.00288413
0.7,6.6,0,0.0028808
0.7,6.7,0,0.00287745
0.7,6.8,0,0.00287408
0.7,6.9,0,0.00286541
0.7,7,0,0.00285343
0.7,7.1,0,0.00284145
0.7,7.2,0,0.00282928
0.7,7.3,0,0.00281702
0.7,7.4,0,0.00279877
0.7,7.5,0,0.00277832
0.7,7.6,0,0.00275787
0.7,7.7,0,0.00273704
0.7,7.8,0,0.00271612
0.7,7.9,0,0.00268868
0.7,8,0,0.00266005
0.7,8.1,0,0.00263141
0.7,8.2,0,0.00260217
0.7,8.3,0,0.00257286
0.7,8.4,0,0.00253676
0.7,8.5,0,0.00250039
0.7,8.6,0,0.00246399
0.7,8.7,0,0.00242663
0.7,8.8,0,0.00238879
0.7,8.9,0,0.00234529
0.7,9,0,0.00230179
0.7,9.1,0,0.0022581
0.7,9.2,0,0.00221335
0.7,9.3,0,0.00216759
0.7,9.4,0,0.00211759
0.7,9.5,0,0.00206759
0.7,9.6,0,0.00201721
0.7,9.7,0,0.00196573
0.7,9.8,0,0.00191294
0.7,9.9,0,0.00185721
0.7,10,0,0.00180149
0.7,10.1,0,0.00174502
0.7,10.2,0,0.00168731
0.7,10.3,0,0.00162813
0.7,10.4,0,0.00156707
0.7,10.5,0,0.00150601
0.7,10.6,0,0.00144407
0.7,10.7,0,0.00138149
0.7,10.8,0,0.00131764
0.7,10.9,0,0.00125283
0.7,11,0,0.00118803
0.7,11.1,0,0.00112195
0.7,11.2,0,0.00105544
0.7,11.3,0,0.000987522
0.7,11.4,0,0.000918888
0.7,11.5,0,0.000850254
0.7,11.6,0,0.000781499
0.7,11.7,0,0.000712738
0.7,11.8,0,0.000642791
0.7,11.9,0,0.000572497
0.7,12,0,0.000502195
0.7,12.1,0,0.000431002
0.7,12.2,0,0.000359809
0.7,12.3,0,0.000287277
0.7,12.4,0,0.000214554
0.7,12.5,0,0.000142857
0.7,12.6,0,7.14287e-05
0.7,12.7,0,0
0.8,0,0,0
0.8,0.1,0,6.9935e-05
0.8,0.2,0,0.00013987
0.8,0.3,0,0.000209807
0.8,0.4,0,0.000279783
0.8,0.5,0,0.000349726
0.8,0.6,0,0.000419333
0.8,0.7,0,0.00048894
0.8,0.8,0,0.000558255
0.8,0.9,0,0.000626132
0.8,1,0,0.000694014
0.8,1.1,0,0.000761914
0.8,1.2,0,0.000829813
0.8,1.3,0,0.00089722
0.8,1.4,0,0.000963329
0.8,1.5,0,0.00102924
0.8,1.6,0,0.00109474
0.8,1.7,0,0.00116023
0.8,1.8,0,0.00122488
0.8,1.9,0,0.00128837
0.8,2,0,0.00135024
0.8,2.1,0,0.00141025
0.8,2.2,0,0.00147089
0.8,2.3,0,0.00153214
0.8,2.4,0,0.00159339
0.8,2.5,0,0.00165134
0.8,2.6,0,0.00170687
0.8,2.7,0,0.00176313
0.8,2.8,0,0.00181983
0.8,2.9,0,0.00187654
0.8,3,0,0.00192876
0.8,3.1,0,0.00197899
0.8,3.2,0,0.00203003
0.8,3.3,0,0.00208134
0.8,3.4,0,0.00213266
0.8,3.5,0,0.00217819
0.8,3.6,0,0.00222234
0.8,3.7,0,0.00226737
0.8,3.8,0,0.00231256
0.8,3.9,0,0.00235774
0.8,4,0,0.00239575
0.8,4.1,0,0.00243316
0.8,4.2,0,0.00247146
0.8,4.3,0,0.00250978
0.8,4.4,0,0.00254779
0.8,4.5,0,0.00257785
0.8,4.6,0,0.00260797
0.8,4.7,0,0.00263879
0.8,4.8,0,0.00266962
0.8,4.9,0,0.00269912
0.8,5,0,0.0027213
0.8,5.1,0,0.00274361
0.8,5.2,0,0.0027664
0.8,5.3,0,0.00278919
0.8,5.4,0,0.00280959
0.8,5.5,0,0.0028235
0.8,5.6,0,0.00283754
0.8,5.7,0,0.00285187
0.8,5.8,0,0.00286619
0.8,5.9,0,0.00287707
0.8,6,0,0.00288243
0.8,6.1,0,0.00288787
0.8,6.2,0,0.00289342
0.8,6.3,0,0.00289898
0.8,6.4,0,0.00290009
0.8,6.5,0,0.00289676
0.8,6.6,0,0.00289341
0.8,6.7,0,0.00289005
0.8,6.8,0,0.00288668
0.8,6.9,0,0.00287801
0.8,7,0,0.00286603
0.8,7.1,0,0.00285386
0.8,7.2,0,0.0028416
0.8,7.3,0,0.00282935
0.8,7.4,0,0.0028111
0.8,7.5,0,0.00279065
0.8,7.6,0,0.00276983
0.8,7.7,0,0.00274891
0.8,7.8,0,0.00272799
0.8,7.9,0,0.00270055
0.8,8,0,0.00267192
0.8,8.1,0,0.00264268
0.8,8.2,0,0.00261338
0.8,8.3,0,0.00258407
0.8,8.4,0,0.00254797
0.8,8.5,0,0.00251159
0.8,8.6,0,0.00247423
0.8,8.7,0,0.00243687
0.8,8.8,0,0.00239904
0.8,8.9,0,0.00235554
0.8,9,0,0.00231188
0.8,9.1,0,0.00226713
0.8,9.2,0,0.00222238
0.8,9.3,0,0.00217661
0.8,9.4,0,0.00212662
0.8,9.5,0,0.00207626
0.8,9.6,0,0.00202478
0.8,9.7,0,0.00197331
0.8,9.8,0,0.00192052
0.8,9.9,0,0.00186479
0.8,10,0,0.00180837
0.8,10.1,0,0.00175066
0.8,10.2,0,0.00169296
0.8,10.3,0,0.00163375
0.8,10.4,0,0.00157269
0.8,10.5,0,0.00151077
0.8,10.6,0,0.0014482
0.8,10.7,0,0.00138562
0.8,10.8,0,0.00132176
0.8,10.9,0,0.00125695
0.8,11,0,0.00119086
0.8,11.1,0,0.00112435
0.8,11.2,0,0.00105784
0.8,11.3,0,0.000989876
0.8,11.4,0,0.000921243
0.8,11.5,0,0.000852485
0.8,11.6,0,0.000783724
0.8,11.7,0,0.000714963
0.8,11.8,0,0.000645007
0.8,11.9,0,0.000574681
0.8,12,0,0.000503487
0.8,12.1,0,0.000432294
0.8,12.2,0,0.000361101
0.8,12.3,0,0.000288564
0.8,12.4,0,0.000215841
0.8,12.5,0,0.000143119
0.8,12.6,0,7.14287e-05
0.8,12.7,0,0
0.9,0,0,0
0.9,0.1,0,6.9935e-05
0.9,0.2,0,0.00013987
0.9,0.3,0,0.000209805
0.9,0.4,0,0.000279743
0.9,0.5,0,0.000349693
0.9,0.6,0,0.0004193
0.9,0.7,0,0.000488907
0.9,0.8,0,0.000558514
0.9,0.9,0,0.000627807
0.9,1,0,0.000695688
0.9,1.1,0,0.000763588
0.9,1.2,0,0.000831487
0.9,1.3,0,0.000899387
0.9,1.4,0,0.000966766
0.9,1.5,0,0.00103269
0.9,1.6,0,0.00109818
0.9,1.7,0,0.00116367
0.9,1.8,0,0.00122916
0.9,1.9,0,0.00129376
0.9,2,0,0.00135563
0.9,2.1,0,0.00141625
0.9,2.2,0,0.00147749
0.9,2.3,0,0.00153874
0.9,2.4,0,0.00159998
0.9,2.5,0,0.00165793
0.9,2.6,0,0.00171417
0.9,2.7,0,0.00177087
0.9,2.8,0,0.00182758
0.9,2.9,0,0.00188429
0.9,3,0,0.00193651
0.9,3.1,0,0.00198752
0.9,3.2,0,0.00203883
0.9,3.3,0,0.00209015
0.9,3.4,0,0.00214146
0.9,3.5,0,0.00218699
0.9,3.6,0,0.002232
0.9,3.7,0,0.00227718
0.9,3.8,0,0.00232236
0.9,3.9,0,0.00236755
0.9,4,0,0.00240556
0.9,4.1,0,0.00244383
0.9,4.2,0,0.00248215
0.9,4.3,0,0.00252048
0.9,4.4,0,0.00255848
0.9,4.5,0,0.00258859
0.9,4.6,0,0.00261941
0.9,4.7,0,0.00265024
0.9,4.8,0,0.00268106
0.9,4.9,0,0.00271056
0.9,5,0,0.00273286
0.9,5.1,0,0.00275564
0.9,5.2,0,0.00277843
0.9,5.3,0,0.00280122
0.9,5.4,0,0.00282162
0.9,5.5,0,0.00283566
0.9,5.6,0,0.00284998
0.9,5.7,0,0.00286431
0.9,5.8,0,0.00287863
0.9,5.9,0,0.00288951
0.9,6,0,0.00289495
0.9,6.1,0,0.0029005
0.9,6.2,0,0.00290606
0.9,6.3,0,0.00291161
0.9,6.4,0,0.00291273
0.9,6.5,0,0.00290938
0.9,6.6,0,0.00290601
0.9,6.7,0,0.00290264
0.9,6.8,0,0.00289927
0.9,6.9,0,0.0028906
0.9,7,0,0.00287845
0.9,7.1,0,0.00286619
0.9,7.2,0,0.00285393
0.9,7.3,0,0.00284167
0.9,7.4,0,0.00282343
0.9,7.5,0,0.00280262
0.9,7.6,0,0.0027817
0.9,7.7,0,0.00276078
0.9,7.8,0,0.00273986
0.9,7.9,0,0.00271242
0.9,8,0,0.0026832
0.9,8.1,0,0.0026539
0.9,8.2,0,0.00262459
0.9,8.3,0,0.00259529
0.9,8.4,0,0.00255919
0.9,8.5,0,0.00252184
0.9,8.6,0,0.00248448
0.9,8.7,0,0.00244712
0.9,8.8,0,0.00240929
0.9,8.9,0,0.00236566
0.9,9,0,0.00232091
0.9,9.1,0,0.00227615
0.9,9.2,0,0.0022314
0.9,9.3,0,0.00218564
0.9,9.4,0,0.00213532
0.9,9.5,0,0.00208384
0.9,9.6,0,0.00203236
0.9,9.7,0,0.00198088
0.9,9.8,0,0.0019281
0.9,9.9,0,0.00187172
0.9,10,0,0.00181401
0.9,10.1,0,0.00175631
0.9,10.2,0,0.0016986
0.9,10.3,0,0.00163937
0.9,10.4,0,0.00157748
0.9,10.5,0,0.0015149
0.9,10.6,0,0.00145233
0.9,10.7,0,0.00138975
0.9,10.8,0,0.00132587
0.9,10.9,0,0.00125976
0.9,11,0,0.00119325
0.9,11.1,0,0.00112674
0.9,11.2,0,0.00106023
0.9,11.3,0,0.000992231
0.9,11.4,0,0.000923472
0.9,11.5,0,0.000854711
0.9,11.6,0,0.000785949
0.9,11.7,0,0.000717188
0.9,11.8,0,0.000647166
0.9,11.9,0,0.000575973
0.9,12,0,0.00050478
0.9,12.1,0,0.000433586
0.9,12.2,0,0.000362393
0.9,12.3,0,0.000289851
0.9,12.4,0,0.000217128
0.9,12.5,0,0.000144406
0.9,12.6,0,7.16832e-05
0.9,12.7,0,0
1,0,0,0
1,0.1,0,6.9935e-05
1,0.2,0,0.00013987
1,0.3,0,0.000209805
1,0.4,0,0.00027974
1,0.5,0,0.000349661
1,0.6,0,0.000419268
1,0.7,0,0.000488875
1,0.8,0,0.000558482
1,0.9,0,0.000628089
1,1,0,0.000697362
1,1.1,0,0.000765262
1,1.2,0,0.000833161
1,1.3,0,0.000901061
1,1.4,0,0.00096896
1,1.5,0,0.00103613
1,1.6,0,0.00110162
1,1.7,0,0.00116711
1,1.8,0,0.00123261
1,1.9,0,0.0012981
1,2,0,0.0013616
1,2.1,0,0.00142284
1,2.2,0,0.00148409
1,2.3,0,0.00154534
1,2.4,0,0.00160658
1,2.5,0,0.00166521
1,2.6,0,0.00172192
1,2.7,0,0.00177862
1,2.8,0,0.00183533
1,2.9,0,0.00189203
1,3,0,0.00194501
1,3.1,0,0.00199632
1,3.2,0,0.00204764
1,3.3,0,0.00209895
1,3.4,0,0.00215027
1,3.5,0,0.00219663
1,3.6,0,0.00224181
1,3.7,0,0.00228699
1,3.8,0,0.00233217
1,3.9,0,0.00237735
1,4,0,0.00241621
1,4.1,0,0.00245453
1,4.2,0,0.00249285
1,4.3,0,0.00253118
1,4.4,0,0.00256921
1,4.5,0,0.00260004
1,4.6,0,0.00263086
1,4.7,0,0.00266169
1,4.8,0,0.00269251
1,4.9,0,0.0027221
1,5,0,0.00274489
1,5.1,0,0.00276768
1,5.2,0,0.00279047
1,5.3,0,0.00281326
1,5.4,0,0.00283377
1,5.5,0,0.00284809
1,5.6,0,0.00286242
1,5.7,0,0.00287674
1,5.8,0,0.00289107
1,5.9,0,0.00290202
1,6,0,0.00290758
1,6.1,0,0.00291313
1,6.2,0,0.00291869
1,6.3,0,0.00292425
1,6.4,0,0.00292534
1,6.5,0,0.00292197
1,6.6,0,0.00291861
1,6.7,0,0.00291524
1,6.8,0,0.00291187
1,6.9,0,0.00290303
1,7,0,0.00289077
1,7.1,0,0.00287852
1,7.2,0,0.00286626
1,7.3,0,0.002854
1,7.4,0,0.00283541
1,7.5,0,0.00281449
1,7.6,0,0.00279357
1,7.7,0,0.00277265
1,7.8,0,0.00275173
1,7.9,0,0.00272372
1,8,0,0.00269441
1,8.1,0,0.00266511
1,8.2,0,0.0026358
1,8.3,0,0.0026065
1,8.4,0,0.00256945
1,8.5,0,0.00253209
1,8.6,0,0.00249473
1,8.7,0,0.00245736
1,8.8,0,0.00241944
1,8.9,0,0.00237468
1,9,0,0.00232993
1,9.1,0,0.00228518
1,9.2,0,0.00224043
1,9.3,0,0.00219438
1,9.4,0,0.0021429
1,9.5,0,0.00209142
1,9.6,0,0.00203994
1,9.7,0,0.00198846
1,9.8,0,0.0019351
1,9.9,0,0.0018775
1,10,0,0.00181991
1,10.1,0,0.00176231
1,10.2,0,0.00170471
1,10.3,0,0.00164471
1,10.4,0,0.00158229
1,10.5,0,0.00151986
1,10.6,0,0.00145744
1,10.7,0,0.00139501
1,10.8,0,0.00132986
1,10.9,0,0.00126347
1,11,0,0.00119709
1,11.1,0,0.0011307
1,11.2,0,0.00106432
1,11.3,0,0.000995714
1,11.4,0,0.000926963
1,11.5,0,0.000858211
1,11.6,0,0.000789459
1,11.7,0,0.000720504
1,11.8,0,0.000649269
1,11.9,0,0.000578029
1,12,0,0.000506789
1,12.1,0,0.00043555
1,12.2,0,0.000364053
1,12.3,0,0.000290868
1,12.4,0,0.000218151
1,12.5,0,0.000145434
1,12.6,0,7.2717e-05
1,12.7,0,0
1.1,0,0,0
1.1,0.1,0,7.17886e-05
1.1,0.2,0,0.000141708
1.1,0.3,0,0.000211628
1.1,0.4,0,0.000281547
1.1,0.5,0,0.000351523
1.1,0.6,0,0.00042282
1.1,0.7,0,0.000492428
1.1,0.8,0,0.000562035
1.1,0.9,0,0.000631642
1.1,1,0,0.000701532
1.1,1.1,0,0.000772438
1.1,1.2,0,0.000840374
1.1,1.3,0,0.00090831
1.1,1.4,0,0.000976246
1.1,1.5,0,0.00104399
1.1,1.6,0,0.00111066
1.1,1.7,0,0.00117616
1.1,1.8,0,0.00124166
1.1,1.9,0,0.00130716
1.1,2,0,0.00137068
1.1,2.1,0,0.00143193
1.1,2.2,0,0.00149318
1.1,2.3,0,0.00155442
1.1,2.4,0,0.00161711
1.1,2.5,0,0.00167673
1.1,2.6,0,0.00173344
1.1,2.7,0,0.00179014
1.1,2.8,0,0.00184685
1.1,2.9,0,0.00190458
1.1,3,0,0.00195801
1.1,3.1,0,0.00200933
1.1,3.2,0,0.00206064
1.1,3.3,0,0.00211196
1.1,3.4,0,0.00216486
1.1,3.5,0,0.0022116
1.1,3.6,0,0.00225678
1.1,3.7,0,0.00230197
1.1,3.8,0,0.00234715
1.1,3.9,0,0.00239397
1.1,4,0,0.00243296