x,y,z,U_0,U_1,U_2
0,0,0,0.3,-0.000451898,0
0,0.1,0,0.3,-0.000271139,0
0,0.2,0,0.3,-9.03797e-05,0
0,0.3,0,0.3,0,0
0,0.4,0,0.3,0,0
0,0.5,0,0.3,0,0
0,0.6,0,0.3,0,0
0,0.7,0,0.3,0,0
0,0.8,0,0.3,0,0
0,0.9,0,0.3,0,0
0,1,0,0.3,0,0
0,1.1,0,0.3,0,0
0,1.2,0,0.3,0,0
0,1.3,0,0.3,0,0
0,1.4,0,0.3,0,0
0,1.5,0,0.3,0,0
0,1.6,0,0.3,0,0
0,1.7,0,0.3,0,0
0,1.8,0,0.3,0,0
0,1.9,0,0.3,0,0
0,2,0,0.3,0,0
0,2.1,0,0.3,0,0
0,2.2,0,0.3,0,0
0,2.3,0,0.3,0,0
0,2.4,0,0.3,0,0
0,2.5,0,0.3,0,0
0,2.6,0,0.3,0,0
0,2.7,0,0.3,0,0
0,2.8,0,0.3,0,0
0,2.9,0,0.3,0,0
0,3,0,0.3,0,0
0,3.1,0,0.3,0,0
0,3.2,0,0.3,0,0
0,3.3,0,0.3,0,0
0,3.4,0,0.3,0,0
0,3.5,0,0.3,2.75487e-19,0
0,3.6,0,0.3,0,0
0,3.7,0,0.3,0,0
0,3.8,0,0.3,0,0
0,3.9,0,0.3,0,0
0,4,0,0.3,2.27116e-19,0
0,4.1,0,0.3,0,0
0,4.2,0,0.3,0,0
0,4.3,0,0.3,0,0
0,4.4,0,0.3,0,0
0,4.5,0,0.3,0,0
0,4.6,0,0.3,0,0
0,4.7,0,0.3,0,0
0,4.8,0,0.3,0,0
0,4.9,0,0.3,0,0
0,5,0,0.3,0,0
0,5.1,0,0.3,9.73298e-20,0
0,5.2,0,0.3,0,0
0,5.3,0,0.3,7.16392e-20,0
0,5.4,0,0.3,5.87272e-20,0
0,5.5,0,0.3,0,0
0,5.6,0,0.3,3.28677e-20,0
0,5.7,0,0.3,1.99678e-20,0
0,5.8,0,0.3,7.10971e-21,0
0,5.9,0,0.3,-5.68447e-21,0
0,6,0,0.3,0,0
0,6.1,0,0.3,0,0
0,6.2,0,0.3,0,0
0,6.3,0,0.3,0,0
0,6.4,0,0.3,0,0
0,6.5,0,0.3,0,0
0,6.6,0,0.3,0,0
0,6.7,0,0.3,0,0
0,6.8,0,0.3,0,0
0,6.9,0,0.3,0,0
0,7,0,0.3,0,0
0,7.1,0,0.3,0,0
0,7.2,0,0.3,0,0
0,7.3,0,0.3,0,0
0,7.4,0,0.3,0,0
0,7.5,0,0.3,0,0
0,7.6,0,0.3,0,0
0,7.7,0,0.3,0,0
0,7.8,0,0.3,0,0
0,7.9,0,0.3,0,0
0,8,0,0.3,0,0
0,8.1,0,0.3,0,0
0,8.2,0,0.3,0,0
0,8.3,0,0.3,0,0
0,8.4,0,0.3,0,0
0,8.5,0,0.3,0,0
0,8.6,0,0.3,0,0
0,8.7,0,0.3,0,0
0,8.8,0,0.3,0,0
0,8.9,0,0.3,0,0
0,9,0,0.3,0,0
0,9.1,0,0.3,0,0
0,9.2,0,0.3,0,0
0,9.3,0,0.3,0,0
0,9.4,0,0.3,0,0
0,9.5,0,0.3,0,0
0,9.6,0,0.3,0,0
0,9.7,0,0.3,0,0
0,9.8,0,0.3,0,0
0,9.9,0,0.3,0,0
0,10,0,0.3,0,0
0,10.1,0,0.3,0,0
0,10.2,0,0.3,0,0
0,10.3,0,0.3,0,0
0,10.4,0,0.3,0,0
0,10.5,0,0.3,0,0
0,10.6,0,0.3,0,0
0,10.7,0,0.3,0,0
0,10.8,0,0.3,0,0
0,10.9,0,0.3,0,0
0,11,0,0.3,0,0
0,11.1,0,0.3,0,0
0,11.2,0,0.3,0,0
0,11.3,0,0.3,0,0
0,11.4,0,0.3,0,0
0,11.5,0,0.3,0,0
0,11.6,0,0.3,0,0
0,11.7,0,0.3,0,0
0,11.8,0,0.3,0,0
0,11.9,0,0.3,0,0
0,12,0,0.3,0,0
0,12.1,0,0.3,0,0
0,12.2,0,0.3,0,0
0,12.3,0,0.3,0,0
0,12.4,0,0.3,3.65093e-05,0
0,12.5,0,0.3,0.000140821,0
0,12.6,0,0.3,0.000245134,0
0,12.7,0,0.3,0.000349446,0
0.1,0,0,0.299999,-0.000847848,0
0.1,0.1,0,0.3,-0.000665671,0
0.1,0.2,0,0.3,-0.000523866,0
0.1,0.3,0,0.3,-0.000522911,0
0.1,0.4,0,0.3,-0.000522282,0
0.1,0.5,0,0.299998,-0.000522329,0
0.1,0.6,0,0.299999,-0.000519519,0
0.1,0.7,0,0.299999,-0.000519329,0
0.1,0.8,0,0.299999,-0.000516378,0
0.1,0.9,0,0.299999,-0.000515303,0
0.1,1,0,0.299996,-0.000513978,0
0.1,1.1,0,0.299999,-0.000509558,0
0.1,1.2,0,0.299998,-0.000508944,0
0.1,1.3,0,0.299998,-0.000503766,0
0.1,1.4,0,0.299999,-0.000502161,0
0.1,1.5,0,0.299993,-0.00049935,0
0.1,1.6,0,0.299999,-0.000492966,0
0.1,1.7,0,0.299997,-0.00049188,0
0.1,1.8,0,0.299996,-0.000484072,0
0.1,1.9,0,0.299998,-0.000481812,0
0.1,2,0,0.29999,-0.000477332,0
0.1,2.1,0,0.299998,-0.000468539,0
0.1,2.2,0,0.299995,-0.00046692,0
0.1,2.3,0,0.299995,-0.00045604,0
0.1,2.4,0,0.299998,-0.000452997,0
0.1,2.5,0,0.299987,-0.000446609,0
0.1,2.6,0,0.299998,-0.000435055,0
0.1,2.7,0,0.299994,-0.000432814,0
0.1,2.8,0,0.299993,-0.000418508,0
0.1,2.9,0,0.299997,-0.000414618,0
0.1,3,0,0.299983,-0.000405937,0
0.1,3.1,0,0.299997,-0.000391628,0
0.1,3.2,0,0.299992,-0.000388614,0
0.1,3.3,0,0.299992,-0.000370719,0
0.1,3.4,0,0.299997,-0.000366064,0
0.1,3.5,0,0.299979,-0.000354481,0
0.1,3.6,0,0.299998,-0.000337941,0
0.1,3.7,0,0.299991,-0.000333958,0
0.1,3.8,0,0.299992,-0.000312518,0
0.1,3.9,0,0.299998,-0.000307312,0
0.1,4,0,0.299975,-0.00029224,0
0.1,4.1,0,0.299999,-0.000274286,0
0.1,4.2,0,0.299991,-0.000269217,0
0.1,4.3,0,0.299992,-0.000244557,0
0.1,4.4,0,0.300001,-0.000239058,0
0.1,4.5,0,0.299971,-0.00022038,0
0.1,4.6,0,0.300002,-0.000202053,0
0.1,4.7,0,0.299992,-0.000195921,0
0.1,4.8,0,0.299993,-0.000169233,0
0.1,4.9,0,0.300003,-0.000163929,0
0.1,5,0,0.299969,-0.000147495,0
0.1,5.1,0,0.299969,-0.000125238,0
0.1,5.2,0,0.299969,-0.000108747,0
0.1,5.3,0,0.299969,-9.21812e-05,0
0.1,5.4,0,0.299969,-7.55669e-05,0
0.1,5.5,0,0.299969,-5.89268e-05,0
0.1,5.6,0,0.299969,-4.22923e-05,0
0.1,5.7,0,0.299969,-2.56934e-05,0
0.1,5.8,0,0.299969,-9.14836e-06,0
0.1,5.9,0,0.299969,7.31445e-06,0
0.1,6,0,0.299969,3.26497e-05,0
0.1,6.1,0,0.300002,5.3447e-05,0
0.1,6.2,0,0.300002,5.3447e-05,0
0.1,6.3,0,0.299982,6.80542e-05,0
0.1,6.4,0,0.299991,9.44583e-05,0
0.1,6.5,0,0.300001,0.000102956,0
0.1,6.6,0,0.299993,0.000109328,0
0.1,6.7,0,0.299981,0.00013403,0
0.1,6.8,0,0.299999,0.000150145,0
0.1,6.9,0,0.299999,0.000150145,0
0.1,7,0,0.299976,0.000171856,0
0.1,7.1,0,0.299998,0.000193348,0
0.1,7.2,0,0.299998,0.000193501,0
0.1,7.3,0,0.299986,0.000205958,0
0.1,7.4,0,0.29999,0.00022592,0
0.1,7.5,0,0.299998,0.000232479,0
0.1,7.6,0,0.299994,0.000236673,0
0.1,7.7,0,0.299985,0.000255754,0
0.1,7.8,0,0.299998,0.000266777,0
0.1,7.9,0,0.299998,0.000266777,0
0.1,8,0,0.299985,0.000282014,0
0.1,8.1,0,0.299997,0.000295532,0
0.1,8.2,0,0.299998,0.000296278,0
0.1,8.3,0,0.299992,0.000303973,0
0.1,8.4,0,0.299993,0.000316694,0
0.1,8.5,0,0.299998,0.000321057,0
0.1,8.6,0,0.299997,0.000323042,0
0.1,8.7,0,0.299991,0.000334865,0
0.1,8.8,0,0.299998,0.000341367,0
0.1,8.9,0,0.299998,0.000341367,0
0.1,9,0,0.299992,0.000349677,0
0.1,9.1,0,0.299998,0.000356887,0
0.1,9.2,0,0.299999,0.000357601,0
0.1,9.3,0,0.299996,0.00036137,0
0.1,9.4,0,0.299996,0.000367973,0
0.1,9.5,0,0.299999,0.000370242,0
0.1,9.6,0,0.299998,0.000370939,0
0.1,9.7,0,0.299996,0.000376993,0
0.1,9.8,0,0.299999,0.000379818,0
0.1,9.9,0,0.299999,0.000379818,0
0.1,10,0,0.299997,0.000383659,0
0.1,10.1,0,0.299999,0.000386498,0
0.1,10.2,0,0.299999,0.000386857,0
0.1,10.3,0,0.299999,0.000388455,0
0.1,10.4,0,0.299998,0.000391198,0
0.1,10.5,0,0.299999,0.000391856,0
0.1,10.6,0,0.299999,0.000392029,0
0.1,10.7,0,0.299998,0.000394813,0
0.1,10.8,0,0.3,0.000395273,0
0.1,10.9,0,0.3,0.000395273,0
0.1,11,0,0.299999,0.000396944,0
0.1,11.1,0,0.3,0.000397511,0
0.1,11.2,0,0.3,0.000397504,0
0.1,11.3,0,0.3,0.000398175,0
0.1,11.4,0,0.3,0.000399129,0
0.1,11.5,0,0.3,0.000398886,0
0.1,11.6,0,0.3,0.000398897,0
0.1,11.7,0,0.3,0.000400331,0
0.1,11.8,0,0.3,0.000399688,0
0.1,11.9,0,0.3,0.000399688,0
0.1,12,0,0.3,0.000400561,0
0.1,12.1,0,0.3,0.000400338,0
0.1,12.2,0,0.3,0.00040011,0
0.1,12.3,0,0.3,0.000400475,0
0.1,12.4,0,0.3,0.000400896,0
0.1,12.5,0,0.3,0.000441267,0
0.1,12.6,0,0.3,0.000545579,0
0.1,12.7,0,0.3,0.000650936,0
0.2,0,0,0.299999,-0.0012438,0
0.2,0.1,0,0.3,-0.00106105,0
0.2,0.2,0,0.299999,-0.00104824,0
0.2,0.3,0,0.299999,-0.00104729,0
0.2,0.4,0,0.299999,-0.00104459,0
0.2,0.5,0,0.299996,-0.00104466,0
0.2,0.6,0,0.299998,-0.00104072,0
0.2,0.7,0,0.299996,-0.00103821,0
0.2,0.8,0,0.299996,-0.00103526,0
0.2,0.9,0,0.299997,-0.00102981,0
0.2,1,0,0.299992,-0.00102796,0
0.2,1.1,0,0.299997,-0.00102177,0
0.2,1.2,0,0.299993,-0.00101645,0
0.2,1.3,0,0.299992,-0.00101128,0
0.2,1.4,0,0.299994,-0.00100264,0
0.2,1.5,0,0.299987,-0.0009987,0
0.2,1.6,0,0.299994,-0.000989762,0
0.2,1.7,0,0.299989,-0.000981225,0
0.2,1.8,0,0.299988,-0.000973417,0
0.2,1.9,0,0.299992,-0.000960936,0
0.2,2,0,0.299981,-0.000954664,0
0.2,2.1,0,0.299992,-0.000942354,0
0.2,2.2,0,0.299984,-0.000930061,0
0.2,2.3,0,0.299984,-0.000919181,0
0.2,2.4,0,0.299989,-0.00090216,0
0.2,2.5,0,0.299974,-0.000893217,0
0.2,2.6,0,0.299989,-0.000877043,0
0.2,2.7,0,0.299979,-0.000860396,0
0.2,2.8,0,0.299978,-0.00084609,0
0.2,2.9,0,0.299986,-0.000824028,0
0.2,3,0,0.299966,-0.000811873,0
0.2,3.1,0,0.299986,-0.000791841,0
0.2,3.2,0,0.299973,-0.000770196,0
0.2,3.3,0,0.299973,-0.000752301,0
0.2,3.4,0,0.299983,-0.000725178,0
0.2,3.5,0,0.299958,-0.000708963,0
0.2,3.6,0,0.299984,-0.000685806,0
0.2,3.7,0,0.299968,-0.000658623,0
0.2,3.8,0,0.299969,-0.000637183,0
0.2,3.9,0,0.299982,-0.000605581,0
0.2,4,0,0.299949,-0.000584481,0
0.2,4.1,0,0.299984,-0.000559344,0
0.2,4.2,0,0.299964,-0.000526607,0
0.2,4.3,0,0.299965,-0.000501947,0
0.2,4.4,0,0.299984,-0.000466909,0
0.2,4.5,0,0.299942,-0.000440759,0
0.2,4.6,0,0.299985,-0.000415102,0
0.2,4.7,0,0.299962,-0.000377532,0
0.2,4.8,0,0.299963,-0.000350845,0
0.2,4.9,0,0.299985,-0.000317997,0
0.2,5,0,0.299938,-0.000294989,0
0.2,5.1,0,0.299938,-0.000250477,0
0.2,5.2,0,0.299937,-0.000217494,0
0.2,5.3,0,0.299937,-0.000184362,0
0.2,5.4,0,0.299937,-0.000151134,0
0.2,5.5,0,0.299937,-0.000117854,0
0.2,5.6,0,0.299937,-8.45846e-05,0
0.2,5.7,0,0.299937,-5.13869e-05,0
0.2,5.8,0,0.299938,-1.82967e-05,0
0.2,5.9,0,0.299938,1.46289e-05,0
0.2,6,0,0.299939,6.52994e-05,0
0.2,6.1,0,0.299973,8.70279e-05,0
0.2,6.2,0,0.299985,0.00012047,0
0.2,6.3,0,0.299952,0.000144529,0
0.2,6.4,0,0.299961,0.000170933,0
0.2,6.5,0,0.299987,0.00020391,0
0.2,6.6,0,0.299966,0.000236001,0
0.2,6.7,0,0.299954,0.000260703,0
0.2,6.8,0,0.299982,0.000285226,0
0.2,6.9,0,0.299977,0.000320974,0
0.2,7,0,0.299952,0.000344908,0
0.2,7.1,0,0.299973,0.0003664,0
0.2,7.2,0,0.299986,0.000398501,0
0.2,7.3,0,0.299964,0.000420861,0
0.2,7.4,0,0.299968,0.000440823,0
0.2,7.5,0,0.299986,0.000462512,0
0.2,7.6,0,0.299975,0.00048853,0
0.2,7.7,0,0.299966,0.000507611,0
0.2,7.8,0,0.299984,0.000523198,0
0.2,7.9,0,0.299983,0.000548029,0
0.2,8,0,0.299969,0.000565806,0
0.2,8.1,0,0.299981,0.000579324,0
0.2,8.2,0,0.29999,0.000599414,0
0.2,8.3,0,0.299978,0.000614773,0
0.2,8.4,0,0.29998,0.000627495,0
0.2,8.5,0,0.299991,0.000639654,0
0.2,8.6,0,0.299986,0.000656189,0
0.2,8.7,0,0.29998,0.000668012,0
0.2,8.8,0,0.29999,0.0006766,0
0.2,8.9,0,0.299991,0.000690603,0
0.2,9,0,0.299983,0.000700899,0
0.2,9.1,0,0.299989,0.000708108,0
0.2,9.2,0,0.299995,0.000718188,0
0.2,9.3,0,0.299989,0.000726861,0
0.2,9.4,0,0.299989,0.000733465,0
0.2,9.5,0,0.299995,0.000738847,0
0.2,9.6,0,0.299993,0.000747408,0
0.2,9.7,0,0.29999,0.000753462,0
0.2,9.8,0,0.299995,0.000756962,0
0.2,9.9,0,0.299997,0.00076326,0
0.2,10,0,0.299993,0.000768333,0
0.2,10.1,0,0.299995,0.000771172,0
0.2,10.2,0,0.299998,0.000774882,0
0.2,10.3,0,0.299996,0.000779068,0
0.2,10.4,0,0.299996,0.000781811,0
0.2,10.5,0,0.299998,0.000783153,0
0.2,10.6,0,0.299998,0.000786789,0
0.2,10.7,0,0.299997,0.000789573,0
0.2,10.8,0,0.299999,0.000790109,0
0.2,10.9,0,0.299999,0.000792115,0
0.2,11,0,0.299998,0.000794479,0
0.2,11.1,0,0.299999,0.000795046,0
0.2,11.2,0,0.3,0.000795604,0
0.2,11.3,0,0.299999,0.000797478,0
0.2,11.4,0,0.299999,0.000798432,0
0.2,11.5,0,0.3,0.000797996,0
0.2,11.6,0,0.3,0.000799263,0
0.2,11.7,0,0.299999,0.000800698,0
0.2,11.8,0,0.3,0.000799989,0
0.2,11.9,0,0.3,0.000800192,0
0.2,12,0,0.3,0.00080152,0
0.2,12.1,0,0.3,0.000801297,0
0.2,12.2,0,0.3,0.000800724,0
0.2,12.3,0,0.3,0.000801722,0
0.2,12.4,0,0.3,0.000802143,0
0.2,12.5,0,0.3,0.00080114,0
0.2,12.6,0,0.3,0.000847022,0
0.2,12.7,0,0.3,0.000952426,0
0.3,0,0,0.299998,-0.00163975,0
0.3,0.1,0,0.299998,-0.00157386,0
0.3,0.2,0,0.299998,-0.00157291,0
0.3,0.3,0,0.299997,-0.00157168,0
0.3,0.4,0,0.299996,-0.00156881,0
0.3,0.5,0,0.299994,-0.00156699,0
0.3,0.6,0,0.299994,-0.00156248,0
0.3,0.7,0,0.299992,-0.00155766,0
0.3,0.8,0,0.299992,-0.00155388,0
0.3,0.9,0,0.29999,-0.00154701,0
0.3,1,0,0.299988,-0.00154193,0
0.3,1.1,0,0.299988,-0.0015339,0
0.3,1.2,0,0.299987,-0.00152485,0
0.3,1.3,0,0.299986,-0.00151823,0
0.3,1.4,0,0.299984,-0.0015068,0
0.3,1.5,0,0.29998,-0.00149805,0
0.3,1.6,0,0.299982,-0.00148585,0
0.3,1.7,0,0.29998,-0.00147185,0
0.3,1.8,0,0.299979,-0.00146187,0
0.3,1.9,0,0.299976,-0.00144505,0
0.3,2,0,0.299971,-0.001432,0
0.3,2.1,0,0.299973,-0.00141483,0
0.3,2.2,0,0.299971,-0.00139496,0
0.3,2.3,0,0.29997,-0.00138104,0
0.3,2.4,0,0.299968,-0.0013579,0
0.3,2.5,0,0.299961,-0.00133983,0
0.3,2.6,0,0.299964,-0.00131693,0
0.3,2.7,0,0.299962,-0.00129029,0
0.3,2.8,0,0.29996,-0.00127194,0
0.3,2.9,0,0.299958,-0.00124163,0
0.3,3,0,0.299949,-0.00121781,0
0.3,3.1,0,0.299954,-0.00118874,0
0.3,3.2,0,0.299951,-0.00115464,0
0.3,3.3,0,0.29995,-0.00113157,0
0.3,3.4,0,0.299948,-0.00109363,0
0.3,3.5,0,0.299937,-0.00106344,0
0.3,3.6,0,0.299944,-0.00102834,0
0.3,3.7,0,0.299941,-0.000986596,0
0.3,3.8,0,0.299941,-0.000958834,0
0.3,3.9,0,0.299938,-0.000913439,0
0.3,4,0,0.299924,-0.000876721,0
0.3,4.1,0,0.299935,-0.000836379,0
0.3,4.2,0,0.299932,-0.000787588,0
0.3,4.3,0,0.299932,-0.000755602,0
0.3,4.4,0,0.29993,-0.000703787,0
0.3,4.5,0,0.299914,-0.000661139,0
0.3,4.6,0,0.299928,-0.000617084,0
0.3,4.7,0,0.299926,-0.000562809,0
0.3,4.8,0,0.299926,-0.00052917,0
0.3,4.9,0,0.299925,-0.000481406,0
0.3,5,0,0.299907,-0.000442484,0
0.3,5.1,0,0.299906,-0.000375715,0
0.3,5.2,0,0.299906,-0.000326241,0
0.3,5.3,0,0.299906,-0.000276544,0
0.3,5.4,0,0.299906,-0.000226701,0
0.3,5.5,0,0.299906,-0.00017678,0
0.3,5.6,0,0.299906,-0.000126877,0
0.3,5.7,0,0.299906,-7.70803e-05,0
0.3,5.8,0,0.299907,-2.74451e-05,0
0.3,5.9,0,0.299907,2.19434e-05,0
0.3,6,0,0.299908,9.7949e-05,0
0.3,6.1,0,0.299925,0.000132223,0
0.3,6.2,0,0.299926,0.00017801,0
0.3,6.3,0,0.299923,0.000221004,0
0.3,6.4,0,0.299927,0.000251656,0
0.3,6.5,0,0.299929,0.000304102,0
0.3,6.6,0,0.299931,0.000356548,0
0.3,6.7,0,0.299926,0.000387377,0
0.3,6.8,0,0.299933,0.000431559,0
0.3,6.9,0,0.299936,0.000480014,0
0.3,7,0,0.299927,0.00051796,0
0.3,7.1,0,0.299938,0.000549994,0
0.3,7.2,0,0.299941,0.000593718,0
0.3,7.3,0,0.299942,0.000635763,0
0.3,7.4,0,0.299944,0.000658184,0
0.3,7.5,0,0.299947,0.000696793,0
0.3,7.6,0,0.29995,0.000735402,0
0.3,7.7,0,0.299947,0.000759468,0
0.3,7.8,0,0.299953,0.000788769,0
0.3,7.9,0,0.299956,0.000822134,0
0.3,8,0,0.299952,0.000849598,0
0.3,8.1,0,0.299959,0.00086951,0
0.3,8.2,0,0.299962,0.000897728,0
0.3,8.3,0,0.299964,0.000925573,0
0.3,8.4,0,0.299965,0.000939197,0
0.3,8.5,0,0.299968,0.000962545,0
0.3,8.6,0,0.29997,0.000985892,0
0.3,8.7,0,0.299969,0.00100116,0
0.3,8.8,0,0.299973,0.00101717,0
0.3,8.9,0,0.299975,0.00103606,0
0.3,9,0,0.299975,0.00105212,0
0.3,9.1,0,0.299978,0.00106239,0
0.3,9.2,0,0.29998,0.0010773,0
0.3,9.3,0,0.299982,0.00109221,0
0.3,9.4,0,0.299982,0.0010991,0
0.3,9.5,0,0.299984,0.00111056,0
0.3,9.6,0,0.299986,0.00112203,0
0.3,9.7,0,0.299985,0.00112993,0
0.3,9.8,0,0.299988,0.00113684,0
0.3,9.9,0,0.299989,0.00114541,0
0.3,10,0,0.29999,0.00115301,0
0.3,10.1,0,0.299991,0.00115711,0
0.3,10.2,0,0.299992,0.00116331,0
0.3,10.3,0,0.299993,0.00116952,0
0.3,10.4,0,0.299993,0.00117242,0
0.3,10.5,0,0.299994,0.00117667,0
0.3,10.6,0,0.299995,0.001181,0
0.3,10.7,0,0.299995,0.00118433,0
0.3,10.8,0,0.299996,0.00118634,0
0.3,10.9,0,0.299997,0.00118924,0
0.3,11,0,0.299997,0.00119201,0
0.3,11.1,0,0.299997,0.00119309,0
0.3,11.2,0,0.299998,0.00119494,0
0.3,11.3,0,0.299998,0.00119679,0
0.3,11.4,0,0.299998,0.00119773,0
0.3,11.5,0,0.299999,0.00119872,0
0.3,11.6,0,0.299999,0.00119984,0
0.3,11.7,0,0.299999,0.00120106,0
0.3,11.8,0,0.299999,0.00120111,0
0.3,11.9,0,0.299999,0.00120173,0
0.3,12,0,0.299999,0.00120248,0
0.3,12.1,0,0.299999,0.00120252,0
0.3,12.2,0,0.3,0.00120282,0
0.3,12.3,0,0.3,0.00120312,0
0.3,12.4,0,0.3,0.00120339,0
0.3,12.5,0,0.3,0.00120334,0
0.3,12.6,0,0.3,0.00120343,0
0.3,12.7,0,0.3,0.00125392,0
0.4,0,0,0.299997,-0.00210229,0
0.4,0.1,0,0.299997,-0.00210034,0
0.4,0.2,0,0.299996,-0.00209939,0
0.4,0.3,0,0.299994,-0.00209679,0
0.4,0.4,0,0.299993,-0.00209392,0
0.4,0.5,0,0.29999,-0.00209135,0
0.4,0.6,0,0.299989,-0.00208489,0
0.4,0.7,0,0.299988,-0.00208007,0
0.4,0.8,0,0.299985,-0.00207219,0
0.4,0.9,0,0.299984,-0.00206532,0
0.4,1,0,0.29998,-0.00205807,0
0.4,1.1,0,0.299979,-0.00204664,0
0.4,1.2,0,0.299978,-0.00203759,0
0.4,1.3,0,0.299975,-0.00202381,0
0.4,1.4,0,0.299973,-0.00201238,0
0.4,1.5,0,0.299967,-0.00199975,0
0.4,1.6,0,0.299968,-0.00198255,0
0.4,1.7,0,0.299966,-0.00196854,0
0.4,1.8,0,0.299963,-0.00194778,0
0.4,1.9,0,0.29996,-0.00193096,0
0.4,2,0,0.299953,-0.00191186,0
0.4,2.1,0,0.299954,-0.00188789,0
0.4,2.2,0,0.299952,-0.00186803,0
0.4,2.3,0,0.299948,-0.00183901,0
0.4,2.4,0,0.299945,-0.00181586,0
0.4,2.5,0,0.299936,-0.00178908,0
0.4,2.6,0,0.299939,-0.00175734,0
0.4,2.7,0,0.299936,-0.00173071,0
0.4,2.8,0,0.299931,-0.00169218,0
0.4,2.9,0,0.299928,-0.00166187,0
0.4,3,0,0.299916,-0.00162639,0
0.4,3.1,0,0.299921,-0.001586,0
0.4,3.2,0,0.299918,-0.0015519,0
0.4,3.3,0,0.299913,-0.00150294,0
0.4,3.4,0,0.29991,-0.001465,0
0.4,3.5,0,0.299897,-0.00142048,0
0.4,3.6,0,0.299902,-0.00137089,0
0.4,3.7,0,0.299899,-0.00132914,0
0.4,3.8,0,0.299894,-0.0012697,0
0.4,3.9,0,0.299891,-0.0012243,0
0.4,4,0,0.299877,-0.00117135,0
0.4,4.1,0,0.299883,-0.00111288,0
0.4,4.2,0,0.29988,-0.00106409,0
0.4,4.3,0,0.299876,-0.000995316,0
0.4,4.4,0,0.299873,-0.000943501,0
0.4,4.5,0,0.299861,-0.000883585,0
0.4,4.6,0,0.299867,-0.000817778,0
0.4,4.7,0,0.299865,-0.000763503,0
0.4,4.8,0,0.299862,-0.000688941,0
0.4,4.9,0,0.299861,-0.000641178,0
0.4,5,0,0.299851,-0.00059148,0
0.4,5.1,0,0.299849,-0.000502166,0
0.4,5.2,0,0.299849,-0.000435973,0
0.4,5.3,0,0.299848,-0.00036946,0
0.4,5.4,0,0.299848,-0.000302745,0
0.4,5.5,0,0.299848,-0.000235925,0
0.4,5.6,0,0.299848,-0.000169129,0
0.4,5.7,0,0.299848,-0.000102481,0
0.4,5.8,0,0.299849,-3.60629e-05,0
0.4,5.9,0,0.29985,2.99973e-05,0
0.4,6,0,0.299852,0.000131666,0
0.4,6.1,0,0.299862,0.000179849,0
0.4,6.2,0,0.299863,0.000225636,0
0.4,6.3,0,0.299863,0.000276772,0
0.4,6.4,0,0.299869,0.000353527,0
0.4,6.5,0,0.299871,0.000405973,0
0.4,6.6,0,0.299874,0.000458419,0
0.4,6.7,0,0.299875,0.000530397,0
0.4,6.8,0,0.299882,0.000583281,0
0.4,6.9,0,0.299884,0.000631737,0
0.4,7,0,0.29988,0.000690544,0
0.4,7.1,0,0.299893,0.000746835,0
0.4,7.2,0,0.299896,0.000790559,0
0.4,7.3,0,0.299897,0.000835928,0
0.4,7.4,0,0.299905,0.000894973,0
0.4,7.5,0,0.299908,0.000933582,0
0.4,7.6,0,0.299911,0.000972191,0
0.4,7.7,0,0.299912,0.00102265,0
0.4,7.8,0,0.29992,0.00106015,0
0.4,7.9,0,0.299923,0.00109352,0
0.4,8,0,0.299921,0.00113275,0
0.4,8.1,0,0.299931,0.00117024,0
0.4,8.2,0,0.299934,0.00119846,0
0.4,8.3,0,0.299937,0.00122705,0
0.4,8.4,0,0.299942,0.00126433,0
0.4,8.5,0,0.299945,0.00128768,0
0.4,8.6,0,0.299948,0.00131103,0
0.4,8.7,0,0.299949,0.00134071,0
0.4,8.8,0,0.299955,0.0013622,0
0.4,8.9,0,0.299957,0.00138109,0
0.4,9,0,0.299957,0.00140303,0
0.4,9.1,0,0.299964,0.00142328,0
0.4,9.2,0,0.299966,0.00143819,0
0.4,9.3,0,0.299968,0.0014531,0
0.4,9.4,0,0.299971,0.00147233,0
0.4,9.5,0,0.299973,0.0014838,0
0.4,9.6,0,0.299975,0.00149527,0
0.4,9.7,0,0.299976,0.00150972,0
0.4,9.8,0,0.29998,0.00151942,0
0.4,9.9,0,0.299981,0.00152799,0
0.4,10,0,0.299982,0.0015379,0
0.4,10.1,0,0.299985,0.00154655,0
0.4,10.2,0,0.299986,0.00155275,0
0.4,10.3,0,0.299987,0.00155896,0
0.4,10.4,0,0.299989,0.00156661,0
0.4,10.5,0,0.29999,0.00157097,0
0.4,10.6,0,0.299991,0.0015753,0
0.4,10.7,0,0.299992,0.00158091,0
0.4,10.8,0,0.299994,0.00158395,0
0.4,10.9,0,0.299994,0.00158685,0
0.4,11,0,0.299995,0.00159026,0
0.4,11.1,0,0.299996,0.00159284,0
0.4,11.2,0,0.299996,0.00159469,0
0.4,11.3,0,0.299997,0.00159654,0
0.4,11.4,0,0.299997,0.00159873,0
0.4,11.5,0,0.299998,0.00159979,0
0.4,11.6,0,0.299998,0.0016009,0
0.4,11.7,0,0.299998,0.00160267,0
0.4,11.8,0,0.299999,0.00160294,0
0.4,11.9,0,0.299999,0.00160356,0
0.4,12,0,0.299999,0.00160441,0
0.4,12.1,0,0.299999,0.00160473,0
0.4,12.2,0,0.299999,0.00160503,0
0.4,12.3,0,0.3,0.00160533,0
0.4,12.4,0,0.3,0.00160576,0
0.4,12.5,0,0.3,0.00160571,0
0.4,12.6,0,0.3,0.0016058,0
0.4,12.7,0,0.3,0.00160643,0
0.5,0,0,0.299995,-0.00263144,0
0.5,0.1,0,0.299996,-0.00262771,0
0.5,0.2,0,0.299994,-0.00262757,0
0.5,0.3,0,0.299991,-0.0026247,0
0.5,0.4,0,0.29999,-0.00261977,0
0.5,0.5,0,0.299985,-0.00261775,0
0.5,0.6,0,0.299984,-0.00260833,0
0.5,0.7,0,0.29998,-0.00260313,0
0.5,0.8,0,0.299977,-0.00259444,0
0.5,0.9,0,0.299977,-0.0025843,0
0.5,1,0,0.299968,-0.00257636,0
0.5,1.1,0,0.29997,-0.00256067,0
0.5,1.2,0,0.299964,-0.00254991,0
0.5,1.3,0,0.299961,-0.00253471,0
0.5,1.4,0,0.299961,-0.00251861,0
0.5,1.5,0,0.299949,-0.0025038,0
0.5,1.6,0,0.299954,-0.00248084,0
0.5,1.7,0,0.299945,-0.00246346,0
0.5,1.8,0,0.299941,-0.00244056,0
0.5,1.9,0,0.299943,-0.00241746,0
0.5,2,0,0.299926,-0.00239426,0
0.5,2.1,0,0.299935,-0.00236291,0
0.5,2.2,0,0.299923,-0.00233754,0
0.5,2.3,0,0.299918,-0.00230552,0
0.5,2.4,0,0.299922,-0.00227431,0
0.5,2.5,0,0.299899,-0.00224099,0
0.5,2.6,0,0.299912,-0.00220006,0
0.5,2.7,0,0.299897,-0.00216537,0
0.5,2.8,0,0.299892,-0.00212282,0
0.5,2.9,0,0.299897,-0.00208241,0
0.5,3,0,0.299869,-0.00203763,0
0.5,3.1,0,0.299886,-0.00198589,0
0.5,3.2,0,0.299869,-0.00194107,0
0.5,3.3,0,0.299863,-0.00188693,0
0.5,3.4,0,0.299871,-0.00183643,0
0.5,3.5,0,0.299838,-0.00178008,0
0.5,3.6,0,0.299859,-0.00171634,0
0.5,3.7,0,0.29984,-0.00166163,0
0.5,3.8,0,0.299833,-0.00159583,0
0.5,3.9,0,0.299842,-0.00153492,0
0.5,4,0,0.299808,-0.00146835,0
0.5,4.1,0,0.299829,-0.00139248,0
0.5,4.2,0,0.299811,-0.00132913,0
0.5,4.3,0,0.299805,-0.00125296,0
0.5,4.4,0,0.299815,-0.0011826,0
0.5,4.5,0,0.299783,-0.0011081,0
0.5,4.6,0,0.299804,-0.00102153,0
0.5,4.7,0,0.299789,-0.000952007,0
0.5,4.8,0,0.299785,-0.000868029,0
0.5,4.9,0,0.299795,-0.000795156,0
0.5,5,0,0.299769,-0.000741978,0
0.5,5.1,0,0.299766,-0.00062983,0
0.5,5.2,0,0.299765,-0.000546689,0
0.5,5.3,0,0.299764,-0.000463112,0
0.5,5.4,0,0.299763,-0.000379266,0
0.5,5.5,0,0.299763,-0.000295288,0
0.5,5.6,0,0.299764,-0.000211342,0
0.5,5.7,0,0.299764,-0.000127589,0
0.5,5.8,0,0.299766,-4.41502e-05,0
0.5,5.9,0,0.299767,3.87907e-05,0
0.5,6,0,0.29977,0.00016645,0
0.5,6.1,0,0.299791,0.000217242,0
0.5,6.2,0,0.299799,0.000268776,0
0.5,6.3,0,0.299784,0.000356162,0
0.5,6.4,0,0.299794,0.000437243,0
0.5,6.5,0,0.299813,0.000509522,0
0.5,6.6,0,0.299803,0.000582398,0
0.5,6.7,0,0.299801,0.000660525,0
0.5,6.8,0,0.299827,0.00073378,0
0.5,6.9,0,0.299826,0.000794918,0
0.5,7,0,0.299812,0.000867529,0
0.5,7.1,0,0.299836,0.000934775,0
0.5,7.2,0,0.29985,0.000990535,0
0.5,7.3,0,0.299836,0.0010552,0
0.5,7.4,0,0.299846,0.00111678,0
0.5,7.5,0,0.299869,0.00117288,0
0.5,7.6,0,0.299862,0.00122387,0
0.5,7.7,0,0.299859,0.00127923,0
0.5,7.8,0,0.299883,0.00133069,0
0.5,7.9,0,0.299886,0.00137262,0
0.5,8,0,0.299876,0.00142149,0
0.5,8.1,0,0.299894,0.00146532,0
0.5,8.2,0,0.299907,0.0015016,0
0.5,8.3,0,0.299899,0.00154288,0
0.5,8.4,0,0.299906,0.00158102,0
0.5,8.5,0,0.299922,0.00161507,0
0.5,8.6,0,0.299919,0.00164553,0
0.5,8.7,0,0.299918,0.00167881,0
0.5,8.8,0,0.299933,0.00170705,0
0.5,8.9,0,0.299937,0.0017308,0
0.5,9,0,0.299933,0.001759,0
0.5,9.1,0,0.299943,0.00178185,0
0.5,9.2,0,0.299952,0.00180086,0
0.5,9.3,0,0.299949,0.00182288,0
0.5,9.4,0,0.299953,0.00184238,0
0.5,9.5,0,0.299962,0.00185855,0
0.5,9.6,0,0.299962,0.00187358,0
0.5,9.7,0,0.299962,0.0018903,0
0.5,9.8,0,0.29997,0.00190228,0
0.5,9.9,0,0.299973,0.00191295,0
0.5,10,0,0.299972,0.00192632,0
0.5,10.1,0,0.299976,0.00193565,0
0.5,10.2,0,0.299981,0.0019432,0
0.5,10.3,0,0.29998,0.00195271,0
0.5,10.4,0,0.299982,0.00196063,0
0.5,10.5,0,0.299987,0.00196605,0
0.5,10.6,0,0.299987,0.00197194,0
0.5,10.7,0,0.299987,0.00197877,0
0.5,10.8,0,0.29999,0.00198202,0
0.5,10.9,0,0.299992,0.00198546,0
0.5,11,0,0.299992,0.00199062,0
0.5,11.1,0,0.299993,0.00199315,0
0.5,11.2,0,0.299994,0.00199487,0
0.5,11.3,0,0.299995,0.00199822,0
0.5,11.4,0,0.299996,0.00200063,0
0.5,11.5,0,0.299997,0.00200117,0
0.5,11.6,0,0.299997,0.00200298,0
0.5,11.7,0,0.299997,0.00200545,0
0.5,11.8,0,0.299998,0.00200526,0
0.5,11.9,0,0.299998,0.00200575,0
0.5,12,0,0.299998,0.00200766,0
0.5,12.1,0,0.299999,0.00200777,0
0.5,12.2,0,0.299999,0.00200736,0
0.5,12.3,0,0.299999,0.0020086,0
0.5,12.4,0,0.3,0.00200923,0
0.5,12.5,0,0.3,0.00200827,0
0.5,12.6,0,0.3,0.00200875,0
0.5,12.7,0,0.3,0.00200995,0
0.6,0,0,0.299993,-0.00316058,0
0.6,0.1,0,0.299993,-0.00315736,0
0.6,0.2,0,0.299991,-0.00315601,0
0.6,0.3,0,0.299988,-0.00315314,0
0.6,0.4,0,0.299984,-0.00314722,0
0.6,0.5,0,0.299979,-0.00314414,0
0.6,0.6,0,0.299977,-0.0031347,0
0.6,0.7,0,0.299972,-0.00312617,0
0.6,0.8,0,0.299969,-0.00311749,0
0.6,0.9,0,0.299965,-0.00310419,0
0.6,1,0,0.299957,-0.00309465,0
0.6,1.1,0,0.299956,-0.00307835,0
0.6,1.2,0,0.299949,-0.00306192,0
0.6,1.3,0,0.299946,-0.00304672,0
0.6,1.4,0,0.299941,-0.00302487,0
0.6,1.5,0,0.29993,-0.00300784,0
0.6,1.6,0,0.299932,-0.00298352,0
0.6,1.7,0,0.299923,-0.0029577,0
0.6,1.8,0,0.299919,-0.0029348,0
0.6,1.9,0,0.299914,-0.00290277,0
0.6,2,0,0.299899,-0.00287667,0
0.6,2.1,0,0.299903,-0.00284297,0
0.6,2.2,0,0.299891,-0.00280589,0
0.6,2.3,0,0.299887,-0.00277387,0
0.6,2.4,0,0.299881,-0.00272989,0
0.6,2.5,0,0.299862,-0.00269289,0
0.6,2.6,0,0.299869,-0.00264845,0
0.6,2.7,0,0.299855,-0.00259828,0
0.6,2.8,0,0.29985,-0.00255572,0
0.6,2.9,0,0.299844,-0.00249818,0
0.6,3,0,0.299821,-0.00244886,0
0.6,3.1,0,0.299831,-0.00239239,0
0.6,3.2,0,0.299816,-0.00232787,0
0.6,3.3,0,0.29981,-0.00227374,0
0.6,3.4,0,0.299805,-0.00220165,0
0.6,3.5,0,0.299779,-0.00213967,0
0.6,3.6,0,0.299791,-0.00207024,0
0.6,3.7,0,0.299775,-0.00199126,0
0.6,3.8,0,0.299769,-0.00192546,0
0.6,3.9,0,0.299766,-0.00183893,0
0.6,4,0,0.299739,-0.00176536,0
0.6,4.1,0,0.299751,-0.00168317,0
0.6,4.2,0,0.299738,-0.00159101,0
0.6,4.3,0,0.299732,-0.00151485,0
0.6,4.4,0,0.299731,-0.00141558,0
0.6,4.5,0,0.299706,-0.00133261,0
0.6,4.6,0,0.299719,-0.00123957,0
0.6,4.7,0,0.299708,-0.00113727,0
0.6,4.8,0,0.299705,-0.0010533,0
0.6,4.9,0,0.299706,-0.000958015,0
0.6,5,0,0.299686,-0.000892477,0
0.6,5.1,0,0.299683,-0.000757493,0
0.6,5.2,0,0.299681,-0.000657405,0
0.6,5.3,0,0.29968,-0.000556763,0
0.6,5.4,0,0.299679,-0.000455787,0
0.6,5.5,0,0.299679,-0.00035465,0
0.6,5.6,0,0.299679,-0.000253555,0
0.6,5.7,0,0.29968,-0.000152698,0
0.6,5.8,0,0.299682,-5.22374e-05,0
0.6,5.9,0,0.299684,4.7584e-05,0
0.6,6,0,0.299688,0.000201234,0
0.6,6.1,0,0.299708,0.000253809,0
0.6,6.2,0,0.299712,0.0003462,0
0.6,6.3,0,0.299705,0.000435552,0
0.6,6.4,0,0.299715,0.000516633,0
0.6,6.5,0,0.299727,0.00061356,0
0.6,6.6,0,0.299729,0.000712526,0
0.6,6.7,0,0.299727,0.000790653,0
0.6,6.8,0,0.299747,0.000872189,0
0.6,6.9,0,0.299756,0.000969599,0
0.6,7,0,0.299744,0.00104451,0
0.6,7.1,0,0.299768,0.00111176,0
0.6,7.2,0,0.299778,0.00119951,0
0.6,7.3,0,0.299775,0.00127447,0
0.6,7.4,0,0.299785,0.00133605,0
0.6,7.5,0,0.299802,0.00140719,0
0.6,7.6,0,0.299808,0.00148044,0
0.6,7.7,0,0.299805,0.0015358,0
0.6,7.8,0,0.299826,0.0015918,0
0.6,7.9,0,0.299837,0.00165877,0
0.6,8,0,0.29983,0.00171023,0
0.6,8.1,0,0.299848,0.00175406,0
0.6,8.2,0,0.29986,0.00180982,0
0.6,8.3,0,0.299861,0.0018587,0
0.6,8.4,0,0.299868,0.00189684,0
0.6,8.5,0,0.299881,0.00193891,0
0.6,8.6,0,0.299889,0.00198362,0
0.6,8.7,0,0.299887,0.0020169,0
0.6,8.8,0,0.299901,0.00204741,0
0.6,8.9,0,0.29991,0.00208496,0
0.6,9,0,0.299908,0.00211496,0
0.6,9.1,0,0.299919,0.00213782,0
0.6,9.2,0,0.299927,0.00216651,0
0.6,9.3,0,0.29993,0.00219282,0
0.6,9.4,0,0.299934,0.00221232,0
0.6,9.5,0,0.299942,0.00223212,0
0.6,9.6,0,0.299948,0.00225415,0
0.6,9.7,0,0.299948,0.00227087,0
0.6,9.8,0,0.299955,0.00228378,0
0.6,9.9,0,0.299961,0.00230055,0
0.6,10,0,0.299961,0.00231474,0
0.6,10.1,0,0.299966,0.00232408,0
0.6,10.2,0,0.299971,0.00233554,0
0.6,10.3,0,0.299973,0.00234674,0
0.6,10.4,0,0.299975,0.00235465,0
0.6,10.5,0,0.299979,0.00236152,0
0.6,10.6,0,0.299982,0.00236979,0
0.6,10.7,0,0.299982,0.00237662,0
0.6,10.8,0,0.299985,0.0023802,0
0.6,10.9,0,0.299988,0.00238572,0
0.6,11,0,0.299988,0.00239098,0
0.6,11.1,0,0.29999,0.00239351,0
0.6,11.2,0,0.299992,0.00239659,0
0.6,11.3,0,0.299993,0.00240012,0
0.6,11.4,0,0.299994,0.00240253,0
0.6,11.5,0,0.299995,0.00240373,0
0.6,11.6,0,0.299996,0.00240577,0
0.6,11.7,0,0.299996,0.00240824,0
0.6,11.8,0,0.299997,0.00240817,0
0.6,11.9,0,0.299998,0.00240927,0
0.6,12,0,0.299998,0.00241091,0
0.6,12.1,0,0.299998,0.00241102,0
0.6,12.2,0,0.299999,0.00241124,0
0.6,12.3,0,0.299999,0.00241206,0
0.6,12.4,0,0.299999,0.00241269,0
0.6,12.5,0,0.3,0.00241217,0
0.6,12.6,0,0.3,0.00241232,0
0.6,12.7,0,0.3,0.00241348,0
0.7,0,0,0.299991,-0.00368973,0
0.7,0.1,0,0.299989,-0.00368778,0
0.7,0.2,0,0.299987,-0.00368584,0
0.7,0.3,0,0.299983,-0.003682,0
0.7,0.4,0,0.299978,-0.00367627,0
0.7,0.5,0,0.299974,-0.00367054,0
0.7,0.6,0,0.299968,-0.00366103,0
0.7,0.7,0,0.299963,-0.00365152,0
0.7,0.8,0,0.299957,-0.00364,0
0.7,0.9,0,0.299951,-0.00362647,0
0.7,1,0,0.299945,-0.00361295,0
0.7,1.1,0,0.299939,-0.0035951,0
0.7,1.2,0,0.299932,-0.00357725,0
0.7,1.3,0,0.299926,-0.00355703,0
0.7,1.4,0,0.299919,-0.00353446,0
0.7,1.5,0,0.299912,-0.00351189,0
0.7,1.6,0,0.299904,-0.00348415,0
0.7,1.7,0,0.299897,-0.00345641,0
0.7,1.8,0,0.299889,-0.00342585,0
0.7,1.9,0,0.299881,-0.00339246,0
0.7,2,0,0.299872,-0.00335907,0
0.7,2.1,0,0.299863,-0.00331953,0
0.7,2.2,0,0.299854,-0.00327999,0
0.7,2.3,0,0.299845,-0.00323713,0
0.7,2.4,0,0.299835,-0.00319096,0
0.7,2.5,0,0.299826,-0.00314479,0
0.7,2.6,0,0.299816,-0.00309156,0
0.7,2.7,0,0.299805,-0.00303833,0
0.7,2.8,0,0.299795,-0.00298139,0
0.7,2.9,0,0.299784,-0.00292074,0
0.7,3,0,0.299774,-0.00286009,0
0.7,3.1,0,0.299763,-0.0027918,0
0.7,3.2,0,0.299752,-0.0027235,0
0.7,3.3,0,0.299742,-0.00265134,0
0.7,3.4,0,0.299731,-0.0025753,0
0.7,3.5,0,0.29972,-0.00249927,0
0.7,3.6,0,0.29971,-0.00241558,0
0.7,3.7,0,0.299699,-0.00233189,0
0.7,3.8,0,0.299689,-0.00224451,0
0.7,3.9,0,0.29968,-0.00215344,0
0.7,4,0,0.29967,-0.00206237,0
0.7,4.1,0,0.299661,-0.0019644,0
0.7,4.2,0,0.299652,-0.00186643,0
0.7,4.3,0,0.299644,-0.00176539,0
0.7,4.4,0,0.299637,-0.00166125,0
0.7,4.5,0,0.299629,-0.00155713,0
0.7,4.6,0,0.299623,-0.00144791,0
0.7,4.7,0,0.299617,-0.00133869,0
0.7,4.8,0,0.299612,-0.00123586,0
0.7,4.9,0,0.299608,-0.00113942,0
0.7,5,0,0.299604,-0.00104297,0
0.7,5.1,0,0.2996,-0.000885156,0
0.7,5.2,0,0.299597,-0.000768121,0
0.7,5.3,0,0.299596,-0.000650415,0
0.7,5.4,0,0.299595,-0.000532308,0
0.7,5.5,0,0.299594,-0.000414013,0
0.7,5.6,0,0.299595,-0.000295768,0
0.7,5.7,0,0.299596,-0.000177806,0
0.7,5.8,0,0.299598,-6.03247e-05,0
0.7,5.9,0,0.299601,5.63774e-05,0
0.7,6,0,0.299606,0.000236018,0
0.7,6.1,0,0.29961,0.000328409,0
0.7,6.2,0,0.299614,0.000420799,0
0.7,6.3,0,0.299619,0.00051319,0
0.7,6.4,0,0.299625,0.000614073,0
0.7,6.5,0,0.299632,0.000719529,0
0.7,6.6,0,0.299639,0.000824985,0
0.7,6.7,0,0.299647,0.000928027,0
0.7,6.8,0,0.299656,0.00102544,0
0.7,6.9,0,0.299665,0.00112285,0
0.7,7,0,0.299674,0.00122026,0
0.7,7.1,0,0.299684,0.00130864,0
0.7,7.2,0,0.299695,0.00139654,0
0.7,7.3,0,0.299705,0.00148444,0
0.7,7.4,0,0.299716,0.00156615,0
0.7,7.5,0,0.299727,0.00164374,0
0.7,7.6,0,0.299738,0.00172132,0
0.7,7.7,0,0.299749,0.00179625,0
0.7,7.8,0,0.29976,0.00186322,0
0.7,7.9,0,0.299771,0.00193019,0
0.7,8,0,0.299782,0.00199715,0
0.7,8.1,0,0.299793,0.00205472,0
0.7,8.2,0,0.299804,0.00211123,0
0.7,8.3,0,0.299815,0.00216775,0
0.7,8.4,0,0.299825,0.00221882,0
0.7,8.5,0,0.299835,0.00226544,0
0.7,8.6,0,0.299845,0.00231206,0
0.7,8.7,0,0.299855,0.00235686,0