/*--------------------------------*- C++ -*----------------------------------*\
| =========                 |                                                 |
| \\      /  F ield         | OpenFOAM: The Open Source CFD Toolbox           |
|  \\    /   O peration     | Version:  v1806                                 |
|   \\  /    A nd           | Web:      www.OpenFOAM.com                      |
|    \\/     M anipulation  |                                                 |
\*---------------------------------------------------------------------------*/
FoamFile
{
    version     2.0;
    format      ascii;
    class       volVectorField;
    location    "4";
    object      U;
}
// * * * * * * * * * * * * * * * * * * * * * * * * * * * * * * * * * * * * * //

dimensions      [0 1 -1 0 0 0 0];


internalField   nonuniform List<vector> 
24000
(
(2.69957 0.0404124 0.0845294)
(2.42356 0.054672 0.0929846)
(2.05725 0.0491267 0.0762941)
(1.70691 0.0408081 0.0594771)
(1.44331 0.0306935 0.0403906)
(1.26475 0.0215445 0.0230202)
(1.14908 0.0153773 0.0116914)
(1.07311 0.0115455 0.00604052)
(1.02409 0.00838874 0.00348285)
(0.99303 0.00524026 0.00263441)
(0.976336 0.00165549 0.00249974)
(0.970439 -0.00202718 0.00260995)
(0.974082 -0.00544065 0.00305145)
(0.98521 -0.00852172 0.00338559)
(1.00289 -0.0109313 0.00363044)
(1.02532 -0.012509 0.00365032)
(1.0511 -0.0132681 0.00352324)
(1.07916 -0.0128112 0.00279644)
(1.10679 -0.0114074 0.00214706)
(1.13299 -0.00899344 0.000905921)
(2.77051 0.0523397 0.0856554)
(2.57396 0.0729026 0.0976587)
(2.31689 0.0669826 0.0795472)
(2.05401 0.0572043 0.065976)
(1.83646 0.0441876 0.050842)
(1.67215 0.0305028 0.0346626)
(1.55597 0.0188461 0.0216982)
(1.47628 0.00945526 0.013381)
(1.42591 0.00144763 0.00862361)
(1.39655 -0.00609255 0.0059396)
(1.38443 -0.0144097 0.00473175)
(1.38508 -0.022493 0.00402505)
(1.39614 -0.0302558 0.00406694)
(1.41534 -0.0376097 0.00393027)
(1.44181 -0.0432758 0.00395445)
(1.47283 -0.0472964 0.00385978)
(1.50839 -0.0495487 0.00374432)
(1.54601 -0.0487703 0.00314635)
(1.58435 -0.0452189 0.0027531)
(1.62054 -0.0394002 0.00173838)
(2.76992 0.0221211 0.0856006)
(2.56191 0.037784 0.0976762)
(2.31162 0.0381737 0.0784308)
(2.06461 0.0331705 0.0645676)
(1.86312 0.0247066 0.0502006)
(1.71078 0.0138748 0.0347952)
(1.60338 0.00239783 0.0220522)
(1.52942 -0.00958313 0.0136834)
(1.48445 -0.0209018 0.00826649)
(1.45859 -0.0319065 0.00509277)
(1.45096 -0.0437921 0.00304157)
(1.45546 -0.0548134 0.00196311)
(1.47048 -0.0655103 0.00162878)
(1.49372 -0.0759824 0.00127711)
(1.52391 -0.0834808 0.00126791)
(1.55833 -0.0895181 0.00109841)
(1.59835 -0.0925476 0.000831568)
(1.63968 -0.0912537 0.000475867)
(1.68266 -0.085351 0.000243095)
(1.72288 -0.0766133 -0.000324649)
(2.76925 0.0160631 0.0857706)
(2.54952 0.0294838 0.0982839)
(2.29261 0.031072 0.0788258)
(2.04423 0.0251377 0.0643824)
(1.8447 0.0158876 0.0499333)
(1.69497 0.0039825 0.0345786)
(1.59082 -0.00839764 0.021794)
(1.51951 -0.022646 0.0132741)
(1.47752 -0.0363834 0.00792847)
(1.45304 -0.0505621 0.00472434)
(1.44794 -0.0656882 0.00237988)
(1.454 -0.0793161 0.001225)
(1.47082 -0.093164 0.000576432)
(1.49734 -0.106403 -4.13162e-05)
(1.52924 -0.115695 5.18006e-05)
(1.56746 -0.124109 -0.000384559)
(1.61063 -0.128016 -0.000678159)
(1.65674 -0.125959 -0.00103276)
(1.70248 -0.118477 -0.000996884)
(1.74789 -0.107066 -0.00220163)
(2.76872 0.00971236 0.0859399)
(2.54149 0.015744 0.0985819)
(2.27944 0.0165364 0.0791685)
(2.02813 0.00981963 0.0642526)
(1.82835 0.0011444 0.0496871)
(1.67847 -0.0115943 0.0341666)
(1.57569 -0.0239752 0.0212573)
(1.50483 -0.040572 0.0125022)
(1.46521 -0.0550367 0.007173)
(1.43989 -0.0723615 0.00410206)
(1.43777 -0.0896856 0.00162831)
(1.44256 -0.105669 0.000824745)
(1.46195 -0.122665 -0.000211655)
(1.48957 -0.138422 -0.000643148)
(1.52384 -0.149235 -0.000525243)
(1.56425 -0.16098 -0.00108003)
(1.61287 -0.165472 -0.00160474)
(1.66185 -0.162387 -0.00141832)
(1.7125 -0.154006 -0.00177482)
(1.76259 -0.139674 -0.00266894)
(2.76823 0.00627298 0.0861439)
(2.5365 0.00643239 0.0986934)
(2.27099 0.00724933 0.0795829)
(2.01651 -0.00117545 0.064324)
(1.81522 -0.00900395 0.0499149)
(1.66349 -0.0238029 0.0341946)
(1.56037 -0.0357214 0.0215357)
(1.48834 -0.0561129 0.0124278)
(1.45006 -0.0701741 0.00729161)
(1.42243 -0.0926725 0.00404012)
(1.42401 -0.11095 0.00148686)
(1.42567 -0.130711 0.00108153)
(1.44873 -0.151131 -0.000557036)
(1.47716 -0.169912 -0.000482934)
(1.51275 -0.182404 -0.000415693)
(1.55749 -0.199717 -0.00139816)
(1.61087 -0.203976 -0.00176487)
(1.66464 -0.20045 -0.00121473)
(1.71977 -0.192219 -0.00177058)
(1.77717 -0.174906 -0.00303196)
(2.76762 0.00421326 0.0864236)
(2.53285 -0.0016637 0.0985675)
(2.26469 -0.000939831 0.0800405)
(2.00719 -0.0129777 0.0643483)
(1.804 -0.0194729 0.0502953)
(1.65024 -0.0378784 0.0338664)
(1.54685 -0.047915 0.0217191)
(1.47284 -0.0737361 0.0119602)
(1.43608 -0.0846966 0.00749359)
(1.40413 -0.115501 0.00356482)
(1.41183 -0.131249 0.00133739)
(1.40596 -0.157763 0.00121481)
(1.43727 -0.1805 -0.00127966)
(1.46213 -0.203337 -1.87642e-06)
(1.50176 -0.217339 -0.000676733)
(1.54969 -0.24334 -0.00181433)
(1.60987 -0.24564 -0.00208929)
(1.66778 -0.242935 -0.000723658)
(1.72941 -0.236516 -0.00211286)
(1.79572 -0.215372 -0.0034393)
(2.76696 0.00290684 0.0867671)
(2.52991 -0.00861254 0.0982718)
(2.25978 -0.00726765 0.0805367)
(1.9997 -0.0239903 0.0641905)
(1.79436 -0.0277114 0.0508318)
(1.63804 -0.0513787 0.0333057)
(1.53435 -0.0577419 0.0221432)
(1.45723 -0.091662 0.011178)
(1.42246 -0.0958508 0.00810944)
(1.38382 -0.140294 0.0025371)
(1.40054 -0.147423 0.00163434)
(1.38133 -0.187175 0.000988672)
(1.42745 -0.208098 -0.00205301)
(1.44113 -0.238957 0.000793706)
(1.49071 -0.252194 -0.00140024)
(1.53804 -0.292703 -0.00211298)
(1.6078 -0.288964 -0.00256191)
(1.6694 -0.291213 6.32629e-05)
(1.73969 -0.287395 -0.00285208)
(1.81671 -0.26164 -0.00370615)
(2.7666 0.00194838 0.0871262)
(2.52712 -0.0144826 0.09782)
(2.25615 -0.0118654 0.081059)
(1.9928 -0.0342268 0.0639107)
(1.78643 -0.0340668 0.0514354)
(1.62548 -0.0645736 0.0325893)
(1.5236 -0.0653339 0.0226456)
(1.44001 -0.110068 0.0100214)
(1.41017 -0.103269 0.00900099)
(1.36026 -0.167625 0.000665337)
(1.3906 -0.158143 0.00249221)
(1.35029 -0.220562 -0.000270182)
(1.42043 -0.231802 -0.00253591)
(1.40996 -0.279149 0.00123233)
(1.48253 -0.285359 -0.00261175)
(1.51769 -0.350104 -0.00191771)
(1.60451 -0.333409 -0.00339286)
(1.66727 -0.349217 0.00150994)
(1.7497 -0.346158 -0.00398815)
(1.83923 -0.315704 -0.00381609)
(2.76727 0.00126837 0.0874202)
(2.52363 -0.0194361 0.0973843)
(2.25444 -0.0148745 0.0815154)
(1.98473 -0.0435092 0.0636214)
(1.78152 -0.0382988 0.0518695)
(1.61021 -0.0771591 0.031952)
(1.51682 -0.0700634 0.0229612)
(1.418 -0.128325 0.00874453)
(1.40157 -0.106372 0.00994508)
(1.33065 -0.196356 -0.00183171)
(1.38266 -0.162474 0.00389546)
(1.31059 -0.257985 -0.00268113)
(1.41684 -0.248235 -0.00231149)
(1.36345 -0.326576 0.000496915)
(1.48063 -0.313635 -0.00313159)
(1.48111 -0.417683 -0.000940672)
(1.60233 -0.378535 -0.00428962)
(1.65736 -0.423118 0.00416655)
(1.76029 -0.41369 -0.00447135)
(1.86308 -0.380516 -0.0030469)
(2.76925 0.00135412 0.0876247)
(2.51898 -0.0240153 0.0971282)
(2.25511 -0.0158917 0.0817653)
(1.97442 -0.0521674 0.0634789)
(1.7807 -0.0394788 0.0519246)
(1.59054 -0.0896831 0.0316983)
(1.51626 -0.0705012 0.0228441)
(1.3888 -0.146846 0.00792144)
(1.39923 -0.104687 0.010665)
(1.29358 -0.225541 -0.00385071)
(1.37784 -0.160276 0.00525516)
(1.26289 -0.299908 -0.00499954)
(1.41819 -0.253406 -0.00153404)
(1.30211 -0.384437 -0.00209645)
(1.48977 -0.334149 -0.00193221)
(1.42593 -0.497868 -0.000181892)
(1.61356 -0.424341 -0.00504454)
(1.63808 -0.523039 0.00739423)
(1.78246 -0.490709 -0.00413181)
(1.89576 -0.465591 0.00104725)
(2.77072 0.00280621 0.087754)
(2.51549 -0.0292316 0.0970997)
(2.25563 -0.0142272 0.0818957)
(1.96514 -0.0613813 0.0636822)
(1.78054 -0.0363104 0.0518726)
(1.57115 -0.104257 0.0321358)
(1.51805 -0.0648531 0.0225168)
(1.35919 -0.167765 0.00841126)
(1.3991 -0.0978835 0.0110997)
(1.25971 -0.256712 -0.00353347)
(1.37145 -0.151477 0.00613316)
(1.22502 -0.349928 -0.00513437)
(1.41946 -0.244169 -0.000142294)
(1.25034 -0.456042 -0.00671844)
(1.51078 -0.344768 0.00114258)
(1.36817 -0.591907 -0.00452414)
(1.65734 -0.470548 -0.00500846)
(1.61883 -0.649332 0.00384231)
(1.82666 -0.577873 -0.0015391)
(1.95628 -0.585783 0.00194667)
(2.76718 0.00504492 0.0877724)
(2.51987 -0.035287 0.0972539)
(2.24904 -0.0104668 0.0821874)
(1.96713 -0.0718603 0.0642638)
(1.7699 -0.0296388 0.0524267)
(1.5679 -0.12274 0.0334155)
(1.50562 -0.0543121 0.0230878)
(1.35068 -0.193691 0.0108566)
(1.38185 -0.0881609 0.011892)
(1.2574 -0.292268 -0.000261258)
(1.34227 -0.139198 0.00782046)
(1.23784 -0.409277 -0.00322418)
(1.39263 -0.221991 0.00362252)
(1.25968 -0.543334 -0.0117938)
(1.52532 -0.336437 0.00668549)
(1.33488 -0.701784 -0.0186603)
(1.74371 -0.508611 -0.00199696)
(1.58723 -0.774484 -0.0238919)
(1.91314 -0.674005 0.00193451)
(2.03148 -0.748168 -0.00575844)
(2.75533 0.00496583 0.0873871)
(2.53796 -0.0395655 0.0974652)
(2.22907 -0.0082623 0.0825496)
(1.9902 -0.0798734 0.0647391)
(1.7366 -0.0255137 0.0536686)
(1.59754 -0.140038 0.0345424)
(1.45694 -0.0470744 0.0246772)
(1.38647 -0.218627 0.0135129)
(1.31632 -0.0846134 0.0128224)
(1.31123 -0.321243 0.00274379)
(1.25042 -0.139016 0.0109973)
(1.32455 -0.456121 -0.00403317)
(1.27944 -0.204886 0.0135647)
(1.35875 -0.628883 -0.0160838)
(1.45308 -0.298057 0.0204666)
(1.35726 -0.820147 -0.0398201)
(1.79127 -0.520557 0.014585)
(1.5024 -0.85919 -0.0799666)
(2.03083 -0.754544 0.0184804)
(2.01824 -0.928044 -0.0363322)
(2.74176 -0.00199833 0.0862607)
(2.56242 -0.0359156 0.0978017)
(2.20491 -0.0141894 0.0824242)
(2.02249 -0.0751606 0.0644487)
(1.69023 -0.0345431 0.0546638)
(1.64543 -0.138445 0.033606)
(1.37783 -0.0592031 0.0254948)
(1.4505 -0.218803 0.0127481)
(1.20159 -0.104797 0.0116969)
(1.38787 -0.314311 0.000291673)
(1.10156 -0.175972 0.00955867)
(1.41104 -0.445671 -0.00898382)
(1.08262 -0.240922 0.0174875)
(1.45494 -0.656543 -0.0226565)
(1.21069 -0.278367 0.046286)
(1.42201 -0.900289 -0.0631133)
(1.63564 -0.476523 0.0621152)
(1.3584 -0.95411 -0.128298)
(2.10535 -0.778868 0.0919539)
(1.68993 -1.08226 -0.0645496)
(2.74564 -0.0143693 0.084507)
(2.56694 -0.0217128 0.099138)
(2.20734 -0.0285902 0.0819575)
(2.02009 -0.0546796 0.0645563)
(1.67864 -0.0574441 0.0547972)
(1.64345 -0.107786 0.0318917)
(1.34296 -0.0953879 0.0259636)
(1.45014 -0.17652 0.00845922)
(1.1415 -0.15319 0.0101051)
(1.36945 -0.260058 -0.00294337)
(1.03423 -0.243266 0.000770029)
(1.34639 -0.375678 -0.00854983)
(1.00625 -0.344364 0.000857932)
(1.37292 -0.570562 -0.0156074)
(1.03277 -0.427041 0.0267744)
(1.42565 -0.835266 -0.0472135)
(1.30603 -0.509593 0.0886391)
(1.32197 -1.17418 -0.0977982)
(1.9455 -0.68779 0.278114)
(1.01172 -1.40295 -0.0148297)
(2.77541 -0.0216844 0.0830178)
(2.53718 -0.00677623 0.100244)
(2.25253 -0.0401219 0.0818192)
(1.95951 -0.0329948 0.0669644)
(1.73381 -0.0787057 0.0532451)
(1.55099 -0.0708096 0.0337845)
(1.41253 -0.129608 0.0253441)
(1.31837 -0.121919 0.0106885)
(1.23078 -0.201251 0.0119619)
(1.17898 -0.196347 0.00259065)
(1.16111 -0.305415 0.00603624)
(1.08116 -0.304236 0.00509536)
(1.16749 -0.457046 0.00927606)
(1.06738 -0.453503 0.0137656)
(1.19803 -0.70184 0.0233298)
(1.16588 -0.659346 0.0503751)
(1.32968 -0.918206 0.0323444)
(1.39191 -1.32134 0.0613076)
(1.60886 -0.839035 0.424331)
(0.689481 -2.6923 -0.0106986)
(2.80941 -0.0174824 0.0830781)
(2.49965 -0.00321279 0.100584)
(2.30463 -0.0391814 0.0820993)
(1.88893 -0.0269431 0.069498)
(1.80976 -0.0819379 0.0509104)
(1.44085 -0.0563319 0.0374203)
(1.52273 -0.136935 0.0226185)
(1.15478 -0.102385 0.0165813)
(1.3806 -0.213411 0.00978338)
(0.961226 -0.184496 0.00948528)
(1.33523 -0.32764 0.00993515)
(0.835554 -0.302556 0.0117391)
(1.3324 -0.537894 0.0281419)
(0.805414 -0.457637 0.0223271)
(1.36613 -0.906492 0.0721719)
(0.85032 -0.73534 0.0777091)
(1.46609 -1.37939 0.0809586)
(1.25537 -1.42336 0.245383)
(1.54829 -1.78049 0.163356)
(1.04474 -4.14402 -0.186258)
(2.82648 -0.0100358 0.0842597)
(2.47883 -0.00677333 0.100856)
(2.32819 -0.0302322 0.0822334)
(1.84895 -0.0311769 0.0705921)
(1.84728 -0.0669375 0.0499709)
(1.37567 -0.0639966 0.0396785)
(1.57959 -0.115703 0.0203181)
(1.06104 -0.120668 0.0213616)
(1.44472 -0.191567 0.00669348)
(0.869406 -0.211572 0.0136354)
(1.37231 -0.325407 0.00822744)
(0.771533 -0.344809 0.0133648)
(1.33529 -0.568423 0.022103)
(0.722241 -0.564404 0.0128279)
(1.34437 -0.97689 0.0675687)
(0.685932 -0.985019 -0.00124952)
(1.39355 -1.71691 0.118269)
(0.992669 -1.72849 0.125248)
(1.50087 -2.69818 0.075015)
(1.21749 -4.76987 -0.440251)
(2.82785 -0.000752424 0.0840003)
(2.47854 -0.0183845 0.103124)
(2.32743 -0.0160404 0.0815188)
(1.84127 -0.0460822 0.0745166)
(1.842 -0.040065 0.0483431)
(1.3675 -0.0903288 0.043831)
(1.56107 -0.0815841 0.0180852)
(1.06278 -0.15482 0.0261605)
(1.40316 -0.16027 0.000813323)
(0.879006 -0.249408 0.0224434)
(1.31877 -0.295988 -0.00955921)
(0.745057 -0.406589 0.0302485)
(1.2826 -0.521436 -0.0169549)
(0.604282 -0.679994 0.0391478)
(1.27793 -0.915162 -0.0152062)
(0.410506 -1.14777 0.0143009)
(1.33717 -1.72792 -0.00921669)
(0.289628 -1.93157 0.00189582)
(0.912022 -3.1899 -0.0220488)
(0.957115 -4.53831 -0.454237)
(2.92292 0.0420306 0.1223)
(2.95937 0.0624329 0.145613)
(2.89721 0.0612755 0.128338)
(2.76705 0.059003 0.113415)
(2.62625 0.054251 0.0922334)
(2.49316 0.04755 0.0676762)
(2.37587 0.0407044 0.0465436)
(2.27168 0.034635 0.0321512)
(2.18478 0.0289851 0.0228074)
(2.11278 0.023504 0.017009)
(2.05934 0.0177498 0.0135598)
(2.02202 0.0118595 0.0112316)
(2.00153 0.00608524 0.0105238)
(1.99577 0.000265628 0.0101493)
(2.00365 -0.00495332 0.0101239)
(2.02325 -0.00933714 0.0101103)
(2.05168 -0.0130195 0.0101284)
(2.08915 -0.015379 0.00921363)
(2.12892 -0.0162644 0.00844109)
(2.17307 -0.0160608 0.00679143)
(3.00003 0.0543708 0.123364)
(3.12614 0.083013 0.151225)
(3.19245 0.0832128 0.133399)
(3.19411 0.0815658 0.12179)
(3.16837 0.0764466 0.106929)
(3.13118 0.068315 0.0876496)
(3.09512 0.0587284 0.0686547)
(3.05822 0.0489785 0.0533898)
(3.02886 0.0384251 0.0420887)
(3.00423 0.0283986 0.0337044)
(2.99033 0.01663 0.028004)
(2.98658 0.00450382 0.0233026)
(2.99375 -0.00697302 0.0205918)
(3.01158 -0.0196459 0.0183158)
(3.04051 -0.0311624 0.0167295)
(3.07833 -0.0415081 0.0156423)
(3.12436 -0.0506071 0.0146141)
(3.17937 -0.0581629 0.0133921)
(3.23727 -0.060935 0.012105)
(3.29951 -0.0627915 0.0114904)
(3.00026 0.0229071 0.123098)
(3.11523 0.0425711 0.150834)
(3.18657 0.0475515 0.131852)
(3.20316 0.0480497 0.119142)
(3.19686 0.045285 0.104751)
(3.17953 0.0392432 0.0865779)
(3.1647 0.0311625 0.0681605)
(3.14728 0.0208715 0.0533932)
(3.13788 0.00814746 0.0418043)
(3.1306 -0.00390519 0.0334074)
(3.13278 -0.0195826 0.0268731)
(3.14409 -0.0357043 0.021486)
(3.16321 -0.050474 0.0182824)
(3.19189 -0.0685326 0.0151657)
(3.23032 -0.0833126 0.013067)
(3.27438 -0.0981622 0.011818)
(3.32747 -0.110889 0.00992016)
(3.38726 -0.12239 0.00872864)
(3.45149 -0.125231 0.00728534)
(3.51766 -0.128977 0.00716224)
(3.00018 0.0168777 0.123239)
(3.10398 0.0328334 0.151547)
(3.16893 0.038569 0.132522)
(3.1823 0.0375406 0.11891)
(3.17619 0.0332434 0.104153)
(3.15927 0.0249481 0.0860233)
(3.1467 0.0156122 0.0674224)
(3.1312 0.00264827 0.0524506)
(3.126 -0.013025 0.0404358)
(3.12096 -0.0275271 0.0324176)
(3.12649 -0.0482613 0.0251743)
(3.14247 -0.0675446 0.0196884)
(3.16248 -0.0863074 0.0165629)
(3.19687 -0.110068 0.0124596)
(3.23725 -0.127677 0.0106883)
(3.28533 -0.147017 0.00901941)
(3.34072 -0.164301 0.00693099)
(3.40696 -0.178534 0.00514565)
(3.47326 -0.182018 0.00458393)
(3.54504 -0.187467 0.00293067)
(3.0002 0.0108848 0.123505)
(3.09633 0.0171968 0.151855)
(3.15737 0.021273 0.133183)
(3.16611 0.0175747 0.118949)
(3.15931 0.0128871 0.103908)
(3.13954 0.0019316 0.0855217)
(3.1275 -0.00729585 0.0666811)
(3.10919 -0.0239502 0.0512884)
(3.10751 -0.0410094 0.0387694)
(3.09837 -0.0579714 0.0313811)
(3.10784 -0.0840352 0.0231229)
(3.12261 -0.104879 0.0185021)
(3.14299 -0.128023 0.0151412)
(3.17899 -0.157921 0.0107101)
(3.22235 -0.176374 0.00923079)
(3.26901 -0.201442 0.00798306)
(3.33066 -0.224081 0.00471114)
(3.40041 -0.239818 0.00404711)
(3.47102 -0.244079 0.00303309)
(3.54733 -0.2516 0.00203661)
(3.00036 0.00844439 0.123959)
(3.09113 0.00590336 0.15179)
(3.15062 0.0109494 0.133996)
(3.15434 0.00310141 0.119318)
(3.14698 -0.000295485 0.104476)
(3.12283 -0.0159341 0.0858656)
(3.11053 -0.0229866 0.0672521)
(3.08705 -0.0465957 0.0515691)
(3.08867 -0.0620686 0.0387442)
(3.07142 -0.0842471 0.0320748)
(3.0862 -0.115746 0.0222183)
(3.09756 -0.137167 0.0191193)
(3.11574 -0.166888 0.0150731)
(3.15651 -0.204332 0.0101712)
(3.19843 -0.22112 0.009845)
(3.24582 -0.255982 0.00795515)
(3.31201 -0.285224 0.00439815)
(3.38908 -0.301278 0.00419411)
(3.46118 -0.307234 0.00378769)
(3.54458 -0.318865 0.00154801)
(3.00077 0.0082936 0.12471)
(3.08658 -0.00503494 0.151148)
(3.1465 0.00344288 0.13498)
(3.14409 -0.0125298 0.119445)
(3.13764 -0.0120685 0.105439)
(3.10716 -0.0363614 0.0856728)
(3.09719 -0.0372581 0.067683)
(3.06543 -0.0736554 0.0512182)
(3.07454 -0.0807487 0.0386441)
(3.04207 -0.114246 0.0326571)
(3.07 -0.148157 0.0205596)
(3.06983 -0.16923 0.0203808)
(3.09036 -0.208386 0.0140014)
(3.13337 -0.254173 0.010121)
(3.17509 -0.264939 0.0102302)
(3.22002 -0.315938 0.0080834)
(3.29422 -0.352792 0.00374558)
(3.37772 -0.366533 0.00531122)
(3.45193 -0.376663 0.00432964)
(3.54307 -0.393825 0.00156791)
(3.00207 0.0101269 0.12573)
(3.08164 -0.0164706 0.149968)
(3.14465 -2.50468e-05 0.13628)
(3.13404 -0.0289031 0.119006)
(3.1316 -0.0191533 0.10683)
(3.09072 -0.0578139 0.0849248)
(3.08779 -0.0452135 0.0685201)
(3.04132 -0.104368 0.0503601)
(3.06515 -0.0908604 0.039111)
(3.00674 -0.148462 0.0329283)
(3.05934 -0.175873 0.0188639)
(3.03453 -0.199757 0.0224919)
(3.06684 -0.249497 0.0119497)
(3.10469 -0.306733 0.0113805)
(3.14971 -0.3032 0.0102579)
(3.18862 -0.382023 0.00858624)
(3.27275 -0.424722 0.00338866)
(3.36168 -0.434806 0.00769642)
(3.43894 -0.451976 0.00515064)
(3.53781 -0.476627 0.00227976)
(3.00589 0.0138008 0.126818)
(3.07441 -0.0289607 0.148395)
(3.14629 0.000827858 0.137856)
(3.12124 -0.0469162 0.118051)
(3.13083 -0.0210107 0.108489)
(3.0689 -0.0821602 0.0837867)
(3.08574 -0.0458034 0.0694873)
(3.00896 -0.141672 0.0489644)
(3.06349 -0.0902276 0.0400769)
(2.96058 -0.191009 0.0322045)
(3.05644 -0.196313 0.0176473)
(2.98444 -0.232305 0.0246906)
(3.05099 -0.288768 0.00869736)
(3.06072 -0.365264 0.0146373)
(3.12366 -0.334503 0.00875024)
(3.14853 -0.458307 0.0103047)
(3.24575 -0.500022 0.00288845)
(3.33421 -0.509996 0.012388)
(3.42017 -0.536615 0.00630441)
(3.52636 -0.569912 0.00353757)
(3.01504 0.0194268 0.12753)
(3.0615 -0.0426688 0.146994)
(3.15442 0.00596174 0.139356)
(3.10062 -0.0672265 0.117066)
(3.13992 -0.016583 0.109787)
(3.03411 -0.110944 0.0829751)
(3.09791 -0.037248 0.0698398)
(2.95927 -0.186881 0.0479127)
(3.07437 -0.0772813 0.0410932)
(2.89729 -0.24342 0.030589)
(3.06367 -0.205766 0.0175217)
(2.90868 -0.272042 0.0263765)
(3.05308 -0.32045 0.00476394)
(2.9855 -0.432187 0.0201207)
(3.10008 -0.358923 0.00585132)
(3.09585 -0.547821 0.0143869)
(3.21442 -0.572514 0.00207587)
(3.28765 -0.599052 0.0209616)
(3.39759 -0.635345 0.00877967)
(3.51236 -0.673596 0.00582141)
(3.03057 0.0278988 0.127482)
(3.04096 -0.0581611 0.146446)
(3.17106 0.015931 0.140194)
(3.06891 -0.0911376 0.11676)
(3.16287 -0.00369768 0.109906)
(2.98133 -0.146873 0.0835648)
(3.12988 -0.017315 0.0683854)
(2.88857 -0.240665 0.0488922)
(3.10015 -0.0526103 0.0408365)
(2.81967 -0.30572 0.029799)
(3.08273 -0.199681 0.0175897)
(2.80455 -0.328859 0.0281432)
(3.08837 -0.335024 -0.000181905)
(2.86908 -0.509249 0.027387)
(3.09427 -0.38149 0.00142877)
(3.03051 -0.653718 0.0207474)
(3.1975 -0.630854 -0.000319928)
(3.2312 -0.718345 0.0340219)
(3.38989 -0.750187 0.00843639)
(3.51775 -0.793087 0.0152757)
(3.04436 0.0405833 0.127008)
(3.02198 -0.0769607 0.146687)
(3.18837 0.0319531 0.140611)
(3.03752 -0.121418 0.117153)
(3.19106 0.0205269 0.109532)
(2.92691 -0.194027 0.0858561)
(3.17048 0.0156355 0.0654798)
(2.82353 -0.302994 0.0525134)
(3.12699 -0.0185029 0.0383073)
(2.76795 -0.377428 0.031089)
(3.10168 -0.172316 0.0164917)
(2.71787 -0.41643 0.029217)
(3.15668 -0.321377 -0.00642933)
(2.7443 -0.601064 0.0321229)
(3.14441 -0.407376 -0.00582896)
(2.95621 -0.775112 0.0242384)
(3.23292 -0.671921 -0.00360944)
(3.20689 -0.881576 0.0410804)
(3.40884 -0.873741 0.00538096)
(3.57334 -0.93914 0.0177135)
(3.03555 0.0565906 0.127553)
(3.03093 -0.0991555 0.146262)
(3.18226 0.0533664 0.142363)
(3.04215 -0.158732 0.116265)
(3.19255 0.0552888 0.1119)
(2.92259 -0.2526 0.0864017)
(3.179 0.0585299 0.0659153)
(2.8303 -0.369454 0.0546416)
(3.11579 0.0198449 0.037158)
(2.81565 -0.453941 0.0292797)
(3.08395 -0.119005 0.0179599)
(2.74641 -0.543772 0.0203088)
(3.21211 -0.263279 -0.00653513)
(2.69935 -0.730973 0.021804)
(3.28088 -0.413388 -0.0154919)
(2.85134 -0.9197 0.0139867)
(3.37938 -0.705884 -0.0130549)
(3.17114 -1.0797 0.0353661)
(3.46249 -0.980836 -0.0176376)
(3.6374 -1.13118 0.0242287)
(2.98629 0.0679138 0.130672)
(3.09151 -0.11705 0.142662)
(3.12573 0.0715901 0.147915)
(3.11684 -0.190619 0.109525)
(3.12322 0.0876771 0.121769)
(3.01967 -0.302962 0.0769175)
(3.09313 0.0960994 0.07854)
(2.96101 -0.416823 0.0433713)
(3.00753 0.0515196 0.0494018)
(2.98536 -0.514336 0.0114364)
(2.96759 -0.0463356 0.0369703)
(2.92196 -0.684943 -0.0161832)
(3.14343 -0.150859 0.0201445)
(2.79548 -0.918186 -0.0246891)
(3.3783 -0.338904 -0.00387856)
(2.72948 -1.11239 -0.036933)
(3.59096 -0.712252 -0.025027)
(2.91113 -1.31535 0.0258019)
(3.53538 -1.04739 -0.0720662)
(3.53771 -1.35828 0.0455251)
(2.92009 0.059673 0.134103)
(3.17649 -0.11269 0.136608)
(3.03577 0.0663643 0.155548)
(3.22895 -0.18676 0.0970433)
(2.98258 0.0850862 0.137197)
(3.18148 -0.300527 0.0548627)
(2.885 0.0949195 0.104295)
(3.15626 -0.409358 0.0124741)
(2.76469 0.0572372 0.0823076)
(3.15579 -0.527038 -0.0269861)
(2.71436 0.00508353 0.0830596)
(3.07862 -0.762298 -0.0745739)
(2.83558 -0.0255592 0.091864)
(2.92255 -1.09145 -0.109891)
(3.14401 -0.162382 0.088727)
(2.64441 -1.35539 -0.143949)
(3.62167 -0.560447 0.00716098)
(2.33386 -1.70494 0.0303538)
(3.64436 -1.06248 -0.141483)
(3.01157 -1.58539 0.189248)
(2.92211 0.0271615 0.130926)
(3.1856 -0.0754023 0.136197)
(3.02198 0.0257621 0.156631)
(3.24496 -0.130614 0.0928748)
(2.91888 0.0231272 0.141943)
(3.22492 -0.219352 0.0437394)
(2.74441 0.0165875 0.116463)
(3.20322 -0.325219 -0.00638482)
(2.57646 -0.00959489 0.10265)
(3.12744 -0.465261 -0.0498186)
(2.49591 -0.0457303 0.11138)
(2.98931 -0.699379 -0.100862)
(2.45094 -0.046232 0.150212)
(2.89967 -1.0771 -0.166215)
(2.50577 -0.028729 0.242568)
(2.60978 -1.54062 -0.229476)
(3.17217 -0.145992 0.176963)
(1.98142 -2.32916 0.0578257)
(3.6759 -0.845024 -0.0536175)
(2.21512 -1.9933 0.54501)
(3.04603 -0.00779877 0.120195)
(3.05159 -0.0239976 0.145765)
(3.17627 -0.025629 0.146881)
(3.07007 -0.0543836 0.108594)
(3.09403 -0.0595641 0.127365)
(3.00463 -0.106523 0.0622688)
(2.95273 -0.0983953 0.0987881)
(2.90951 -0.189446 0.0166837)
(2.83235 -0.144598 0.0815803)
(2.73629 -0.318006 -0.01541)
(2.7804 -0.223195 0.0794008)
(2.5498 -0.490218 -0.0446885)
(2.69732 -0.344529 0.110807)
(2.51083 -0.781474 -0.0990266)
(2.63058 -0.439849 0.223181)
(2.36869 -1.42293 -0.131167)
(2.98822 -0.0655649 0.333457)
(2.2541 -2.75087 0.0426006)
(3.4624 -0.179683 0.419675)
(2.12753 -2.99679 0.636668)
(3.20367 -0.0152395 0.11081)
(2.87374 0.000323787 0.156868)
(3.38628 -0.0444256 0.133598)
(2.82864 -0.0182554 0.128947)
(3.37728 -0.0925316 0.10591)
(2.66937 -0.0494511 0.0927847)
(3.3453 -0.143824 0.0673427)
(2.4553 -0.112497 0.0613572)
(3.32131 -0.207505 0.0392915)
(2.21527 -0.20724 0.0452525)
(3.29632 -0.347465 0.0232681)
(2.03222 -0.293744 0.0428185)
(3.27505 -0.618863 0.0215107)
(1.91396 -0.43939 0.0583588)
(3.37764 -0.994208 0.0411266)
(1.81193 -0.98803 0.109809)
(3.52676 -0.913107 0.225185)
(2.24385 -2.71446 -0.0388795)
(3.76493 0.403339 0.863528)
(2.57115 -4.07119 0.186273)
(3.28801 0.000333066 0.108436)
(2.77435 -0.0110848 0.163876)
(3.50253 -0.0251281 0.127781)
(2.68343 -0.034226 0.139836)
(3.54548 -0.0595864 0.0952742)
(2.45718 -0.0755333 0.11313)
(3.57295 -0.0955608 0.0464908)
(2.20524 -0.141201 0.093733)
(3.55363 -0.174909 0.0109289)
(2.0277 -0.210783 0.0769161)
(3.49927 -0.339924 -0.00970294)
(1.87952 -0.321005 0.0890551)
(3.53232 -0.592556 -0.0387289)
(1.73046 -0.489109 0.140958)
(3.60639 -1.04821 -0.0544913)
(1.7531 -0.821148 0.225749)
(3.60386 -1.73748 0.0346207)
(1.84534 -1.9625 0.0767023)
(4.36559 -1.3962 0.668)
(2.31909 -5.14185 -0.528652)
(3.2808 0.029243 0.106036)
(2.78933 -0.0488408 0.172963)
(3.50154 0.0180017 0.122528)
(2.69992 -0.0864304 0.154209)
(3.54489 0.00751456 0.088188)
(2.5012 -0.14144 0.127601)
(3.5455 -0.0279667 0.0393918)
(2.31707 -0.194463 0.105334)
(3.50572 -0.122884 -0.00392865)
(2.14807 -0.280245 0.0980791)
(3.53929 -0.237287 -0.0439341)
(1.90846 -0.474166 0.113385)
(3.6694 -0.442074 -0.0849006)
(1.71692 -0.725132 0.137293)
(3.80606 -0.857324 -0.127519)
(1.57571 -1.14719 0.177704)
(3.88629 -1.66812 -0.190647)
(1.49278 -1.8507 0.309566)
(3.7512 -3.00862 -0.00481544)
(1.46923 -5.16466 -1.13473)
(2.92519 0.0416798 0.063557)
(2.98378 0.061881 0.0917789)
(2.99751 0.0606879 0.085159)
(2.96408 0.0592282 0.0819327)
(2.91386 0.0565943 0.0729845)
(2.85529 0.0521285 0.058706)
(2.79559 0.0466482 0.0444583)
(2.73183 0.0411433 0.0340137)
(2.67174 0.0357347 0.0268003)
(2.61494 0.030593 0.0216842)
(2.56834 0.0251095 0.0181894)
(2.53203 0.0195567 0.0152728)
(2.50827 0.0141163 0.0138439)
(2.4973 0.00830163 0.0127829)
(2.499 0.0029371 0.0122451)
(2.51307 -0.00179751 0.0119997)
(2.53605 -0.00611704 0.0119386)
(2.57039 -0.00926982 0.0113119)
(2.60797 -0.0111816 0.0108526)
(2.6527 -0.0117088 0.00976062)
(3.00212 0.0538198 0.0636639)
(3.1513 0.0824109 0.0940913)
(3.29059 0.0826134 0.0897964)
(3.38807 0.0818435 0.0875203)
(3.46055 0.079242 0.0826286)
(3.51331 0.074248 0.0731186)
(3.55808 0.0671015 0.0616118)
(3.58903 0.059648 0.0517713)
(3.61656 0.0505356 0.0443061)
(3.63846 0.0421463 0.0383639)
(3.66126 0.032283 0.0340843)
(3.68729 0.0210091 0.030017)
(3.71734 0.0110054 0.0273636)
(3.754 -0.00064522 0.0249975)
(3.79676 -0.0113438 0.0230251)
(3.84724 -0.0216077 0.0218853)
(3.90172 -0.0306796 0.0205701)
(3.96565 -0.0399486 0.0194219)
(4.03141 -0.0442811 0.0178357)
(4.1021 -0.0486852 0.0176743)
(3.00219 0.0226346 0.0632773)
(3.14082 0.0426948 0.0934912)
(3.28446 0.0479993 0.0890227)
(3.3952 0.0490813 0.0852962)
(3.48498 0.0478556 0.0803668)
(3.55672 0.0442256 0.0715674)
(3.62238 0.038115 0.0603342)
(3.67537 0.031215 0.0507762)
(3.72479 0.0202754 0.0431668)
(3.76937 0.0107285 0.0376303)
(3.81201 -0.00178247 0.0331145)
(3.85851 -0.0172452 0.0286957)
(3.90667 -0.0294207 0.0259565)
(3.95914 -0.0465267 0.0230567)
(4.01744 -0.059866 0.0206273)
(4.07953 -0.0743436 0.0195287)
(4.14512 -0.0860855 0.0173715)
(4.21696 -0.100947 0.0160963)
(4.29273 -0.105351 0.0141127)
(4.36907 -0.113763 0.0141126)
(3.00219 0.0168324 0.063175)
(3.12974 0.0332025 0.0937605)
(3.26771 0.0392105 0.0893132)
(3.37579 0.0390642 0.0848845)
(3.46554 0.0361207 0.0794526)
(3.53758 0.0301113 0.0707769)
(3.60459 0.0222063 0.0592679)
(3.65913 0.0135171 0.049632)
(3.71108 -0.00115564 0.0412985)
(3.75921 -0.0120962 0.0361293)
(3.80296 -0.0290327 0.0310936)
(3.85483 -0.0483788 0.0262803)
(3.90438 -0.0631802 0.0240617)
(3.96112 -0.0862199 0.0200813)
(4.02249 -0.102769 0.0181817)
(4.0886 -0.120713 0.0164894)
(4.15547 -0.136712 0.0147401)
(4.23282 -0.155875 0.0118899)
(4.31096 -0.16152 0.0116063)
(4.39172 -0.172759 0.00801636)
(3.0025 0.0111891 0.0632545)
(3.12188 0.0173262 0.0938709)
(3.25696 0.0216174 0.0897444)
(3.36079 0.0188761 0.0849511)
(3.45008 0.0153783 0.0791434)
(3.51926 0.00631021 0.0703918)
(3.5868 -0.00206908 0.058527)
(3.63771 -0.0133503 0.0488453)
(3.69176 -0.0312746 0.03961)
(3.7374 -0.0427958 0.0352661)
(3.781 -0.0651478 0.0291314)
(3.83356 -0.0877193 0.0247924)
(3.88292 -0.104466 0.0226035)
(3.93901 -0.134717 0.018474)
(4.00437 -0.152854 0.0162206)
(4.06881 -0.174435 0.0157466)
(4.13865 -0.195584 0.0122627)
(4.21938 -0.218764 0.0111386)
(4.30166 -0.224943 0.00917833)
(4.38485 -0.239532 0.00909822)
(3.00316 0.00945628 0.0635501)
(3.11609 0.00538535 0.0937148)
(3.25115 0.0112055 0.0903417)
(3.34997 0.00407461 0.085426)
(3.43927 0.00232214 0.0795223)
(3.50434 -0.0123221 0.0709205)
(3.57263 -0.0184736 0.0587958)
(3.61767 -0.0353392 0.0494977)
(3.67445 -0.0548453 0.0392789)
(3.71525 -0.0672578 0.0362828)
(3.75723 -0.0968111 0.028457)
(3.81194 -0.122027 0.0248836)
(3.85692 -0.140868 0.0229974)
(3.91474 -0.181121 0.018039)
(3.98137 -0.19893 0.0166935)
(4.04537 -0.225735 0.0157682)
(4.11544 -0.254118 0.0127863)
(4.20353 -0.281487 0.0110046)
(4.28747 -0.287771 0.010437)
(4.37434 -0.30826 0.00832321)
(3.00466 0.0106843 0.0641249)
(3.11011 -0.00701258 0.0930803)
(3.24864 0.00413628 0.0910533)
(3.33991 -0.0123651 0.0857649)
(3.43171 -0.00865407 0.0802631)
(3.48969 -0.0341967 0.0712163)
(3.56218 -0.0327544 0.0587588)
(3.59707 -0.0616274 0.0500279)
(3.66174 -0.0776517 0.0385755)
(3.69184 -0.0930572 0.0378101)
(3.73578 -0.130604 0.0269644)
(3.79055 -0.157051 0.0257019)
(3.83166 -0.177936 0.0226542)
(3.88943 -0.231379 0.018501)
(3.95974 -0.245714 0.0167961)
(4.0202 -0.279343 0.0163892)
(4.09213 -0.318049 0.0132797)
(4.18782 -0.348239 0.0125228)
(4.27426 -0.355255 0.0111409)
(4.36404 -0.382985 0.00986008)
(3.00811 0.0150267 0.0649362)
(3.10242 -0.0213406 0.0919527)
(3.24965 0.00217496 0.0920792)
(3.3285 -0.0306423 0.0856578)
(3.42835 -0.0137924 0.081341)
(3.47271 -0.0584088 0.0713658)
(3.55645 -0.0392146 0.0586754)
(3.57272 -0.0917271 0.0507561)
(3.65403 -0.0934725 0.0379247)
(3.66394 -0.119118 0.0398247)
(3.71651 -0.161793 0.0250967)
(3.76625 -0.19097 0.0278366)
(3.806 -0.210914 0.0213906)
(3.85991 -0.284626 0.0207813)
(3.93649 -0.28876 0.0167427)
(3.99105 -0.33383 0.0174965)
(4.06497 -0.384449 0.0150238)
(4.16865 -0.41751 0.0154718)
(4.25775 -0.425048 0.0132297)
(4.34967 -0.463411 0.012902)
(3.01595 0.0227404 0.065713)