/*--------------------------------*- C++ -*----------------------------------*\
| =========                 |                                                 |
| \\      /  F ield         | OpenFOAM: The Open Source CFD Toolbox           |
|  \\    /   O peration     | Version:  v1806                                 |
|   \\  /    A nd           | Web:      www.OpenFOAM.com                      |
|    \\/     M anipulation  |                                                 |
\*---------------------------------------------------------------------------*/
FoamFile
{
    version     2.0;
    format      ascii;
    class       volVectorField;
    location    "70";
    object      U;
}
// * * * * * * * * * * * * * * * * * * * * * * * * * * * * * * * * * * * * * //

dimensions      [0 1 -1 0 0 0 0];


internalField   nonuniform List<vector> 
2400
(
(0.299999 -0.000614967 0)
(0.299983 -0.00176482 0)
(0.299983 -0.00289451 0)
(0.299958 -0.00458061 0)
(0.299848 -0.0065236 0)
(0.299742 -0.00794092 0)
(0.299704 -0.00935861 0)
(0.299621 -0.0121995 0)
(0.29933 -0.0161235 0)
(0.298907 -0.0192732 0)
(0.298587 -0.0214813 0)
(0.298335 -0.0251762 0)
(0.297866 -0.0318344 0)
(0.296805 -0.0393748 0)
(0.295435 -0.0454775 0)
(0.293825 -0.0512061 0)
(0.292144 -0.059601 0)
(0.289353 -0.0719184 0)
(0.285059 -0.0845968 0)
(0.278507 -0.0971086 0)
(0.299999 -0.000607605 0)
(0.299967 -0.00175559 0)
(0.29994 -0.00288407 0)
(0.299881 -0.00453458 0)
(0.299718 -0.00644166 0)
(0.299535 -0.00788002 0)
(0.299409 -0.00931674 0)
(0.299242 -0.0120823 0)
(0.298844 -0.0158737 0)
(0.298258 -0.0189957 0)
(0.297725 -0.0212715 0)
(0.297259 -0.0249489 0)
(0.296576 -0.0313247 0)
(0.295233 -0.0385056 0)
(0.293437 -0.0443874 0)
(0.291306 -0.050016 0)
(0.289 -0.0580214 0)
(0.285561 -0.0692998 0)
(0.28039 -0.0805351 0)
(0.273226 -0.0911148 0)
(0.299999 -0.00059652 0)
(0.299951 -0.00173459 0)
(0.299894 -0.00285034 0)
(0.299792 -0.0044584 0)
(0.299563 -0.00632682 0)
(0.299293 -0.00777371 0)
(0.29906 -0.00920459 0)
(0.298778 -0.0118876 0)
(0.298237 -0.0155545 0)
(0.297464 -0.018638 0)
(0.296698 -0.0209314 0)
(0.295982 -0.024557 0)
(0.29504 -0.0306803 0)
(0.293403 -0.0375561 0)
(0.291247 -0.0432141 0)
(0.288707 -0.048684 0)
(0.285983 -0.0563432 0)
(0.282172 -0.0669114 0)
(0.276814 -0.0772782 0)
(0.269593 -0.0868852 0)
(0.299998 -0.000581513 0)
(0.299937 -0.00170042 0)
(0.299848 -0.00279631 0)
(0.299701 -0.00435655 0)
(0.299409 -0.00617196 0)
(0.299053 -0.00761035 0)
(0.298706 -0.00902967 0)
(0.298298 -0.0116344 0)
(0.297611 -0.0151573 0)
(0.296658 -0.0181666 0)
(0.295665 -0.0204552 0)
(0.294693 -0.0240472 0)
(0.293486 -0.0299191 0)
(0.291571 -0.0364598 0)
(0.289108 -0.0418478 0)
(0.286248 -0.0471741 0)
(0.283182 -0.0545191 0)
(0.27911 -0.0644008 0)
(0.273558 -0.0738411 0)
(0.266277 -0.0825352 0)
(0.299998 -0.000562715 0)
(0.299923 -0.0016542 0)
(0.299801 -0.0027221 0)
(0.299612 -0.0042259 0)
(0.299258 -0.00597617 0)
(0.298819 -0.00739517 0)
(0.298358 -0.00879253 0)
(0.297826 -0.0113087 0)
(0.296993 -0.0146676 0)
(0.295866 -0.0175885 0)
(0.294657 -0.0198556 0)
(0.293441 -0.0234041 0)
(0.291973 -0.0290024 0)
(0.289782 -0.0352088 0)
(0.287057 -0.0403258 0)
(0.283929 -0.0455135 0)
(0.280607 -0.0525408 0)
(0.276322 -0.0617652 0)
(0.270662 -0.0703956 0)
(0.263539 -0.0780506 0)
(0.299998 -0.000540351 0)
(0.29991 -0.00159597 0)
(0.299756 -0.00262736 0)
(0.299525 -0.00406751 0)
(0.299111 -0.00574223 0)
(0.298592 -0.00712889 0)
(0.29802 -0.00849019 0)
(0.297369 -0.0109096 0)
(0.296387 -0.0140911 0)
(0.295095 -0.0169118 0)
(0.293684 -0.0191316 0)
(0.292236 -0.0226257 0)
(0.290507 -0.0279349 0)
(0.288052 -0.0338255 0)
(0.285093 -0.0386636 0)
(0.281741 -0.043734 0)
(0.278213 -0.0504374 0)
(0.273761 -0.0590852 0)
(0.268097 -0.0669347 0)
(0.261117 -0.0738617 0)
(0.299997 -0.000514494 0)
(0.299897 -0.001526 0)
(0.299712 -0.00251299 0)
(0.299442 -0.00388236 0)
(0.298967 -0.00547068 0)
(0.298374 -0.00681278 0)
(0.297694 -0.00812546 0)
(0.296927 -0.01044 0)
(0.295796 -0.0134293 0)
(0.294348 -0.0161402 0)
(0.292743 -0.0182887 0)
(0.291075 -0.0217207 0)
(0.289091 -0.0267204 0)
(0.286378 -0.0323196 0)
(0.28321 -0.0368754 0)
(0.279653 -0.0418596 0)
(0.275963 -0.048241 0)
(0.271392 -0.0563791 0)
(0.265774 -0.0635749 0)
(0.259082 -0.0697852 0)
(0.299997 -0.000485248 0)
(0.299885 -0.00144481 0)
(0.29967 -0.00237978 0)
(0.299362 -0.0036709 0)
(0.298827 -0.00516279 0)
(0.298164 -0.00644945 0)
(0.29738 -0.00770088 0)
(0.296504 -0.00990119 0)
(0.295223 -0.0126838 0)
(0.29363 -0.0152791 0)
(0.291833 -0.0173313 0)
(0.289956 -0.0206944 0)
(0.287719 -0.0253588 0)
(0.284757 -0.0307023 0)
(0.281392 -0.0349628 0)
(0.277637 -0.0399154 0)
(0.273823 -0.0459551 0)
(0.26915 -0.0537038 0)
(0.263673 -0.0602943 0)
(0.257303 -0.0659595 0)
(0.299996 -0.000452765 0)
(0.299874 -0.00135288 0)
(0.29963 -0.00222858 0)
(0.299287 -0.003434 0)
(0.298692 -0.00482026 0)
(0.297965 -0.00604097 0)
(0.297078 -0.00721874 0)
(0.296101 -0.00929507 0)
(0.29467 -0.0118573 0)
(0.292942 -0.0143321 0)
(0.290953 -0.0162617 0)
(0.28888 -0.0195513 0)
(0.286386 -0.02385 0)
(0.283184 -0.0289811 0)
(0.279622 -0.0329226 0)
(0.275666 -0.0379152 0)
(0.271751 -0.0435829 0)
(0.266985 -0.0510868 0)
(0.261718 -0.0571457 0)
(0.255742 -0.0624184 0)
(0.299995 -0.000417222 0)
(0.299863 -0.00125071 0)
(0.299591 -0.00206037 0)
(0.299216 -0.00317267 0)
(0.298564 -0.00444487 0)
(0.297777 -0.00558928 0)
(0.296789 -0.00668195 0)
(0.295721 -0.0086239 0)
(0.294138 -0.0109527 0)
(0.29229 -0.0133018 0)
(0.2901 -0.0150818 0)
(0.287849 -0.0182951 0)
(0.285085 -0.0221917 0)
(0.281656 -0.027161 0)
(0.27788 -0.0307413 0)
(0.273713 -0.0358744 0)
(0.269706 -0.0411056 0)
(0.264825 -0.0485789 0)
(0.259858 -0.0541256 0)
(0.254313 -0.0592361 0)
(0.299994 -0.000378833 0)
(0.299853 -0.00113887 0)
(0.299555 -0.00187629 0)
(0.29915 -0.002888 0)
(0.298442 -0.00403873 0)
(0.297603 -0.00509638 0)
(0.296516 -0.00609389 0)
(0.295367 -0.00788972 0)
(0.293629 -0.00997368 0)
(0.291676 -0.0121898 0)
(0.289274 -0.0137944 0)
(0.286869 -0.0169272 0)
(0.28381 -0.0203811 0)
(0.280174 -0.0252426 0)
(0.276144 -0.0284004 0)
(0.271757 -0.0338008 0)
(0.267639 -0.0384908 0)
(0.2626 -0.0462239 0)
(0.258023 -0.0512196 0)
(0.252918 -0.0565126 0)
(0.299994 -0.000337841 0)
(0.299845 -0.00101794 0)
(0.299521 -0.0016776 0)
(0.29909 -0.00258124 0)
(0.298328 -0.00360427 0)
(0.297442 -0.00456426 0)
(0.296259 -0.00545848 0)
(0.29504 -0.00709444 0)
(0.293146 -0.00892505 0)
(0.291107 -0.0109962 0)
(0.288475 -0.0124034 0)
(0.285948 -0.0154459 0)
(0.282552 -0.0184165 0)
(0.278749 -0.0232205 0)
(0.274385 -0.0258767 0)
(0.269789 -0.0316947 0)
(0.265489 -0.035686 0)
(0.260233 -0.044072 0)
(0.256135 -0.0483776 0)
(0.251418 -0.0543871 0)
(0.299993 -0.000294512 0)
(0.299837 -0.000888569 0)
(0.29949 -0.00146568 0)
(0.299035 -0.00225379 0)
(0.298224 -0.00314423 0)
(0.297296 -0.00399496 0)
(0.296021 -0.00478038 0)
(0.294742 -0.00623977 0)
(0.292692 -0.00781311 0)
(0.290587 -0.00972007 0)
(0.287708 -0.0109159 0)
(0.285095 -0.0138452 0)
(0.281307 -0.0163001 0)
(0.277395 -0.0210795 0)
(0.272571 -0.0231481 0)
(0.26782 -0.0295405 0)
(0.263173 -0.0326233 0)
(0.257662 -0.0421676 0)
(0.254088 -0.0455088 0)
(0.249614 -0.0530596 0)
(0.299992 -0.000249122 0)
(0.299829 -0.000751495 0)
(0.299463 -0.00124205 0)
(0.298985 -0.00190725 0)
(0.29813 -0.0026616 0)
(0.297165 -0.00339073 0)
(0.295807 -0.00406486 0)
(0.294475 -0.00532735 0)
(0.292275 -0.0066458 0)
(0.290118 -0.0083587 0)
(0.286981 -0.00934256 0)
(0.284319 -0.0121134 0)
(0.280075 -0.0140414 0)
(0.276136 -0.018789 0)
(0.270665 -0.0202024 0)
(0.265887 -0.0272972 0)
(0.260566 -0.0292279 0)
(0.254873 -0.0405424 0)
(0.251709 -0.0424671 0)
(0.247219 -0.0528002 0)
(0.299992 -0.000201948 0)
(0.299823 -0.000607575 0)
(0.29944 -0.00100826 0)
(0.298941 -0.00154347 0)
(0.298051 -0.00215951 0)
(0.297048 -0.00275426 0)
(0.295621 -0.00331762 0)
(0.294237 -0.00435924 0)
(0.291906 -0.00543246 0)
(0.289697 -0.0069088 0)
(0.286313 -0.00769871 0)
(0.283619 -0.0102329 0)
(0.278877 -0.0116611 0)
(0.274983 -0.0162974 0)
(0.26865 -0.0170481 0)
(0.264047 -0.0248772 0)
(0.257497 -0.0254407 0)
(0.251957 -0.039193 0)
(0.24866 -0.0390365 0)
(0.243896 -0.0540038 0)
(0.299992 -0.000153254 0)
(0.299816 -0.000457816 0)
(0.299422 -0.000765897 0)
(0.298902 -0.00116471 0)
(0.297987 -0.00164108 0)
(0.296944 -0.00208895 0)
(0.295471 -0.00254435 0)
(0.294024 -0.00333874 0)
(0.291601 -0.00418297 0)
(0.289316 -0.00536809 0)
(0.285737 -0.00600307 0)
(0.282977 -0.00818301 0)
(0.277771 -0.00919257 0)
(0.273913 -0.0135266 0)
(0.266569 -0.0137266 0)
(0.262316 -0.0221084 0)
(0.253794 -0.0212573 0)
(0.249121 -0.0380217 0)
(0.244224 -0.0348978 0)
(0.239573 -0.0575872 0)
(0.299993 -0.000103287 0)
(0.29981 -0.000303406 0)
(0.299411 -0.00051648 0)
(0.298867 -0.000773723 0)
(0.297943 -0.00110919 0)
(0.296852 -0.00139937 0)
(0.295364 -0.00175005 0)
(0.293831 -0.00227164 0)
(0.29138 -0.00290584 0)
(0.288957 -0.00373875 0)
(0.285303 -0.0042742 0)
(0.282349 -0.00594743 0)
(0.276869 -0.00667909 0)
(0.27283 -0.0103822 0)
(0.264618 -0.0103178 0)
(0.260533 -0.0186848 0)
(0.2495 -0.0167835 0)
(0.246446 -0.036629 0)
(0.237041 -0.0296794 0)
(0.235228 -0.0653115 0)
(0.299994 -5.22754e-05 0)
(0.299803 -0.000145721 0)
(0.299406 -0.000261446 0)
(0.298837 -0.000373862 0)
(0.297919 -0.000566329 0)
(0.296771 -0.000691575 0)
(0.295306 -0.000938366 0)
(0.293653 -0.00116765 0)
(0.291262 -0.00160561 0)
(0.288605 -0.00203275 0)
(0.285069 -0.00252159 0)
(0.281678 -0.00353207 0)
(0.276338 -0.00415317 0)
(0.271565 -0.00680237 0)
(0.263221 -0.00692932 0)
(0.258217 -0.0141923 0)
(0.245342 -0.0122998 0)
(0.243064 -0.0338587 0)
(0.225797 -0.0234677 0)
(0.232997 -0.0779655 0)
(0.299997 -5.20463e-07 0)
(0.299797 1.39166e-05 0)
(0.299407 -2.31896e-06 0)
(0.298813 3.13729e-05 0)
(0.297917 -1.50335e-05 0)
(0.296703 2.7768e-05 0)
(0.2953 -0.00011227 0)
(0.293494 -3.96227e-05 0)
(0.291257 -0.000282519 0)
(0.288256 -0.000274314 0)
(0.285067 -0.000735873 0)
(0.280935 -0.000986679 0)
(0.27631 -0.0015931 0)
(0.269965 -0.00284511 0)
(0.26291 -0.00357643 0)
(0.254695 -0.00840656 0)
(0.243091 -0.00819678 0)
(0.236065 -0.0273803 0)
(0.213595 -0.0192534 0)
(0.232159 -0.095288 0)
(0.299999 5.13366e-05 0)
(0.299792 0.000174464 0)
(0.299415 0.000258947 0)
(0.298795 0.000438877 0)
(0.297935 0.000541175 0)
(0.296652 0.000753089 0)
(0.295342 0.000722865 0)
(0.293364 0.0011032 0)
(0.291351 0.00105626 0)
(0.287943 0.00152318 0)
(0.285266 0.00107633 0)
(0.280199 0.00166432 0)
(0.276728 0.00102895 0)
(0.268184 0.00139293 0)
(0.263738 -2.56999e-05 0)
(0.249962 -0.00171009 0)
(0.244307 -0.00360196 0)
(0.221349 -0.0172394 0)
(0.2128 -0.0171419 0)
(0.219321 -0.136041 0)
(0.272892 -0.104757 0)
(0.271347 -0.106816 0)
(0.269816 -0.108892 0)
(0.268247 -0.110985 0)
(0.2666 -0.113098 0)
(0.26487 -0.115232 0)
(0.263063 -0.117389 0)
(0.261183 -0.119569 0)
(0.259233 -0.121774 0)
(0.257237 -0.123991 0)
(0.267934 -0.0971043 0)
(0.266446 -0.0986931 0)
(0.264833 -0.100289 0)
(0.263123 -0.1019 0)
(0.261343 -0.103527 0)
(0.259495 -0.105171 0)
(0.257573 -0.106834 0)
(0.25557 -0.108517 0)
(0.253482 -0.110224 0)
(0.251296 -0.111945 0)
(0.263985 -0.092671 0)
(0.26243 -0.09423 0)
(0.260848 -0.095798 0)
(0.259229 -0.0973722 0)
(0.257559 -0.0989541 0)
(0.255835 -0.100546 0)
(0.254057 -0.102151 0)
(0.252227 -0.103768 0)
(0.250348 -0.105398 0)
(0.248419 -0.107035 0)
(0.261072 -0.0873514 0)
(0.259637 -0.088625 0)
(0.258137 -0.0898959 0)
(0.256573 -0.09117 0)
(0.254953 -0.0924501 0)
(0.253275 -0.093738 0)
(0.251537 -0.0950354 0)
(0.249737 -0.096344 0)
(0.247872 -0.0976662 0)
(0.245937 -0.0989963 0)
(0.258398 -0.0823706 0)
(0.25697 -0.0835232 0)
(0.255493 -0.0846775 0)
(0.25397 -0.0858341 0)
(0.252402 -0.0869941 0)
(0.250788 -0.0881588 0)
(0.249127 -0.0893291 0)
(0.247417 -0.0905058 0)
(0.24566 -0.0916893 0)
(0.243853 -0.0928749 0)
(0.256265 -0.0776023 0)
(0.254926 -0.078589 0)
(0.253538 -0.0795679 0)
(0.252104 -0.0805418 0)
(0.250626 -0.0815128 0)
(0.249103 -0.0824825 0)
(0.247533 -0.0834524 0)
(0.245913 -0.0844238 0)
(0.244242 -0.0853984 0)
(0.242515 -0.0863722 0)
(0.254506 -0.0730377 0)
(0.25324 -0.0738929 0)
(0.251923 -0.0747386 0)
(0.250564 -0.0755769 0)
(0.249166 -0.0764092 0)
(0.247726 -0.0772367 0)
(0.246244 -0.0780606 0)
(0.244717 -0.0788815 0)
(0.243144 -0.0797005 0)
(0.241523 -0.0805142 0)
(0.253074 -0.0687758 0)
(0.251904 -0.0695084 0)
(0.250687 -0.0702245 0)
(0.249429 -0.0709263 0)
(0.248135 -0.0716152 0)
(0.246802 -0.0722924 0)
(0.245428 -0.0729593 0)
(0.24401 -0.0736167 0)
(0.242546 -0.0742658 0)
(0.241033 -0.0749043 0)
(0.251927 -0.0648492 0)
(0.25087 -0.0654718 0)
(0.249766 -0.0660709 0)
(0.248622 -0.0666487 0)
(0.247443 -0.0672068 0)
(0.246227 -0.0677463 0)
(0.244971 -0.0682684 0)
(0.243672 -0.0687741 0)
(0.242328 -0.0692645 0)
(0.240934 -0.069738 0)
(0.251008 -0.0613382 0)
(0.250091 -0.0618623 0)
(0.249126 -0.0623525 0)
(0.24812 -0.0628117 0)
(0.24708 -0.0632417 0)
(0.246005 -0.0636435 0)
(0.244888 -0.0640185 0)
(0.243728 -0.0643679 0)
(0.242521 -0.0646931 0)
(0.241261 -0.0649939 0)
(0.250273 -0.0583409 0)
(0.249536 -0.0587751 0)
(0.248744 -0.0591612 0)
(0.247906 -0.0595041 0)
(0.247033 -0.0598059 0)
(0.246124 -0.0600678 0)
(0.245172 -0.0602914 0)
(0.244173 -0.0604783 0)
(0.243124 -0.0606304 0)
(0.242017 -0.0607493 0)
(0.24968 -0.0559946 0)
(0.249182 -0.0563431 0)
(0.248609 -0.0566237 0)
(0.247979 -0.0568457 0)
(0.247311 -0.0570118 0)
(0.246605 -0.0571233 0)
(0.245852 -0.0571819 0)
(0.245046 -0.0571903 0)
(0.244184 -0.0571512 0)
(0.243257 -0.0570688 0)
(0.249196 -0.0544883 0)
(0.249029 -0.0547469 0)
(0.248739 -0.0549108 0)
(0.24837 -0.0549976 0)
(0.247958 -0.0550111 0)
(0.247504 -0.0549518 0)
(0.246998 -0.0548222 0)
(0.246428 -0.0546263 0)
(0.245792 -0.054368 0)
(0.245079 -0.0540552 0)
(0.248825 -0.0540801 0)
(0.249136 -0.0542343 0)
(0.249221 -0.0542574 0)
(0.249183 -0.0541807 0)
(0.249097 -0.0540096 0)
(0.248968 -0.0537444 0)
(0.248774 -0.0533882 0)
(0.248502 -0.0529472 0)
(0.248145 -0.0524268 0)
(0.247692 -0.0518404 0)
(0.248706 -0.0551436 0)
(0.249729 -0.0551694 0)
(0.250331 -0.0550167 0)
(0.25073 -0.0547336 0)
(0.25107 -0.054326 0)
(0.251357 -0.0537936 0)
(0.251555 -0.0531425 0)
(0.251643 -0.0523828 0)
(0.251613 -0.051523 0)
(0.251452 -0.0505872 0)
(0.249355 -0.0583011 0)
(0.2514 -0.058096 0)
(0.252695 -0.0576717 0)
(0.253659 -0.0570917 0)
(0.25453 -0.0563524 0)
(0.255303 -0.0554473 0)
(0.255919 -0.0543839 0)
(0.256342 -0.0531776 0)
(0.25657 -0.0518397 0)
(0.256592 -0.0504152 0)
(0.252174 -0.0646468 0)
(0.255375 -0.0638287 0)
(0.25722 -0.062697 0)
(0.258528 -0.0613764 0)
(0.25968 -0.0598678 0)
(0.260641 -0.0581634 0)
(0.261308 -0.056278 0)
(0.261638 -0.0542377 0)
(0.261633 -0.0520628 0)
(0.261336 -0.0498177 0)
(0.258012 -0.0749388 0)
(0.262006 -0.073245 0)
(0.263339 -0.0710611 0)
(0.263574 -0.0684971 0)
(0.263447 -0.0655821 0)
(0.262961 -0.0623727 0)
(0.261994 -0.0589452 0)
(0.260529 -0.0553698 0)
(0.258613 -0.0516996 0)
(0.256329 -0.0480065 0)
(0.253276 -0.0757069 0)
(0.254192 -0.0702313 0)
(0.251529 -0.0653025 0)
(0.247672 -0.0605558 0)
(0.243393 -0.0557522 0)
(0.238632 -0.050884 0)
(0.233344 -0.0459975 0)
(0.227645 -0.041119 0)
(0.221697 -0.0362526 0)
(0.215553 -0.0314381 0)
(0.201418 -0.0834512 0)
(0.182941 -0.0700733 0)
(0.161977 -0.0582769 0)
(0.144946 -0.04778 0)
(0.131138 -0.0383978 0)
(0.119249 -0.0301251 0)
(0.108925 -0.022945 0)
(0.100143 -0.016778 0)
(0.092638 -0.0115344 0)
(0.0862591 -0.00724434 0)
(0.250038 -0.131728 0)
(0.233807 -0.145666 0)
(0.214325 -0.157642 0)
(0.19224 -0.16526 0)
(0.168573 -0.167613 0)
(0.144482 -0.165024 0)
(0.12105 -0.158346 0)
(0.0992343 -0.148516 0)
(0.0797871 -0.136437 0)
(0.0631691 -0.122964 0)
(0.0495118 -0.108883 0)
(0.0386557 -0.0948469 0)
(0.0302501 -0.0813332 0)
(0.0238674 -0.0686236 0)
(0.0190916 -0.0568236 0)
(0.0155681 -0.0459018 0)
(0.0130213 -0.0357355 0)
(0.0112536 -0.0261785 0)
(0.010148 -0.0172589 0)
(0.00950315 -0.00989308 0)
(0.24368 -0.118144 0)
(0.228809 -0.129084 0)
(0.211416 -0.138167 0)
(0.191854 -0.143678 0)
(0.171006 -0.145052 0)
(0.149727 -0.142627 0)
(0.128736 -0.137122 0)
(0.108694 -0.129281 0)
(0.0901908 -0.119746 0)
(0.0736985 -0.109071 0)
(0.0595094 -0.09774 0)
(0.047706 -0.0861832 0)
(0.0381748 -0.0747575 0)
(0.030666 -0.0637222 0)
(0.024871 -0.0532247 0)
(0.0204865 -0.0433046 0)
(0.0172553 -0.0339166 0)
(0.0149821 -0.0249837 0)
(0.013563 -0.0165804 0)
(0.0127025 -0.00961057 0)
(0.241751 -0.112688 0)
(0.227723 -0.122813 0)
(0.210971 -0.131366 0)
(0.192079 -0.136545 0)
(0.171967 -0.137686 0)
(0.151514 -0.135065 0)
(0.131467 -0.129405 0)
(0.112466 -0.121521 0)
(0.095014 -0.112137 0)
(0.0794283 -0.101857 0)
(0.0658558 -0.0911622 0)
(0.0543123 -0.0804201 0)
(0.0447151 -0.0698912 0)
(0.0369074 -0.0597438 0)
(0.0306883 -0.0500644 0)
(0.0258471 -0.0408686 0)
(0.0221949 -0.032116 0)
(0.0195807 -0.0237505 0)
(0.0179426 -0.0158596 0)
(0.0169146 -0.0092796 0)
(0.239205 -0.103727 0)
(0.225758 -0.112021 0)
(0.210111 -0.118736 0)
(0.19263 -0.122562 0)
(0.174033 -0.123099 0)
(0.154997 -0.120615 0)
(0.136087 -0.115713 0)
(0.117855 -0.10904 0)
(0.10084 -0.101129 0)
(0.0854622 -0.0923906 0)
(0.0719525 -0.0831744 0)
(0.0603637 -0.0737821 0)
(0.050625 -0.0644549 0)
(0.0425956 -0.0553607 0)
(0.0361031 -0.0465954 0)
(0.0309728 -0.0381911 0)
(0.0270514 -0.0301322 0)
(0.0242138 -0.0223908 0)
(0.0224287 -0.0150646 0)
(0.0212733 -0.00889857 0)
(0.237608 -0.0970013 0)
(0.225 -0.104185 0)
(0.210166 -0.109983 0)
(0.193467 -0.11317 0)
(0.175679 -0.113306 0)
(0.157503 -0.110598 0)
(0.139462 -0.105656 0)
(0.122018 -0.0992009 0)
(0.105615 -0.0918154 0)
(0.0906307 -0.0838805 0)
(0.077309 -0.0756456 0)
(0.0657482 -0.0673017 0)
(0.0559256 -0.059005 0)
(0.0477404 -0.0508739 0)
(0.0410531 -0.0429826 0)
(0.0357174 -0.0353628 0)
(0.031604 -0.0280128 0)
(0.0286015 -0.0209242 0)
(0.0267 -0.0141961 0)
(0.0254295 -0.00846626 0)
(0.23654 -0.0897991 0)
(0.224549 -0.0956334 0)
(0.21046 -0.100129 0)
(0.19461 -0.102364 0)
(0.177699 -0.102039 0)
(0.160322 -0.0993111 0)
(0.142935 -0.0946886 0)
(0.125988 -0.0888224 0)
(0.109945 -0.0822417 0)
(0.0952017 -0.0752635 0)
(0.0820127 -0.0680647 0)
(0.0704877 -0.0607693 0)
(0.0606217 -0.0534836 0)
(0.052336 -0.0462953 0)
(0.0455145 -0.0392664 0)
(0.0400314 -0.0324304 0)
(0.035775 -0.025798 0)
(0.032641 -0.0193769 0)
(0.0306364 -0.0132636 0)
(0.0292513 -0.00798597 0)
(0.23592 -0.0833472 0)
(0.224606 -0.0880187 0)
(0.211207 -0.0914446 0)
(0.196026 -0.0928985 0)
(0.179757 -0.0921049 0)
(0.16298 -0.0891603 0)
(0.146104 -0.0845589 0)
(0.129547 -0.0789877 0)
(0.113774 -0.0729859 0)
(0.0992031 -0.0668142 0)
(0.086111 -0.060556 0)
(0.0746205 -0.0542472 0)
(0.0647367 -0.0479311 0)
(0.0563919 -0.0416596 0)
(0.0494832 -0.0354791 0)
(0.0438977 -0.0294227 0)
(0.0395353 -0.0235104 0)
(0.0362941 -0.017762 0)
(0.034196 -0.01227 0)
(0.0326961 -0.00745862 0)
(0.235797 -0.0771195 0)
(0.225127 -0.0805567 0)
(0.212346 -0.0828139 0)
(0.197743 -0.0834079 0)
(0.181995 -0.0821264 0)
(0.165646 -0.0789951 0)
(0.149089 -0.0744555 0)
(0.132749 -0.0692042 0)
(0.117118 -0.0637857 0)
(0.102643 -0.0584109 0)
(0.0896154 -0.0530756 0)
(0.0781608 -0.0477317 0)
(0.0682833 -0.042364 0)
(0.0599163 -0.0369912 0)
(0.0529614 -0.0316465 0)
(0.0473122 -0.0263625 0)
(0.0428756 -0.0211669 0)
(0.0395493 -0.0160894 0)
(0.0373686 -0.011218 0)
(0.0357571 -0.00688513 0)
(0.236107 -0.0713487 0)
(0.226084 -0.073561 0)
(0.213879 -0.0746608 0)
(0.199764 -0.0743812 0)
(0.184397 -0.0725481 0)
(0.168304 -0.0691255 0)
(0.151884 -0.0645374 0)
(0.135596 -0.0595228 0)
(0.119984 -0.0546417 0)
(0.105529 -0.0500438 0)
(0.0925343 -0.0456214 0)
(0.0811183 -0.0412326 0)
(0.0712712 -0.0368007 0)
(0.062917 -0.0323131 0)
(0.055954 -0.027792 0)
(0.050277 -0.0232704 0)
(0.0457961 -0.0187837 0)
(0.0424066 -0.0143694 0)
(0.0401571 -0.0101126 0)
(0.0384416 -0.00626792 0)
(0.236882 -0.0659682 0)
(0.227523 -0.0668811 0)
(0.215858 -0.0667469 0)
(0.202137 -0.0655161 0)
(0.186989 -0.063057 0)
(0.170946 -0.0592805 0)
(0.154454 -0.0546022 0)
(0.138048 -0.0498099 0)
(0.122335 -0.0454762 0)
(0.107837 -0.0416766 0)
(0.0948577 -0.0381854 0)
(0.0834924 -0.0347591 0)
(0.0737052 -0.0312599 0)
(0.0654007 -0.0276478 0)
(0.0584678 -0.0239378 0)
(0.0527977 -0.0201663 0)
(0.0483017 -0.0163764 0)
(0.0448721 -0.0126136 0)
(0.0425698 -0.00896087 0)
(0.0407624 -0.00561106 0)
(0.238146 -0.0610401 0)
(0.229483 -0.0605703 0)
(0.218333 -0.0591172 0)
(0.2049 -0.0568249 0)
(0.189779 -0.0536161 0)
(0.173538 -0.0493827 0)
(0.156739 -0.0445595 0)
(0.140033 -0.0399897 0)
(0.124111 -0.0362417 0)
(0.109526 -0.0332905 0)
(0.0965627 -0.0307703 0)
(0.0852753 -0.0283271 0)
(0.0755866 -0.0257637 0)
(0.0673737 -0.0230189 0)
(0.0605104 -0.0201065 0)
(0.0548824 -0.0170697 0)
(0.0504007 -0.0139611 0)
(0.0469546 -0.0108345 0)
(0.0446175 -0.00777205 0)
(0.0427336 -0.00491999 0)
(0.239972 -0.0565949 0)
(0.232063 -0.0546145 0)
(0.221394 -0.0516996 0)
(0.208092 -0.0481708 0)
(0.192725 -0.0440482 0)
(0.175977 -0.0392552 0)
(0.158603 -0.0342678 0)
(0.141421 -0.0299718 0)
(0.125209 -0.0268971 0)
(0.110527 -0.0248798 0)
(0.0976129 -0.0233912 0)
(0.0864527 -0.0219613 0)
(0.0769151 -0.0203394 0)
(0.0688425 -0.0184527 0)
(0.0620914 -0.0163213 0)
(0.0565413 -0.0140004 0)
(0.0521033 -0.0115542 0)
(0.0486652 -0.0090452 0)
(0.0463123 -0.00655652 0)
(0.0443696 -0.00420117 0)
(0.242498 -0.0526973 0)
(0.235398 -0.0490296 0)
(0.225111 -0.0444333 0)
(0.211668 -0.0394104 0)
(0.195672 -0.034165 0)
(0.178036 -0.0287176 0)
(0.159808 -0.0235952 0)
(0.142007 -0.0196879 0)
(0.12548 -0.017428 0)
(0.11075 -0.0164645 0)
(0.0979615 -0.0160834 0)
(0.0870079 -0.0156994 0)
(0.0776909 -0.0150217 0)
(0.0698156 -0.0139787 0)
(0.0632227 -0.0126067 0)
(0.057787 -0.0109783 0)
(0.0534222 -0.00917187 0)
(0.0500163 -0.00725916 0)
(0.0476668 -0.00532546 0)
(0.0456847 -0.00346168 0)
(0.245969 -0.0494148 0)
(0.23962 -0.043789 0)
(0.229409 -0.0371649 0)
(0.215348 -0.0302976 0)
(0.198201 -0.0237064 0)
(0.179262 -0.0175638 0)
(0.159951 -0.0124247 0)
(0.141484 -0.00910736 0)
(0.124723 -0.00786247 0)
(0.11008 -0.00809974 0)
(0.0975568 -0.00890666 0)
(0.0869263 -0.00959467 0)
(0.0779183 -0.00985333 0)
(0.0703059 -0.00963031 0)
(0.0639196 -0.00898849 0)
(0.0586349 -0.00802364 0)
(0.0543717 -0.00683028 0)
(0.0510214 -0.00548968 0)
(0.0486944 -0.00409034 0)
(0.0466925 -0.00270889 0)
(0.250654 -0.0467721 0)
(0.244524 -0.0387497 0)
(0.233661 -0.0296047 0)
(0.218243 -0.020495 0)
(0.199371 -0.0123906 0)
(0.178824 -0.00562491 0)
(0.158393 -0.000713359 0)
(0.139425 0.00171638 0)
(0.122687 0.00169636 0)
(0.108394 0.000105973 0)
(0.096352 -0.00194847 0)
(0.0862016 -0.00371391 0)
(0.0776099 -0.00488378 0)
(0.0703325 -0.00544318 0)
(0.0642022 -0.0054925 0)
(0.0591036 -0.00515563 0)
(0.0549685 -0.00454475 0)
(0.0516953 -0.00374938 0)
(0.0494087 -0.00286254 0)
(0.0474063 -0.00195004 0)
(0.256156 -0.0445243 0)
(0.248561 -0.0334288 0)
(0.235746 -0.0212132 0)
(0.218196 -0.00962142 0)
(0.19733 -2.96956e-05 0)
(0.17533 0.00709805 0)
(0.154208 0.0114003 0)
(0.135286 0.0125715 0)
(0.119104 0.0110272 0)
(0.105591 0.00796287 0)
(0.0943263 0.00464458 0)
(0.0848451 0.00184698 0)
(0.0767898 -0.000170272 0)
(0.0699226 -0.00145021 0)
(0.0640958 -0.00214178 0)
(0.0592147 -0.00239147 0)
(0.0552311 -0.00232884 0)
(0.0520537 -0.00204947 0)
(0.049824 -0.00165285 0)
(0.047839 -0.00119182 0)
(0.259095 -0.0410111 0)
(0.246572 -0.0265236 0)
(0.230446 -0.0109951 0)
(0.210844 0.0027653 0)
(0.188917 0.0133137 0)
(0.166735 0.0202606 0)
(0.14623 0.0234615 0)
(0.128502 0.0230117 0)
(0.113758 0.019766 0)
(0.101623 0.0152112 0)
(0.0915076 0.0107041 0)
(0.082912 0.00698336 0)
(0.075511 0.00422079 0)
(0.0691164 0.00230302 0)
(0.06363 0.00103704 0)
(0.0589925 0.000252602 0)
(0.0551796 -0.000194299 0)
(0.0521128 -0.000399104 0)
(0.0499547 -0.000470755 0)
(0.0480029 -0.00043994 0)
(0.247189 -0.0348342 0)
(0.22628 -0.0176005 0)
(0.20806 0.000268716 0)
(0.189178 0.0152308 0)
(0.169712 0.0261925 0)
(0.150646 0.0325721 0)
(0.13338 0.0344116 0)
(0.118724 0.0322472 0)
(0.106634 0.0273817 0)
(0.096586 0.0215316 0)
(0.088002 0.0160586 0)
(0.0804862 0.0116027 0)
(0.0738364 0.00823815 0)
(0.0679662 0.00578766 0)
(0.062848 0.00402625 0)
(0.0584678 0.00276433 0)
(0.0548367 0.00184839 0)
(0.0518894 0.00119316 0)
(0.049815 0.00067295 0)
(0.0479091 0.00030094 0)
(0.196485 -0.0175013 0)
(0.170301 -0.00286266 0)
(0.158785 0.0126741 0)
(0.148378 0.0258426 0)
(0.137809 0.0362688 0)
(0.12659 0.041946 0)
(0.115879 0.0426848 0)
(0.106397 0.0392383 0)
(0.0981512 0.0332591 0)
(0.0907958 0.0265929 0)
(0.0840236 0.02054 0)
(0.0777094 0.0156283 0)
(0.0718608 0.0118528 0)
(0.0665332 0.00899781 0)
(0.0617896 0.00682243 0)
(0.0576691 0.00514085 0)
(0.0542246 0.00379426 0)
(0.0513995 0.00272518 0)
(0.04942 0.00176732 0)
(0.047569 0.0010311 0)
(0.0808139 0.00318767 0)
(0.0794443 0.002244 0)
(0.0898105 0.0150507 0)
(0.0955042 0.0276047 0)
(0.0988133 0.039248 0)
(0.0984958 0.0455743 0)
(0.0963186 0.046569 0)
(0.0931298 0.043031 0)
(0.089261 0.0369317 0)
(0.0847967 0.0301951 0)
(0.0798844 0.0240748 0)
(0.074764 0.0190393 0)
(0.0696939 0.0150618 0)
(0.0648856 0.0119345 0)
(0.0604995 0.00942947 0)
(0.056626 0.00738701 0)
(0.0533658 0.00564364 0)
(0.0506561 0.00419994 0)
(0.0487835 0.00280038 0)
(0.046991 0.00176253 0)
(0.0335424 -0.0075945 0)
(0.0375094 -0.00456864 0)
(0.0562691 0.00902625 0)
(0.0676645 0.0232086 0)
(0.0774488 0.0366346 0)
(0.0827172 0.0442934 0)
(0.085253 0.0463047 0)
(0.0855544 0.0434884 0)
(0.084112 0.0379526 0)
(0.0812399 0.0316391 0)
(0.0773507 0.0257889 0)
(0.0728884 0.0208723 0)
(0.06825 0.0168881 0)
(0.0637314 0.0136614 0)
(0.0595484 0.0109941 0)
(0.0558152 0.00874874 0)
(0.0526682 0.00677897 0)
(0.0500208 0.00509322 0)
(0.0482305 0.00345956 0)
(0.0464685 0.00217543 0)
(0.018191 -0.0129243 0)
(0.0223677 -0.00678822 0)
(0.0430271 0.00631777 0)
(0.0563656 0.0210655 0)
(0.068627 0.0351087 0)
(0.0761362 0.0433934 0)
(0.0806093 0.0458986 0)
(0.0823575 0.0434744 0)
(0.0819236 0.0382547 0)
(0.0797139 0.0321804 0)
(0.0762511 0.0264854 0)
(0.0720637 0.0216444 0)
(0.0676062 0.0176715 0)
(0.0632096 0.0144095 0)
(0.0591123 0.011676 0)
(0.0554389 0.00934329 0)
(0.0523402 0.00727777 0)
(0.0497209 0.00548096 0)
(0.0479651 0.00375631 0)
(0.0462187 0.00234388 0)
(0.00755151 -0.015405 0)
(0.0104 -0.00901946 0)
(0.031579 0.00339409 0)
(0.0462721 0.0186493 0)
(0.060583 0.0332265 0)
(0.070064 0.0421682 0)
(0.0762876 0.0452173 0)
(0.0793589 0.0432564 0)
(0.0798517 0.038416 0)
(0.0782522 0.0326292 0)
(0.0751835 0.027122 0)
(0.0712513 0.0223774 0)
(0.0669623 0.0184288 0)
(0.0626799 0.0151395 0)
(0.0586636 0.0123454 0)
(0.0550473 0.00992831 0)
(0.0519944 0.00777026 0)
(0.049404 0.00586231 0)
(0.0476799 0.00405098 0)
(0.0459514 0.00250714 0)
(0.00053966 -0.01604 0)
(0.00125488 -0.0111254 0)
(0.0219861 0.000328839 0)
(0.0374783 0.0159668 0)
(0.053402 0.0310229 0)
(0.0645639 0.0406383 0)
(0.0723287 0.0442828 0)
(0.0765834 0.0428521 0)
(0.0779103 0.0384497 0)
(0.0768631 0.0329944 0)
(0.0741528 0.0277045 0)
(0.0704539 0.023075 0)
(0.06632 0.0191625 0)
(0.0621437 0.0158532 0)
(0.0582029 0.0130031 0)
(0.0546409 0.0105047 0)
(0.0516313 0.00825623 0)
(0.0490701 0.00623876 0)
(0.0473752 0.00434079 0)
(0.0456667 0.00266958 0)
(-0.00369275 -0.01556 0)
(-0.00534522 -0.0129401 0)
(0.0142562 -0.00273448 0)
(0.0300402 0.0131066 0)
(0.0471439 0.0285619 0)
(0.0596829 0.0388481 0)
(0.0687645 0.0431268 0)
(0.0740507 0.0422827 0)
(0.0761115 0.0383699 0)
(0.0755536 0.0332848 0)
(0.0731632 0.0282382 0)
(0.0696742 0.0237405 0)
(0.065681 0.0198745 0)
(0.0616018 0.0165518 0)
(0.0577308 0.01365 0)
(0.05422 0.0110729 0)
(0.0512511 0.00873592 0)
(0.0487193 0.00661044 0)
(0.0470514 0.00462594 0)
(0.0453645 0.00283078 0)
(-0.00571715 -0.0143567 0)
(-0.00960846 -0.0144222 0)
(0.00838187 -0.00569678 0)
(0.0239869 0.0101585 0)
(0.0418455 0.0259105 0)
(0.0554526 0.0368472 0)
(0.0656177 0.0417838 0)
(0.0717755 0.0415712 0)
(0.0744643 0.038191 0)
(0.0743295 0.0335093 0)
(0.0722183 0.0287285 0)
(0.0689144 0.0243772 0)
(0.0650466 0.0205669 0)
(0.061055 0.0172365 0)
(0.0572479 0.0142866 0)
(0.0537849 0.0116333 0)
(0.0508541 0.00920959 0)
(0.0483517 0.00697734 0)
(0.0467087 0.00490685 0)
(0.0450448 0.00299004 0)
(-0.00583283 -0.012776 0)
(-0.0116591 -0.0155686 0)
(0.00435448 -0.00847379 0)
(0.0193325 0.00720046 0)
(0.0375259 0.0231328 0)
(0.0518914 0.0346837 0)
(0.0629025 0.0402886 0)
(0.069768 0.0407412 0)
(0.0729758 0.0379283 0)
(0.0731955 0.0336773 0)
(0.0713211 0.0291813 0)
(0.0681763 0.0249886 0)
(0.064418 0.0212417 0)
(0.0605042 0.0179087 0)
(0.0567547 0.014914 0)
(0.053336 0.0121866 0)
(0.0504404 0.00967752 0)
(0.0479675 0.00733957 0)
(0.0463471 0.00518372 0)
(0.0447077 0.00314702 0)
(-0.00409637 -0.0111726 0)
(-0.0115232 -0.0163768 0)
(0.00218024 -0.0109837 0)
(0.0160811 0.00430849 0)
(0.0341915 0.0202913 0)
(0.0490071 0.0324059 0)
(0.060626 0.0386762 0)
(0.0680343 0.0398167 0)
(0.0716505 0.0375974 0)
(0.0721549 0.0337988 0)
(0.070474 0.0296027 0)
(0.0674615 0.0255785 0)
(0.0637961 0.0219015 0)
(0.0599499 0.0185699 0)
(0.0562516 0.015533 0)
(0.0528736 0.0127332 0)
(0.0500103 0.01014 0)
(0.0475668 0.00769721 0)
(0.0459669 0.00545686 0)
(0.0443533 0.00330126 0)
(-0.000340413 -0.00998761 0)
(-0.00913523 -0.0168226 0)
(0.00187569 -0.0131644 0)
(0.0142355 0.00156007 0)
(0.0318399 0.0174503 0)
(0.0467995 0.0300622 0)
(0.0587897 0.0369824 0)
(0.0665769 0.0388224 0)
(0.0704912 0.0372145 0)
(0.07121 0.0338839 0)
(0.0696784 0.0299989 0)
(0.0667711 0.0261507 0)
(0.0631816 0.0225485 0)
(0.0593927 0.0192214 0)
(0.0557388 0.0161444 0)
(0.0523979 0.0132737 0)
(0.0495639 0.0105974 0)
(0.0471498 0.00805036 0)
(0.0455681 0.00572651 0)
(0.0439817 0.00345242 0)
(0.00581803 -0.00972277 0)
(-0.00433344 -0.0169342 0)
(0.0034687 -0.0149589 0)
(0.0138017 -0.000977921 0)
(0.0304649 0.014674 0)
(0.0452637 0.0276967 0)
(0.0573911 0.0352413 0)
(0.0653957 0.0377811 0)
(0.0694988 0.0367947 0)
(0.0703618 0.033942 0)
(0.0689355 0.0303758 0)
(0.0661059 0.026709 0)
(0.0625751 0.023185 0)
(0.0588328 0.0198649 0)
(0.0552167 0.0167492 0)
(0.051909 0.0138088 0)
(0.0491013 0.0110496 0)
(0.0467165 0.00840008 0)
(0.0451506 0.00599094 0)
(0.0435929 0.0036032 0)
(0.0210749 -0.0102556 0)
(0.00815412 -0.0167528 0)
(0.00938454 -0.0171979 0)
(0.015458 -0.0048086 0)