/*--------------------------------*- C++ -*----------------------------------*\
| =========                 |                                                 |
| \\      /  F ield         | OpenFOAM: The Open Source CFD Toolbox           |
|  \\    /   O peration     | Version:  v1806                                 |
|   \\  /    A nd           | Web:      www.OpenFOAM.com                      |
|    \\/     M anipulation  |                                                 |
\*---------------------------------------------------------------------------*/
FoamFile
{
    version     2.0;
    format      ascii;
    class       volVectorField;
    location    "5";
    object      U;
}
// * * * * * * * * * * * * * * * * * * * * * * * * * * * * * * * * * * * * * //

dimensions      [0 1 -1 0 0 0 0];


internalField   nonuniform List<vector> 
2400
(
(2.99913 0.00540079 0)
(3.01112 -0.0168562 0)
(2.99267 -0.10902 0)
(2.9835 -0.0964749 0)
(3.0006 -0.00162141 0)
(3.02579 -0.0636346 0)
(3.00497 -0.267012 0)
(2.96256 -0.354523 0)
(2.96347 -0.245128 0)
(2.99988 -0.175498 0)
(3.01704 -0.334222 0)
(2.99489 -0.624959 0)
(2.92419 -0.794602 0)
(2.8796 -0.839947 0)
(2.82985 -0.892079 0)
(2.73052 -1.1056 0)
(2.57252 -1.40229 0)
(2.33931 -1.68495 0)
(2.07313 -1.8554 0)
(1.78086 -1.90243 0)
(3.00214 0.00212545 0)
(3.0067 -0.0151628 0)
(2.99292 -0.0995617 0)
(2.98536 -0.0983924 0)
(2.99339 -0.0167483 0)
(3.01964 -0.0669388 0)
(2.99895 -0.246843 0)
(2.96741 -0.339758 0)
(2.95652 -0.256132 0)
(2.97118 -0.195135 0)
(2.98523 -0.335643 0)
(2.96246 -0.595589 0)
(2.8846 -0.753877 0)
(2.82433 -0.809236 0)
(2.73841 -0.846419 0)
(2.62871 -1.02661 0)
(2.49465 -1.27119 0)
(2.28919 -1.51234 0)
(2.06204 -1.65601 0)
(1.80554 -1.69513 0)
(3.00291 0.00166426 0)
(2.99988 -0.0130732 0)
(2.9989 -0.0996469 0)
(2.98324 -0.0973473 0)
(2.99156 -0.0169323 0)
(3.01293 -0.0651776 0)
(2.99201 -0.243555 0)
(2.96912 -0.337579 0)
(2.94161 -0.249176 0)
(2.95776 -0.190611 0)
(2.96566 -0.331665 0)
(2.93384 -0.586431 0)
(2.86876 -0.738457 0)
(2.81514 -0.784402 0)
(2.73483 -0.811722 0)
(2.64488 -1.00339 0)
(2.51367 -1.25706 0)
(2.29318 -1.50973 0)
(2.05846 -1.65827 0)
(1.79688 -1.69925 0)
(2.99839 0.00142533 0)
(3.00247 -0.0141781 0)
(2.99992 -0.093478 0)
(2.97953 -0.0947265 0)
(2.99568 -0.027357 0)
(3.00371 -0.066931 0)
(2.9907 -0.231139 0)
(2.96491 -0.321394 0)
(2.92816 -0.248705 0)
(2.94522 -0.203274 0)
(2.93797 -0.326851 0)
(2.91883 -0.560614 0)
(2.85339 -0.704396 0)
(2.77757 -0.758946 0)
(2.67357 -0.784379 0)
(2.56944 -0.954276 0)
(2.43676 -1.14763 0)
(2.23507 -1.35493 0)
(2.04492 -1.47512 0)
(1.82272 -1.51023 0)
(2.99544 0.00139035 0)
(3.00782 -0.0141903 0)
(2.99557 -0.0899153 0)
(2.98425 -0.0958219 0)
(2.99339 -0.0280447 0)
(2.99447 -0.0629449 0)
(2.99016 -0.226811 0)
(2.95528 -0.313753 0)
(2.92002 -0.241918 0)
(2.93502 -0.196332 0)
(2.92084 -0.319493 0)
(2.90287 -0.552692 0)
(2.81997 -0.681759 0)
(2.74837 -0.720617 0)
(2.66647 -0.730193 0)
(2.58324 -0.909526 0)
(2.45929 -1.11531 0)
(2.25164 -1.35027 0)
(2.05398 -1.48147 0)
(1.81598 -1.51726 0)
(2.99752 0.000349357 0)
(3.00928 -0.0146723 0)
(2.99199 -0.0842293 0)
(2.98699 -0.0934379 0)
(2.98492 -0.0313369 0)
(2.99144 -0.0656509 0)
(2.98452 -0.216239 0)
(2.9476 -0.295672 0)
(2.91973 -0.238659 0)
(2.92453 -0.203115 0)
(2.90012 -0.315121 0)
(2.88617 -0.526128 0)
(2.80279 -0.642265 0)
(2.73631 -0.697554 0)
(2.63512 -0.713485 0)
(2.52663 -0.880312 0)
(2.39286 -1.02504 0)
(2.19995 -1.21665 0)
(2.04711 -1.31515 0)
(1.84621 -1.3486 0)
(3.00207 -0.00107258 0)
(3.00429 -0.012736 0)
(2.99114 -0.0807808 0)
(2.98602 -0.0925632 0)
(2.9785 -0.0312025 0)
(2.99212 -0.0627476 0)
(2.97943 -0.207891 0)
(2.94537 -0.288981 0)
(2.91358 -0.23366 0)
(2.90797 -0.190679 0)
(2.88924 -0.303087 0)
(2.87503 -0.514678 0)
(2.77162 -0.61998 0)
(2.70659 -0.662045 0)
(2.61416 -0.652488 0)
(2.52782 -0.823608 0)
(2.41288 -0.980057 0)
(2.22101 -1.21196 0)
(2.05995 -1.3233 0)
(1.83649 -1.35642 0)
(3.00235 -0.00194083 0)
(2.99817 -0.0110568 0)
(2.9959 -0.0770475 0)
(2.98282 -0.0882009 0)
(2.97896 -0.0346626 0)
(2.99324 -0.0654192 0)
(2.97196 -0.196673 0)
(2.94269 -0.27153 0)
(2.90474 -0.224035 0)
(2.8976 -0.192357 0)
(2.87737 -0.301304 0)
(2.85246 -0.485182 0)
(2.75347 -0.575257 0)
(2.70652 -0.635568 0)
(2.59397 -0.634505 0)
(2.48522 -0.805995 0)
(2.36581 -0.905663 0)
(2.18893 -1.10085 0)
(2.06879 -1.17211 0)
(1.87402 -1.205 0)
(2.997 -0.000981874 0)
(3.00146 -0.0110741 0)
(3.00026 -0.0744874 0)
(2.979 -0.0848717 0)
(2.9823 -0.0367665 0)
(2.98546 -0.0604962 0)
(2.96606 -0.186977 0)
(2.94151 -0.263365 0)
(2.89452 -0.21603 0)
(2.89198 -0.180284 0)
(2.8691 -0.285393 0)
(2.83691 -0.467837 0)
(2.73771 -0.558664 0)
(2.68381 -0.604756 0)
(2.5657 -0.569548 0)
(2.48818 -0.747963 0)
(2.39116 -0.855709 0)
(2.2092 -1.09642 0)
(2.07251 -1.17556 0)
(1.84799 -1.21041 0)
(2.99568 -0.0011177 0)
(3.00864 -0.0130995 0)
(2.99457 -0.0677929 0)
(2.97925 -0.0803856 0)
(2.97997 -0.0392232 0)
(2.97507 -0.0585203 0)
(2.96855 -0.178046 0)
(2.93643 -0.245319 0)
(2.88788 -0.205367 0)
(2.88869 -0.181083 0)
(2.85266 -0.279199 0)
(2.81778 -0.437118 0)
(2.72922 -0.514321 0)
(2.67192 -0.571859 0)
(2.54978 -0.550088 0)
(2.46723 -0.741863 0)
(2.35117 -0.790417 0)
(2.17281 -0.999735 0)
(2.07654 -1.03394 0)
(1.88052 -1.08081 0)
(3.00077 -0.00232528 0)
(3.00353 -0.0115424 0)
(2.98982 -0.0631412 0)
(2.98496 -0.0781839 0)
(2.97305 -0.0366439 0)
(2.97532 -0.0557751 0)
(2.97019 -0.170856 0)
(2.92421 -0.231964 0)
(2.88584 -0.197817 0)
(2.88003 -0.166868 0)
(2.84224 -0.25919 0)
(2.81038 -0.419833 0)
(2.71589 -0.497979 0)
(2.64049 -0.538881 0)
(2.5338 -0.490045 0)
(2.47373 -0.683392 0)
(2.35301 -0.732389 0)
(2.17426 -0.996571 0)
(2.06126 -1.03017 0)
(1.8318 -1.08556 0)
(3.0006 -0.00253384 0)
(2.9972 -0.00972259 0)
(2.99706 -0.0600739 0)
(2.98357 -0.0728833 0)
(2.97024 -0.0374213 0)
(2.97804 -0.0570219 0)
(2.96081 -0.157021 0)
(2.91962 -0.212831 0)
(2.88929 -0.190095 0)
(2.86351 -0.161672 0)
(2.83727 -0.251329 0)
(2.7963 -0.389367 0)
(2.70667 -0.450749 0)
(2.62975 -0.503621 0)
(2.53107 -0.475874 0)
(2.44375 -0.674225 0)
(2.29872 -0.663628 0)
(2.15275 -0.91416 0)
(2.08036 -0.898011 0)
(1.86927 -0.987255 0)
(2.99746 -0.00131777 0)
(3.00239 -0.0105158 0)
(2.9972 -0.058048 0)
(2.97738 -0.0669393 0)
(2.9754 -0.0358691 0)
(2.97048 -0.0520441 0)
(2.9553 -0.14763 0)
(2.92243 -0.203506 0)
(2.88301 -0.178208 0)
(2.85017 -0.144953 0)
(2.84577 -0.235965 0)
(2.77307 -0.367423 0)
(2.69366 -0.431009 0)
(2.60882 -0.469805 0)
(2.52476 -0.420738 0)
(2.44082 -0.611416 0)
(2.29936 -0.609454 0)
(2.1723 -0.921924 0)
(2.05998 -0.879617 0)
(1.80916 -0.991504 0)
(2.99913 -0.00211436 0)
(3.00328 -0.0107476 0)
(2.99141 -0.0503045 0)
(2.98025 -0.0624145 0)
(2.97485 -0.0371369 0)
(2.96279 -0.0490719 0)
(2.96153 -0.136937 0)
(2.91507 -0.184596 0)
(2.87697 -0.165448 0)
(2.84442 -0.142486 0)
(2.84319 -0.22358 0)
(2.74435 -0.329826 0)
(2.70973 -0.391761 0)
(2.59282 -0.436225 0)
(2.51509 -0.403538 0)
(2.39931 -0.591361 0)
(2.28184 -0.548323 0)
(2.18209 -0.853251 0)
(2.09023 -0.749524 0)
(1.84511 -0.925875 0)
(2.99986 -0.00216897 0)
(2.99966 -0.00788631 0)
(2.994 -0.0486965 0)
(2.98088 -0.0601597 0)
(2.97098 -0.0312066 0)
(2.96433 -0.0448604 0)
(2.95912 -0.129327 0)
(2.90211 -0.170488 0)
(2.88573 -0.152807 0)
(2.8338 -0.128073 0)
(2.84029 -0.203624 0)
(2.72726 -0.309992 0)
(2.71708 -0.373416 0)
(2.54449 -0.391219 0)
(2.5288 -0.354529 0)
(2.40537 -0.530985 0)
(2.30218 -0.510946 0)
(2.16362 -0.855216 0)
(2.00742 -0.704765 0)
(1.76737 -0.955376 0)
(2.99879 -0.00161489 0)
(3.00093 -0.00910637 0)
(2.9955 -0.0436743 0)
(2.97679 -0.0517609 0)
(2.97208 -0.0318384 0)
(2.9621 -0.0446191 0)
(2.95504 -0.113498 0)
(2.90191 -0.15311 0)
(2.88772 -0.143007 0)
(2.81252 -0.121146 0)
(2.84743 -0.187051 0)
(2.71515 -0.276062 0)
(2.72537 -0.331177 0)
(2.50804 -0.355443 0)
(2.54607 -0.346969 0)
(2.33291 -0.49361 0)
(2.27657 -0.449172 0)
(2.13655 -0.776522 0)
(2.00808 -0.575757 0)
(1.81183 -0.966381 0)
(2.99924 -0.00194628 0)
(3.00095 -0.00723565 0)
(2.99346 -0.0388402 0)
(2.97719 -0.0498774 0)
(2.97316 -0.0284598 0)
(2.95748 -0.0366084 0)
(2.95598 -0.105027 0)
(2.89652 -0.143583 0)
(2.88483 -0.124039 0)
(2.8098 -0.10539 0)
(2.85263 -0.1715 0)
(2.68256 -0.256233 0)
(2.72562 -0.303872 0)
(2.49373 -0.310399 0)
(2.58532 -0.301183 0)
(2.29357 -0.423323 0)
(2.29027 -0.433293 0)
(2.06297 -0.7651 0)
(1.91773 -0.532975 0)
(1.79188 -1.07194 0)
(2.99928 -0.00149888 0)
(3.00004 -0.00710161 0)
(2.9946 -0.0351605 0)
(2.97711 -0.0428899 0)
(2.97065 -0.0251323 0)
(2.95634 -0.03678 0)
(2.95639 -0.0920434 0)
(2.89162 -0.123169 0)
(2.88462 -0.11197 0)
(2.80288 -0.103132 0)
(2.84644 -0.148063 0)
(2.6806 -0.218952 0)
(2.73925 -0.266734 0)
(2.45383 -0.285845 0)
(2.57174 -0.284451 0)
(2.23997 -0.369174 0)
(2.39867 -0.374611 0)
(2.05972 -0.638705 0)
(2.00108 -0.426979 0)
(1.85293 -1.11112 0)
(2.99913 -0.00153926 0)
(3.00036 -0.00602312 0)
(2.99431 -0.0299097 0)
(2.97574 -0.0389027 0)
(2.97098 -0.0228903 0)
(2.95617 -0.0302372 0)
(2.95222 -0.0795344 0)
(2.89084 -0.112995 0)
(2.88232 -0.0965125 0)
(2.80256 -0.0848409 0)
(2.83829 -0.129659 0)
(2.67744 -0.203898 0)
(2.72274 -0.232413 0)
(2.45655 -0.234171 0)
(2.59576 -0.236194 0)
(2.19773 -0.324463 0)
(2.37667 -0.375774 0)
(1.81996 -0.582954 0)
(1.99144 -0.454101 0)
(1.74707 -1.26228 0)
(2.99918 -0.00119407 0)
(3.00008 -0.00541271 0)
(2.99407 -0.0260286 0)
(2.97613 -0.0329428 0)
(2.96998 -0.0189779 0)
(2.95452 -0.0276682 0)
(2.95132 -0.068493 0)
(2.89139 -0.0944103 0)
(2.87629 -0.0814742 0)
(2.80242 -0.0785581 0)
(2.83199 -0.110022 0)
(2.68319 -0.167169 0)
(2.70485 -0.192429 0)
(2.46446 -0.216513 0)
(2.55855 -0.202872 0)
(2.21875 -0.273864 0)
(2.39561 -0.262794 0)
(1.82814 -0.498096 0)
(2.16173 -0.346422 0)
(1.70446 -1.53968 0)
(1.6131 -1.88895 0)
(1.56807 -1.88338 0)
(1.52402 -1.87589 0)
(1.48061 -1.86659 0)
(1.43765 -1.85549 0)
(1.39476 -1.84304 0)
(1.35255 -1.8291 0)
(1.31047 -1.81417 0)
(1.26937 -1.79795 0)
(1.22845 -1.7812 0)
(1.65819 -1.68536 0)
(1.6193 -1.68075 0)
(1.58108 -1.67429 0)
(1.54283 -1.66644 0)
(1.5047 -1.65709 0)
(1.46634 -1.64675 0)
(1.42872 -1.63522 0)
(1.39099 -1.62298 0)
(1.35452 -1.60987 0)
(1.31744 -1.59605 0)
(1.64739 -1.68673 0)
(1.6079 -1.68124 0)
(1.56892 -1.67386 0)
(1.53005 -1.66503 0)
(1.4915 -1.65467 0)
(1.45282 -1.64339 0)
(1.41493 -1.63092 0)
(1.37694 -1.61775 0)
(1.34003 -1.60355 0)
(1.30267 -1.58867 0)
(1.6949 -1.5016 0)
(1.66144 -1.49763 0)
(1.62894 -1.492 0)
(1.59583 -1.48528 0)
(1.56242 -1.47724 0)
(1.52811 -1.46854 0)
(1.49465 -1.4588 0)
(1.46045 -1.44847 0)
(1.42778 -1.43747 0)
(1.39376 -1.42567 0)
(1.68135 -1.50466 0)
(1.64644 -1.49926 0)
(1.61233 -1.49178 0)
(1.57753 -1.48302 0)
(1.54253 -1.47272 0)
(1.50674 -1.46175 0)
(1.47212 -1.44967 0)
(1.43692 -1.43711 0)
(1.40363 -1.42396 0)
(1.36891 -1.41003 0)
(1.73323 -1.33886 0)
(1.70505 -1.33497 0)
(1.6776 -1.32938 0)
(1.64831 -1.32302 0)
(1.6182 -1.31536 0)
(1.58648 -1.30744 0)
(1.55597 -1.29873 0)
(1.52423 -1.28962 0)
(1.49471 -1.28044 0)
(1.46299 -1.27001 0)
(1.71571 -1.33929 0)
(1.68494 -1.33309 0)
(1.65538 -1.3247 0)
(1.62423 -1.3155 0)
(1.59245 -1.30476 0)
(1.55899 -1.29387 0)
(1.52738 -1.28195 0)
(1.4943 -1.26976 0)
(1.46458 -1.25749 0)
(1.43185 -1.24399 0)
(1.7747 -1.19341 0)
(1.75117 -1.18934 0)
(1.72801 -1.18322 0)
(1.70159 -1.17686 0)
(1.6739 -1.16905 0)
(1.6438 -1.16159 0)
(1.61579 -1.15334 0)
(1.58556 -1.14501 0)
(1.55899 -1.13715 0)
(1.52847 -1.12752 0)
(1.74522 -1.18619 0)
(1.72028 -1.17907 0)
(1.69643 -1.16953 0)
(1.66962 -1.15997 0)
(1.64166 -1.14857 0)
(1.61129 -1.13777 0)
(1.5837 -1.12595 0)
(1.55384 -1.11428 0)
(1.52885 -1.10328 0)
(1.49917 -1.09037 0)
(1.80439 -1.06574 0)
(1.78681 -1.06134 0)
(1.76906 -1.0543 0)
(1.74714 -1.04798 0)
(1.72352 -1.03975 0)
(1.69689 -1.03269 0)
(1.67288 -1.02445 0)
(1.64585 -1.01647 0)
(1.62362 -1.00925 0)
(1.59556 -0.999521 0)
(1.76477 -1.05775 0)
(1.74979 -1.04992 0)
(1.73406 -1.03879 0)
(1.7142 -1.02891 0)
(1.69265 -1.01665 0)
(1.66877 -1.00633 0)
(1.64809 -0.994343 0)
(1.62474 -0.983396 0)
(1.60708 -0.972793 0)
(1.58289 -0.960341 0)
(1.83473 -0.968936 0)
(1.82743 -0.96396 0)
(1.81718 -0.955032 0)
(1.80164 -0.948216 0)
(1.78322 -0.938421 0)
(1.76263 -0.931396 0)
(1.74443 -0.921711 0)
(1.72365 -0.913756 0)
(1.70742 -0.904809 0)
(1.68429 -0.894678 0)
(1.80457 -0.964736 0)
(1.80476 -0.957376 0)
(1.79966 -0.945094 0)
(1.78897 -0.935672 0)
(1.77469 -0.922239 0)
(1.75986 -0.912729 0)
(1.74701 -0.898863 0)
(1.73277 -0.888448 0)
(1.72241 -0.874441 0)
(1.70512 -0.861908 0)
(1.88489 -0.911123 0)
(1.89452 -0.906844 0)
(1.89537 -0.89652 0)
(1.88905 -0.890036 0)
(1.87727 -0.877871 0)
(1.86549 -0.870828 0)
(1.85372 -0.856365 0)
(1.84123 -0.847403 0)
(1.8298 -0.830256 0)
(1.81216 -0.818301 0)
(1.87751 -0.930531 0)
(1.90112 -0.921984 0)
(1.91074 -0.906862 0)
(1.91069 -0.896714 0)
(1.90426 -0.879552 0)
(1.89878 -0.868703 0)
(1.89161 -0.847064 0)
(1.88446 -0.833314 0)
(1.8749 -0.806057 0)
(1.86004 -0.789027 0)
(1.98712 -0.927328 0)
(2.0182 -0.911319 0)
(2.02755 -0.890497 0)
(2.02319 -0.876253 0)
(2.01336 -0.855152 0)
(2.00427 -0.840928 0)
(1.99308 -0.813285 0)
(1.98119 -0.795207 0)
(1.96342 -0.758519 0)
(1.94106 -0.737142 0)
(2.05601 -0.981426 0)
(2.0899 -0.946358 0)
(2.08641 -0.908801 0)
(2.06511 -0.877588 0)
(2.04459 -0.842674 0)
(2.02475 -0.812641 0)
(2.00625 -0.770999 0)
(1.98399 -0.736523 0)
(1.95506 -0.684184 0)
(1.92026 -0.646781 0)
(2.16794 -1.00256 0)
(2.19356 -0.964352 0)
(2.16332 -0.930545 0)
(2.10659 -0.898441 0)
(2.05784 -0.860669 0)
(2.00764 -0.817758 0)
(1.96712 -0.763329 0)
(1.91458 -0.705391 0)
(1.86314 -0.63203 0)
(1.79301 -0.564248 0)
(2.05715 -0.744898 0)
(2.04161 -0.643165 0)
(1.95522 -0.589444 0)
(1.86368 -0.558867 0)
(1.7963 -0.529338 0)
(1.72716 -0.500757 0)
(1.67028 -0.46836 0)
(1.58957 -0.425555 0)
(1.52915 -0.365138 0)
(1.41195 -0.305638 0)
(2.08906 -0.988955 0)
(1.79228 -0.863507 0)
(1.43092 -0.774582 0)
(1.16107 -0.704168 0)
(0.95076 -0.631613 0)
(0.741706 -0.564718 0)
(0.537171 -0.463549 0)
(0.367523 -0.294235 0)
(0.258215 -0.115997 0)
(0.15759 0.0185517 0)
(1.09582 -1.71941 0)
(0.888392 -1.59409 0)
(0.704355 -1.45389 0)
(0.546895 -1.30533 0)
(0.417106 -1.15656 0)
(0.314215 -1.01423 0)
(0.235073 -0.88269 0)
(0.175541 -0.763974 0)
(0.131449 -0.658391 0)
(0.099088 -0.565165 0)
(0.0754207 -0.483004 0)
(0.0581002 -0.410453 0)
(0.0453825 -0.346083 0)
(0.0360017 -0.288562 0)
(0.0290533 -0.236675 0)
(0.0238953 -0.189302 0)
(0.0200862 -0.145387 0)
(0.0173114 -0.103833 0)
(0.0155109 -0.0635857 0)
(0.0143756 -0.0238999 0)
(1.19625 -1.5471 0)
(1.00321 -1.44199 0)
(0.826354 -1.32275 0)
(0.66918 -1.19666 0)
(0.53366 -1.07014 0)
(0.421113 -0.947846 0)
(0.330225 -0.832941 0)
(0.25824 -0.727302 0)
(0.202055 -0.631627 0)
(0.158663 -0.545723 0)
(0.125369 -0.468888 0)
(0.0999081 -0.400183 0)
(0.0804568 -0.338584 0)
(0.0655975 -0.283067 0)
(0.0542529 -0.23264 0)
(0.0456189 -0.186348 0)
(0.0391266 -0.143254 0)
(0.0343503 -0.102374 0)
(0.0313025 -0.0627412 0)
(0.0294234 -0.0236181 0)
(1.18311 -1.53555 0)
(0.992146 -1.42446 0)
(0.818439 -1.29933 0)
(0.666149 -1.16886 0)
(0.536327 -1.04081 0)
(0.429676 -0.919724 0)
(0.344407 -0.807734 0)
(0.2771 -0.705691 0)
(0.224166 -0.613644 0)
(0.182526 -0.531064 0)
(0.149718 -0.457107 0)
(0.123829 -0.390803 0)
(0.103387 -0.331165 0)
(0.0872604 -0.277232 0)
(0.0745851 -0.228084 0)
(0.0647072 -0.182835 0)
(0.0571713 -0.140615 0)
(0.0516228 -0.100524 0)
(0.0482159 -0.0616858 0)
(0.0462746 -0.0232732 0)
(1.28346 -1.38605 0)
(1.10325 -1.29659 0)
(0.930596 -1.19256 0)
(0.771868 -1.08253 0)
(0.630591 -0.972708 0)
(0.509838 -0.866978 0)
(0.410483 -0.767395 0)
(0.331024 -0.674978 0)
(0.268525 -0.590185 0)
(0.219689 -0.513015 0)
(0.181521 -0.443106 0)
(0.151592 -0.379866 0)
(0.128039 -0.322581 0)
(0.109474 -0.270489 0)
(0.0948771 -0.222811 0)
(0.0835063 -0.178766 0)
(0.0748672 -0.137576 0)
(0.068583 -0.0984338 0)
(0.0648427 -0.0605624 0)
(0.062857 -0.0229367 0)
(1.26165 -1.36386 0)
(1.08758 -1.26216 0)
(0.922115 -1.14797 0)
(0.772509 -1.03369 0)
(0.641883 -0.925302 0)
(0.530923 -0.824358 0)
(0.438218 -0.731002 0)
(0.361795 -0.644993 0)
(0.299581 -0.566023 0)
(0.249421 -0.493764 0)
(0.209195 -0.427829 0)
(0.177009 -0.367749 0)
(0.151284 -0.312971 0)
(0.130769 -0.262883 0)
(0.114504 -0.216835 0)
(0.101774 -0.174152 0)
(0.0920977 -0.134145 0)
(0.0850969 -0.0961035 0)
(0.0809737 -0.0593531 0)
(0.0788562 -0.0225941 0)
(1.36249 -1.23916 0)
(1.19304 -1.15958 0)
(1.02153 -1.06179 0)
(0.85741 -0.96129 0)
(0.709681 -0.865569 0)
(0.584343 -0.775842 0)
(0.48168 -0.69187 0)
(0.398831 -0.613513 0)
(0.332283 -0.540738 0)
(0.278866 -0.473472 0)
(0.235941 -0.411547 0)
(0.201399 -0.354684 0)
(0.173595 -0.3025 0)
(0.151265 -0.254524 0)
(0.133457 -0.210227 0)
(0.119459 -0.169033 0)
(0.108801 -0.13034 0)
(0.1011 -0.0935296 0)
(0.0965527 -0.0580256 0)
(0.094229 -0.0222202 0)
(1.33779 -1.20485 0)
(1.18008 -1.10981 0)
(1.02046 -1.00192 0)
(0.869289 -0.899983 0)
(0.732266 -0.809054 0)
(0.613047 -0.72708 0)
(0.512436 -0.651416 0)
(0.429223 -0.58061 0)
(0.361193 -0.514175 0)
(0.305873 -0.452053 0)
(0.260947 -0.394258 0)
(0.224459 -0.340716 0)
(0.194847 -0.291227 0)
(0.170894 -0.245469 0)
(0.151678 -0.203032 0)
(0.136509 -0.16344 0)
(0.124925 -0.126178 0)
(0.116543 -0.0907096 0)
(0.111546 -0.0565557 0)
(0.108965 -0.0217957 0)
(1.43902 -1.1056 0)
(1.27833 -1.02672 0)
(1.10219 -0.926123 0)
(0.930036 -0.831872 0)
(0.777106 -0.750262 0)
(0.648885 -0.677698 0)
(0.543725 -0.610602 0)
(0.457955 -0.5472 0)
(0.388037 -0.486945 0)
(0.330988 -0.429878 0)
(0.28436 -0.37619 0)
(0.246208 -0.325993 0)
(0.215016 -0.279253 0)
(0.189616 -0.235788 0)
(0.169124 -0.1953 0)
(0.152875 -0.157408 0)
(0.140424 -0.121676 0)
(0.131384 -0.0876448 0)
(0.125924 -0.0549278 0)
(0.123055 -0.021307 0)
(1.42132 -1.06085 0)
(1.27769 -0.966922 0)
(1.11572 -0.856123 0)
(0.95227 -0.762509 0)
(0.802883 -0.68884 0)
(0.675347 -0.626317 0)
(0.569769 -0.568557 0)
(0.48321 -0.512972 0)
(0.412298 -0.459034 0)
(0.354076 -0.407044 0)
(0.306142 -0.35746 0)
(0.266623 -0.31062 0)
(0.234077 -0.266664 0)
(0.207401 -0.225547 0)
(0.185759 -0.187079 0)
(0.16852 -0.150967 0)
(0.155257 -0.116851 0)
(0.145586 -0.0843393 0)
(0.139661 -0.0531325 0)
(0.136486 -0.0207446 0)
(1.52237 -0.983228 0)
(1.36438 -0.894415 0)
(1.17777 -0.781457 0)
(0.993313 -0.691514 0)
(0.832259 -0.626872 0)
(0.699941 -0.574719 0)
(0.59275 -0.52634 0)
(0.505579 -0.478506 0)
(0.434142 -0.430779 0)
(0.375191 -0.383768 0)
(0.326311 -0.338222 0)
(0.285702 -0.294709 0)
(0.252015 -0.253543 0)
(0.224224 -0.214808 0)
(0.201553 -0.178415 0)
(0.18341 -0.144149 0)
(0.169392 -0.111722 0)
(0.15912 -0.0807999 0)
(0.152734 -0.0511655 0)
(0.149244 -0.0201025 0)
(1.52874 -0.934623 0)
(1.38451 -0.826277 0)
(1.20203 -0.70151 0)
(1.01541 -0.61496 0)
(0.851808 -0.561736 0)
(0.718579 -0.521893 0)
(0.611575 -0.4838 0)
(0.524827 -0.443946 0)
(0.453555 -0.402375 0)
(0.394364 -0.360219 0)
(0.344892 -0.318609 0)
(0.303457 -0.278363 0)
(0.268826 -0.239968 0)
(0.240071 -0.20363 0)
(0.216483 -0.16935 0)
(0.197518 -0.136985 0)
(0.182799 -0.106307 0)
(0.171959 -0.0770352 0)
(0.165124 -0.0490263 0)
(0.161316 -0.0193773 0)
(1.63192 -0.871342 0)
(1.45752 -0.752618 0)
(1.24453 -0.618336 0)
(1.03826 -0.536403 0)
(0.866874 -0.495751 0)
(0.732411 -0.469101 0)
(0.626474 -0.441638 0)
(0.541048 -0.409708 0)
(0.470619 -0.374088 0)
(0.411661 -0.336581 0)
(0.361931 -0.29875 0)
(0.319911 -0.261677 0)
(0.284517 -0.226011 0)
(0.254933 -0.192068 0)
(0.230532 -0.159926 0)
(0.210821 -0.129504 0)
(0.195456 -0.100626 0)
(0.18408 -0.0730555 0)
(0.176811 -0.0467169 0)
(0.172687 -0.0185679 0)
(1.67193 -0.817703 0)
(1.48861 -0.669608 0)
(1.26147 -0.524443 0)
(1.04529 -0.452218 0)
(0.872146 -0.42812 0)
(0.739943 -0.416614 0)
(0.637135 -0.400306 0)
(0.554272 -0.376157 0)
(0.485434 -0.346172 0)
(0.427174 -0.313024 0)
(0.37749 -0.278764 0)
(0.3351 -0.244736 0)
(0.2991 -0.211737 0)
(0.268809 -0.180171 0)
(0.243688 -0.15018 0)
(0.223302 -0.121732 0)
(0.20734 -0.0946959 0)
(0.195463 -0.0688717 0)
(0.18778 -0.0442417 0)
(0.183345 -0.0176756 0)
(1.76937 -0.754571 0)
(1.53354 -0.578228 0)
(1.27027 -0.424489 0)
(1.03921 -0.366056 0)
(0.867392 -0.361167 0)
(0.740941 -0.365842 0)
(0.643606 -0.360617 0)
(0.564662 -0.343751 0)
(0.498163 -0.318888 0)
(0.441027 -0.289706 0)
(0.391653 -0.258755 0)
(0.34907 -0.227616 0)
(0.312598 -0.197201 0)
(0.281702 -0.167982 0)
(0.255943 -0.140144 0)
(0.234946 -0.113696 0)
(0.218435 -0.0885358 0)
(0.206091 -0.0644958 0)
(0.198015 -0.0416068 0)
(0.193276 -0.0167028 0)
(1.81059 -0.681659 0)
(1.52885 -0.46867 0)
(1.24241 -0.31391 0)
(1.00888 -0.278626 0)
(0.849179 -0.296876 0)
(0.734681 -0.318326 0)
(0.645981 -0.323472 0)
(0.572477 -0.312959 0)
(0.509034 -0.292479 0)
(0.453379 -0.266762 0)
(0.404518 -0.238806 0)
(0.361879 -0.210373 0)
(0.325036 -0.182448 0)
(0.29362 -0.155537 0)
(0.267293 -0.12985 0)
(0.245741 -0.105417 0)
(0.228727 -0.0821625 0)
(0.215948 -0.0599398 0)
(0.207503 -0.0388195 0)
(0.202472 -0.0156525 0)
(1.84628 -0.585546 0)
(1.4845 -0.344029 0)
(1.17472 -0.200245 0)
(0.950684 -0.196817 0)
(0.816537 -0.239642 0)
(0.721347 -0.276394 0)
(0.644742 -0.28995 0)
(0.578153 -0.284253 0)
(0.518351 -0.267154 0)
(0.464424 -0.244293 0)
(0.416201 -0.218976 0)
(0.373589 -0.193051 0)
(0.336447 -0.167514 0)
(0.304574 -0.142867 0)
(0.277736 -0.119322 0)
(0.25568 -0.0969174 0)
(0.238203 -0.0755925 0)
(0.225021 -0.0552159 0)
(0.216231 -0.0358881 0)
(0.210921 -0.014528 0)
(1.77025 -0.440572 0)
(1.3383 -0.183989 0)
(1.04115 -0.0763162 0)
(0.857597 -0.12378 0)
(0.769377 -0.193593 0)
(0.701923 -0.242461 0)
(0.640792 -0.261098 0)
(0.582314 -0.258024 0)
(0.526498 -0.24305 0)
(0.474383 -0.222349 0)
(0.426825 -0.199292 0)
(0.384267 -0.175672 0)
(0.346861 -0.15242 0)
(0.314576 -0.129994 0)
(0.287272 -0.108581 0)
(0.264755 -0.0882154 0)
(0.246853 -0.0688412 0)
(0.233298 -0.0503363 0)
(0.224189 -0.0328217 0)
(0.218615 -0.0133331 0)
(1.55374 -0.292467 0)
(1.06099 -0.0524639 0)
(0.826202 0.00699014 0)
(0.727966 -0.0838524 0)
(0.710372 -0.168476 0)
(0.678658 -0.219947 0)
(0.635578 -0.237939 0)
(0.585788 -0.234518 0)
(0.533921 -0.220199 0)
(0.483496 -0.200918 0)
(0.436517 -0.179744 0)
(0.393978 -0.158238 0)
(0.356311 -0.137178 0)
(0.323636 -0.116933 0)
(0.295901 -0.0976453 0)
(0.272959 -0.0793274 0)
(0.254667 -0.0619229 0)
(0.24077 -0.0453127 0)
(0.231367 -0.02963 0)
(0.225547 -0.0120717 0)
(1.11664 -0.0345389 0)
(0.649173 0.126683 0)
(0.576985 0.0760052 0)
(0.59686 -0.0754788 0)
(0.65424 -0.165524 0)
(0.657497 -0.209585 0)
(0.631611 -0.220581 0)
(0.589662 -0.213633 0)
(0.541119 -0.198476 0)
(0.492001 -0.179914 0)
(0.445395 -0.160288 0)
(0.402778 -0.140734 0)
(0.364821 -0.121791 0)
(0.331764 -0.103697 0)
(0.303622 -0.0865283 0)
(0.280286 -0.0702683 0)
(0.261636 -0.0548515 0)
(0.247425 -0.040157 0)
(0.237755 -0.0263238 0)
(0.231708 -0.010748 0)
(0.185773 0.125974 0)
(0.0794674 0.156637 0)
(0.328513 0.0281571 0)
(0.480933 -0.124272 0)
(0.610045 -0.189137 0)
(0.643266 -0.211085 0)
(0.631254 -0.208261 0)
(0.594984 -0.194836 0)
(0.54855 -0.177565 0)
(0.500102 -0.159167 0)
(0.453549 -0.140843 0)
(0.410709 -0.123129 0)
(0.372408 -0.106253 0)
(0.338962 -0.0902921 0)
(0.31043 -0.0752446 0)
(0.286728 -0.0610537 0)
(0.26775 -0.0476418 0)
(0.253253 -0.0348811 0)
(0.243345 -0.0229147 0)
(0.237092 -0.00936585 0)
(0.038911 0.0443633 0)
(-0.085451 0.0982645 0)
(0.259733 -0.0568158 0)
(0.450722 -0.178304 0)
(0.601576 -0.21638 0)
(0.643766 -0.216908 0)
(0.635569 -0.201611 0)
(0.600432 -0.182422 0)
(0.55417 -0.163144 0)
(0.505585 -0.144651 0)
(0.458785 -0.127155 0)
(0.415661 -0.110695 0)
(0.37707 -0.0952534 0)
(0.343343 -0.0807875 0)
(0.314549 -0.0672322 0)
(0.290609 -0.0545015 0)
(0.271424 -0.0425056 0)
(0.256746 -0.0311151 0)
(0.246691 -0.0204593 0)
(0.24031 -0.0083675 0)
(-0.0436209 0.0791591 0)
(-0.148402 0.0816788 0)
(0.242546 -0.105175 0)
(0.446264 -0.210013 0)
(0.603004 -0.232395 0)
(0.646998 -0.220206 0)
(0.639243 -0.197776 0)
(0.603988 -0.175297 0)
(0.557497 -0.154872 0)
(0.508689 -0.13633 0)
(0.461681 -0.119308 0)
(0.418365 -0.103564 0)
(0.379596 -0.0889425 0)
(0.345704 -0.0753313 0)
(0.31676 -0.0626301 0)
(0.292687 -0.0507364 0)
(0.273386 -0.0395516 0)
(0.25861 -0.0289485 0)
(0.248475 -0.0190388 0)
(0.242023 -0.00779256 0)
(-0.112781 0.0937732 0)
(-0.17242 0.0523683 0)
(0.248099 -0.159289 0)
(0.455344 -0.243249 0)
(0.610928 -0.24888 0)
(0.653233 -0.223595 0)
(0.644153 -0.193901 0)
(0.607999 -0.168109 0)
(0.56094 -0.146545 0)
(0.511757 -0.127963 0)
(0.464475 -0.111423 0)
(0.420937 -0.0963999 0)
(0.381977 -0.0826017 0)
(0.347917 -0.069848 0)
(0.318825 -0.058004 0)
(0.294622 -0.0469502 0)
(0.27521 -0.0365795 0)
(0.260339 -0.0267671 0)
(0.250128 -0.0176046 0)
(0.24361 -0.00721184 0)
(-0.163016 0.122529 0)
(-0.153989 0.016668 0)
(0.279229 -0.215063 0)
(0.480477 -0.276094 0)
(0.626474 -0.264582 0)
(0.662838 -0.226438 0)
(0.650383 -0.189699 0)
(0.612471 -0.160738 0)
(0.564492 -0.138113 0)
(0.514786 -0.11953 0)
(0.467163 -0.103491 0)
(0.423374 -0.0891982 0)
(0.384211 -0.0762291 0)
(0.34998 -0.0643373 0)
(0.320742 -0.053354 0)
(0.296412 -0.0431436 0)
(0.276894 -0.0335901 0)
(0.261934 -0.0245713 0)
(0.25165 -0.0161587 0)
(0.24507 -0.0066246 0)
(-0.191752 0.152132 0)
(-0.0871103 -0.0262121 0)
(0.338888 -0.269879 0)
(0.52349 -0.306831 0)
(0.650466 -0.27831 0)
(0.676071 -0.228126 0)
(0.657982 -0.184905 0)
(0.617401 -0.153075 0)
(0.568147 -0.129533 0)
(0.517769 -0.111013 0)
(0.469742 -0.0955036 0)
(0.425675 -0.0819553 0)
(0.386298 -0.0698234 0)
(0.351894 -0.0587989 0)
(0.32251 -0.0486805 0)
(0.298059 -0.0393171 0)
(0.278438 -0.0305842 0)
(0.263394 -0.0223618 0)
(0.253041 -0.0147014 0)
(0.246403 -0.00603127 0)
(-0.198692 0.168823 0)
(0.0299217 -0.0767105 0)
(0.425968 -0.320791 0)
(0.583427 -0.333635 0)
(0.682655 -0.288814 0)
(0.692837 -0.228007 0)
(0.666896 -0.179237 0)
(0.622757 -0.14501 0)
(0.571886 -0.120761 0)
(0.5207 -0.102393 0)
(0.472209 -0.0874528 0)
(0.427837 -0.0746681 0)
(0.388237 -0.0633835 0)
(0.353657 -0.0532328 0)
(0.32413 -0.043984 0)
(0.29956 -0.0354714 0)
(0.279841 -0.0275623 0)
(0.264718 -0.0201395 0)
(0.2543 -0.0132334 0)
(0.247609 -0.00543246 0)
(-0.174442 0.193293 0)
(0.190681 -0.135135 0)
(0.534914 -0.365458 0)
(0.656105 -0.35502 0)
(0.721329 -0.29511 0)
(0.712527 -0.225539 0)
(0.676921 -0.172445 0)
(0.628464 -0.136441 0)
(0.575681 -0.111756 0)
(0.523565 -0.093654 0)
(0.474559 -0.0793319 0)
(0.429858 -0.0673336 0)
(0.390026 -0.0569085 0)
(0.355268 -0.047639 0)
(0.325599 -0.039265 0)
(0.300915 -0.0316073 0)
(0.281103 -0.0245255 0)
(0.265905 -0.0179052 0)
(0.255427 -0.0117552 0)
(0.248687 -0.00482876 0)
(-0.0905974 0.147015 0)
(0.38139 -0.20149 0)
(0.658676 -0.402451 0)
(0.735644 -0.369941 0)
(0.763607 -0.296593 0)
(0.734018 -0.220403 0)
(0.68769 -0.164376 0)
(0.63441 -0.127302 0)
(0.579496 -0.102494 0)
(0.526354 -0.0847853 0)
(0.476786 -0.0711361 0)
(0.431737 -0.0599499 0)
(0.391663 -0.050398 0)
(0.356727 -0.0420178 0)
(0.326919 -0.0345244 0)
(0.302124 -0.0277257 0)
(0.282223 -0.0214746 0)
(0.266956 -0.0156597 0)
(0.256421 -0.0102677 0)
(0.249638 -0.00422087 0)
(0.1294 0.17629 0)
(0.599493 -0.261084 0)
(0.791969 -0.429561 0)
(0.816635 -0.377417 0)
(0.806269 -0.292855 0)
(0.755885 -0.212403 0)
(0.698715 -0.154939 0)
(0.640444 -0.117551 0)
(0.583286 -0.0929531 0)
(0.52905 -0.075777 0)
(0.478886 -0.0628601 0)
(0.433471 -0.0525145 0)
(0.39315 -0.0438509 0)
(0.358033 -0.0363693 0)
(0.328088 -0.0297624 0)
(0.303187 -0.0238273 0)
(0.283202 -0.0184104 0)
(0.267871 -0.0134041 0)
(0.257283 -0.00877152 0)
(0.25046 -0.00360936 0)
(0.47913 -0.0202502 0)
(0.826854 -0.320422 0)
(0.928045 -0.443088 0)
(0.894759 -0.375881 0)
(0.846532 -0.283641 0)
(0.776701 -0.201374 0)
(0.709452 -0.143988 0)
(0.646397 -0.107088 0)
(0.587001 -0.0830777 0)
(0.531642 -0.0665995 0)
(0.480856 -0.0544882 0)
(0.435061 -0.0450185 0)
(0.394486 -0.0372623 0)
(0.359188 -0.0306905 0)
(0.329109 -0.0249776 0)
(0.304105 -0.0199113 0)
(0.28404 -0.0153328 0)
(0.268649 -0.0111377 0)
(0.258012 -0.00726845 0)
(0.251155 -0.00299281 0)
(1.31984 -0.00408023 0)
(1.38493 -0.310447 0)
(1.2197 -0.416846 0)
(1.04993 -0.34845 0)
(0.924127 -0.252696 0)
(0.817125 -0.171546 0)
(0.731041 -0.116845 0)
(0.658745 -0.0825303 0)
(0.594783 -0.0606688 0)
(0.537011 -0.0461569 0)
(0.48485 -0.0360132 0)
(0.438208 -0.0285525 0)
(0.397072 -0.0228235 0)
(0.36138 -0.0182614 0)
(0.331012 -0.014513 0)
(0.305791 -0.0113494 0)
(0.28556 -0.00860629 0)
(0.270049 -0.00618009 0)
(0.259312 -0.00398754 0)
(0.252388 -0.0016337 0)
(1.91589 -0.0113591 0)
(1.70082 -0.233747 0)
(1.38313 -0.287173 0)
(1.12129 -0.22706 0)
(0.953947 -0.159311 0)
(0.837409 -0.10492 0)
(0.747163 -0.0665934 0)
(0.670914 -0.0409155 0)
(0.603446 -0.0241669 0)
(0.542989 -0.0134609 0)
(0.488976 -0.00675827 0)
(0.441101 -0.00264991 0)
(0.399144 -0.000209559 0)
(0.362899 0.0011486 0)
(0.332152 0.00179812 0)
(0.306669 0.00198007 0)
(0.286254 0.00185773 0)
(0.270621 0.00153303 0)
(0.259798 0.00111505 0)
(0.252827 0.000490214 0)
(1.81697 0.174845 0)
(1.59776 -0.0231561 0)
(1.33365 -0.105767 0)
(1.12827 -0.110407 0)
(0.980455 -0.0837673 0)
(0.863399 -0.047984 0)
(0.765982 -0.0179435 0)
(0.682863 0.00226535 0)
(0.610592 0.0142747 0)
(0.547076 0.0207003 0)
(0.491113 0.0234647 0)
(0.442007 0.0238755 0)
(0.399278 0.0228057 0)
(0.362548 0.0208193 0)
(0.331496 0.0182798 0)
(0.305827 0.0154205 0)
(0.285301 0.0123936 0)
(0.269609 0.00928743 0)
(0.258763 0.00624455 0)
(0.251798 0.00261516 0)
(1.78674 0.173723 0)
(1.6089 0.0468119 0)
(1.38803 -0.016164 0)
(1.1863 -0.019545 0)
(1.01974 -0.000371898 0)
(0.886188 0.0217147 0)
(0.77889 0.0391186 0)
(0.689997 0.0499984 0)
(0.614137 0.0552553 0)
(0.548283 0.0563432 0)
(0.490791 0.0545734 0)
(0.440699 0.0509399 0)
(0.397354 0.0461483 0)
(0.360257 0.0406849 0)
(0.329003 0.0348729 0)
(0.303238 0.0289194 0)
(0.282683 0.0229544 0)
(0.267004 0.0170445 0)
(0.256198 0.0113601 0)
(0.249295 0.00472462 0)
(1.72183 0.317293 0)
(1.55522 0.199555 0)
(1.35442 0.126872 0)
(1.17101 0.0966212 0)
(1.01782 0.0896829 0)
(0.890305 0.092622 0)
(0.783256 0.0969878 0)
(0.692312 0.098817 0)
(0.614224 0.0972646 0)
(0.546627 0.0928152 0)
(0.487935 0.0862793 0)
(0.437082 0.078392 0)
(0.393294 0.0697214 0)
(0.355973 0.0606728 0)
(0.324638 0.0515172 0)
(0.298881 0.0424248 0)