/*--------------------------------*- C++ -*----------------------------------*\
| =========                 |                                                 |
| \\      /  F ield         | OpenFOAM: The Open Source CFD Toolbox           |
|  \\    /   O peration     | Version:  v1806                                 |
|   \\  /    A nd           | Web:      www.OpenFOAM.com                      |
|    \\/     M anipulation  |                                                 |
\*---------------------------------------------------------------------------*/
FoamFile
{
    version     2.0;
    format      ascii;
    class       volScalarField;
    location    "200";
    object      p;
}
// * * * * * * * * * * * * * * * * * * * * * * * * * * * * * * * * * * * * * //

dimensions      [0 2 -2 0 0 0 0];


internalField   nonuniform List<scalar> 
2400
(
0.000309435
0.000308899
0.000307716
0.000305807
0.000303036
0.000299209
0.000294084
0.000287389
0.000278833
0.000268123
0.000254978
0.00023915
0.000220455
0.000198783
0.000174146
0.000146658
0.000116616
8.43624e-05
5.04802e-05
1.55383e-05
0.00092891
0.000927424
0.000924145
0.000918822
0.000911052
0.000900266
0.000885761
0.000866738
0.000842341
0.000811694
0.000773955
0.000728373
0.00067437
0.000611594
0.000540022
0.000459974
0.000372239
0.00027796
0.000178895
7.69467e-05
0.00155007
0.00154779
0.00154277
0.00153456
0.00152248
0.00150558
0.00148267
0.00145239
0.00141327
0.00136382
0.00130255
0.00122811
0.00113945
0.00103586
0.000917187
0.000783867
0.000637131
0.000478879
0.000311929
0.000139391
0.00217383
0.002171
0.00216473
0.00215439
0.00213902
0.00211723
0.00208731
0.00204731
0.00199508
0.00192838
0.00184499
0.00174285
0.00162024
0.00147598
0.00130962
0.00112162
0.000913592
0.000688177
0.000449364
0.000201887
0.00280079
0.00279774
0.00279091
0.00277951
0.00276225
0.0027373
0.00270238
0.00265486
0.00259183
0.00251018
0.0024068
0.00227872
0.00212337
0.00193885
0.00172424
0.00147982
0.00120748
0.000910621
0.000594582
0.000265975
0.0034312
0.00342834
0.00342184
0.00341076
0.00339346
0.00336763
0.00333035
0.00327825
0.00320753
0.00311409
0.00299368
0.00284222
0.00265595
0.00243198
0.00216855
0.00186556
0.00152497
0.00115095
0.000750349
0.00033199
0.0040648
0.00406263
0.00405758
0.00404854
0.0040335
0.00400963
0.00397334
0.00392044
0.00384609
0.00374504
0.00361164
0.00344036
0.00322588
0.0029639
0.00265132
0.0022873
0.00187353
0.00141489
0.000919973
0.000400293
0.00470072
0.00469987
0.00469758
0.00469262
0.00468262
0.0046642
0.00463304
0.00458407
0.00451127
0.00440805
0.00426704
0.00408095
0.00384222
0.00354471
0.00318317
0.00275555
0.00226264
0.00170991
0.00110785
0.000471399
0.00533739
0.00533857
0.00534057
0.00534209
0.00534038
0.00533155
0.00531051
0.00527128
0.00520651
0.00510814
0.00496664
0.00477259
0.0045154
0.00418651
0.00377719
0.00328374
0.00270458
0.00204596
0.00131988
0.000545925
0.0059724
0.0059764
0.00598441
0.00599511
0.00600543
0.00601097
0.00600594
0.00598345
0.00593472
0.00585008
0.00571738
0.00552477
0.00525743
0.00490386
0.00444965
0.00388921
0.00321555
0.00243668
0.00156399
0.000624653
0.00660242
0.0066101
0.006626
0.00664884
0.00667531
0.00670063
0.00671838
0.00672086
0.00669785
0.00663802
0.00652616
0.00634766
0.00608199
0.00571432
0.00522096
0.00459479
0.00381724
0.00290129
0.00185098
0.000708709
0.00722312
0.00723538
0.00726111
0.00729921
0.00734626
0.00739725
0.00744533
0.00748222
0.00749639
0.00747491
0.00739922
0.00725166
0.00700441
0.00663877
0.00611685
0.00543091
0.00453941
0.00346789
0.00219558
0.000800105
0.00782913
0.00784684
0.00788436
0.00794085
0.00801299
0.00809579
0.00818234
0.00826404
0.00832857
0.00836154
0.00834126
0.00824652
0.0080411
0.00770133
0.0071696
0.00643805
0.00542422
0.00417945
0.00261924
0.000904096
0.00841405
0.00843803
0.00848912
0.00856694
0.00866852
0.00878915
0.00892246
0.00905996
0.0091894
0.00929524
0.00935382
0.00933964
0.00920849
0.00892838
0.00841904
0.00766859
0.00653303
0.00510289
0.00315824
0.00103753
0.00897057
0.00900147
0.00906762
0.00916923
0.00930401
0.00946794
0.00965582
0.00985991
0.0100694
0.0102682
0.010433
0.0105332
0.0105203
0.0103466
0.00991298
0.00918673
0.00795498
0.00633819
0.00388263
0.00124789
0.0094906
0.00952883
0.00961103
0.00973814
0.00990887
0.0101203
0.0103692
0.0106494
0.0109534
0.0112652
0.0115662
0.0118198
0.0119817
0.0119783
0.0117062
0.0110691
0.00981656
0.00801947
0.00493816
0.00164005
0.00996557
0.0100112
0.0101098
0.010263
0.0104709
0.0107321
0.0110461
0.0114093
0.011819
0.0122619
0.012728
0.0131771
0.0135798
0.0138305
0.01385
0.01341
0.0122974
0.0103125
0.00661128
0.00238556
0.0103868
0.0104396
0.0105539
0.0107325
0.0109768
0.0112873
0.0116669
0.0121154
0.0126368
0.013223
0.0138764
0.0145604
0.0152704
0.015878
0.0163582
0.0163112
0.0156557
0.0134768
0.00937815
0.00343047
0.0107459
0.0108052
0.0109337
0.0111353
0.0114128
0.0117688
0.0122097
0.0127399
0.0133702
0.0141013
0.01495
0.0158951
0.0169619
0.0180357
0.0191565
0.0198241
0.0201503
0.0180704
0.014025
0.00293649
0.0110356
0.0110997
0.01124
0.0114607
0.0117657
0.0121598
0.0126526
0.013253
0.0139787
0.0148402
0.0158698
0.01707
0.0185008
0.0201071
0.022003
0.0238061
0.0257915
0.0253371
0.0235698
-0.000189522
-2.78814e-05
-8.06159e-05
-0.000129852
-0.000172611
-0.000206002
-0.000231287
-0.000247028
-0.000257171
-0.000259036
-0.000259118
-5.62845e-05
-0.000215872
-0.000362672
-0.000489553
-0.000590232
-0.000665585
-0.000714913
-0.00074486
-0.000753063
-0.00074908
-8.6386e-05
-0.000356718
-0.000605489
-0.000819831
-0.000989969
-0.00111619
-0.00119936
-0.00124828
-0.00126226
-0.00125291
-0.000122352
-0.000510982
-0.000868503
-0.00117485
-0.00141669
-0.00159417
-0.00171066
-0.00177721
-0.00179554
-0.00177852
-0.00016556
-0.00068309
-0.00115805
-0.00156164
-0.00187723
-0.00210563
-0.0022542
-0.00233635
-0.00235687
-0.00232922
-0.000218775
-0.0008794
-0.0014829
-0.00198975
-0.0023807
-0.00265879
-0.00283726
-0.00293206
-0.00295189
-0.00291002
-0.000285664
-0.00110831
-0.0018543
-0.00247086
-0.00293778
-0.00326295
-0.00346788
-0.00357133
-0.00358675
-0.00352628
-0.000371129
-0.00138101
-0.00228646
-0.00301888
-0.00356051
-0.00392822
-0.00415453
-0.00426135
-0.0042678
-0.00418349
-0.000482097
-0.00171288
-0.00279757
-0.00365047
-0.00426254
-0.0046656
-0.00490611
-0.00500959
-0.00500157
-0.00488742
-0.000628815
-0.00212567
-0.00341112
-0.00438555
-0.00505926
-0.00548698
-0.00573171
-0.00582362
-0.00579475
-0.00564423
-0.000827381
-0.00265058
-0.00415747
-0.00524792
-0.00596794
-0.00640485
-0.00664014
-0.00671087
-0.00665393
-0.00646046
-0.00110516
-0.00333241
-0.00507559
-0.00626631
-0.00700819
-0.00743191
-0.00763908
-0.00767784
-0.00758481
-0.00734271
-0.00151279
-0.00423435
-0.006214
-0.00747549
-0.00820182
-0.00857953
-0.00873298
-0.0087277
-0.00858948
-0.00829572
-0.00214794
-0.00544433
-0.0076292
-0.0089148
-0.00956843
-0.00985211
-0.00991811
-0.00985479
-0.00966083
-0.00931795
-0.0032009
-0.00708576
-0.00938968
-0.0106226
-0.0111118
-0.011234
-0.0111697
-0.0110309
-0.0107701
-0.0103919
-0.00508536
-0.00933682
-0.0116041
-0.0126246
-0.0127974
-0.0126629
-0.0124173
-0.0121821
-0.0118494
-0.0114677
-0.00864241
-0.012405
-0.0144105
-0.014897
-0.0145096
-0.0139988
-0.0135233
-0.0131734
-0.0127845
-0.0124615
-0.0143385
-0.0162266
-0.0177591
-0.0171822
-0.0159881
-0.0150339
-0.0143236
-0.0138638
-0.0134612
-0.01328
-0.0218903
-0.019247
-0.0206288
-0.0185783
-0.0168414
-0.0156319
-0.0147728
-0.0142339
-0.0138533
-0.0138678
-0.047664
-0.0225847
-0.0239294
-0.0196559
-0.0174356
-0.0159299
-0.0149242
-0.0143159
-0.0139365
-0.014318
-0.000243291
-0.00021065
-0.000174851
-0.000136796
-0.000102405
-7.15347e-05
-4.97881e-05
-2.95861e-05
-1.02412e-05
1.17851e-05
2.16887e-05
3.79329e-05
3.18677e-05
1.34879e-05
8.9635e-07
-2.79886e-05
-2.3498e-05
-3.17042e-05
-1.34191e-05
7.01986e-06
-0.000711332
-0.000618494
-0.000504753
-0.000391446
-0.000296815
-0.000211478
-0.000147332
-8.48556e-05
-3.06056e-05
3.19059e-05
7.21144e-05
0.000110932
0.000112293
7.01358e-05
2.80589e-05
-5.34209e-05
-7.11327e-05
-9.32143e-05
-5.72839e-05
-1.83361e-05
-0.00119151
-0.00103304
-0.000839951
-0.000652887
-0.000491498
-0.000350981
-0.00024369
-0.000139364
-5.14441e-05
5.30115e-05
0.000125273
0.000186747
0.000196847
0.000125379
5.38445e-05
-8.44876e-05
-0.000124844
-0.000158136
-0.000106463
-3.90598e-05
-0.00169007
-0.00145894
-0.00118164
-0.000916265
-0.00068657
-0.000489863
-0.000339844
-0.000194108
-7.17946e-05
7.63555e-05
0.000181004
0.000268087
0.000285525
0.000182655
7.93723e-05
-0.00012246
-0.000184011
-0.000227703
-0.000156744
-5.69727e-05
-0.00220966
-0.00189707
-0.00152914
-0.00118136
-0.000881005
-0.000627414
-0.000435656
-0.000248617
-9.15084e-05
0.000102217
0.000241055
0.000356907
0.000381571
0.000244894
0.000105967
-0.00016797
-0.000250539
-0.000304159
-0.000210867
-7.40675e-05
-0.00275412
-0.00234837
-0.0018824
-0.00144749
-0.00107375
-0.000762936
-0.000530703
-0.000302818
-0.000110852
0.000131176
0.000306827
0.000455671
0.000487781
0.000313764
0.00013387
-0.000223886
-0.000327457
-0.000390317
-0.000270997
-9.0064e-05
-0.00332756
-0.00281359
-0.00224136
-0.00171389
-0.00126346
-0.000895509
-0.00062461
-0.000356995
-0.000130136
0.000163607
0.000379439
0.000566893
0.000606646
0.000391132
0.000163085
-0.00029323
-0.000417695
-0.000489299
-0.0003389
-0.000104468
-0.00393433
-0.00329301
-0.00260568
-0.00197912
-0.00144837
-0.00102398
-0.000717023
-0.000411589
-0.00014986
0.000199442
0.000459787
0.000692909
0.000740669
0.000479312
0.000193716
-0.000378701
-0.000524038
-0.000604648
-0.00041663
-0.000116705
-0.00457914
-0.00378636
-0.00297477
-0.00224119
-0.00162625
-0.00114697
-0.000807551
-0.000467236
-0.000170859
0.000238044
0.00054833
0.000835626
0.000892173
0.000580939
0.000226114
-0.00048209
-0.000648611
-0.000739613
-0.000506233
-0.000126274
-0.00526712
-0.00429257
-0.00334798
-0.00249737
-0.00179431
-0.00126279
-0.000895712
-0.000524791
-0.000194377
0.000277995
0.00064469
0.00099583
0.00106279
0.000698771
0.000261163
-0.000603167
-0.000791828
-0.000896964
-0.00060941
-0.000132686
-0.00600366
-0.00480929
-0.003724
-0.00274388
-0.00194917
-0.00136931
-0.000980778
-0.000585225
-0.000222116
0.000316806
0.000747192
0.00117237
0.00125251
0.000835181
0.000300588
-0.000738357
-0.000951197
-0.00107775
-0.000727012
-0.000135568
-0.00679377
-0.00533213
-0.00410104
-0.0029754
-0.00208674
-0.00146368
-0.00106145
-0.000649321
-0.000256165
0.000350643
0.000852045
0.00136083
0.00145843
0.000991077
0.000347172
-0.000879167
-0.00112009
-0.00127998
-0.000858293
-0.000134724
-0.00763933
-0.00585321
-0.0044759
-0.00318433
-0.00220233
-0.00154217
-0.00113537
-0.000716969
-0.000298599
0.000374277
0.000952476
0.00155204
0.0016732
0.00116396
0.000404321
-0.00101143
-0.00128672
-0.00149756
-0.000999994
-0.000130107
-0.00853498
-0.0063606
-0.00484345
-0.0033611
-0.00229145
-0.00160008
-0.00119854
-0.000786125
-0.000350464
0.000381636
0.00103841
0.00173107
0.00188305
0.00134579
0.00047439
-0.00111656
-0.00143483
-0.00171918
-0.00114548
-0.000121653
-0.00946346
-0.00682697
-0.00519581
-0.00349623
-0.00235169
-0.00163255
-0.00124521
-0.000851691
-0.000409972
0.000367475
0.00109747
0.00187746
0.00206661
0.00152067
0.000555587
-0.00117537
-0.00154624
-0.00192794
-0.00128414
-0.000109087
-0.0103724
-0.00722498
-0.00552141
-0.00358456
-0.00238525
-0.00163675
-0.00126866
-0.000904839
-0.00047088
0.000330507
0.00111799
0.00196751
0.0021958
0.00166375
0.000639384
-0.00117336
-0.00160415
-0.00210161
-0.00140131
-9.18102e-05
-0.011187
-0.00752644
-0.00580552
-0.00362896
-0.00240065
-0.00161513
-0.00126344
-0.000933605
-0.000521158
0.00027649
0.00109368
0.00197885
0.00224825
0.0017436
0.000710779
-0.00110479
-0.00159523
-0.00221329
-0.00147885
-6.89884e-05
-0.0118378
-0.00772081
-0.00603608
-0.00364487
-0.00241297
-0.00157694
-0.0012279
-0.00092484
-0.000542863
0.000219468
0.00102748
0.00189551
0.00217156
0.00172807
0.00075078
-0.000972264
-0.00150823
-0.00223285
-0.00149642
-3.99275e-05
-0.0122967
-0.00781898
-0.00620907
-0.00365953
-0.00244042
-0.00153841
-0.00116558
-0.000867268
-0.000514669
0.000180945
0.000931055
0.00171578
0.00196983
0.00159825
0.000743524
-0.000783701
-0.00133809
-0.00212872
-0.00143298
-4.19941e-06
-0.012598
-0.0078422
-0.00633014
-0.00369362
-0.00249763
-0.00151374
-0.00108239
-0.000754557
-0.000420009
0.000182212
0.000821055
0.00145178
0.00164919
0.00135653
0.000687829
-0.000550333
-0.00107699
-0.00188158
-0.0012716
4.08313e-05
-0.0128896
-0.00779797
-0.00638347
-0.00372794
-0.00256066
-0.00150434
-0.00101007
-0.000634065
-0.000303703
0.000217805
0.000741573
0.00122318
0.00136054
0.00112456
0.000627322
-0.000362179
-0.00081882
-0.00161039
-0.00109062
8.74358e-05
-0.0127222
-0.00778427
-0.00640704
-0.00375763
-0.00260055
-0.00150674
-0.000967979
-0.0005591
-0.000225709
0.000246016
0.000699264
0.00108613
0.001186
0.000981917
0.000586005
-0.000247977
-0.000662038
-0.00142619
-0.000970562
0.000107376
-0.0125783
-0.00777668
-0.00642497
-0.00379508
-0.00264337
-0.0015148
-0.00092475
-0.000478421
-0.000137489
0.000281617
0.000659829
0.000945183
0.00100477
0.000832839
0.000540698
-0.000127166
-0.00049441
-0.00121487
-0.000834251
0.000121307
-0.0124962
-0.00776615
-0.00644049
-0.00383583
-0.0026889
-0.00152579
-0.000880255
-0.000392507
-4.11813e-05
0.000323455
0.000622092
0.000802117
0.000819668
0.000680511
0.000494379
-6.81273e-07
-0.000314081
-0.000981102
-0.000683049
0.000134232
-0.0124568
-0.0077535
-0.00645497
-0.00387839
-0.00273606
-0.00153863
-0.000834859
-0.00030273
6.09859e-05
0.000369926
0.000585697
0.000658875
0.000632782
0.000528391
0.000449162
0.00013099
-0.000122055
-0.000727658
-0.000518031
0.000147249
-0.0124536
-0.00774203
-0.00646871
-0.00392197
-0.00278324
-0.00155241
-0.000788997
-0.000210977
0.000166527
0.00041913
0.000550428
0.000517487
0.000450452
0.000380043
0.00040705
0.000267374
7.99003e-05
-0.000457172
-0.000340531
0.000160161
-0.0124862
-0.00773206
-0.00648166
-0.00396542
-0.00282884
-0.00156611
-0.000743103
-0.000119079
0.000272739
0.000469002
0.000515961
0.000379862
0.00027465
0.000238852
0.000369952
0.000407828
0.000289787
-0.000172909
-0.000152327
0.000172925
-0.0125608
-0.00771999
-0.00649318
-0.0040073
-0.00287129
-0.00157866
-0.00069764
-2.90152e-05
0.00037689
0.00051747
0.000482015
0.000247782
0.000108457
0.000107884
0.000339539
0.000551601
0.000505243
0.000121366
4.44144e-05
0.000185622
-0.0127026
-0.00770579
-0.00650179
-0.00404737
-0.00290861
-0.00158949
-0.000652899
5.7298e-05
0.000476147
0.000562424
0.000448024
0.000122776
-4.55276e-05
-1.0044e-05
0.000317611
0.000697964
0.000724466
0.000421791
0.000247554
0.000198342
-0.0128736
-0.00770571
-0.00650565
-0.00409017
-0.00293759
-0.00159914
-0.000608664
0.000138377
0.000566834
0.000601211
0.000411597
5.48773e-06
-0.000185956
-0.00011209
0.000306914
0.000845948
0.000948429
0.000724351
0.000456034
0.000211575
-0.0123933
-0.00776998
-0.00650515
-0.00419407
-0.00298058
-0.00161773
-0.000515182
0.000299974
0.000738518
0.000666817
0.000322434
-0.000232947
-0.000460826
-0.000296196
0.000310297
0.00116717
0.00144481
0.00137577
0.000916215
0.000244082
-0.0119986
-0.0077189
-0.00638395
-0.00426748
-0.00297038
-0.00160521
-0.000417112
0.000443539
0.000879251
0.000682107
0.000199145
-0.000475013
-0.000688384
-0.000390431
0.000413691
0.00163234
0.0021309
0.00235008
0.00156326
0.000300076
-0.0111969
-0.00756993
-0.00614279
-0.00425977
-0.00290097
-0.00157648
-0.000382584
0.000457673
0.000864641
0.000601365
8.2726e-05
-0.00059439
-0.000729557
-0.000306955
0.000598691
0.00201197
0.0026414
0.0030031
0.00205877
0.000344114
-0.0101702
-0.00727094
-0.00579308
-0.00415592
-0.00280144
-0.00154984
-0.000415724
0.000360707
0.000739434
0.000467232
-4.06134e-06
-0.000587366
-0.000635898
-0.000122602
0.000797682
0.00225569
0.00292813
0.00334967
0.00234691
0.000373557
-0.0090488
-0.00682027
-0.00538281
-0.00396398
-0.00268522
-0.00153213
-0.000493434
0.000203326
0.000560871
0.000329229
-4.88468e-05
-0.000500683
-0.000468991
8.55837e-05
0.000957699
0.00234588
0.00299402
0.00339955
0.00242532
0.000390301
-0.00797472
-0.00627058
-0.00495447
-0.00371787
-0.00255506
-0.0015144
-0.000582238
3.48375e-05
0.00037181
0.000210487
-5.64005e-05
-0.000372637
-0.000283293
0.000267144
0.00105146
0.00229528
0.00286002
0.00321911
0.00233365
0.000400399
-0.00699457
-0.00569694
-0.00453001
-0.00344646
-0.00241131
-0.00148573
-0.000657756
-0.000112645
0.000212534
0.00011931
-4.36826e-05
-0.000241069
-0.000116221
0.000399573
0.00107753
0.00214636
0.00262526
0.00289836
0.00213482
0.000409501
-0.00611394
-0.00512315
-0.00411565
-0.00316659
-0.00225557
-0.00144051
-0.000709234
-0.000227085
8.44499e-05
5.29438e-05
-2.52855e-05
-0.000129287
1.51606e-05
0.000478444
0.00105179
0.00193965
0.00233738
0.00251968
0.00188613
0.000417003
-0.00532557
-0.00456728
-0.00371293
-0.00288598
-0.00209022
-0.00137754
-0.000734672
-0.000306309
-1.16754e-05
5.68875e-06
-9.30712e-06
-4.46199e-05
0.000106806
0.000512571
0.000992748
0.00170536
0.00203709
0.00214109
0.00162643
0.000416735
-0.00461868
-0.00403744
-0.00332326
-0.00260857
-0.00191723
-0.00129779
-0.000735855
-0.000355261
-7.98466e-05
-2.72132e-05
1.57876e-06
1.39673e-05
0.000163918
0.000513657
0.000913699
0.00147497
0.00174862
0.00179381
0.00137719
0.000403042
-0.00398286
-0.00353736
-0.00294748
-0.00233555
-0.00173883
-0.00120354
-0.000714967
-0.000378418
-0.000124775
-4.9125e-05
7.54152e-06
5.05879e-05
0.000193911
0.000488112
0.00082347
0.00125949
0.00148348
0.00148927
0.00114832
0.000374958
-0.00340856
-0.00306792
-0.00258593
-0.00206758
-0.001557
-0.00109764
-0.000676748
-0.000380676
-0.000150883
-6.24221e-05
9.81537e-06
7.04201e-05
0.000204065
0.000450915
0.000728988
0.00106367
0.00124547
0.0012276
0.000943964
0.00033576
-0.00288736
-0.00262824
-0.00223862
-0.00180502
-0.00137317
-0.000982628
-0.000624021
-0.000366342
-0.000161902
-6.88632e-05
9.70046e-06
7.81955e-05
0.000199649
0.000404332
0.000633852
0.000888689
0.00103397
0.00100385
0.000765397
0.000290602
-0.00241173
-0.00221622
-0.00190528
-0.00154807
-0.00118836
-0.000860799
-0.000559756
-0.000338958
-0.000160863
-6.97905e-05
8.30077e-06
7.7665e-05
0.000185546
0.000352475
0.000540384
0.000732709
0.000846513
0.000812063
0.000611688
0.000243998
-0.00197484
-0.00182917
-0.00158522
-0.0012968
-0.00100339
-0.000734008
-0.000486421
-0.000301426
-0.000150264
-6.62727e-05
6.3658e-06
7.14443e-05
0.000164431
0.000298087
0.000449623
0.000593121
0.00068019
0.000646451
0.000480169
0.000198729
-0.00157048
-0.00146403
-0.00127748
-0.00105111
-0.000818903
-0.000603767
-0.00040613
-0.000256145
-0.000132187
-5.91863e-05
4.37892e-06
6.14633e-05
0.000138661
0.00024292
0.000362021
0.00046722
0.000531821
0.000501795
0.000367324
0.000156203
-0.00119287
-0.00111762
-0.000980743
-0.000810732
-0.000635346
-0.000471283
-0.000320665
-0.000205052
-0.000108401
-4.92776e-05
2.67311e-06
4.91653e-05
0.000109956
0.000187958
0.000277553
0.000352245
0.000398008
0.000373416
0.000269493
0.000116966
-0.000836564
-0.000786662
-0.00069353
-0.000575271
-0.000453083
-0.000337539
-0.000231641
-0.000149797
-8.04143e-05
-3.73446e-05
1.39734e-06
3.55229e-05
7.95441e-05
0.000133698
0.000195901
0.000245517
0.000275071
0.000256688
0.000182548
8.07557e-05
-0.000497197
-0.000468359
-0.000414622
-0.000344442
-0.000272645
-0.000203661
-0.000140694
-9.23886e-05
-4.975e-05
-2.43831e-05
1.93627e-07
2.09756e-05
4.80207e-05
8.03035e-05
0.000116556
0.000145099
0.000159931
0.000147767
0.000101344
4.48578e-05
-0.00017023
-0.000159102
-0.000141676
-0.000117151
-9.35983e-05
-7.00947e-05
-4.82867e-05
-3.38572e-05
-1.76161e-05
-1.04828e-05
-1.21353e-06
6.08776e-06
1.55869e-05
2.72033e-05
3.85934e-05
4.88565e-05
5.15176e-05
4.66584e-05
2.56091e-05
6.6896e-06
-0.0417555
-0.0182421
-0.0214158
-0.019294
-0.0173912
-0.0158331
-0.014694
-0.0140008
-0.0136056
-0.0139758
-0.0091055
-0.0128116
-0.0168089
-0.0171069
-0.0159606
-0.0149175
-0.0141528
-0.0136937
-0.013357
-0.0132882
-0.00743321
-0.0111341
-0.0135053
-0.0144998
-0.0143373
-0.0138445
-0.0133331
-0.0129608
-0.0126067
-0.0123317
-0.00304613
-0.00702977
-0.00960972
-0.0111766
-0.0118093
-0.0119092
-0.0117837
-0.0116225
-0.0113859
-0.0110679
-0.00115097
-0.00470996
-0.00723115
-0.00886326
-0.00975221
-0.0101441
-0.0102562
-0.0102226
-0.01007
-0.00977132
-0.000441741
-0.00330034
-0.00550395
-0.00703188
-0.00798921
-0.00851998
-0.00877078
-0.00883197
-0.00876029
-0.00852917
-8.4257e-05
-0.00231936
-0.00418018
-0.00556671
-0.00651586
-0.00710723
-0.00744156
-0.0075775
-0.00757371
-0.00741406
0.000117343
-0.00164487
-0.00319657
-0.00442458
-0.00532006
-0.00591978
-0.00629257
-0.00647743
-0.00652346
-0.00642552
0.000229657
-0.00118228
-0.00246923
-0.00353509
-0.00435064
-0.00492655
-0.00530657
-0.0055179
-0.00559802
-0.00554913
0.000287937
-0.000857362
-0.00192236
-0.0028342
-0.00355871
-0.00409236
-0.00446027
-0.00468142
-0.00478312
-0.00477151
0.00031269
-0.0006234
-0.0015042
-0.00227659
-0.00290862
-0.00339029
-0.00373411
-0.00395289
-0.00406593
-0.00408085
0.000315296
-0.000452366
-0.00117993
-0.0018289
-0.00237205
-0.00279745
-0.00310982
-0.00331741
-0.00343346
-0.00346563
0.000302311
-0.000326465
-0.000925096
-0.0014655
-0.00192554
-0.00229375
-0.00257047
-0.00276071
-0.00287328
-0.00291511
0.00027795
-0.000233631
-0.000722045
-0.00116668
-0.00155003
-0.00186213
-0.00210113
-0.00226991
-0.00237413
-0.00241966
0.000245185
-0.000165315
-0.000557869
-0.000917353
-0.0012302
-0.00148829
-0.0016889
-0.00183362
-0.00192592
-0.00197055
0.000206205
-0.000115248
-0.000422908
-0.000705804
-0.000953669
-0.00116021
-0.00132262
-0.00144174
-0.00151961
-0.00155989
0.000162715
-7.86607e-05
-0.000309709
-0.000522735
-0.000710264
-0.00086768
-0.000992535
-0.00108525
-0.00114698
-0.00118042
0.000116154
-5.17747e-05
-0.000212378
-0.000360671
-0.000491583
-0.000602023
-0.000690133
-0.000756143
-0.000800617
-0.00082541
6.72225e-05
-3.18603e-05
-0.00012657
-0.000214057
-0.000291308
-0.000356611
-0.000408856
-0.00044819
-0.000474883
-0.000489768
1.69416e-05
-1.55021e-05
-4.72171e-05
-7.65907e-05
-0.000102441
-0.000124207
-0.000141588
-0.000154608
-0.000163633
-0.000168779
0.0112763
0.01134
0.0114781
0.011695
0.0119946
0.0123818
0.0128655
0.0134542
0.0141639
0.0150047
0.0160034
0.0171611
0.0185202
0.0200182
0.0217127
0.023187
0.0245259
0.0230339
0.0189999
-0.00339456
0.0109949
0.0110509
0.0111713
0.0113595
0.011618
0.0119485
0.0123555
0.0128414
0.0134124
0.0140658
0.0148074
0.0156115
0.0164765
0.0172954
0.0180445
0.0183493
0.0181533
0.0164544
0.0131386
0.0068578
0.0105964
0.0106426
0.0107416
0.0108956
0.0111049
0.0113688
0.0116872
0.0120573
0.0124768
0.0129349
0.0134212
0.0139016
0.0143456
0.0146616
0.0147721
0.0144729
0.0135866
0.0118502
0.00854856
0.00413286
0.010101
0.0101368
0.0102132
0.0103311
0.0104892
0.0106849
0.0109144
0.0111718
0.011449
0.0117314
0.0119998
0.0122219
0.0123546
0.0123351
0.012071
0.0114767
0.0103502
0.00868162
0.00595287
0.00279126
0.00953055
0.00955621
0.00961068
0.00969389
0.00980351
0.00993548
0.0100842
0.0102418
0.0103975
0.0105361
0.0106357
0.0106693
0.0105951
0.0103725
0.00992689
0.00922293
0.00812385
0.00667344
0.0046477
0.0023849
0.00890598
0.00892248
0.00895719
0.00900942
0.00907624
0.009153
0.00923328
0.00930883
0.00936822
0.00939738
0.00937627
0.00928311
0.00908516
0.00875583
0.00824501
0.00753382
0.00655152
0.00532606
0.00378185
0.00205561
0.00824642
0.00825511
0.0082731
0.00829927
0.00833057
0.00836233
0.0083882
0.00840031
0.0083882
0.00833964
0.00823832
0.00806747
0.00780398
0.00742887
0.00691205
0.00624077
0.00538403
0.00435349
0.00313472
0.00178454
0.00756813
0.00757054
0.00757514
0.00758064
0.00758411
0.00758125
0.00756633
0.00753236
0.00747051
0.00737072
0.00722062
0.00700749
0.00671553
0.00633125
0.00583769
0.00522635
0.00448564
0.00362142
0.00263918
0.00156876
0.00688419
0.00688185
0.00687636
0.00686637
0.0068493
0.00682144
0.00677788
0.00671276
0.006619
0.00648869
0.00631264
0.00608142
0.00578449
0.00541273
0.00495688
0.00441204
0.00377503
0.00305056
0.00224811
0.00138678
0.00620458
0.00619887
0.00618627
0.00616548
0.00613435
0.00608978
0.00602781
0.00594369
0.00583194
0.00568649
0.00550064
0.00526764
0.00498061
0.00463369
0.00422197
0.00374314
0.00319742
0.00258928
0.00192745
0.0012255
0.00553635
0.00552849
0.00551135
0.00548377
0.00544401
0.00538961
0.00531744
0.00522383
0.00510457
0.00495515
0.00477079
0.0045468
0.00427878
0.00396315
0.00359745
0.003181
0.00271529
0.00220448
0.00165575
0.00107917
0.00488406
0.00487505
0.00485551
0.00482443
0.00478045
0.00472169
0.00464575
0.00454983
0.0044308
0.00428537
0.00411022
0.00390217
0.00365849
0.00337711
0.00305695
0.00269827
0.00230296
0.00187471
0.00141927
0.000944249
0.0042502
0.00424083
0.0042206
0.00418865
0.00414392
0.00408504
0.0040102
0.00391731
0.0038041
0.00366824
0.00350745
0.00331967
0.00310323
0.00285705
0.00258086
0.00227535
0.00194246
0.00158533
0.00120855
0.000817865
0.00363556
0.00362648
0.0036069
0.00357609
0.00353329
0.00347748
0.00340734
0.00332138
0.00321797
0.0030955
0.00295244
0.00278751
0.00259973
0.00238865
0.00215441
0.00189789
0.00162088
0.00132599
0.00101685
0.00069779
0.00303969
0.00303136
0.00301344
0.00298531
0.00294642
0.00289604
0.00283326
0.00275702
0.00266618
0.00255966
0.00243648
0.00229585
0.00213727
0.00196063
0.00176628
0.00155513
0.00132872
0.00108917
0.00083931
0.00058241
0.00246111
0.00245388
0.00243835
0.00241402
0.00238048
0.00233727
0.00228375
0.0022192
0.00214284
0.00205398
0.00195199
0.00183643
0.00170708
0.00156401
0.00140766
0.00123884
0.00105883
0.000869285
0.000672393
0.000470567
0.00189755
0.00189168
0.00187907
0.00185934
0.00183223
0.00179742
0.00175451
0.00170301
0.00164243
0.00157232
0.00149231
0.00140218
0.00130186
0.00119151
0.00107153
0.000942607
0.000805739
0.000662162
0.000513499
0.000361465
0.00134623
0.00134188
0.00133257
0.00131801
0.00129806
0.00127253
0.00124115
0.00120364
0.00115969
0.00110903
0.00105148
0.000986916
0.000915365
0.000836977
0.000752092
0.000661207
0.000565057
0.000464497
0.000360659
0.000254633
0.000803976
0.000801278
0.000795498
0.000786495
0.00077419
0.000758485
0.000739246
0.00071631
0.000689519
0.000658737
0.000623872
0.000584887
0.000541819
0.000494781
0.000444
0.000389779
0.000332577
0.000272904
0.000211483
0.000148964
0.000267328
0.000266369
0.000264326
0.000261167
0.00025687
0.000251406
0.000244731
0.000236796
0.00022755
0.000216952
0.000204976
0.000191613
0.000176881
0.000160821
0.000143518
0.000125071
0.000105644
8.53761e-05
6.4519e-05
4.3345e-05
0.0111864
0.0112519
0.0113983
0.0116287
0.0119475
0.0123605
0.0128802
0.0135164
0.0142932
0.0152232
0.0163544
0.0176954
0.0193472
0.0212788
0.0237165
0.0264143
0.0299381
0.0328839
0.0375026
0.0301974
0.0112596
0.0113258
0.0114751
0.0117099
0.0120351
0.012457
0.0129892
0.0136423
0.0144429
0.0154058
0.0165848
0.0179951
0.0197526
0.0218506
0.0245515
0.027717
0.031958
0.0364076
0.0422263
0.0423435
0.0113198
0.0113867
0.011538
0.0117762
0.0121062
0.0125348
0.0130764
0.0137425
0.0145611
0.0155494
0.0167648
0.01823
0.0200689
0.0223016
0.0252075
0.0287494
0.033519
0.0390207
0.0456616
0.0495867
0.0113669
0.0114342
0.011587
0.0118273
0.0121605
0.0125937
0.0131416
0.0138164
0.0146471
0.0156526
0.0168928
0.0183955
0.0202905
0.0226172
0.0256658
0.0294697
0.0345984
0.0407863
0.0479984
0.0538002
0.0114009
0.0114684
0.0116218
0.0118633
0.012198
0.0126334
0.0131843
0.0138634
0.0147001
0.0157142
0.0169667
0.0184883
0.0204117
0.0227865
0.0259094
0.0298506
0.0351698
0.0417138
0.0492265
0.0558567
0.0114217
0.0114892
0.0116425
0.0118839
0.0122185
0.0126537
0.0132044
0.0138832
0.0147196
0.0157334
0.0169853
0.0185064
0.020429
0.0228036
0.025928
0.0298766
0.0352141
0.0417989
0.0493588
0.0560962
0.0114292
0.0114965
0.0116491
0.0118891
0.0122219
0.0126546
0.0132019
0.0138759
0.0147057
0.0157102
0.0169488
0.0184498
0.0203424
0.022668
0.0257208
0.0295457
0.0347278
0.0410371
0.0483918
0.0545508
0.0114237
0.0114905
0.0116415
0.0118792
0.0122085
0.0126363
0.0131769
0.0138418
0.014659
0.0156456
0.0168585
0.0183206
0.0201554
0.0223855
0.025296
0.028869
0.0337248
0.0394292
0.0463122
0.050964
0.0114051
0.0114712
0.0116201
0.0118542
0.0121784
0.0125992
0.01313
0.0137815
0.0145802
0.0155407
0.0167163
0.0181224
0.0198734
0.0219657
0.0246675
0.0278659
0.0322182
0.0369602
0.0431592
0.0446594
0.0113734
0.0114388
0.0115848
0.0118142
0.0121317
0.0125433
0.0130612
0.0136955
0.0144697
0.0153969
0.0165237
0.0178592
0.0195012
0.0214214
0.0238457
0.026556
0.030164
0.0334397
0.0387469
0.0340275
)
;

boundaryField
{
    inlet
    {
        type            zeroGradient;
    }
    outlet
    {
        type            fixedValue;
        value           uniform 0;
    }
    upAndBottom
    {
        type            empty;
    }
    obstacle
    {
        type            zeroGradient;
    }
}


// ************************************************************************* //
