x,y,z,U_0,U_1,U_2
0,0,0,0.3,-0.000321872,0
0,0.1,0,0.3,-0.000229909,0
0,0.2,0,0.3,-0.000137945,0
0,0.3,0,0.3,-4.59817e-05,0
0,0.4,0,0.3,0,0
0,0.5,0,0.3,0,0
0,0.6,0,0.3,0,0
0,0.7,0,0.3,-1.46817e-19,0
0,0.8,0,0.3,0,0
0,0.9,0,0.3,0,0
0,1,0,0.3,0,0
0,1.1,0,0.3,0,0
0,1.2,0,0.3,0,0
0,1.3,0,0.3,0,0
0,1.4,0,0.3,0,0
0,1.5,0,0.3,0,0
0,1.6,0,0.3,0,0
0,1.7,0,0.3,0,0
0,1.8,0,0.3,0,0
0,1.9,0,0.3,0,0
0,2,0,0.3,0,0
0,2.1,0,0.3,0,0
0,2.2,0,0.3,0,0
0,2.3,0,0.3,0,0
0,2.4,0,0.3,0,0
0,2.5,0,0.3,0,0
0,2.6,0,0.3,0,0
0,2.7,0,0.3,0,0
0,2.8,0,0.3,-1.19786e-19,0
0,2.9,0,0.3,0,0
0,3,0,0.3,0,0
0,3.1,0,0.3,0,0
0,3.2,0,0.3,0,0
0,3.3,0,0.3,0,0
0,3.4,0,0.3,0,0
0,3.5,0,0.3,0,0
0,3.6,0,0.3,0,0
0,3.7,0,0.3,0,0
0,3.8,0,0.3,0,0
0,3.9,0,0.3,0,0
0,4,0,0.3,0,0
0,4.1,0,0.3,0,0
0,4.2,0,0.3,0,0
0,4.3,0,0.3,0,0
0,4.4,0,0.3,0,0
0,4.5,0,0.3,0,0
0,4.6,0,0.3,0,0
0,4.7,0,0.3,0,0
0,4.8,0,0.3,0,0
0,4.9,0,0.3,-6.21237e-20,0
0,5,0,0.3,0,0
0,5.1,0,0.3,0,0
0,5.2,0,0.3,0,0
0,5.3,0,0.3,0,0
0,5.4,0,0.3,0,0
0,5.5,0,0.3,0,0
0,5.6,0,0.3,0,0
0,5.7,0,0.3,0,0
0,5.8,0,0.3,0,0
0,5.9,0,0.3,0,0
0,6,0,0.3,0,0
0,6.1,0,0.3,0,0
0,6.2,0,0.3,0,0
0,6.3,0,0.3,-9.91185e-21,0
0,6.4,0,0.3,0,0
0,6.5,0,0.3,0,0
0,6.6,0,0.3,0,0
0,6.7,0,0.3,0,0
0,6.8,0,0.3,0,0
0,6.9,0,0.3,0,0
0,7,0,0.3,0,0
0,7.1,0,0.3,0,0
0,7.2,0,0.3,0,0
0,7.3,0,0.3,0,0
0,7.4,0,0.3,0,0
0,7.5,0,0.3,0,0
0,7.6,0,0.3,0,0
0,7.7,0,0.3,4.57725e-20,0
0,7.8,0,0.3,0,0
0,7.9,0,0.3,0,0
0,8,0,0.3,0,0
0,8.1,0,0.3,0,0
0,8.2,0,0.3,0,0
0,8.3,0,0.3,0,0
0,8.4,0,0.3,0,0
0,8.5,0,0.3,0,0
0,8.6,0,0.3,0,0
0,8.7,0,0.3,0,0
0,8.8,0,0.3,0,0
0,8.9,0,0.3,0,0
0,9,0,0.3,0,0
0,9.1,0,0.3,0,0
0,9.2,0,0.3,0,0
0,9.3,0,0.3,0,0
0,9.4,0,0.3,0,0
0,9.5,0,0.3,0,0
0,9.6,0,0.3,0,0
0,9.7,0,0.3,0,0
0,9.8,0,0.3,0,0
0,9.9,0,0.3,0,0
0,10,0,0.3,0,0
0,10.1,0,0.3,0,0
0,10.2,0,0.3,0,0
0,10.3,0,0.3,0,0
0,10.4,0,0.3,0,0
0,10.5,0,0.3,0,0
0,10.6,0,0.3,0,0
0,10.7,0,0.3,0,0
0,10.8,0,0.3,0,0
0,10.9,0,0.3,0,0
0,11,0,0.3,0,0
0,11.1,0,0.3,0,0
0,11.2,0,0.3,0,0
0,11.3,0,0.3,0,0
0,11.4,0,0.3,0,0
0,11.5,0,0.3,0,0
0,11.6,0,0.3,0,0
0,11.7,0,0.3,0,0
0,11.8,0,0.3,0,0
0,11.9,0,0.3,0,0
0,12,0,0.3,0,0
0,12.1,0,0.3,0,0
0,12.2,0,0.3,0,0
0,12.3,0,0.3,0,0
0,12.4,0,0.3,0,0
0,12.5,0,0.299999,5.111e-05,0
0,12.6,0,0.299998,0.000197139,0
0,12.7,0,0.299996,0.000343167,0
0.1,0,0,0.299999,-0.00050673,0
0.1,0.1,0,0.3,-0.000414511,0
0.1,0.2,0,0.3,-0.000322547,0
0.1,0.3,0,0.3,-0.000243022,0
0.1,0.4,0,0.299999,-0.000241699,0
0.1,0.5,0,0.3,-0.00024144,0
0.1,0.6,0,0.3,-0.00024144,0
0.1,0.7,0,0.299997,-0.000240438,0
0.1,0.8,0,0.3,-0.000238255,0
0.1,0.9,0,0.3,-0.000238255,0
0.1,1,0,0.299999,-0.000237928,0
0.1,1.1,0,0.299999,-0.000234235,0
0.1,1.2,0,0.299999,-0.000233554,0
0.1,1.3,0,0.299999,-0.000233554,0
0.1,1.4,0,0.299995,-0.000231538,0
0.1,1.5,0,0.299999,-0.000227366,0
0.1,1.6,0,0.299999,-0.000227366,0
0.1,1.7,0,0.299998,-0.000226833,0
0.1,1.8,0,0.299998,-0.000220809,0
0.1,1.9,0,0.299999,-0.0002197,0
0.1,2,0,0.299999,-0.0002197,0
0.1,2.1,0,0.299993,-0.000216751,0
0.1,2.2,0,0.299999,-0.000210557,0
0.1,2.3,0,0.299999,-0.000210557,0
0.1,2.4,0,0.299997,-0.000209833,0
0.1,2.5,0,0.299997,-0.000201499,0
0.1,2.6,0,0.299999,-0.00019995,0
0.1,2.7,0,0.299999,-0.00019995,0
0.1,2.8,0,0.29999,-0.000196171,0
0.1,2.9,0,0.299998,-0.000187903,0
0.1,3,0,0.299998,-0.000187903,0
0.1,3.1,0,0.299996,-0.000187014,0
0.1,3.2,0,0.299996,-0.000176453,0
0.1,3.3,0,0.299998,-0.000174461,0
0.1,3.4,0,0.299998,-0.000174461,0
0.1,3.5,0,0.299988,-0.000169956,0
0.1,3.6,0,0.299997,-0.0001597,0
0.1,3.7,0,0.299997,-0.0001597,0
0.1,3.8,0,0.299995,-0.000158652,0
0.1,3.9,0,0.299995,-0.000146099,0
0.1,4,0,0.299997,-0.000143724,0
0.1,4.1,0,0.299997,-0.000143724,0
0.1,4.2,0,0.299986,-0.000138356,0
0.1,4.3,0,0.299996,-0.000126678,0
0.1,4.4,0,0.299996,-0.000126678,0
0.1,4.5,0,0.299994,-0.000125385,0
0.1,4.6,0,0.299994,-0.000111285,0
0.1,4.7,0,0.299996,-0.000108732,0
0.1,4.8,0,0.299996,-0.000108732,0
0.1,4.9,0,0.299985,-0.000101738,0
0.1,5,0,0.299996,-9.00629e-05,0
0.1,5.1,0,0.299996,-9.00629e-05,0
0.1,5.2,0,0.299993,-8.82743e-05,0
0.1,5.3,0,0.299994,-7.31565e-05,0
0.1,5.4,0,0.299996,-7.08222e-05,0
0.1,5.5,0,0.299996,-7.08222e-05,0
0.1,5.6,0,0.299983,-6.06871e-05,0
0.1,5.7,0,0.299998,-5.10975e-05,0
0.1,5.8,0,0.299998,-5.10975e-05,0
0.1,5.9,0,0.299994,-4.84628e-05,0
0.1,6,0,0.299996,-3.25813e-05,0
0.1,6.1,0,0.3,-3.08846e-05,0
0.1,6.2,0,0.3,-3.08846e-05,0
0.1,6.3,0,0.299981,-1.62324e-05,0
0.1,6.4,0,0.300004,-1.00495e-05,0
0.1,6.5,0,0.300004,-1.00495e-05,0
0.1,6.6,0,0.299999,-6.43018e-06,0
0.1,6.7,0,0.300002,1.00874e-05,0
0.1,6.8,0,0.300008,1.09729e-05,0
0.1,6.9,0,0.300008,1.09729e-05,0
0.1,7,0,0.29998,2.6003e-05,0
0.1,7.1,0,0.299979,3.64745e-05,0
0.1,7.2,0,0.299979,4.2955e-05,0
0.1,7.3,0,0.299979,4.94053e-05,0
0.1,7.4,0,0.299979,5.5834e-05,0
0.1,7.5,0,0.299979,6.2239e-05,0
0.1,7.6,0,0.299979,6.8616e-05,0
0.1,7.7,0,0.299979,7.49604e-05,0
0.1,7.8,0,0.299979,8.12695e-05,0
0.1,7.9,0,0.299979,8.75482e-05,0
0.1,8,0,0.299979,9.58738e-05,0
0.1,8.1,0,0.300016,0.00010427,0
0.1,8.2,0,0.300009,0.000105031,0
0.1,8.3,0,0.300015,0.000119459,0
0.1,8.4,0,0.300015,0.000119459,0
0.1,8.5,0,0.300004,0.00013086,0
0.1,8.6,0,0.300013,0.000134201,0
0.1,8.7,0,0.299985,0.000136804,0
0.1,8.8,0,0.300011,0.000148372,0
0.1,8.9,0,0.300009,0.000148534,0
0.1,9,0,0.300009,0.000161791,0
0.1,9.1,0,0.300009,0.000161791,0
0.1,9.2,0,0.299997,0.00017014,0
0.1,9.3,0,0.300006,0.000174366,0
0.1,9.4,0,0.29999,0.000176342,0
0.1,9.5,0,0.300003,0.000186048,0
0.1,9.6,0,0.300003,0.000186048,0
0.1,9.7,0,0.3,0.000196818,0
0.1,9.8,0,0.3,0.000196818,0
0.1,9.9,0,0.299992,0.000203481,0
0.1,10,0,0.299998,0.00020669,0
0.1,10.1,0,0.299992,0.000209793,0
0.1,10.2,0,0.299996,0.000215704,0
0.1,10.3,0,0.299996,0.000215704,0
0.1,10.4,0,0.299995,0.000223908,0
0.1,10.5,0,0.299995,0.000223908,0
0.1,10.6,0,0.299992,0.000230928,0
0.1,10.7,0,0.299993,0.00023135,0
0.1,10.8,0,0.299993,0.000235424,0
0.1,10.9,0,0.299993,0.000238061,0
0.1,11,0,0.299993,0.000238061,0
0.1,11.1,0,0.299993,0.000244057,0
0.1,11.2,0,0.299993,0.000244057,0
0.1,11.3,0,0.299993,0.000252004,0
0.1,11.4,0,0.299993,0.000249329,0
0.1,11.5,0,0.299994,0.000253041,0
0.1,11.6,0,0.299994,0.000253855,0
0.1,11.7,0,0.299994,0.000253855,0
0.1,11.8,0,0.299995,0.000257922,0
0.1,11.9,0,0.299995,0.000257593,0
0.1,12,0,0.299996,0.00026555,0
0.1,12.1,0,0.299995,0.000260484,0
0.1,12.2,0,0.299996,0.000262927,0
0.1,12.3,0,0.299996,0.000262439,0
0.1,12.4,0,0.299996,0.000262439,0
0.1,12.5,0,0.299997,0.000264642,0
0.1,12.6,0,0.299995,0.000398173,0
0.1,12.7,0,0.299996,0.000551384,0
0.2,0,0,0.299999,-0.000691588,0
0.2,0.1,0,0.3,-0.000599223,0
0.2,0.2,0,0.3,-0.00050715,0
0.2,0.3,0,0.299998,-0.000485671,0
0.2,0.4,0,0.299998,-0.000484347,0
0.2,0.5,0,0.299999,-0.000482879,0
0.2,0.6,0,0.299998,-0.00048245,0
0.2,0.7,0,0.299995,-0.000480876,0
0.2,0.8,0,0.299998,-0.000477445,0
0.2,0.9,0,0.299999,-0.000476509,0
0.2,1,0,0.299995,-0.000474659,0
0.2,1.1,0,0.299995,-0.000470966,0
0.2,1.2,0,0.299999,-0.000467108,0
0.2,1.3,0,0.299997,-0.000466244,0
0.2,1.4,0,0.29999,-0.000463076,0
0.2,1.5,0,0.299997,-0.00045652,0
0.2,1.6,0,0.299999,-0.000454732,0
0.2,1.7,0,0.299992,-0.000451709,0
0.2,1.8,0,0.299992,-0.000445685,0
0.2,1.9,0,0.299999,-0.000439401,0
0.2,2,0,0.299996,-0.000438137,0
0.2,2.1,0,0.299985,-0.000433503,0
0.2,2.2,0,0.299995,-0.000423769,0
0.2,2.3,0,0.299998,-0.000421115,0
0.2,2.4,0,0.299989,-0.00041701,0
0.2,2.5,0,0.299988,-0.000408676,0
0.2,2.6,0,0.299997,-0.0003999,0
0.2,2.7,0,0.299994,-0.00039828,0
0.2,2.8,0,0.29998,-0.000392341,0
0.2,2.9,0,0.299993,-0.000379349,0
0.2,3,0,0.299996,-0.000375805,0
0.2,3.1,0,0.299985,-0.000370768,0
0.2,3.2,0,0.299985,-0.000360207,0
0.2,3.3,0,0.299996,-0.000348923,0
0.2,3.4,0,0.299991,-0.000346992,0
0.2,3.5,0,0.299976,-0.000339912,0
0.2,3.6,0,0.299991,-0.000323795,0
0.2,3.7,0,0.299995,-0.000319399,0
0.2,3.8,0,0.299982,-0.000313461,0
0.2,3.9,0,0.299982,-0.000300909,0
0.2,4,0,0.299993,-0.000287448,0
0.2,4.1,0,0.299989,-0.000285148,0
0.2,4.2,0,0.299972,-0.000276712,0
0.2,4.3,0,0.299988,-0.000258361,0
0.2,4.4,0,0.299993,-0.000253356,0
0.2,4.5,0,0.299979,-0.000246031,0
0.2,4.6,0,0.299979,-0.00023193,0
0.2,4.7,0,0.299992,-0.000217463,0
0.2,4.8,0,0.299987,-0.000214466,0
0.2,4.9,0,0.299969,-0.000203476,0
0.2,5,0,0.299987,-0.00018513,0
0.2,5.1,0,0.299992,-0.000180126,0
0.2,5.2,0,0.299977,-0.00016999,0
0.2,5.3,0,0.299977,-0.000154872,0
0.2,5.4,0,0.299993,-0.000141644,0
0.2,5.5,0,0.299987,-0.000137301,0
0.2,5.6,0,0.299966,-0.000121374,0
0.2,5.7,0,0.299989,-0.000106305,0
0.2,5.8,0,0.299996,-0.000102195,0
0.2,5.9,0,0.299977,-8.72651e-05,0
0.2,6,0,0.299979,-7.13836e-05,0
0.2,6.1,0,0.300001,-6.17692e-05,0
0.2,6.2,0,0.299993,-5.54897e-05,0
0.2,6.3,0,0.299963,-3.24647e-05,0
0.2,6.4,0,0.299998,-2.27488e-05,0
0.2,6.5,0,0.300007,-2.0099e-05,0
0.2,6.6,0,0.299979,4.10458e-07,0
0.2,6.7,0,0.299982,1.6928e-05,0
0.2,6.8,0,0.300015,2.19457e-05,0
0.2,6.9,0,0.300003,2.83872e-05,0
0.2,7,0,0.29996,5.2006e-05,0
0.2,7.1,0,0.299959,7.29489e-05,0
0.2,7.2,0,0.299959,8.59101e-05,0
0.2,7.3,0,0.299958,9.88105e-05,0
0.2,7.4,0,0.299958,0.000111668,0
0.2,7.5,0,0.299958,0.000124478,0
0.2,7.6,0,0.299958,0.000137232,0
0.2,7.7,0,0.299958,0.000149921,0
0.2,7.8,0,0.299958,0.000162539,0
0.2,7.9,0,0.299958,0.000175096,0
0.2,8,0,0.299959,0.000191748,0
0.2,8.1,0,0.300031,0.00020854,0
0.2,8.2,0,0.299989,0.000213511,0
0.2,8.3,0,0.300013,0.000233662,0
0.2,8.4,0,0.300017,0.000240193,0
0.2,8.5,0,0.299984,0.000253846,0
0.2,8.6,0,0.300027,0.000268403,0
0.2,8.7,0,0.299966,0.000273954,0
0.2,8.8,0,0.300023,0.000296745,0
0.2,8.9,0,0.299992,0.000299431,0
0.2,9,0,0.300002,0.000317091,0
0.2,9.1,0,0.300012,0.000324166,0
0.2,9.2,0,0.29998,0.000334321,0
0.2,9.3,0,0.300012,0.000348732,0
0.2,9.4,0,0.299974,0.000353287,0
0.2,9.5,0,0.300007,0.000372096,0
0.2,9.6,0,0.29999,0.000375011,0
0.2,9.7,0,0.29999,0.000388153,0
0.2,9.8,0,0.299999,0.000394126,0
0.2,9.9,0,0.29998,0.000404139,0
0.2,10,0,0.299996,0.00041338,0
0.2,10.1,0,0.29998,0.000421265,0
0.2,10.2,0,0.299992,0.000431362,0
0.2,10.3,0,0.299987,0.000436221,0
0.2,10.4,0,0.299985,0.000445822,0
0.2,10.5,0,0.299989,0.000447888,0
0.2,10.6,0,0.299982,0.000461629,0
0.2,10.7,0,0.299987,0.0004627,0
0.2,10.8,0,0.299984,0.000474433,0
0.2,10.9,0,0.299986,0.000476244,0
0.2,11,0,0.299986,0.000482061,0
0.2,11.1,0,0.299985,0.000490325,0
0.2,11.2,0,0.299985,0.000488114,0
0.2,11.3,0,0.299987,0.000504826,0
0.2,11.4,0,0.299986,0.000498659,0
0.2,11.5,0,0.299988,0.000511317,0
0.2,11.6,0,0.299988,0.000508791,0
0.2,11.7,0,0.299989,0.000513005,0
0.2,11.8,0,0.29999,0.000520667,0
0.2,11.9,0,0.299989,0.000515187,0
0.2,12,0,0.299993,0.000531771,0
0.2,12.1,0,0.299991,0.000520967,0
0.2,12.2,0,0.299994,0.000531614,0
0.2,12.3,0,0.299993,0.000527138,0
0.2,12.4,0,0.299993,0.000528564,0
0.2,12.5,0,0.299996,0.000534779,0
0.2,12.6,0,0.299993,0.000599207,0
0.2,12.7,0,0.299996,0.000759601,0
0.3,0,0,0.299998,-0.000876446,0
0.3,0.1,0,0.299999,-0.000784081,0
0.3,0.2,0,0.299999,-0.000729067,0
0.3,0.3,0,0.299997,-0.000728319,0
0.3,0.4,0,0.299997,-0.000726995,0
0.3,0.5,0,0.299998,-0.000725096,0
0.3,0.6,0,0.299996,-0.000722888,0
0.3,0.7,0,0.299992,-0.000721314,0
0.3,0.8,0,0.299996,-0.000717883,0
0.3,0.9,0,0.299997,-0.000713784,0
0.3,1,0,0.299991,-0.00071139,0
0.3,1.1,0,0.299991,-0.000707697,0
0.3,1.2,0,0.299996,-0.000702704,0
0.3,1.3,0,0.299992,-0.000697782,0
0.3,1.4,0,0.299985,-0.000694615,0
0.3,1.5,0,0.299992,-0.000688059,0
0.3,1.6,0,0.299994,-0.000680498,0
0.3,1.7,0,0.299986,-0.000676585,0
0.3,1.8,0,0.299986,-0.000670562,0
0.3,1.9,0,0.299994,-0.000662428,0
0.3,2,0,0.299988,-0.000654888,0
0.3,2.1,0,0.299978,-0.000650254,0
0.3,2.2,0,0.299988,-0.000640521,0
0.3,2.3,0,0.299992,-0.000629499,0
0.3,2.4,0,0.29998,-0.000624187,0
0.3,2.5,0,0.29998,-0.000615853,0
0.3,2.6,0,0.299991,-0.000604496,0
0.3,2.7,0,0.299984,-0.000594451,0
0.3,2.8,0,0.299971,-0.000588512,0
0.3,2.9,0,0.299983,-0.000575519,0
0.3,3,0,0.299989,-0.000561041,0
0.3,3.1,0,0.299974,-0.000554523,0
0.3,3.2,0,0.299974,-0.000543962,0
0.3,3.3,0,0.299988,-0.000529359,0
0.3,3.4,0,0.299979,-0.000516948,0
0.3,3.5,0,0.299964,-0.000509868,0
0.3,3.6,0,0.299979,-0.000493751,0
0.3,3.7,0,0.299986,-0.000475955,0
0.3,3.8,0,0.299969,-0.00046827,0
0.3,3.9,0,0.299969,-0.000455718,0
0.3,4,0,0.299984,-0.000438298,0
0.3,4.1,0,0.299975,-0.000423504,0
0.3,4.2,0,0.299958,-0.000415069,0
0.3,4.3,0,0.299974,-0.000396717,0
0.3,4.4,0,0.299982,-0.000376156,0
0.3,4.5,0,0.299965,-0.000366676,0
0.3,4.6,0,0.299964,-0.000352575,0
0.3,4.7,0,0.299981,-0.000333854,0
0.3,4.8,0,0.299972,-0.000316204,0
0.3,4.9,0,0.299954,-0.000305215,0
0.3,5,0,0.299972,-0.000286868,0
0.3,5.1,0,0.29998,-0.000264823,0
0.3,5.2,0,0.299961,-0.000251706,0
0.3,5.3,0,0.299961,-0.000236588,0
0.3,5.4,0,0.299981,-0.00021947,0
0.3,5.5,0,0.29997,-0.000197988,0
0.3,5.6,0,0.299949,-0.000182061,0
0.3,5.7,0,0.299972,-0.000166992,0
0.3,5.8,0,0.299983,-0.000145388,0
0.3,5.9,0,0.299959,-0.000126067,0
0.3,6,0,0.299961,-0.000110186,0
0.3,6.1,0,0.299989,-9.77438e-05,0
0.3,6.2,0,0.299974,-7.17221e-05,0
0.3,6.3,0,0.299944,-4.86971e-05,0
0.3,6.4,0,0.299979,-3.89812e-05,0
0.3,6.5,0,0.299996,-1.92905e-05,0
0.3,6.6,0,0.29996,7.25109e-06,0
0.3,6.7,0,0.299963,2.37687e-05,0
0.3,6.8,0,0.300005,3.02622e-05,0
0.3,6.9,0,0.299983,5.43902e-05,0
0.3,7,0,0.299939,7.80089e-05,0
0.3,7.1,0,0.299938,0.000109423,0
0.3,7.2,0,0.299938,0.000128865,0
0.3,7.3,0,0.299937,0.000148216,0
0.3,7.4,0,0.299937,0.000167502,0
0.3,7.5,0,0.299937,0.000186717,0
0.3,7.6,0,0.299937,0.000205848,0
0.3,7.7,0,0.299937,0.000224881,0
0.3,7.8,0,0.299937,0.000243809,0
0.3,7.9,0,0.299937,0.000262645,0
0.3,8,0,0.299938,0.000287621,0
0.3,8.1,0,0.300023,0.000307272,0
0.3,8.2,0,0.299968,0.000321991,0
0.3,8.3,0,0.299993,0.000342142,0
0.3,8.4,0,0.299998,0.000363178,0
0.3,8.5,0,0.299964,0.000376831,0
0.3,8.6,0,0.300023,0.000404204,0
0.3,8.7,0,0.299947,0.000411103,0
0.3,8.8,0,0.30001,0.000436401,0
0.3,8.9,0,0.299974,0.000450328,0
0.3,9,0,0.299984,0.000467989,0
0.3,9.1,0,0.299995,0.000488347,0
0.3,9.2,0,0.299964,0.000498502,0
0.3,9.3,0,0.300008,0.000523438,0
0.3,9.4,0,0.299959,0.000530233,0
0.3,9.5,0,0.299993,0.00055001,0
0.3,9.6,0,0.299976,0.000564137,0
0.3,9.7,0,0.299976,0.00057728,0
0.3,9.8,0,0.299986,0.000594783,0
0.3,9.9,0,0.299967,0.000604796,0
0.3,10,0,0.299989,0.00062039,0
0.3,10.1,0,0.299969,0.000632737,0
0.3,10.2,0,0.29998,0.000642834,0
0.3,10.3,0,0.299976,0.000657726,0
0.3,10.4,0,0.299975,0.000667327,0
0.3,10.5,0,0.29998,0.000678589,0
0.3,10.6,0,0.299973,0.000692329,0
0.3,10.7,0,0.299979,0.000695316,0
0.3,10.8,0,0.299976,0.000713442,0
0.3,10.9,0,0.299978,0.000715253,0
0.3,11,0,0.299979,0.000728454,0
0.3,11.1,0,0.299978,0.000736718,0
0.3,11.2,0,0.299979,0.000740003,0
0.3,11.3,0,0.299981,0.000757647,0
0.3,11.4,0,0.29998,0.000750141,0
0.3,11.5,0,0.299983,0.000769593,0
0.3,11.6,0,0.299982,0.000767067,0
0.3,11.7,0,0.299984,0.00077575,0
0.3,11.8,0,0.299986,0.000783412,0
0.3,11.9,0,0.299985,0.00077948,0
0.3,12,0,0.29999,0.000797992,0
0.3,12.1,0,0.299987,0.000784564,0
0.3,12.2,0,0.299991,0.000800302,0
0.3,12.3,0,0.29999,0.000795826,0
0.3,12.4,0,0.299992,0.000798701,0
0.3,12.5,0,0.299995,0.000804917,0
0.3,12.6,0,0.299992,0.000804979,0
0.3,12.7,0,0.299996,0.000967817,0
0.4,0,0,0.299997,-0.0010613,0
0.4,0.1,0,0.299998,-0.000973085,0
0.4,0.2,0,0.299997,-0.000971935,0
0.4,0.3,0,0.299996,-0.000970967,0
0.4,0.4,0,0.299995,-0.000969643,0
0.4,0.5,0,0.299995,-0.000966886,0
0.4,0.6,0,0.299993,-0.000963413,0
0.4,0.7,0,0.29999,-0.000961753,0
0.4,0.8,0,0.299993,-0.000958212,0
0.4,0.9,0,0.299991,-0.000952387,0
0.4,1,0,0.299987,-0.000948121,0
0.4,1.1,0,0.299987,-0.000944428,0
0.4,1.2,0,0.299988,-0.000937707,0
0.4,1.3,0,0.299986,-0.000929547,0
0.4,1.4,0,0.29998,-0.000926153,0
0.4,1.5,0,0.299986,-0.000919419,0
0.4,1.6,0,0.299984,-0.00090895,0
0.4,1.7,0,0.299979,-0.000901461,0
0.4,1.8,0,0.299979,-0.000895438,0
0.4,1.9,0,0.299982,-0.000884777,0
0.4,2,0,0.29998,-0.000872009,0
0.4,2.1,0,0.29997,-0.000867005,0
0.4,2.2,0,0.29998,-0.000857031,0
0.4,2.3,0,0.299978,-0.000841985,0
0.4,2.4,0,0.299972,-0.000831364,0
0.4,2.5,0,0.299971,-0.00082303,0
0.4,2.6,0,0.299975,-0.000808433,0
0.4,2.7,0,0.299973,-0.000791137,0
0.4,2.8,0,0.299961,-0.000784683,0
0.4,2.9,0,0.299973,-0.000771394,0
0.4,3,0,0.299971,-0.000751883,0
0.4,3.1,0,0.299964,-0.000738277,0
0.4,3.2,0,0.299963,-0.000727717,0
0.4,3.3,0,0.299969,-0.000709251,0
0.4,3.4,0,0.299967,-0.000687568,0
0.4,3.5,0,0.299952,-0.000679824,0
0.4,3.6,0,0.299966,-0.000663358,0
0.4,3.7,0,0.299965,-0.000639556,0
0.4,3.8,0,0.299956,-0.00062308,0
0.4,3.9,0,0.299956,-0.000610527,0
0.4,4,0,0.299962,-0.000588507,0
0.4,4.1,0,0.29996,-0.000562652,0
0.4,4.2,0,0.299945,-0.000553425,0
0.4,4.3,0,0.29996,-0.000534643,0
0.4,4.4,0,0.299959,-0.000506811,0
0.4,4.5,0,0.29995,-0.000487321,0
0.4,4.6,0,0.29995,-0.000473221,0
0.4,4.7,0,0.299957,-0.000448505,0
0.4,4.8,0,0.299955,-0.000418794,0
0.4,4.9,0,0.299938,-0.000406953,0
0.4,5,0,0.299955,-0.00038801,0
0.4,5.1,0,0.299954,-0.000356546,0
0.4,5.2,0,0.299945,-0.000333422,0
0.4,5.3,0,0.299945,-0.000318304,0
0.4,5.4,0,0.299953,-0.000292498,0
0.4,5.5,0,0.299952,-0.000259453,0
0.4,5.6,0,0.299932,-0.000242748,0
0.4,5.7,0,0.299954,-0.000226801,0
0.4,5.8,0,0.299953,-0.00019241,0
0.4,5.9,0,0.299941,-0.00016487,0
0.4,6,0,0.299943,-0.000148988,0
0.4,6.1,0,0.299955,-0.000123987,0
0.4,6.2,0,0.299954,-8.852e-05,0
0.4,6.3,0,0.299926,-6.49295e-05,0
0.4,6.4,0,0.299959,-5.40071e-05,0
0.4,6.5,0,0.299957,-1.77495e-05,0
0.4,6.6,0,0.29994,1.40917e-05,0
0.4,6.7,0,0.299943,3.06093e-05,0
0.4,6.8,0,0.299962,4.99858e-05,0
0.4,6.9,0,0.299961,8.0098e-05,0
0.4,7,0,0.299919,0.000104012,0
0.4,7.1,0,0.299918,0.000145898,0
0.4,7.2,0,0.299917,0.00017182,0
0.4,7.3,0,0.299917,0.000197621,0
0.4,7.4,0,0.299916,0.000223336,0
0.4,7.5,0,0.299916,0.000248956,0
0.4,7.6,0,0.299916,0.000274464,0
0.4,7.7,0,0.299916,0.000299842,0
0.4,7.8,0,0.299916,0.000325078,0
0.4,7.9,0,0.299917,0.000350193,0
0.4,8,0,0.299917,0.000383495,0
0.4,8.1,0,0.299972,0.000406684,0
0.4,8.2,0,0.299948,0.000430471,0
0.4,8.3,0,0.299972,0.000450697,0
0.4,8.4,0,0.299973,0.000484645,0
0.4,8.5,0,0.299945,0.000499816,0
0.4,8.6,0,0.299972,0.000530614,0
0.4,8.7,0,0.299929,0.000548253,0
0.4,8.8,0,0.299971,0.000575377,0
0.4,8.9,0,0.299956,0.000601225,0
0.4,9,0,0.299967,0.000618886,0
0.4,9.1,0,0.299972,0.000649747,0
0.4,9.2,0,0.299947,0.000662683,0
0.4,9.3,0,0.29997,0.000690198,0
0.4,9.4,0,0.299944,0.000707178,0
0.4,9.5,0,0.299967,0.000728822,0
0.4,9.6,0,0.299962,0.000753263,0
0.4,9.7,0,0.299962,0.000766406,0
0.4,9.8,0,0.299968,0.000792577,0
0.4,9.9,0,0.299954,0.000805454,0
0.4,10,0,0.299967,0.000825829,0
0.4,10.1,0,0.299957,0.000844209,0
0.4,10.2,0,0.299966,0.000857145,0
0.4,10.3,0,0.299966,0.000879231,0
0.4,10.4,0,0.299964,0.000888832,0
0.4,10.5,0,0.299968,0.000908113,0
0.4,10.6,0,0.299964,0.00092303,0
0.4,10.7,0,0.299968,0.000933676,0
0.4,10.8,0,0.299968,0.000952451,0
0.4,10.9,0,0.299969,0.000957364,0
0.4,11,0,0.299971,0.000974846,0
0.4,11.1,0,0.299971,0.000983111,0
0.4,11.2,0,0.299973,0.000994241,0
0.4,11.3,0,0.299974,0.00101047,0
0.4,11.4,0,0.299975,0.00101191,0
0.4,11.5,0,0.299977,0.00102787,0
0.4,11.6,0,0.299977,0.00102761,0
0.4,11.7,0,0.29998,0.00103849,0
0.4,11.8,0,0.299981,0.00104616,0
0.4,11.9,0,0.299983,0.00104943,0
0.4,12,0,0.299986,0.00106421,0
0.4,12.1,0,0.299985,0.00105864,0
0.4,12.2,0,0.299989,0.00106899,0
0.4,12.3,0,0.299988,0.00106558,0
0.4,12.4,0,0.299991,0.00106897,0
0.4,12.5,0,0.299994,0.00107505,0
0.4,12.6,0,0.299993,0.00107127,0
0.4,12.7,0,0.299996,0.00117603,0
0.5,0,0,0.299996,-0.00124616,0
0.5,0.1,0,0.299996,-0.00121599,0
0.5,0.2,0,0.299995,-0.00121484,0
0.5,0.3,0,0.299994,-0.00121369,0
0.5,0.4,0,0.299993,-0.00121201,0
0.5,0.5,0,0.299991,-0.00120853,0
0.5,0.6,0,0.299989,-0.00120506,0
0.5,0.7,0,0.299987,-0.00120219,0
0.5,0.8,0,0.299987,-0.00119713,0
0.5,0.9,0,0.299985,-0.0011913,0
0.5,1,0,0.299983,-0.00118548,0
0.5,1.1,0,0.299982,-0.00118058,0
0.5,1.2,0,0.29998,-0.00117242,0
0.5,1.3,0,0.299978,-0.00116426,0
0.5,1.4,0,0.299975,-0.00115769,0
0.5,1.5,0,0.299976,-0.00114847,0
0.5,1.6,0,0.299974,-0.001138,0
0.5,1.7,0,0.299972,-0.00112753,0
0.5,1.8,0,0.299971,-0.00111947,0
0.5,1.9,0,0.299969,-0.0011067,0
0.5,2,0,0.299968,-0.00109394,0
0.5,2.1,0,0.299963,-0.00108376,0
0.5,2.2,0,0.299965,-0.0010704,0
0.5,2.3,0,0.299963,-0.00105536,0
0.5,2.4,0,0.299961,-0.00104031,0
0.5,2.5,0,0.29996,-0.00102913,0
0.5,2.6,0,0.299958,-0.00101183,0
0.5,2.7,0,0.299957,-0.000994535,0
0.5,2.8,0,0.299951,-0.000980853,0
0.5,2.9,0,0.299954,-0.000963416,0
0.5,3,0,0.299952,-0.000943905,0
0.5,3.1,0,0.29995,-0.000924394,0
0.5,3.2,0,0.29995,-0.000910184,0
0.5,3.3,0,0.299948,-0.000888501,0
0.5,3.4,0,0.299946,-0.000866817,0
0.5,3.5,0,0.29994,-0.00084978,0
0.5,3.6,0,0.299944,-0.000828423,0
0.5,3.7,0,0.299942,-0.000804621,0
0.5,3.8,0,0.299941,-0.000780819,0
0.5,3.9,0,0.29994,-0.000763803,0
0.5,4,0,0.299938,-0.000737948,0
0.5,4.1,0,0.299937,-0.000712093,0
0.5,4.2,0,0.299931,-0.000691781,0
0.5,4.3,0,0.299935,-0.000666966,0
0.5,4.4,0,0.299934,-0.000639135,0
0.5,4.5,0,0.299932,-0.000611303,0
0.5,4.6,0,0.299932,-0.000591868,0
0.5,4.7,0,0.29993,-0.000562157,0
0.5,4.8,0,0.299929,-0.000532445,0
0.5,4.9,0,0.299923,-0.000508691,0
0.5,5,0,0.299928,-0.000481401,0
0.5,5.1,0,0.299927,-0.000449937,0
0.5,5.2,0,0.299925,-0.000418474,0
0.5,5.3,0,0.299925,-0.000397124,0
0.5,5.4,0,0.299924,-0.000364079,0
0.5,5.5,0,0.299923,-0.000331034,0
0.5,5.6,0,0.299915,-0.000303435,0
0.5,5.7,0,0.299922,-0.000275193,0
0.5,5.8,0,0.299921,-0.000240802,0
0.5,5.9,0,0.299919,-0.000206412,0
0.5,6,0,0.29992,-0.000183604,0
0.5,6.1,0,0.299919,-0.000148137,0
0.5,6.2,0,0.299917,-0.00011267,0
0.5,6.3,0,0.299907,-8.11618e-05,0
0.5,6.4,0,0.299917,-5.33493e-05,0
0.5,6.5,0,0.299916,-1.70917e-05,0
0.5,6.6,0,0.299914,1.91658e-05,0
0.5,6.7,0,0.299916,4.17443e-05,0
0.5,6.8,0,0.299915,7.18565e-05,0
0.5,6.9,0,0.299914,0.000101969,0
0.5,7,0,0.299899,0.000130015,0
0.5,7.1,0,0.299897,0.000182372,0
0.5,7.2,0,0.299896,0.000214775,0
0.5,7.3,0,0.299896,0.000247026,0
0.5,7.4,0,0.299895,0.00027917,0
0.5,7.5,0,0.299895,0.000311195,0
0.5,7.6,0,0.299895,0.00034308,0
0.5,7.7,0,0.299895,0.000374802,0
0.5,7.8,0,0.299895,0.000406348,0
0.5,7.9,0,0.299896,0.000437741,0
0.5,8,0,0.299896,0.000479369,0
0.5,8.1,0,0.299915,0.000506768,0
0.5,8.2,0,0.299916,0.000536271,0
0.5,8.3,0,0.299917,0.000562703,0
0.5,8.4,0,0.299918,0.000596651,0
0.5,8.5,0,0.299919,0.000623397,0
0.5,8.6,0,0.29992,0.000656547,0
0.5,8.7,0,0.29991,0.000685402,0
0.5,8.8,0,0.299923,0.000715052,0
0.5,8.9,0,0.299925,0.000747227,0
0.5,9,0,0.299926,0.000771945,0
0.5,9.1,0,0.299928,0.000803034,0
0.5,9.2,0,0.299929,0.000827084,0
0.5,9.3,0,0.299931,0.000856958,0
0.5,9.4,0,0.299928,0.000884123,0
0.5,9.5,0,0.299935,0.000908846,0
0.5,9.6,0,0.299938,0.000937354,0
0.5,9.7,0,0.299938,0.000958555,0
0.5,9.8,0,0.299941,0.000985543,0
0.5,9.9,0,0.299941,0.00100611,0
0.5,10,0,0.299944,0.00103127,0
0.5,10.1,0,0.299945,0.00105568,0
0.5,10.2,0,0.299948,0.00107442,0
0.5,10.3,0,0.29995,0.0010979,0
0.5,10.4,0,0.299951,0.00111489,0
0.5,10.5,0,0.299954,0.00113641,0
0.5,10.6,0,0.299954,0.00115373,0
0.5,10.7,0,0.299957,0.00117204,0
0.5,10.8,0,0.299959,0.00119146,0
0.5,10.9,0,0.299961,0.0012047,0
0.5,11,0,0.299963,0.00122198,0
0.5,11.1,0,0.299964,0.00123435,0
0.5,11.2,0,0.299966,0.0012494,0
0.5,11.3,0,0.299968,0.00126329,0
0.5,11.4,0,0.29997,0.00127368,0
0.5,11.5,0,0.299972,0.00128644,0
0.5,11.6,0,0.299974,0.00129478,0
0.5,11.7,0,0.299976,0.00130524,0
0.5,11.8,0,0.299978,0.00131266,0
0.5,11.9,0,0.29998,0.0013208,0
0.5,12,0,0.299983,0.00133043,0
0.5,12.1,0,0.299984,0.00133306,0
0.5,12.2,0,0.299987,0.00133884,0
0.5,12.3,0,0.299989,0.00134196,0
0.5,12.4,0,0.299992,0.00134536,0
0.5,12.5,0,0.299993,0.00134748,0
0.5,12.6,0,0.299994,0.00134859,0
0.5,12.7,0,0.299996,0.00138425,0
0.6,0,0,0.299995,-0.00146348,0
0.6,0.1,0,0.299995,-0.00145962,0
0.6,0.2,0,0.299994,-0.00145847,0
0.6,0.3,0,0.299993,-0.00145732,0
0.6,0.4,0,0.29999,-0.0014544,0
0.6,0.5,0,0.299988,-0.00145093,0
0.6,0.6,0,0.299986,-0.00144745,0
0.6,0.7,0,0.299982,-0.00144578,0
0.6,0.8,0,0.299981,-0.00143679,0
0.6,0.9,0,0.299979,-0.00143097,0
0.6,1,0,0.299977,-0.00142514,0
0.6,1.1,0,0.299974,-0.00141603,0
0.6,1.2,0,0.299972,-0.00140787,0
0.6,1.3,0,0.29997,-0.00139971,0
0.6,1.4,0,0.299965,-0.0013923,0
0.6,1.5,0,0.299965,-0.00137825,0
0.6,1.6,0,0.299963,-0.00136778,0
0.6,1.7,0,0.299961,-0.00135731,0
0.6,1.8,0,0.299958,-0.00134213,0
0.6,1.9,0,0.299957,-0.00132936,0
0.6,2,0,0.299955,-0.00131659,0
0.6,2.1,0,0.299949,-0.00130342,0
0.6,2.2,0,0.29995,-0.00128449,0
0.6,2.3,0,0.299948,-0.00126945,0
0.6,2.4,0,0.299946,-0.0012544,0
0.6,2.5,0,0.299943,-0.00123324,0
0.6,2.6,0,0.299942,-0.00121594,0
0.6,2.7,0,0.29994,-0.00119864,0
0.6,2.8,0,0.299932,-0.00117964,0
0.6,2.9,0,0.299935,-0.00115614,0
0.6,3,0,0.299933,-0.00113663,0
0.6,3.1,0,0.299931,-0.00111712,0
0.6,3.2,0,0.299929,-0.00109012,0
0.6,3.3,0,0.299927,-0.00106843,0
0.6,3.4,0,0.299926,-0.00104675,0
0.6,3.5,0,0.299917,-0.00102191,0
0.6,3.6,0,0.299921,-0.000994154,0
0.6,3.7,0,0.29992,-0.000970352,0
0.6,3.8,0,0.299918,-0.00094655,0
0.6,3.9,0,0.299916,-0.000913886,0
0.6,4,0,0.299915,-0.000888032,0
0.6,4.1,0,0.299913,-0.000862177,0
0.6,4.2,0,0.299903,-0.000831744,0
0.6,4.3,0,0.29991,-0.000799905,0
0.6,4.4,0,0.299909,-0.000772074,0
0.6,4.5,0,0.299907,-0.000744242,0
0.6,4.6,0,0.299906,-0.0007061,0
0.6,4.7,0,0.299904,-0.000676389,0
0.6,4.8,0,0.299903,-0.000646678,0
0.6,4.9,0,0.299892,-0.000611505,0
0.6,5,0,0.2999,-0.000575327,0
0.6,5.1,0,0.299899,-0.000543863,0
0.6,5.2,0,0.299898,-0.0005124,0
0.6,5.3,0,0.299896,-0.000469177,0
0.6,5.4,0,0.299894,-0.000436131,0
0.6,5.5,0,0.299893,-0.000403086,0
0.6,5.6,0,0.299881,-0.000364964,0
0.6,5.7,0,0.299889,-0.000323969,0
0.6,5.8,0,0.299888,-0.000289579,0
0.6,5.9,0,0.299887,-0.000255188,0
0.6,6,0,0.299884,-0.000208055,0
0.6,6.1,0,0.299882,-0.000172588,0
0.6,6.2,0,0.299881,-0.000137121,0
0.6,6.3,0,0.299872,-9.83841e-05,0
0.6,6.4,0,0.299875,-5.28939e-05,0
0.6,6.5,0,0.299874,-1.66363e-05,0
0.6,6.6,0,0.299872,1.96212e-05,0
0.6,6.7,0,0.299868,6.7728e-05,0
0.6,6.8,0,0.299867,9.78403e-05,0
0.6,6.9,0,0.299866,0.000127953,0
0.6,7,0,0.299863,0.000154918,0
0.6,7.1,0,0.299862,0.000218035,0
0.6,7.2,0,0.299861,0.000257182,0
0.6,7.3,0,0.299861,0.000296174,0
0.6,7.4,0,0.29986,0.000335049,0
0.6,7.5,0,0.29986,0.000373791,0
0.6,7.6,0,0.29986,0.000412373,0
0.6,7.7,0,0.29986,0.000450768,0
0.6,7.8,0,0.299861,0.000488956,0
0.6,7.9,0,0.299862,0.000526955,0
0.6,8,0,0.299863,0.000577275,0
0.6,8.1,0,0.299858,0.000604808,0
0.6,8.2,0,0.299859,0.000634311,0
0.6,8.3,0,0.299862,0.000674853,0
0.6,8.4,0,0.299863,0.000708802,0
0.6,8.5,0,0.299867,0.000749527,0
0.6,8.6,0,0.299868,0.000782678,0
0.6,8.7,0,0.299873,0.000822058,0
0.6,8.8,0,0.299875,0.000854945,0
0.6,8.9,0,0.299877,0.000887121,0
0.6,9,0,0.299882,0.000925477,0
0.6,9.1,0,0.299885,0.000956566,0
0.6,9.2,0,0.29989,0.000994119,0
0.6,9.3,0,0.299893,0.00102399,0
0.6,9.4,0,0.299895,0.00105791,0
0.6,9.5,0,0.299902,0.00108918,0
0.6,9.6,0,0.299905,0.00111769,0
0.6,9.7,0,0.299911,0.00115186,0
0.6,9.8,0,0.299913,0.00117885,0
0.6,9.9,0,0.299918,0.00121176,0
0.6,10,0,0.299922,0.00123708,0
0.6,10.1,0,0.299922,0.00126388,0
0.6,10.2,0,0.29993,0.0012921,0
0.6,10.3,0,0.299932,0.00131558,0
0.6,10.4,0,0.299937,0.00134362,0
0.6,10.5,0,0.29994,0.00136514,0
0.6,10.6,0,0.29994,0.00139075,0
0.6,10.7,0,0.299946,0.00141085,0
0.6,10.8,0,0.299948,0.00143042,0
0.6,10.9,0,0.299952,0.00145252,0
0.6,11,0,0.299954,0.0014698,0
0.6,11.1,0,0.299957,0.00148999,0
0.6,11.2,0,0.29996,0.00150504,0
0.6,11.3,0,0.299958,0.00152167,0
0.6,11.4,0,0.299965,0.00153594,0
0.6,11.5,0,0.299967,0.0015487,0
0.6,11.6,0,0.29997,0.00156244,0
0.6,11.7,0,0.299973,0.0015729,0
0.6,11.8,0,0.299976,0.00158453,0
0.6,11.9,0,0.299978,0.00159267,0
0.6,12,0,0.299977,0.00160063,0
0.6,12.1,0,0.299983,0.001608,0
0.6,12.2,0,0.299986,0.00161377,0
0.6,12.3,0,0.299989,0.00161885,0
0.6,12.4,0,0.299992,0.00162225,0
0.6,12.5,0,0.299995,0.00162528,0
0.6,12.6,0,0.299996,0.00162638,0
0.6,12.7,0,0.299995,0.00162662,0
0.7,0,0,0.299993,-0.00171326,0
0.7,0.1,0,0.299994,-0.00170399,0
0.7,0.2,0,0.299993,-0.00170284,0
0.7,0.3,0,0.29999,-0.00170502,0
0.7,0.4,0,0.299986,-0.00170174,0
0.7,0.5,0,0.299984,-0.00169406,0
0.7,0.6,0,0.299982,-0.00169059,0
0.7,0.7,0,0.299976,-0.00169252,0
0.7,0.8,0,0.299975,-0.00167721,0
0.7,0.9,0,0.299973,-0.00167138,0
0.7,1,0,0.299968,-0.00166737,0
0.7,1.1,0,0.299964,-0.00165706,0
0.7,1.2,0,0.299964,-0.00164406,0
0.7,1.3,0,0.299962,-0.0016359,0
0.7,1.4,0,0.299952,-0.00162998,0
0.7,1.5,0,0.299955,-0.00160877,0
0.7,1.6,0,0.299953,-0.0015983,0
0.7,1.7,0,0.299946,-0.00158809,0
0.7,1.8,0,0.299942,-0.00157086,0
0.7,1.9,0,0.299944,-0.00155274,0
0.7,2,0,0.299942,-0.00153997,0
0.7,2.1,0,0.299928,-0.00152598,0
0.7,2.2,0,0.299935,-0.00149931,0
0.7,2.3,0,0.299933,-0.00148426,0
0.7,2.4,0,0.299925,-0.00146774,0
0.7,2.5,0,0.299921,-0.00144371,0
0.7,2.6,0,0.299925,-0.00142076,0
0.7,2.7,0,0.299923,-0.00140346,0
0.7,2.8,0,0.299905,-0.00138106,0
0.7,2.9,0,0.299916,-0.00134956,0
0.7,3,0,0.299914,-0.00133005,0
0.7,3.1,0,0.299904,-0.00130709,0
0.7,3.2,0,0.299901,-0.00127643,0
0.7,3.3,0,0.299906,-0.00124905,0
0.7,3.4,0,0.299905,-0.00122737,0
0.7,3.5,0,0.299883,-0.00119622,0
0.7,3.6,0,0.299899,-0.00116055,0
0.7,3.7,0,0.299898,-0.00113675,0
0.7,3.8,0,0.299885,-0.00110738,0
0.7,3.9,0,0.299883,-0.00107024,0
0.7,4,0,0.299891,-0.00103876,0
0.7,4.1,0,0.29989,-0.0010129,0
0.7,4.2,0,0.299863,-0.000973314,0
0.7,4.3,0,0.299885,-0.00093346,0
0.7,4.4,0,0.299884,-0.000905629,0
0.7,4.5,0,0.299869,-0.000870462,0
0.7,4.6,0,0.299867,-0.000826965,0
0.7,4.7,0,0.299878,-0.000791202,0
0.7,4.8,0,0.299877,-0.000761491,0
0.7,4.9,0,0.299845,-0.000715395,0
0.7,5,0,0.299872,-0.000669788,0
0.7,5.1,0,0.299871,-0.000638324,0
0.7,5.2,0,0.299855,-0.000599054,0
0.7,5.3,0,0.299852,-0.000549564,0
0.7,5.4,0,0.299865,-0.000508655,0
0.7,5.5,0,0.299864,-0.00047561,0
0.7,5.6,0,0.299831,-0.000427335,0
0.7,5.7,0,0.299857,-0.00037313,0
0.7,5.8,0,0.299855,-0.000338739,0
0.7,5.9,0,0.299841,-0.000298199,0
0.7,6,0,0.299836,-0.000244091,0
0.7,6.1,0,0.299846,-0.000197339,0
0.7,6.2,0,0.299844,-0.000161872,0
0.7,6.3,0,0.29982,-0.000116596,0
0.7,6.4,0,0.299833,-5.26408e-05,0
0.7,6.5,0,0.299832,-1.63833e-05,0
0.7,6.6,0,0.299824,2.29071e-05,0
0.7,6.7,0,0.299818,7.95406e-05,0
0.7,6.8,0,0.299819,0.000127937,0
0.7,6.9,0,0.299818,0.000158049,0
0.7,7,0,0.299813,0.000178721,0
0.7,7.1,0,0.299812,0.000252885,0