x,y,z,p
0,0,0,7.23397e-05
0,0.1,0,0.000155583
0,0.2,0,0.000238826
0,0.3,0,0.000336361
0,0.4,0,0.000448188
0,0.5,0,0.000560014
0,0.6,0,0.00067114
0,0.7,0,0.000782267
0,0.8,0,0.000892869
0,0.9,0,0.00100295
0,1,0,0.00111303
0,1.1,0,0.00122171
0,1.2,0,0.00133039
0,1.3,0,0.0014382
0,1.4,0,0.00154514
0,1.5,0,0.00165208
0,1.6,0,0.00175691
0,1.7,0,0.00186175
0,1.8,0,0.00196536
0,1.9,0,0.00206773
0,2,0,0.00217011
0,2.1,0,0.00226965
0,2.2,0,0.0023692
0,2.3,0,0.00246714
0,2.4,0,0.00256349
0,2.5,0,0.00265984
0,2.6,0,0.00275261
0,2.7,0,0.00284539
0,2.8,0,0.00293619
0,2.9,0,0.00302501
0,3,0,0.00311383
0,3.1,0,0.00319832
0,3.2,0,0.00328282
0,3.3,0,0.00336496
0,3.4,0,0.00344475
0,3.5,0,0.00352454
0,3.6,0,0.00359924
0,3.7,0,0.00367395
0,3.8,0,0.00374593
0,3.9,0,0.00381519
0,4,0,0.00388444
0,4.1,0,0.00394789
0,4.2,0,0.00401134
0,4.3,0,0.00407169
0,4.4,0,0.00412895
0,4.5,0,0.00418621
0,4.6,0,0.0042369
0,4.7,0,0.0042876
0,4.8,0,0.00433098
0,4.9,0,0.00436705
0,5,0,0.00440312
0,5.1,0,0.00446219
0,5.2,0,0.00449826
0,5.3,0,0.00453148
0,5.4,0,0.00456173
0,5.5,0,0.00458903
0,5.6,0,0.00461331
0,5.7,0,0.00463457
0,5.8,0,0.00465275
0,5.9,0,0.00466787
0,6,0,0.00467988
0,6.1,0,0.00468879
0,6.2,0,0.00469456
0,6.3,0,0.00469722
0,6.4,0,0.00469675
0,6.5,0,0.00469316
0,6.6,0,0.00468645
0,6.7,0,0.00467664
0,6.8,0,0.00466375
0,6.9,0,0.00464781
0,7,0,0.00461661
0,7.1,0,0.00459576
0,7.2,0,0.00457491
0,7.3,0,0.00455219
0,7.4,0,0.00451882
0,7.5,0,0.00448545
0,7.6,0,0.0044496
0,7.7,0,0.00440796
0,7.8,0,0.00436631
0,7.9,0,0.00432114
0,8,0,0.00427165
0,8.1,0,0.00422216
0,8.2,0,0.00416823
0,8.3,0,0.00411134
0,8.4,0,0.00405445
0,8.5,0,0.00399233
0,8.6,0,0.00392848
0,8.7,0,0.00386463
0,8.8,0,0.00379493
0,8.9,0,0.00372458
0,9,0,0.00365394
0,9.1,0,0.00357759
0,9.2,0,0.00350125
0,9.3,0,0.0034238
0,9.4,0,0.00334195
0,9.5,0,0.0032601
0,9.6,0,0.0031765
0,9.7,0,0.00308965
0,9.8,0,0.00300279
0,9.9,0,0.00291369
0,10,0,0.00282233
0,10.1,0,0.00273097
0,10.2,0,0.002637
0,10.3,0,0.00254163
0,10.4,0,0.00244625
0,10.5,0,0.00234806
0,10.6,0,0.00224916
0,10.7,0,0.00215026
0,10.8,0,0.00204845
0,10.9,0,0.00194649
0,11,0,0.00184428
0,11.1,0,0.00173973
0,11.2,0,0.00163518
0,11.3,0,0.00153009
0,11.4,0,0.0014234
0,11.5,0,0.00131671
0,11.6,0,0.00120933
0,11.7,0,0.00110093
0,11.8,0,0.000992535
0,11.9,0,0.000883436
0,12,0,0.000773764
0,12.1,0,0.000664092
0,12.2,0,0.000553825
0,12.3,0,0.000443303
0,12.4,0,0.000332782
0,12.5,0,0.000246124
0,12.6,0,0.000163678
0,12.7,0,8.1232e-05
0.1,0,0,5.62642e-05
0.1,0.1,0,0.000139558
0.1,0.2,0,0.000224434
0.1,0.3,0,0.000336522
0.1,0.4,0,0.000448333
0.1,0.5,0,0.000560598
0.1,0.6,0,0.000671384
0.1,0.7,0,0.000782573
0.1,0.8,0,0.000893261
0.1,0.9,0,0.00100329
0.1,1,0,0.00111419
0.1,1.1,0,0.00122214
0.1,1.2,0,0.00133093
0.1,1.3,0,0.00143882
0.1,1.4,0,0.00154567
0.1,1.5,0,0.00165384
0.1,1.6,0,0.00175755
0.1,1.7,0,0.00186253
0.1,1.8,0,0.00196622
0.1,1.9,0,0.00206847
0.1,2,0,0.00217248
0.1,2.1,0,0.00227049
0.1,2.2,0,0.00237022
0.1,2.3,0,0.00246826
0.1,2.4,0,0.00256443
0.1,2.5,0,0.00266283
0.1,2.6,0,0.00275366
0.1,2.7,0,0.00284666
0.1,2.8,0,0.00293755
0.1,2.9,0,0.00302616
0.1,3,0,0.00311742
0.1,3.1,0,0.00319958
0.1,3.2,0,0.00328433
0.1,3.3,0,0.00336657
0.1,3.4,0,0.00344611
0.1,3.5,0,0.00352864
0.1,3.6,0,0.0036007
0.1,3.7,0,0.0036757
0.1,3.8,0,0.00374777
0.1,3.9,0,0.00381675
0.1,4,0,0.00388895
0.1,4.1,0,0.00394956
0.1,4.2,0,0.0040133
0.1,4.3,0,0.00407375
0.1,4.4,0,0.00413072
0.1,4.5,0,0.00419101
0.1,4.6,0,0.00423877
0.1,4.7,0,0.00428978
0.1,4.8,0,0.0043371
0.1,4.9,0,0.0043733
0.1,5,0,0.00440812
0.1,5.1,0,0.00446717
0.1,5.2,0,0.0045033
0.1,5.3,0,0.00453655
0.1,5.4,0,0.00456684
0.1,5.5,0,0.00459416
0.1,5.6,0,0.00461847
0.1,5.7,0,0.00463974
0.1,5.8,0,0.00465795
0.1,5.9,0,0.00467307
0.1,6,0,0.00468509
0.1,6.1,0,0.00469399
0.1,6.2,0,0.00469977
0.1,6.3,0,0.00470242
0.1,6.4,0,0.00470194
0.1,6.5,0,0.00469833
0.1,6.6,0,0.0046916
0.1,6.7,0,0.00468175
0.1,6.8,0,0.00466882
0.1,6.9,0,0.00465283
0.1,7,0,0.00462167
0.1,7.1,0,0.004601
0.1,7.2,0,0.00458015
0.1,7.3,0,0.00455667
0.1,7.4,0,0.00452151
0.1,7.5,0,0.00448814
0.1,7.6,0,0.00445338
0.1,7.7,0,0.00441051
0.1,7.8,0,0.00436915
0.1,7.9,0,0.00432423
0.1,8,0,0.00427406
0.1,8.1,0,0.00422541
0.1,8.2,0,0.00417064
0.1,8.3,0,0.00411362
0.1,8.4,0,0.00405809
0.1,8.5,0,0.00399447
0.1,8.6,0,0.00393061
0.1,8.7,0,0.00386864
0.1,8.8,0,0.00379691
0.1,8.9,0,0.00372656
0.1,9,0,0.00365792
0.1,9.1,0,0.00357941
0.1,9.2,0,0.00350307
0.1,9.3,0,0.00342701
0.1,9.4,0,0.00334362
0.1,9.5,0,0.00326177
0.1,9.6,0,0.00317896
0.1,9.7,0,0.00309115
0.1,9.8,0,0.00300468
0.1,9.9,0,0.00291545
0.1,10,0,0.00282367
0.1,10.1,0,0.00273305
0.1,10.2,0,0.00263819
0.1,10.3,0,0.00254282
0.1,10.4,0,0.00244844
0.1,10.5,0,0.0023491
0.1,10.6,0,0.0022502
0.1,10.7,0,0.00215245
0.1,10.8,0,0.00204934
0.1,10.9,0,0.00194739
0.1,11,0,0.00184604
0.1,11.1,0,0.00174047
0.1,11.2,0,0.00163592
0.1,11.3,0,0.00153131
0.1,11.4,0,0.00142401
0.1,11.5,0,0.00131735
0.1,11.6,0,0.0012101
0.1,11.7,0,0.0011014
0.1,11.8,0,0.000993144
0.1,11.9,0,0.000883854
0.1,12,0,0.000774101
0.1,12.1,0,0.000664585
0.1,12.2,0,0.000554025
0.1,12.3,0,0.000443504
0.1,12.4,0,0.000333074
0.1,12.5,0,0.000228143
0.1,12.6,0,0.000145696
0.1,12.7,0,6.31805e-05
0.2,0,0,4.01887e-05
0.2,0.1,0,0.000123523
0.2,0.2,0,0.00022473
0.2,0.3,0,0.000336818
0.2,0.4,0,0.000448566
0.2,0.5,0,0.000561183
0.2,0.6,0,0.000671696
0.2,0.7,0,0.000783445
0.2,0.8,0,0.000894133
0.2,0.9,0,0.00100379
0.2,1,0,0.00111535
0.2,1.1,0,0.00122273
0.2,1.2,0,0.00133239
0.2,1.3,0,0.00144028
0.2,1.4,0,0.00154645
0.2,1.5,0,0.0016556
0.2,1.6,0,0.00175841
0.2,1.7,0,0.00186459
0.2,1.8,0,0.00196829
0.2,1.9,0,0.00206953
0.2,2,0,0.00217486
0.2,2.1,0,0.00227163
0.2,2.2,0,0.0023729
0.2,2.3,0,0.00247094
0.2,2.4,0,0.00256578
0.2,2.5,0,0.00266583
0.2,2.6,0,0.00275509
0.2,2.7,0,0.00284995
0.2,2.8,0,0.00294085
0.2,2.9,0,0.0030278
0.2,3,0,0.003121
0.2,3.1,0,0.0032013
0.2,3.2,0,0.00328819
0.2,3.3,0,0.00337043
0.2,3.4,0,0.00344802
0.2,3.5,0,0.00353274
0.2,3.6,0,0.0036027
0.2,3.7,0,0.00368002
0.2,3.8,0,0.00375209
0.2,3.9,0,0.0038189
0.2,4,0,0.00389345
0.2,4.1,0,0.00395179
0.2,4.2,0,0.00401796
0.2,4.3,0,0.00407841
0.2,4.4,0,0.0041331
0.2,4.5,0,0.00419581
0.2,4.6,0,0.00424123
0.2,4.7,0,0.00429474
0.2,4.8,0,0.00434207
0.2,4.9,0,0.0043793
0.2,5,0,0.00441311
0.2,5.1,0,0.00447216
0.2,5.2,0,0.00450834
0.2,5.3,0,0.00454162
0.2,5.4,0,0.00457195
0.2,5.5,0,0.0045993
0.2,5.6,0,0.00462363
0.2,5.7,0,0.00464492
0.2,5.8,0,0.00466314
0.2,5.9,0,0.00467827
0.2,6,0,0.0046903
0.2,6.1,0,0.0046992
0.2,6.2,0,0.00470498
0.2,6.3,0,0.00470762
0.2,6.4,0,0.00470712
0.2,6.5,0,0.0047035
0.2,6.6,0,0.00469675
0.2,6.7,0,0.00468687
0.2,6.8,0,0.0046739
0.2,6.9,0,0.00465784
0.2,7,0,0.00462674
0.2,7.1,0,0.00460616
0.2,7.2,0,0.00458526
0.2,7.3,0,0.00456172
0.2,7.4,0,0.00452464
0.2,7.5,0,0.00449279
0.2,7.6,0,0.00445825
0.2,7.7,0,0.00441306
0.2,7.8,0,0.00437392
0.2,7.9,0,0.004329
0.2,8,0,0.00427648
0.2,8.1,0,0.00423008
0.2,8.2,0,0.00417531
0.2,8.3,0,0.00411595
0.2,8.4,0,0.00406263
0.2,8.5,0,0.00399856
0.2,8.6,0,0.00393333
0.2,8.7,0,0.00387301
0.2,8.8,0,0.00380027
0.2,8.9,0,0.00372963
0.2,9,0,0.00366208
0.2,9.1,0,0.00358204
0.2,9.2,0,0.00350643
0.2,9.3,0,0.00343092
0.2,9.4,0,0.00334552
0.2,9.5,0,0.00326535
0.2,9.6,0,0.00318259
0.2,9.7,0,0.00309266
0.2,9.8,0,0.003008
0.2,9.9,0,0.00291877
0.2,10,0,0.00282502
0.2,10.1,0,0.00273604
0.2,10.2,0,0.00264113
0.2,10.3,0,0.00254417
0.2,10.4,0,0.00245109
0.2,10.5,0,0.00235132
0.2,10.6,0,0.00225167
0.2,10.7,0,0.00215475
0.2,10.8,0,0.00205094
0.2,10.9,0,0.00194889
0.2,11,0,0.00184799
0.2,11.1,0,0.00174154
0.2,11.2,0,0.00163737
0.2,11.3,0,0.00153291
0.2,11.4,0,0.00142465
0.2,11.5,0,0.00131863
0.2,11.6,0,0.00121137
0.2,11.7,0,0.00110187
0.2,11.8,0,0.000994096
0.2,11.9,0,0.000884806
0.2,12,0,0.000774439
0.2,12.1,0,0.00066522
0.2,12.2,0,0.000554614
0.2,12.3,0,0.000443726
0.2,12.4,0,0.000333394
0.2,12.5,0,0.000222202
0.2,12.6,0,0.000127685
0.2,12.7,0,4.51289e-05
0.3,0,0,2.41132e-05
0.3,0.1,0,0.000112344
0.3,0.2,0,0.000225026
0.3,0.3,0,0.000337114
0.3,0.4,0,0.000449196
0.3,0.5,0,0.000561767
0.3,0.6,0,0.000672469
0.3,0.7,0,0.000784317
0.3,0.8,0,0.000895005
0.3,0.9,0,0.00100511
0.3,1,0,0.00111651
0.3,1.1,0,0.00122419
0.3,1.2,0,0.00133385
0.3,1.3,0,0.00144174
0.3,1.4,0,0.00154848
0.3,1.5,0,0.00165735
0.3,1.6,0,0.0017606
0.3,1.7,0,0.00186666
0.3,1.8,0,0.00197036
0.3,1.9,0,0.0020723
0.3,2,0,0.00217723
0.3,2.1,0,0.00227456
0.3,2.2,0,0.00237559
0.3,2.3,0,0.00247363
0.3,2.4,0,0.0025693
0.3,2.5,0,0.00266882
0.3,2.6,0,0.00275876
0.3,2.7,0,0.00285325
0.3,2.8,0,0.00294414
0.3,2.9,0,0.00303202
0.3,3,0,0.00312459
0.3,3.1,0,0.00320567
0.3,3.2,0,0.00329205
0.3,3.3,0,0.00337428
0.3,3.4,0,0.00345287
0.3,3.5,0,0.00353684
0.3,3.6,0,0.00360766
0.3,3.7,0,0.00368434
0.3,3.8,0,0.00375641
0.3,3.9,0,0.00382423
0.3,4,0,0.00389796
0.3,4.1,0,0.00395719
0.3,4.2,0,0.00402262
0.3,4.3,0,0.00408307
0.3,4.4,0,0.00413877
0.3,4.5,0,0.00420061
0.3,4.6,0,0.00424696
0.3,4.7,0,0.0042997
0.3,4.8,0,0.00434703
0.3,4.9,0,0.00438391
0.3,5,0,0.0044181
0.3,5.1,0,0.00447714
0.3,5.2,0,0.00451337
0.3,5.3,0,0.0045467
0.3,5.4,0,0.00457706
0.3,5.5,0,0.00460443
0.3,5.6,0,0.00462879
0.3,5.7,0,0.00465009
0.3,5.8,0,0.00466833
0.3,5.9,0,0.00468347
0.3,6,0,0.0046955
0.3,6.1,0,0.00470441
0.3,6.2,0,0.00471018
0.3,6.3,0,0.00471282
0.3,6.4,0,0.00471231
0.3,6.5,0,0.00470867
0.3,6.6,0,0.00470189
0.3,6.7,0,0.00469198
0.3,6.8,0,0.00467897
0.3,6.9,0,0.00466286
0.3,7,0,0.00463181
0.3,7.1,0,0.00461121
0.3,7.2,0,0.00459031
0.3,7.3,0,0.00456677
0.3,7.4,0,0.00453037
0.3,7.5,0,0.00449766
0.3,7.6,0,0.00446313
0.3,7.7,0,0.00441904
0.3,7.8,0,0.00437869
0.3,7.9,0,0.00433377
0.3,8,0,0.00428235
0.3,8.1,0,0.00423475
0.3,8.2,0,0.00417998
0.3,8.3,0,0.00412163
0.3,8.4,0,0.00406717
0.3,8.5,0,0.0040031
0.3,8.6,0,0.00393827
0.3,8.7,0,0.00387739
0.3,8.8,0,0.00380464
0.3,8.9,0,0.0037338
0.3,9,0,0.00366624
0.3,9.1,0,0.00358653
0.3,9.2,0,0.00351035
0.3,9.3,0,0.00343484
0.3,9.4,0,0.00335021
0.3,9.5,0,0.00326898
0.3,9.6,0,0.00318623
0.3,9.7,0,0.00309716
0.3,9.8,0,0.00301133
0.3,9.9,0,0.00292209
0.3,10,0,0.00282904
0.3,10.1,0,0.00273903
0.3,10.2,0,0.00264413
0.3,10.3,0,0.00254752
0.3,10.4,0,0.00245373
0.3,10.5,0,0.00235397
0.3,10.6,0,0.00225422
0.3,10.7,0,0.00215705
0.3,10.8,0,0.00205323
0.3,10.9,0,0.00195084
0.3,11,0,0.00184994
0.3,11.1,0,0.00174369
0.3,11.2,0,0.00163898
0.3,11.3,0,0.00153452
0.3,11.4,0,0.00142657
0.3,11.5,0,0.0013199
0.3,11.6,0,0.00121265
0.3,11.7,0,0.00110332
0.3,11.8,0,0.000995048
0.3,11.9,0,0.000885758
0.3,12,0,0.000775397
0.3,12.1,0,0.000665855
0.3,12.2,0,0.000555249
0.3,12.3,0,0.000444184
0.3,12.4,0,0.000333714
0.3,12.5,0,0.000222522
0.3,12.6,0,0.000111079
0.3,12.7,0,2.70773e-05
0.4,0,0,8.03774e-06
0.4,0.1,0,0.000112589
0.4,0.2,0,0.000225302
0.4,0.3,0,0.000337585
0.4,0.4,0,0.000449931
0.4,0.5,0,0.000562351
0.4,0.6,0,0.000673681
0.4,0.7,0,0.000785326
0.4,0.8,0,0.000896207
0.4,0.9,0,0.00100681
0.4,1,0,0.00111768
0.4,1.1,0,0.00122638
0.4,1.2,0,0.00133559
0.4,1.3,0,0.00144369
0.4,1.4,0,0.00155117
0.4,1.5,0,0.00165912
0.4,1.6,0,0.00176379
0.4,1.7,0,0.00186918
0.4,1.8,0,0.00197308
0.4,1.9,0,0.00207601
0.4,2,0,0.00217961
0.4,2.1,0,0.00227879
0.4,2.2,0,0.00237889
0.4,2.3,0,0.00247714
0.4,2.4,0,0.00257404
0.4,2.5,0,0.00267182
0.4,2.6,0,0.00276401
0.4,2.7,0,0.00285733
0.4,2.8,0,0.00294841
0.4,2.9,0,0.00303776
0.4,3,0,0.00312817
0.4,3.1,0,0.00321185
0.4,3.2,0,0.00329684
0.4,3.3,0,0.00337924
0.4,3.4,0,0.00345947
0.4,3.5,0,0.00354095
0.4,3.6,0,0.00361462
0.4,3.7,0,0.00368971
0.4,3.8,0,0.00376191
0.4,3.9,0,0.0038315
0.4,4,0,0.00390246
0.4,4.1,0,0.00396469
0.4,4.2,0,0.00402841
0.4,4.3,0,0.00408894
0.4,4.4,0,0.00414646
0.4,4.5,0,0.00420542
0.4,4.6,0,0.00425486
0.4,4.7,0,0.00430584
0.4,4.8,0,0.00435149
0.4,4.9,0,0.00438761
0.4,5,0,0.00442309
0.4,5.1,0,0.00448213
0.4,5.2,0,0.00451841
0.4,5.3,0,0.00455177
0.4,5.4,0,0.00458217
0.4,5.5,0,0.00460957
0.4,5.6,0,0.00463394
0.4,5.7,0,0.00465527
0.4,5.8,0,0.00467352
0.4,5.9,0,0.00468867
0.4,6,0,0.00470071
0.4,6.1,0,0.00470962
0.4,6.2,0,0.00471539
0.4,6.3,0,0.00471802
0.4,6.4,0,0.0047175
0.4,6.5,0,0.00471384
0.4,6.6,0,0.00470704
0.4,6.7,0,0.0046971
0.4,6.8,0,0.00468404
0.4,6.9,0,0.00466787
0.4,7,0,0.00463687
0.4,7.1,0,0.00461609
0.4,7.2,0,0.00459521
0.4,7.3,0,0.00457181
0.4,7.4,0,0.0045376
0.4,7.5,0,0.00450396
0.4,7.6,0,0.004468
0.4,7.7,0,0.00442613
0.4,7.8,0,0.00438432
0.4,7.9,0,0.00433902
0.4,8,0,0.00428937
0.4,8.1,0,0.00423973
0.4,8.2,0,0.00418566
0.4,8.3,0,0.00412856
0.4,8.4,0,0.00407171
0.4,8.5,0,0.00400917
0.4,8.6,0,0.00394505
0.4,8.7,0,0.00388176
0.4,8.8,0,0.00381103
0.4,8.9,0,0.00374035
0.4,9,0,0.00367041
0.4,9.1,0,0.00359279
0.4,9.2,0,0.00351605
0.4,9.3,0,0.00343876
0.4,9.4,0,0.0033561
0.4,9.5,0,0.0032738
0.4,9.6,0,0.00318996
0.4,9.7,0,0.00310261
0.4,9.8,0,0.00301526
0.4,9.9,0,0.00292589
0.4,10,0,0.00283401
0.4,10.1,0,0.00274212
0.4,10.2,0,0.00264788
0.4,10.3,0,0.00255196
0.4,10.4,0,0.00245638
0.4,10.5,0,0.00235757
0.4,10.6,0,0.00225812
0.4,10.7,0,0.00215934
0.4,10.8,0,0.00205659
0.4,10.9,0,0.00195408
0.4,11,0,0.00185189
0.4,11.1,0,0.0017465
0.4,11.2,0,0.00164141
0.4,11.3,0,0.00153613
0.4,11.4,0,0.00142884
0.4,11.5,0,0.00132162
0.4,11.6,0,0.00121399
0.4,11.7,0,0.00110508
0.4,11.8,0,0.00099617
0.4,11.9,0,0.00088682
0.4,12,0,0.000776646
0.4,12.1,0,0.000666489
0.4,12.2,0,0.000555956
0.4,12.3,0,0.000444938
0.4,12.4,0,0.000334034
0.4,12.5,0,0.000222783
0.4,12.6,0,0.000111329
0.4,12.7,0,9.02578e-06
0.5,0,0,0
0.5,0.1,0,0.000112892
0.5,0.2,0,0.000225604
0.5,0.3,0,0.000338467
0.5,0.4,0,0.000450813
0.5,0.5,0,0.000563525
0.5,0.6,0,0.000675137
0.5,0.7,0,0.000786781
0.5,0.8,0,0.000898239
0.5,0.9,0,0.00100884
0.5,1,0,0.00112001
0.5,1.1,0,0.001229
0.5,1.2,0,0.00133821
0.5,1.3,0,0.00144691
0.5,1.4,0,0.00155439
0.5,1.5,0,0.00166264
0.5,1.6,0,0.00176761
0.5,1.7,0,0.001873
0.5,1.8,0,0.00197752
0.5,1.9,0,0.00208045
0.5,2,0,0.00218437
0.5,2.1,0,0.00228385
0.5,2.2,0,0.00238395
0.5,2.3,0,0.00248282
0.5,2.4,0,0.00257972
0.5,2.5,0,0.00267784
0.5,2.6,0,0.00277031
0.5,2.7,0,0.00286362
0.5,2.8,0,0.0029553
0.5,2.9,0,0.00304465
0.5,3,0,0.00313547
0.5,3.1,0,0.00321931
0.5,3.2,0,0.00330429
0.5,3.3,0,0.00338721
0.5,3.4,0,0.00346744
0.5,3.5,0,0.00354947
0.5,3.6,0,0.00362306
0.5,3.7,0,0.00369815
0.5,3.8,0,0.00377075
0.5,3.9,0,0.00384034
0.5,4,0,0.00391212
0.5,4.1,0,0.00397386
0.5,4.2,0,0.00403759
0.5,4.3,0,0.00409839
0.5,4.4,0,0.00415591
0.5,4.5,0,0.00421608
0.5,4.6,0,0.00426461
0.5,4.7,0,0.00431559
0.5,4.8,0,0.00436159
0.5,4.9,0,0.00439771
0.5,5,0,0.0044346
0.5,5.1,0,0.00449389
0.5,5.2,0,0.00453033
0.5,5.3,0,0.00456383
0.5,5.4,0,0.00459435
0.5,5.5,0,0.00462187
0.5,5.6,0,0.00464634
0.5,5.7,0,0.00466775
0.5,5.8,0,0.00468607
0.5,5.9,0,0.00470128
0.5,6,0,0.00471337
0.5,6.1,0,0.0047223
0.5,6.2,0,0.00472809
0.5,6.3,0,0.00473072
0.5,6.4,0,0.00473019
0.5,6.5,0,0.00472649
0.5,6.6,0,0.00471964
0.5,6.7,0,0.00470964
0.5,6.8,0,0.0046965
0.5,6.9,0,0.00468023
0.5,7,0,0.00464904
0.5,7.1,0,0.00462641
0.5,7.2,0,0.00460553
0.5,7.3,0,0.00458272
0.5,7.4,0,0.00454747
0.5,7.5,0,0.00451383
0.5,7.6,0,0.00447773
0.5,7.7,0,0.00443576
0.5,7.8,0,0.00439395
0.5,7.9,0,0.00434847
0.5,8,0,0.00429882
0.5,8.1,0,0.00424918
0.5,8.2,0,0.00419488
0.5,8.3,0,0.00413778
0.5,8.4,0,0.0040811
0.5,8.5,0,0.0040181
0.5,8.6,0,0.00395398
0.5,8.7,0,0.003891
0.5,8.8,0,0.00381958
0.5,8.9,0,0.00374891
0.5,9,0,0.00367907
0.5,9.1,0,0.00360089
0.5,9.2,0,0.00352415
0.5,9.3,0,0.00344652
0.5,9.4,0,0.00336366
0.5,9.5,0,0.00328137
0.5,9.6,0,0.00319692
0.5,9.7,0,0.00310958
0.5,9.8,0,0.00302223
0.5,9.9,0,0.00293221
0.5,10,0,0.00284033
0.5,10.1,0,0.00274845
0.5,10.2,0,0.00265352
0.5,10.3,0,0.0025576
0.5,10.4,0,0.00246187
0.5,10.5,0,0.00236252
0.5,10.6,0,0.00226306
0.5,10.7,0,0.00216394
0.5,10.8,0,0.00206083
0.5,10.9,0,0.00195833
0.5,11,0,0.00185564
0.5,11.1,0,0.00175006
0.5,11.2,0,0.00164497
0.5,11.3,0,0.00153907
0.5,11.4,0,0.00143172
0.5,11.5,0,0.0013245
0.5,11.6,0,0.00121621
0.5,11.7,0,0.0011073
0.5,11.8,0,0.000998394
0.5,11.9,0,0.000888403
0.5,12,0,0.00077823
0.5,12.1,0,0.000668055
0.5,12.2,0,0.000556911
0.5,12.3,0,0.000445893
0.5,12.4,0,0.00033482
0.5,12.5,0,0.000223109
0.5,12.6,0,0.000111655
0.5,12.7,0,0
0.6,0,0,0
0.6,0.1,0,0.000113251
0.6,0.2,0,0.000226283
0.6,0.3,0,0.000339415
0.6,0.4,0,0.000451842
0.6,0.5,0,0.000565288
0.6,0.6,0,0.000676835
0.6,0.7,0,0.000789038
0.6,0.8,0,0.000900765
0.6,0.9,0,0.00101121
0.6,1,0,0.00112351
0.6,1.1,0,0.00123205
0.6,1.2,0,0.00134207
0.6,1.3,0,0.00145104
0.6,1.4,0,0.00155814
0.6,1.5,0,0.00166794
0.6,1.6,0,0.00177206
0.6,1.7,0,0.00187851
0.6,1.8,0,0.00198331
0.6,1.9,0,0.00208562
0.6,2,0,0.00219151
0.6,2.1,0,0.00228974
0.6,2.2,0,0.00239117
0.6,2.3,0,0.00249033
0.6,2.4,0,0.00258635
0.6,2.5,0,0.0026869
0.6,2.6,0,0.00277765
0.6,2.7,0,0.00287258
0.6,2.8,0,0.00296454
0.6,2.9,0,0.00305269
0.6,3,0,0.00314647
0.6,3.1,0,0.00322803
0.6,3.2,0,0.00331496
0.6,3.3,0,0.00339813
0.6,3.4,0,0.00347679
0.6,3.5,0,0.00356241
0.6,3.6,0,0.00363298
0.6,3.7,0,0.00371045
0.6,3.8,0,0.00378325
0.6,3.9,0,0.00385076
0.6,4,0,0.00392692
0.6,4.1,0,0.00398472
0.6,4.2,0,0.00405134
0.6,4.3,0,0.0041123
0.6,4.4,0,0.00416714
0.6,4.5,0,0.00423261
0.6,4.6,0,0.00427622
0.6,4.7,0,0.00433064
0.6,4.8,0,0.00437858
0.6,4.9,0,0.0044142
0.6,5,0,0.00445262
0.6,5.1,0,0.00451242
0.6,5.2,0,0.00454912
0.6,5.3,0,0.00458287
0.6,5.4,0,0.00461362
0.6,5.5,0,0.00464133
0.6,5.6,0,0.00466598
0.6,5.7,0,0.00468755
0.6,5.8,0,0.004706
0.6,5.9,0,0.00472132
0.6,6,0,0.00473348
0.6,6.1,0,0.00474247
0.6,6.2,0,0.00474829
0.6,6.3,0,0.00475093
0.6,6.4,0,0.00475038
0.6,6.5,0,0.00474664
0.6,6.6,0,0.00473971
0.6,6.7,0,0.00472961
0.6,6.8,0,0.00471634
0.6,6.9,0,0.00469991
0.6,7,0,0.0046683
0.6,7.1,0,0.00464216
0.6,7.2,0,0.00462174
0.6,7.3,0,0.00460137
0.6,7.4,0,0.00455998
0.6,7.5,0,0.00452849
0.6,7.6,0,0.00449568
0.6,7.7,0,0.00444793
0.6,7.8,0,0.0044093
0.6,7.9,0,0.00436455
0.6,8,0,0.0043107
0.6,8.1,0,0.00426494
0.6,8.2,0,0.00420907
0.6,8.3,0,0.00414931
0.6,8.4,0,0.00409651
0.6,8.5,0,0.00403055
0.6,8.6,0,0.00396506
0.6,8.7,0,0.00390542
0.6,8.8,0,0.00383044
0.6,8.9,0,0.00375946
0.6,9,0,0.00369243
0.6,9.1,0,0.00361083
0.6,9.2,0,0.00353465
0.6,9.3,0,0.00345879
0.6,9.4,0,0.00337291
0.6,9.5,0,0.00329152
0.6,9.6,0,0.00320794
0.6,9.7,0,0.00311807
0.6,9.8,0,0.00303183
0.6,9.9,0,0.00294157
0.6,10,0,0.00284801
0.6,10.1,0,0.00275731
0.6,10.2,0,0.00266135
0.6,10.3,0,0.00256444
0.6,10.4,0,0.00246972
0.6,10.5,0,0.00236894
0.6,10.6,0,0.00226905
0.6,10.7,0,0.00217072
0.6,10.8,0,0.00206597
0.6,10.9,0,0.00196351
0.6,11,0,0.00186138
0.6,11.1,0,0.00175436
0.6,11.2,0,0.00164941
0.6,11.3,0,0.0015438
0.6,11.4,0,0.0014352
0.6,11.5,0,0.00132813
0.6,11.6,0,0.00121983
0.6,11.7,0,0.00110999
0.6,11.8,0,0.00100117
0.6,11.9,0,0.000890881
0.6,12,0,0.000780147
0.6,12.1,0,0.000669928
0.6,12.2,0,0.00055835
0.6,12.3,0,0.000447049
0.6,12.4,0,0.000335766
0.6,12.5,0,0.000223596
0.6,12.6,0,0.000112056
0.6,12.7,0,0
0.7,0,0,0
0.7,0.1,0,0.000113358
0.7,0.2,0,0.000227177
0.7,0.3,0,0.000340308
0.7,0.4,0,0.000453384
0.7,0.5,0,0.000567051
0.7,0.6,0,0.000678578
0.7,0.7,0,0.000791668
0.7,0.8,0,0.000903395
0.7,0.9,0,0.00101437
0.7,1,0,0.00112702
0.7,1.1,0,0.00123542
0.7,1.2,0,0.00134646
0.7,1.3,0,0.00145544
0.7,1.4,0,0.00156297
0.7,1.5,0,0.00167323
0.7,1.6,0,0.00177711
0.7,1.7,0,0.00188472
0.7,1.8,0,0.00198953
0.7,1.9,0,0.00209218
0.7,2,0,0.00219866
0.7,2.1,0,0.00229651
0.7,2.2,0,0.00239926
0.7,2.3,0,0.00249842
0.7,2.4,0,0.00259467
0.7,2.5,0,0.00269596
0.7,2.6,0,0.00278619
0.7,2.7,0,0.0028826
0.7,2.8,0,0.00297456
0.7,2.9,0,0.00306281
0.7,3,0,0.00315747
0.7,3.1,0,0.00323834
0.7,3.2,0,0.00332694
0.7,3.3,0,0.00341011
0.7,3.4,0,0.00348865
0.7,3.5,0,0.00357534
0.7,3.6,0,0.00364501
0.7,3.7,0,0.00372433
0.7,3.8,0,0.00379713
0.7,3.9,0,0.00386425
0.7,4,0,0.00394172
0.7,4.1,0,0.00399834
0.7,4.2,0,0.00406703
0.7,4.3,0,0.00412799
0.7,4.4,0,0.00418208
0.7,4.5,0,0.00424913
0.7,4.6,0,0.00429128
0.7,4.7,0,0.00434798
0.7,4.8,0,0.00439592
0.7,4.9,0,0.00443177
0.7,5,0,0.00447065
0.7,5.1,0,0.00453095
0.7,5.2,0,0.00456792
0.7,5.3,0,0.00460191
0.7,5.4,0,0.00463288
0.7,5.5,0,0.0046608
0.7,5.6,0,0.00468562
0.7,5.7,0,0.00470734
0.7,5.8,0,0.00472592
0.7,5.9,0,0.00474134
0.7,6,0,0.00475359
0.7,6.1,0,0.00476264
0.7,6.2,0,0.00476849
0.7,6.3,0,0.00477113
0.7,6.4,0,0.00477056
0.7,6.5,0,0.00476678
0.7,6.6,0,0.00475978
0.7,6.7,0,0.00474958
0.7,6.8,0,0.00473618
0.7,6.9,0,0.0047196
0.7,7,0,0.00468757
0.7,7.1,0,0.00466115
0.7,7.2,0,0.00464039
0.7,7.3,0,0.00462002
0.7,7.4,0,0.00457669
0.7,7.5,0,0.00454644
0.7,7.6,0,0.00451363
0.7,7.7,0,0.00446295
0.7,7.8,0,0.00442649
0.7,7.9,0,0.00438174
0.7,8,0,0.00432499
0.7,8.1,0,0.00428128
0.7,8.2,0,0.00422542
0.7,8.3,0,0.00416288
0.7,8.4,0,0.00411192
0.7,8.5,0,0.00404596
0.7,8.6,0,0.00397869
0.7,8.7,0,0.00391983
0.7,8.8,0,0.00384486
0.7,8.9,0,0.00377282
0.7,9,0,0.00370579
0.7,9.1,0,0.00362365
0.7,9.2,0,0.00354692
0.7,9.3,0,0.00347106
0.7,9.4,0,0.00338399
0.7,9.5,0,0.00330268
0.7,9.6,0,0.0032191
0.7,9.7,0,0.00312774
0.7,9.8,0,0.00304187
0.7,9.9,0,0.00295162
0.7,10,0,0.00285646
0.7,10.1,0,0.00276625
0.7,10.2,0,0.00267029
0.7,10.3,0,0.00257189
0.7,10.4,0,0.00247756
0.7,10.5,0,0.00237678
0.7,10.6,0,0.0022757
0.7,10.7,0,0.0021775
0.7,10.8,0,0.00207275
0.7,10.9,0,0.00196925
0.7,11,0,0.00186712
0.7,11.1,0,0.00175976
0.7,11.2,0,0.00165414
0.7,11.3,0,0.00154854
0.7,11.4,0,0.00143934
0.7,11.5,0,0.00133189
0.7,11.6,0,0.00122358
0.7,11.7,0,0.00111302
0.7,11.8,0,0.00100398
0.7,11.9,0,0.000893685
0.7,12,0,0.000782091
0.7,12.1,0,0.0006718
0.7,12.2,0,0.000560222
0.7,12.3,0,0.000448061
0.7,12.4,0,0.000336712
0.7,12.5,0,0.000224542
0.7,12.6,0,0.000112088
0.7,12.7,0,0
0.8,0,0,0
0.8,0.1,0,0.000113786
0.8,0.2,0,0.00022807
0.8,0.3,0,0.000341202
0.8,0.4,0,0.000455039
0.8,0.5,0,0.000568814
0.8,0.6,0,0.000681086
0.8,0.7,0,0.000794297
0.8,0.8,0,0.000906024
0.8,0.9,0,0.00101809
0.8,1,0,0.00113052
0.8,1.1,0,0.00124
0.8,1.2,0,0.00135085
0.8,1.3,0,0.00145983
0.8,1.4,0,0.00156878
0.8,1.5,0,0.00167853
0.8,1.6,0,0.00178381
0.8,1.7,0,0.00189093
0.8,1.8,0,0.00199574
0.8,1.9,0,0.00210015
0.8,2,0,0.0022058
0.8,2.1,0,0.00230542
0.8,2.2,0,0.00240736
0.8,2.3,0,0.00250652
0.8,2.4,0,0.00260491
0.8,2.5,0,0.00270501
0.8,2.6,0,0.0027974
0.8,2.7,0,0.00289263
0.8,2.8,0,0.00298459
0.8,2.9,0,0.00307539
0.8,3,0,0.00316847
0.8,3.1,0,0.00325195
0.8,3.2,0,0.00333891
0.8,3.3,0,0.00342208
0.8,3.4,0,0.00350369
0.8,3.5,0,0.00358828
0.8,3.6,0,0.00366112
0.8,3.7,0,0.00373822
0.8,3.8,0,0.00381101
0.8,3.9,0,0.00388182
0.8,4,0,0.00395653
0.8,4.1,0,0.00401701
0.8,4.2,0,0.00408272
0.8,4.3,0,0.00414367
0.8,4.4,0,0.00420217
0.8,4.5,0,0.00426566
0.8,4.6,0,0.00431238
0.8,4.7,0,0.00436531
0.8,4.8,0,0.00441326
0.8,4.9,0,0.00445047
0.8,5,0,0.00448867
0.8,5.1,0,0.00454948
0.8,5.2,0,0.00458671
0.8,5.3,0,0.00462095
0.8,5.4,0,0.00465214
0.8,5.5,0,0.00468026
0.8,5.6,0,0.00470526
0.8,5.7,0,0.00472713
0.8,5.8,0,0.00474584
0.8,5.9,0,0.00476137
0.8,6,0,0.0047737
0.8,6.1,0,0.00478281
0.8,6.2,0,0.0047887
0.8,6.3,0,0.00479134
0.8,6.4,0,0.00479075
0.8,6.5,0,0.00478692
0.8,6.6,0,0.00477985
0.8,6.7,0,0.00476955
0.8,6.8,0,0.00475602
0.8,6.9,0,0.00473929
0.8,7,0,0.00470683
0.8,7.1,0,0.00468209
0.8,7.2,0,0.00466024
0.8,7.3,0,0.00463867
0.8,7.4,0,0.00459978
0.8,7.5,0,0.00456504
0.8,7.6,0,0.00453159
0.8,7.7,0,0.00448593
0.8,7.8,0,0.00444369
0.8,7.9,0,0.00439894
0.8,8,0,0.00434666
0.8,8.1,0,0.00429763
0.8,8.2,0,0.00424177
0.8,8.3,0,0.00418299
0.8,8.4,0,0.00412734
0.8,8.5,0,0.00406199
0.8,8.6,0,0.00399629
0.8,8.7,0,0.00393424
0.8,8.8,0,0.00386045
0.8,8.9,0,0.00378811
0.8,9,0,0.00371915
0.8,9.1,0,0.00363854
0.8,9.2,0,0.00356009
0.8,9.3,0,0.00348333
0.8,9.4,0,0.00339797
0.8,9.5,0,0.00331392
0.8,9.6,0,0.00323026
0.8,9.7,0,0.00314046
0.8,9.8,0,0.00305191
0.8,9.9,0,0.00296166
0.8,10,0,0.00286776
0.8,10.1,0,0.00277518
0.8,10.2,0,0.00267925
0.8,10.3,0,0.00258161
0.8,10.4,0,0.0024854
0.8,10.5,0,0.00238484
0.8,10.6,0,0.0022837
0.8,10.7,0,0.00218428
0.8,10.8,0,0.00207983
0.8,10.9,0,0.00197568
0.8,11,0,0.00187286
0.8,11.1,0,0.00176582
0.8,11.2,0,0.00165914
0.8,11.3,0,0.00155327
0.8,11.4,0,0.00144434
0.8,11.5,0,0.00133565
0.8,11.6,0,0.00122734
0.8,11.7,0,0.00111689
0.8,11.8,0,0.00100678
0.8,11.9,0,0.00089649
0.8,12,0,0.000784851
0.8,12.1,0,0.000673672
0.8,12.2,0,0.000562072
0.8,12.3,0,0.000449592
0.8,12.4,0,0.000337658
0.8,12.5,0,0.000225351
0.8,12.6,0,0.000112403
0.8,12.7,0,0
0.9,0,0,0
0.9,0.1,0,0.00011432
0.9,0.2,0,0.000228641
0.9,0.3,0,0.000342756
0.9,0.4,0,0.000456666
0.9,0.5,0,0.000570577
0.9,0.6,0,0.000683781
0.9,0.7,0,0.000796986
0.9,0.8,0,0.000909676
0.9,0.9,0,0.00102185
0.9,1,0,0.00113403
0.9,1.1,0,0.00124484
0.9,1.2,0,0.00135566
0.9,1.3,0,0.00146561
0.9,1.4,0,0.00157472
0.9,1.5,0,0.00168382
0.9,1.6,0,0.00179086
0.9,1.7,0,0.0018979
0.9,1.8,0,0.00200373
0.9,1.9,0,0.00210834
0.9,2,0,0.00221295
0.9,2.1,0,0.00231476
0.9,2.2,0,0.00241658
0.9,2.3,0,0.0025168
0.9,2.4,0,0.00261543
0.9,2.5,0,0.00271407
0.9,2.6,0,0.00280913
0.9,2.7,0,0.0029042
0.9,2.8,0,0.00299728
0.9,2.9,0,0.00308838
0.9,3,0,0.00317947
0.9,3.1,0,0.00326621
0.9,3.2,0,0.00335294
0.9,3.3,0,0.00343729
0.9,3.4,0,0.00351925
0.9,3.5,0,0.00360122
0.9,3.6,0,0.00367802
0.9,3.7,0,0.00375482
0.9,3.8,0,0.00382884
0.9,3.9,0,0.00390009
0.9,4,0,0.00397133
0.9,4.1,0,0.00403664
0.9,4.2,0,0.00410196
0.9,4.3,0,0.00416413
0.9,4.4,0,0.00422316
0.9,4.5,0,0.00428218
0.9,4.6,0,0.00433463
0.9,4.7,0,0.00438707
0.9,4.8,0,0.00443197
0.9,4.9,0,0.00446934
0.9,5,0,0.0045067
0.9,5.1,0,0.00456801
0.9,5.2,0,0.00460551
0.9,5.3,0,0.00463999
0.9,5.4,0,0.00467141
0.9,5.5,0,0.00469972
0.9,5.6,0,0.0047249
0.9,5.7,0,0.00474693
0.9,5.8,0,0.00476577
0.9,5.9,0,0.0047814
0.9,6,0,0.00479381
0.9,6.1,0,0.00480298
0.9,6.2,0,0.0048089
0.9,6.3,0,0.00481155
0.9,6.4,0,0.00481094
0.9,6.5,0,0.00480706
0.9,6.6,0,0.00479992
0.9,6.7,0,0.00478952
0.9,6.8,0,0.00477586
0.9,6.9,0,0.00475898
0.9,7,0,0.00472609
0.9,7.1,0,0.00470425
0.9,7.2,0,0.0046824
0.9,7.3,0,0.00465861
0.9,7.4,0,0.00462388
0.9,7.5,0,0.00458914
0.9,7.6,0,0.00455192
0.9,7.7,0,0.00450891
0.9,7.8,0,0.00446591
0.9,7.9,0,0.00441931
0.9,8,0,0.00436832
0.9,8.1,0,0.00431734
0.9,8.2,0,0.0042618
0.9,8.3,0,0.00420323
0.9,8.4,0,0.00414466
0.9,8.5,0,0.00408074
0.9,8.6,0,0.00401504
0.9,8.7,0,0.00394934
0.9,8.8,0,0.00387767
0.9,8.9,0,0.00380533
0.9,9,0,0.00373269
0.9,9.1,0,0.00365423
0.9,9.2,0,0.00357578
0.9,9.3,0,0.0034962
0.9,9.4,0,0.00341215
0.9,9.5,0,0.0033281
0.9,9.6,0,0.00324228
0.9,9.7,0,0.00315317
0.9,9.8,0,0.00306406
0.9,9.9,0,0.00297269
0.9,10,0,0.00287906
0.9,10.1,0,0.00278542
0.9,10.2,0,0.00268919
0.9,10.3,0,0.00259155
0.9,10.4,0,0.00249391
0.9,10.5,0,0.00239347
0.9,10.6,0,0.00229234
0.9,10.7,0,0.0021912
0.9,10.8,0,0.00208721
0.9,10.9,0,0.00198307
0.9,11,0,0.00187867
0.9,11.1,0,0.00177199
0.9,11.2,0,0.00166531
0.9,11.3,0,0.00155811
0.9,11.4,0,0.00144935
0.9,11.5,0,0.00134059
0.9,11.6,0,0.00123117
0.9,11.7,0,0.00112076
0.9,11.8,0,0.00101034
0.9,11.9,0,0.000899255
0.9,12,0,0.00078761
0.9,12.1,0,0.000675965
0.9,12.2,0,0.000563735
0.9,12.3,0,0.000451254
0.9,12.4,0,0.000338773
0.9,12.5,0,0.000225896
0.9,12.6,0,0.000112948
0.9,12.7,0,0
1,0,0,0
1,0.1,0,0.000115005
1,0.2,0,0.000229408
1,0.3,0,0.000344645
1,0.4,0,0.000458598
1,0.5,0,0.000573552
1,0.6,0,0.000686956
1,0.7,0,0.000800287
1,0.8,0,0.000914105
1,0.9,0,0.00102628
1,1,0,0.00113996
1,1.1,0,0.00125054
1,1.2,0,0.00136153
1,1.3,0,0.00147265
1,1.4,0,0.0015817
1,1.5,0,0.0016928
1,1.6,0,0.00179916
1,1.7,0,0.00190642
1,1.8,0,0.00201345
1,1.9,0,0.00211798
1,2,0,0.0022251
1,2.1,0,0.00232576
1,2.2,0,0.00242786
1,2.3,0,0.00252934
1,2.4,0,0.00262784
1,2.5,0,0.00272953
1,2.6,0,0.00282297
1,2.7,0,0.00291836
1,2.8,0,0.00301276
1,2.9,0,0.00310367
1,3,0,0.00319834
1,3.1,0,0.003283
1,3.2,0,0.00337011
1,3.3,0,0.00345584
1,3.4,0,0.00353758
1,3.5,0,0.00362352
1,3.6,0,0.0036979
1,3.7,0,0.00377511
1,3.8,0,0.00385055
1,3.9,0,0.00392154
1,4,0,0.00399696
1,4.1,0,0.00405968
1,4.2,0,0.00412541
1,4.3,0,0.00418896
1,4.4,0,0.00424773
1,4.5,0,0.00431083
1,4.6,0,0.00436061
1,4.7,0,0.00441345
1,4.8,0,0.00446367
1,4.9,0,0.00450123
1,5,0,0.00453751
1,5.1,0,0.00459935
1,5.2,0,0.0046372
1,5.3,0,0.00467202
1,5.4,0,0.00470374
1,5.5,0,0.00473234
1,5.6,0,0.00475777
1,5.7,0,0.00478002
1,5.8,0,0.00479906
1,5.9,0,0.00481486
1,6,0,0.0048274
1,6.1,0,0.00483667
1,6.2,0,0.00484266
1,6.3,0,0.00484535
1,6.4,0,0.00484474
1,6.5,0,0.00484084
1,6.6,0,0.00483364
1,6.7,0,0.00482315
1,6.8,0,0.00480938
1,6.9,0,0.00479234
1,7,0,0.00475926
1,7.1,0,0.00473742
1,7.2,0,0.00471557
1,7.3,0,0.00469048
1,7.4,0,0.00465327
1,7.5,0,0.00461854
1,7.6,0,0.00458187
1,7.7,0,0.00453707
1,7.8,0,0.00449433
1,7.9,0,0.00444696
1,8,0,0.00439493
1,8.1,0,0.0043447
1,8.2,0,0.0042869
1,8.3,0,0.00422814
1,8.4,0,0.00417078
1,8.5,0,0.00410385
1,8.6,0,0.00403815
1,8.7,0,0.00397409
1,8.8,0,0.00389894
1,8.9,0,0.0038266
1,9,0,0.00375551
1,9.1,0,0.00367363
1,9.2,0,0.00359518
1,9.3,0,0.0035162
1,9.4,0,0.00342971
1,9.5,0,0.00334566
1,9.6,0,0.00325954
1,9.7,0,0.00316892
1,9.8,0,0.0030801
1,9.9,0,0.00298735
1,10,0,0.00289306
1,10.1,0,0.00279996
1,10.2,0,0.0027015
1,10.3,0,0.00260386
1,10.4,0,0.00250689
1,10.5,0,0.00240416
1,10.6,0,0.00230303
1,10.7,0,0.00220259
1,10.8,0,0.00209634
1,10.9,0,0.0019922
1,11,0,0.00188802
1,11.1,0,0.00177963
1,11.2,0,0.00167295
1,11.3,0,0.00156537
1,11.4,0,0.00145553
1,11.5,0,0.00134678
1,11.6,0,0.00123651
1,11.7,0,0.00112554
1,11.8,0,0.0010151
1,11.9,0,0.000902837
1,12,0,0.000791022
1,12.1,0,0.00067923
1,12.2,0,0.000565802
1,12.3,0,0.000453321
1,12.4,0,0.000340469
1,12.5,0,0.000226627
1,12.6,0,0.000113679
1,12.7,0,0
1.1,0,0,0
1.1,0.1,0,0.000115554
1.1,0.2,0,0.000230912
1.1,0.3,0,0.00034615
1.1,0.4,0,0.000460739
1.1,0.5,0,0.000576527
1.1,0.6,0,0.00069009
1.1,0.7,0,0.000804732
1.1,0.8,0,0.00091855
1.1,0.9,0,0.00103101
1.1,1,0,0.00114589
1.1,1.1,0,0.00125629
1.1,1.2,0,0.00136897
1.1,1.3,0,0.00148009
1.1,1.4,0,0.00158909
1.1,1.5,0,0.00170178
1.1,1.6,0,0.00180759
1.1,1.7,0,0.00191697
1.1,1.8,0,0.002024
1.1,1.9,0,0.00212812
1.1,2,0,0.00223725
1.1,2.1,0,0.002337
1.1,2.2,0,0.00244164
1.1,2.3,0,0.00254313
1.1,2.4,0,0.00264085
1.1,2.5,0,0.00274498
1.1,2.6,0,0.00283712
1.1,2.7,0,0.00293551
1.1,2.8,0,0.00302991
1.1,2.9,0,0.00311968
1.1,3,0,0.00321721
1.1,3.1,0,0.00330021
1.1,3.2,0,0.0033907
1.1,3.3,0,0.00347643
1.1,3.4,0,0.0035567
1.1,3.5,0,0.00364583
1.1,3.6,0,0.00371826
1.1,3.7,0,0.0037991
1.1,3.8,0,0.00387454
1.1,3.9,0,0.00394383
1.1,4,0,0.00402259
1.1,4.1,0,0.00408323
1.1,4.2,0,0.0041526
1.1,4.3,0,0.00421616
1.1,4.4,0,0.00427312
1.1,4.5,0,0.00433948
1.1,4.6,0,0.00438712