/*--------------------------------*- C++ -*----------------------------------*\
| =========                 |                                                 |
| \\      /  F ield         | OpenFOAM: The Open Source CFD Toolbox           |
|  \\    /   O peration     | Version:  v1806                                 |
|   \\  /    A nd           | Web:      www.OpenFOAM.com                      |
|    \\/     M anipulation  |                                                 |
\*---------------------------------------------------------------------------*/
FoamFile
{
    version     2.0;
    format      ascii;
    class       volScalarField;
    location    "410";
    object      p;
}
// * * * * * * * * * * * * * * * * * * * * * * * * * * * * * * * * * * * * * //

dimensions      [0 2 -2 0 0 0 0];


internalField   nonuniform List<scalar> 
2400
(
0.000161601
0.000161382
0.000160898
0.000160101
0.000158898
0.000157155
0.000154706
0.000151361
0.000146919
0.000141171
0.000133914
0.000124967
0.000114184
0.000101478
8.68329e-05
7.03328e-05
5.21871e-05
3.27834e-05
1.24195e-05
-1.02637e-05
0.000485024
0.000484411
0.000483063
0.000480834
0.000477449
0.000472509
0.000465523
0.000455934
0.000443137
0.000426511
0.000405438
0.000379363
0.000347824
0.00031053
0.000267398
0.000218633
0.000164715
0.000106401
4.46346e-05
-1.87594e-05
0.000809071
0.000808166
0.000806167
0.000802828
0.000797685
0.000790069
0.000779151
0.000763986
0.000743543
0.000716747
0.000682526
0.00063989
0.000588004
0.000526304
0.000454566
0.000373039
0.000282453
0.000184154
8.00769e-05
-2.69755e-05
0.00113404
0.00113301
0.0011307
0.00112677
0.00112054
0.00111108
0.00109718
0.00107749
0.0010505
0.00101462
0.000968253
0.000909881
0.000838191
0.000752235
0.000651547
0.000536345
0.000407601
0.000267234
0.000117997
-3.66311e-05
0.00146005
0.00145912
0.00145698
0.00145317
0.00144682
0.00143668
0.00142117
0.00139846
0.00136652
0.00132317
0.00126617
0.00119335
0.00110277
0.000992935
0.000862976
0.000712948
0.000543945
0.000358383
0.000159834
-4.69407e-05
0.00178693
0.0017864
0.00178505
0.00178231
0.0017771
0.00176783
0.00175251
0.00172882
0.00169411
0.00164553
0.00158004
0.00149466
0.00138661
0.00125361
0.00109417
0.000907933
0.000695956
0.00046109
0.000207846
-5.74324e-05
0.00211423
0.00211446
0.00211466
0.00211416
0.00211165
0.00210521
0.0020924
0.00207034
0.00203572
0.00198488
0.00191384
0.00181859
0.0016952
0.00154033
0.00135146
0.00112755
0.000869305
0.000579916
0.000264884
-6.76093e-05
0.00244107
0.0024425
0.00244514
0.00244828
0.00245035
0.00244912
0.00244167
0.00242454
0.00239366
0.00234446
0.00227182
0.00217043
0.00203487
0.00186029
0.00164264
0.00137971
0.0010714
0.000720959
0.000334868
-7.65024e-05
0.0027661
0.00276922
0.00277534
0.00278372
0.00279258
0.00279938
0.00280071
0.00279256
0.00276998
0.00272744
0.0026584
0.00255604
0.00241291
0.00222215
0.00197742
0.0016746
0.00131206
0.000892596
0.000423461
-8.23654e-05
0.00308743
0.00309279
0.00310354
0.00311896
0.00313709
0.00315514
0.00316926
0.00317494
0.00316628
0.00313673
0.00307809
0.00298179
0.00283768
0.00263633
0.0023679
0.00202548
0.0016045
0.00110653
0.00053897
-8.22477e-05
0.00340256
0.00341074
0.00342736
0.00345176
0.00348187
0.00351477
0.00354623
0.00357138
0.00358336
0.00357474
0.00353519
0.00345441
0.00331857
0.00311529
0.00282922
0.00244974
0.00196665
0.00137931
0.000693612
-7.13327e-05
0.00370837
0.00371997
0.00374371
0.0037791
0.00382401
0.00387563
0.00392939
0.0039804
0.00402084
0.00404275
0.00403331
0.00398063
0.00386585
0.00367375
0.00338023
0.00297044
0.00242312
0.00173476
0.000905317
-4.21432e-05
0.00400108
0.00401667
0.00404873
0.00409706
0.00415962
0.00423386
0.00431514
0.00439892
0.00447659
0.00454029
0.00457442
0.00456634
0.00449004
0.00432857
0.00404388
0.0036183
0.00300823
0.00220887
0.0012011
1.66102e-05
0.00427632
0.00429636
0.00433782
0.00440084
0.00448365
0.00458422
0.00469817
0.00482176
0.00494609
0.00506413
0.00515779
0.00521486
0.00520065
0.00509786
0.0048473
0.00443326
0.0037695
0.0028588
0.00162549
0.000125534
0.00452919
0.00455398
0.00460568
0.00468473
0.00478995
0.00491992
0.00507123
0.00524116
0.00542169
0.00560711
0.00577842
0.00592471
0.00600347
0.00599833
0.00582159
0.00546485
0.00477002
0.00377099
0.00225179
0.000339224
0.0047544
0.00478404
0.00484644
0.00494223
0.00507128
0.00523265
0.00542495
0.00564634
0.00589186
0.0061567
0.00642515
0.00668646
0.00689699
0.00703856
0.00699982
0.00677203
0.00609802
0.00506228
0.00316187
0.000773586
0.00494647
0.00498077
0.00505388
0.00516632
0.00531952
0.00551271
0.00574791
0.00602338
0.00634052
0.00669372
0.00707815
0.00747877
0.00786719
0.00821084
0.00840567
0.00840997
0.0078947
0.00693498
0.00450247
0.00150104
0.00509999
0.0051385
0.00522172
0.00534973
0.00552606
0.00574949
0.00602698
0.00635559
0.00674693
0.00719172
0.00770611
0.0082639
0.008878
0.00947909
0.0100361
0.0103948
0.0103078
0.00966531
0.00701535
0.00312025
0.00520993
0.00525191
0.00534397
0.00548547
0.00568225
0.00593223
0.00624808
0.00662468
0.00708646
0.00761803
0.00826532
0.00898453
0.00985907
0.0107637
0.0118295
0.0126896
0.0134252
0.0131697
0.011378
0.00869573
0.00527175
0.00531643
0.00541536
0.00556735
0.00578009
0.00605091
0.00639737
0.00681259
0.00733243
0.00793683
0.00870093
0.00956725
0.0107007
0.011924
0.0136238
0.0151343
0.0174509
0.0171701
0.0163715
-0.00658417
-2.94564e-05
-3.80972e-05
-4.4519e-05
-4.97937e-05
-5.49652e-05
-6.02291e-05
-6.54323e-05
-7.04243e-05
-7.51162e-05
-7.93845e-05
-5.82239e-05
-7.52121e-05
-9.23499e-05
-0.000109545
-0.000126606
-0.000143441
-0.000160007
-0.000176273
-0.000192249
-0.000207885
-9.63386e-05
-0.000127206
-0.000157757
-0.000187842
-0.000217445
-0.00024654
-0.000275075
-0.000302975
-0.000330184
-0.000356574
-0.000138005
-0.00018274
-0.000226488
-0.000269425
-0.000311771
-0.000353515
-0.000394527
-0.000434673
-0.00047387
-0.00051197
-0.000182878
-0.000242849
-0.000301514
-0.000359128
-0.000415984
-0.000472045
-0.000527112
-0.000580985
-0.000633532
-0.000684554
-0.000232589
-0.000309944
-0.000385623
-0.00045992
-0.000533211
-0.000605445
-0.00067636
-0.000745688
-0.00081324
-0.00087877
-0.000288467
-0.000386086
-0.000481543
-0.000575201
-0.000667563
-0.000758566
-0.000847852
-0.000935059
-0.00101992
-0.00110213
-0.000351812
-0.000473607
-0.000592617
-0.000709295
-0.000824313
-0.000937586
-0.00104863
-0.00115695
-0.00126218
-0.00136393
-0.000424065
-0.000575392
-0.000723108
-0.000867782
-0.00101031
-0.00115059
-0.00128795
-0.00142172
-0.00155138
-0.00167645
-0.000506858
-0.000695141
-0.000878676
-0.00105817
-0.00123486
-0.00140858
-0.00157841
-0.00174343
-0.0019029
-0.00205625
-0.000601999
-0.000837715
-0.0010671
-0.00129098
-0.00151103
-0.00172703
-0.00193768
-0.00214172
-0.00233814
-0.00252616
-0.00071159
-0.00100986
-0.0012998
-0.00158199
-0.00185851
-0.00212903
-0.00239179
-0.00264509
-0.00288759
-0.00311831
-0.000839169
-0.00122217
-0.00159473
-0.00195623
-0.00230879
-0.00265168
-0.00298248
-0.00329887
-0.00359914
-0.00388208
-0.00099441
-0.0014977
-0.00198585
-0.00245582
-0.00291037
-0.00334906
-0.00376888
-0.00416662
-0.00453981
-0.00488672
-0.0011919
-0.00189131
-0.00256221
-0.00319081
-0.00378315
-0.00434352
-0.0048709
-0.00536241
-0.00581597
-0.00623105
-0.00141922
-0.00244717
-0.00342669
-0.00431998
-0.00513986
-0.00589758
-0.006592
-0.0072179
-0.00777128
-0.00825354
-0.00195356
-0.00345225
-0.00471677
-0.00579418
-0.00678365
-0.00771611
-0.00857408
-0.00933653
-0.00999334
-0.0105511
-0.00467588
-0.00779079
-0.00982863
-0.0111736
-0.0122757
-0.0132702
-0.0141284
-0.0148177
-0.0153305
-0.0157004
-0.00267074
-0.00675508
-0.00954245
-0.0118677
-0.0140648
-0.0160294
-0.017621
-0.0188087
-0.0196102
-0.0201095
-0.0354619
-0.0353128
-0.0305589
-0.027899
-0.0270979
-0.0268949
-0.0268125
-0.0268028
-0.0268799
-0.026926
-9.78334e-05
-0.00012669
-0.000139738
-0.000137989
-0.000122837
-0.000100022
-7.48773e-05
-5.20301e-05
-3.84797e-05
-2.82281e-05
-2.27001e-05
-1.29917e-05
-9.84314e-07
1.11859e-05
2.42918e-05
2.87159e-05
2.85437e-05
2.15992e-05
1.01626e-05
3.57114e-06
-0.000284686
-0.000374194
-0.000413471
-0.000407911
-0.000364821
-0.000297728
-0.000222649
-0.000153272
-0.000105891
-7.557e-05
-5.53745e-05
-3.64465e-05
-6.76698e-06
2.76937e-05
6.16046e-05
8.47914e-05
9.24004e-05
7.74434e-05
5.36042e-05
2.28857e-05
-0.000481887
-0.000632489
-0.000697256
-0.000686234
-0.000612865
-0.000498252
-0.000370142
-0.000251908
-0.000172113
-0.000123947
-9.27989e-05
-6.24101e-05
-1.41054e-05
4.42841e-05
0.000102274
0.000145165
0.000159278
0.000134882
9.47781e-05
3.73911e-05
-0.00069344
-0.000907997
-0.00099684
-0.00097746
-0.000869892
-0.000702941
-0.000517207
-0.000347078
-0.000235145
-0.000170492
-0.000130186
-9.08415e-05
-2.25267e-05
6.1412e-05
0.000146042
0.000209573
0.000229863
0.000195132
0.000137454
5.35255e-05
-0.000926564
-0.00120737
-0.00131735
-0.00128537
-0.00113851
-0.000912725
-0.000662739
-0.000435978
-0.000291994
-0.000213901
-0.000168487
-0.00012314
-3.3309e-05
7.82563e-05
0.000193374
0.000280769
0.000306678
0.000260805
0.000183616
7.01075e-05
-0.00118871
-0.00153788
-0.00166442
-0.00161439
-0.00142188
-0.0011286
-0.00080531
-0.000515539
-0.000340252
-0.000253206
-0.000208424
-0.000161442
-4.79896e-05
9.42257e-05
0.000245752
0.0003612
0.000391673
0.000333632
0.000233455
8.66737e-05
-0.00148952
-0.00190805
-0.00204419
-0.00196945
-0.00172355
-0.00135162
-0.000943073
-0.000582047
-0.000376762
-0.00028701
-0.000251675
-0.000208445
-6.84489e-05
0.000108472
0.000304584
0.000453338
0.000486734
0.00041548
0.000287091
0.000102388
-0.00184128
-0.00232757
-0.00246329
-0.00235602
-0.00204766
-0.00158298
-0.00107356
-0.000630546
-0.000397469
-0.000313741
-0.000299692
-0.000267715
-9.73768e-05
0.000119543
0.000371311
0.000559891
0.000593902
0.000508484
0.000343765
0.000115388
-0.00226008
-0.00280744
-0.0029288
-0.00278034
-0.00239922
-0.001824
-0.00119263
-0.000654825
-0.000397355
-0.000331604
-0.000355028
-0.000344212
-0.000138599
0.000125268
0.0004474
0.000683597
0.000715358
0.000614854
0.000401179
0.000122487
-0.00276731
-0.00335997
-0.00344837
-0.00324957
-0.00278448
-0.0020764
-0.00129655
-0.00064739
-0.00037022
-0.000338597
-0.000421777
-0.000444815
-0.00019745
0.000122524
0.00053416
0.000826911
0.000853442
0.000736684
0.00045477
0.00011884
-0.00339163
-0.00399863
-0.00403041
-0.00377195
-0.00321134
-0.00234293
-0.00138068
-0.000599232
-0.000308321
-0.000332619
-0.000505932
-0.000578862
-0.000281289
0.000106899
0.000632522
0.000991813
0.00101068
0.000875444
0.000497082
9.78126e-05
-0.00417163
-0.00473746
-0.00468415
-0.00435751
-0.00368551
-0.00262737
-0.00143895
-0.000499789
-0.000202056
-0.00031164
-0.000616077
-0.00075879
-0.00039997
7.21867e-05
0.000742278
0.00117951
0.00118969
0.00103166
0.000518461
5.18109e-05
-0.00516
-0.00559108
-0.00541818
-0.00501991
-0.00422803
-0.00293585
-0.00146462
-0.000336742
-3.9382e-05
-0.000273772
-0.000763516
-0.000999753
-0.000565723
1.01791e-05
0.000860658
0.00138887
0.00139197
0.00120463
0.00051177
-2.37043e-05
-0.00642568
-0.00657663
-0.00623877
-0.00577074
-0.00485505
-0.00327821
-0.00145055
-8.20751e-05
0.000194173
-0.000215398
-0.000957267
-0.00131605
-0.00079173
-8.88939e-05
0.000980207
0.00161477
0.00161268
0.00139003
0.000477276
-0.000124696
-0.00805993
-0.00771345
-0.0071601
-0.00661858
-0.00558685
-0.00366827
-0.00139584
0.000265384
0.000512402
-0.000128236
-0.00119396
-0.00170502
-0.00108476
-0.000234862
0.00108488
0.00186729
0.00183275
0.00157258
0.000427328
-0.000232422
-0.0102006
-0.00901102
-0.00818658
-0.00758411
-0.00645344
-0.00412867
-0.00131518
0.000691747
0.000912443
6.34939e-06
-0.0014408
-0.0021365
-0.00143036
-0.000433419
0.00114138
0.00204523
0.00200346
0.00171496
0.00037999
-0.000315174
-0.012785
-0.0103557
-0.0091742
-0.00851292
-0.00741737
-0.00466503
-0.00125065
0.00113069
0.00135216
0.000202506
-0.00161439
-0.0025167
-0.00178144
-0.000676774
0.00110747
0.002117
0.00204852
0.00174917
0.000336023
-0.000342931
-0.0165079
-0.0119844
-0.010237
-0.00944869
-0.00839664
-0.00524782
-0.00131062
0.00141663
0.00169441
0.000407352
-0.00162078
-0.00270131
-0.00205441
-0.00092981
0.000944119
0.00200621
0.00187271
0.00158319
0.000271061
-0.000303601
-0.0203023
-0.0129438
-0.0105793
-0.00970558
-0.00904696
-0.00575744
-0.00161207
0.00125731
0.00161974
0.000443956
-0.00146402
-0.00258902
-0.00215315
-0.00113005
0.000650716
0.00166567
0.0014211
0.00117247
0.00016125
-0.000203862
-0.0231134
-0.0145103
-0.0112426
-0.00953675
-0.00898641
-0.00588552
-0.00209641
0.00049993
0.000841109
0.000138524
-0.001208
-0.00213537
-0.00198836
-0.00117335
0.000277555
0.00111412
0.00075619
0.000557747
1.67432e-05
-5.99528e-05
-0.0243056
-0.0148173
-0.0115252
-0.00909368
-0.00838435
-0.00560768
-0.00246343
-0.000306856
7.1197e-06
-0.000231332
-0.000978322
-0.00163649
-0.0016765
-0.0010681
2.46691e-05
0.000681029
0.000260876
0.000120757
-7.23721e-05
5.72104e-05
-0.023952
-0.0151078
-0.0117699
-0.00892254
-0.00805166
-0.00542512
-0.00260586
-0.000678134
-0.000374976
-0.00041107
-0.000879875
-0.00139918
-0.00151403
-0.000995387
-8.08089e-05
0.000487049
5.0018e-05
-7.01331e-05
-0.000105767
0.00010794
-0.023702
-0.0154607
-0.0120762
-0.00875617
-0.00765374
-0.0051823
-0.00272379
-0.00105674
-0.00076337
-0.000597641
-0.000777615
-0.00114363
-0.00132512
-0.000897657
-0.00017667
0.000292186
-0.00015103
-0.000255131
-0.000131639
0.000156605
-0.0235479
-0.0158274
-0.0124112
-0.00857689
-0.00719729
-0.00488805
-0.00282413
-0.0014405
-0.00115181
-0.000782168
-0.000666621
-0.000870136
-0.00111065
-0.000780403
-0.000264116
9.66557e-05
-0.00034346
-0.000431977
-0.000150113
0.000203229
-0.0234591
-0.0161987
-0.0127622
-0.00838384
-0.00669896
-0.00455221
-0.00290948
-0.00182218
-0.00152906
-0.000956841
-0.000545966
-0.000582371
-0.000873947
-0.000646888
-0.000343441
-9.75859e-05
-0.000525117
-0.000597718
-0.000161071
0.000247145
-0.0234356
-0.0165684
-0.0131171
-0.00817784
-0.00616898
-0.00418667
-0.00298152
-0.00219374
-0.00188426
-0.00111489
-0.000415554
-0.00028481
-0.000619297
-0.000500101
-0.000414625
-0.000288233
-0.000693851
-0.000749805
-0.000164598
0.00028762
-0.023477
-0.0169294
-0.0134533
-0.00795867
-0.00562236
-0.00380609
-0.00304345
-0.0025485
-0.00220877
-0.0012509
-0.000275866
1.76396e-05
-0.000351894
-0.000343881
-0.000478127
-0.000473265
-0.000848246
-0.000886465
-0.000161066
0.000324074
-0.0235766
-0.0172653
-0.0137514
-0.00772642
-0.00507581
-0.00342679
-0.0030994
-0.00288098
-0.00249615
-0.00136114
-0.000128152
0.000319572
-7.79019e-05
-0.00018277
-0.000534858
-0.000650833
-0.000987356
-0.00100665
-0.000151098
0.000356098
-0.0237336
-0.0175629
-0.0139925
-0.00748277
-0.00454556
-0.00306561
-0.00315388
-0.00318679
-0.00274179
-0.00144284
2.60877e-05
0.000615934
0.000196557
-2.17325e-05
-0.000585933
-0.000819504
-0.00111064
-0.00110907
-0.000135886
0.000382998
-0.023953
-0.0178199
-0.0141573
-0.00723272
-0.00404483
-0.0027399
-0.00321331
-0.00346407
-0.00294303
-0.00149327
0.000185344
0.000903142
0.000467929
0.000133694
-0.000632775
-0.000979544
-0.00121887
-0.00119041
-0.00011793
0.000402863
-0.0241132
-0.0182909
-0.0142841
-0.00681503
-0.00327932
-0.00227777
-0.00333167
-0.00388059
-0.00320897
-0.00152815
0.00045252
0.00135999
0.000909962
0.000375884
-0.00070821
-0.0012339
-0.00137794
-0.00129057
-8.70464e-05
0.000424509
-0.0227593
-0.0180272
-0.0139257
-0.00627435
-0.00255823
-0.0019173
-0.00349997
-0.00425523
-0.00336278
-0.00146275
0.000776599
0.00185563
0.00139191
0.000639789
-0.000804726
-0.00150767
-0.00151615
-0.00135357
-3.84257e-05
0.000440098
-0.0211863
-0.0171679
-0.0130852
-0.00582845
-0.00221975
-0.00185947
-0.00364781
-0.00441716
-0.00332824
-0.00131817
0.00102093
0.00217453
0.00169765
0.000796792
-0.000890289
-0.00169459
-0.00157905
-0.00134558
7.68893e-06
0.000435683
-0.0186028
-0.0156387
-0.0119644
-0.00550549
-0.00219797
-0.00199235
-0.00370795
-0.00436329
-0.00315056
-0.00114167
0.00116194
0.00230878
0.00182232
0.000845396
-0.000950216
-0.00178629
-0.00157396
-0.00128307
4.20001e-05
0.000412216
-0.0160307
-0.0139416
-0.010775
-0.00527402
-0.00233712
-0.00216014
-0.0036406
-0.00412539
-0.00287878
-0.000966392
0.00119909
0.00228234
0.00179775
0.000815567
-0.000967499
-0.00178122
-0.00151014
-0.00118335
6.06007e-05
0.000374355
-0.013655
-0.0122469
-0.00962836
-0.00506768
-0.00250522
-0.00227915
-0.00344341
-0.00376503
-0.00256105
-0.000810602
0.00115258
0.0021414
0.00167617
0.000745302
-0.000933367
-0.00168968
-0.0014002
-0.00106131
6.40145e-05
0.000327856
-0.0115732
-0.0106942
-0.00857179
-0.00484126
-0.00262359
-0.00232498
-0.00317214
-0.00335058
-0.00223738
-0.000680781
0.00105147
0.00193428
0.00150534
0.000663503
-0.000851736
-0.00153333
-0.00125947
-0.000929526
5.55682e-05
0.000278218
-0.00979449
-0.00930872
-0.00761039
-0.00457774
-0.00266721
-0.00230048
-0.00286925
-0.00293501
-0.00193391
-0.000576012
0.000923169
0.00170008
0.00131968
0.00058594
-0.000737751
-0.00133947
-0.00110391
-0.000798096
3.97944e-05
0.000229948
-0.008284
-0.00808205
-0.00673638
-0.00427637
-0.00263494
-0.0022218
-0.00256913
-0.00254833
-0.00166281
-0.000492252
0.000788206
0.00146544
0.0011392
0.000517514
-0.000610614
-0.00113402
-0.000947286
-0.000674392
2.11529e-05
0.000186144
-0.00699782
-0.00699279
-0.00593401
-0.00394357
-0.00253873
-0.00210374
-0.002284
-0.00220128
-0.00142618
-0.000424698
0.000659167
0.00124558
0.000973305
0.000456842
-0.000486741
-0.000936513
-0.000799463
-0.000562909
3.20771e-06
0.000148436
-0.00589673
-0.00602083
-0.0051954
-0.00358779
-0.00239176
-0.00195682
-0.00201715
-0.00189394
-0.00122061
-0.00036888
0.000542434
0.00104709
0.000824876
0.000401258
-0.000376568
-0.000758652
-0.000666012
-0.000465527
-1.16975e-05
0.000117222
-0.00494729
-0.00514872
-0.00451136
-0.00321712
-0.00220578
-0.00178842
-0.00176757
-0.00162123
-0.00104082
-0.000321063
0.00044042
0.000871537
0.000693348
0.000348943
-0.000284591
-0.000605416
-0.000548965
-0.000382119
-2.23838e-05
9.2065e-05
-0.00412137
-0.00436098
-0.00387387
-0.00283778
-0.00199058
-0.00160372
-0.00153227
-0.00137692
-0.000881539
-0.000278336
0.000353256
0.000717887
0.000576973
0.000299097
-0.000212179
-0.000477242
-0.000447936
-0.000311273
-2.85538e-05
7.20975e-05
-0.00339545
-0.00364411
-0.00327632
-0.0024543
-0.00175388
-0.00140644
-0.00130836
-0.00115531
-0.000738182
-0.000238557
0.000279844
0.000583909
0.000473763
0.000251581
-0.000156127
-0.000371822
-0.000361232
-0.000250944
-3.044e-05
5.63323e-05
-0.00274993
-0.00298635
-0.0027129
-0.00206995
-0.00150177
-0.00120065
-0.00109353
-0.000951603
-0.000607041
-0.000200274
0.000218543
0.000466934
0.000381798
0.000206146
-0.000113855
-0.000285675
-0.000286685
-0.000199016
-2.85702e-05
4.38543e-05
-0.00216839
-0.00237731
-0.00217837
-0.00168697
-0.00123902
-0.000988659
-0.0008859
-0.000761792
-0.000485153
-0.000162646
0.000167365
0.000364085
0.000299029
0.000163302
-8.23092e-05
-0.000214973
-0.000222001
-0.000153632
-2.37644e-05
3.38321e-05
-0.00163707
-0.00180783
-0.00166795
-0.00130682
-0.000969286
-0.000772597
-0.000683967
-0.000582405
-0.000369864
-0.000125043
0.00012413
0.00027226
0.000223632
0.000122672
-5.86731e-05
-0.000155915
-0.000164628
-0.000112787
-1.68335e-05
2.54022e-05
-0.00114435
-0.00126991
-0.00117742
-0.000930593
-0.000695658
-0.000554206
-0.000486703
-0.000410732
-0.000258627
-8.63265e-05
8.75439e-05
0.000188326
0.00015327
8.34756e-05
-4.1331e-05
-0.000105588
-0.000112194
-7.36543e-05
-6.93591e-06
1.81874e-05
-0.000679651
-0.00075646
-0.000702977
-0.000558821
-0.000421157
-0.000335496
-0.000293402
-0.000245295
-0.000150431
-4.5981e-05
5.73371e-05
0.00011096
8.54193e-05
4.41484e-05
-3.02668e-05
-6.29148e-05
-6.44866e-05
-3.52856e-05
7.99045e-06
1.36026e-05
-0.000232481
-0.000256408
-0.00023717
-0.000188699
-0.00014562
-0.000118033
-0.000100841
-8.31491e-05
-4.80466e-05
-1.01712e-05
2.61427e-05
3.88829e-05
2.16723e-05
6.09205e-06
-2.2663e-05
-2.42056e-05
-2.21425e-05
-5.98237e-06
1.72823e-05
1.01061e-05
-0.0411173
-0.0407574
-0.0373118
-0.036078
-0.0357464
-0.0351985
-0.0343422
-0.033332
-0.0323061
-0.0312617
-0.0166955
-0.0224342
-0.0252096
-0.0269735
-0.0282105
-0.0288481
-0.0289345
-0.0286426
-0.0281231
-0.0274689
-0.0102404
-0.0154674
-0.018462
-0.0202506
-0.0215904
-0.0226181
-0.0232877
-0.023606
-0.0236247
-0.0234037
-0.0066954
-0.0102389
-0.0125495
-0.0141223
-0.0154215
-0.0165416
-0.0174257
-0.0180404
-0.0184035
-0.0185496
-0.00460278
-0.00695241
-0.00874191
-0.0101301
-0.0113258
-0.012381
-0.0132686
-0.0139675
-0.0144858
-0.014842
-0.00352294
-0.0051306
-0.00650348
-0.00765595
-0.00867065
-0.00957767
-0.0103693
-0.0110361
-0.0115801
-0.0120121
-0.00290539
-0.00403826
-0.00507428
-0.00599432
-0.00682651
-0.00758457
-0.00826554
-0.00886415
-0.00937925
-0.00981689
-0.00247993
-0.00331259
-0.00410165
-0.00483049
-0.00550689
-0.0061345
-0.00671022
-0.00723018
-0.0076923
-0.00809909
-0.00214675
-0.0027851
-0.00339816
-0.00397753
-0.00452561
-0.00504193
-0.00552301
-0.00596554
-0.00636748
-0.00672904
-0.00186556
-0.00236947
-0.00285462
-0.0033186
-0.00376324
-0.00418707
-0.00458671
-0.00495922
-0.00530286
-0.00561654
-0.00161828
-0.00202269
-0.00241193
-0.0027865
-0.00314844
-0.00349633
-0.00382725
-0.00413867
-0.00442914
-0.00469712
-0.00139597
-0.00172304
-0.00203781
-0.00234179
-0.00263698
-0.00292228
-0.00319532
-0.00345404
-0.00369726
-0.0039234
-0.00119333
-0.00145811
-0.00171308
-0.00195987
-0.00220022
-0.00243332
-0.00265734
-0.00287065
-0.00307231
-0.0032609
-0.00100657
-0.0012198
-0.00142532
-0.00162456
-0.00181895
-0.00200788
-0.00218996
-0.00236394
-0.00252907
-0.00268417
-0.000832702
-0.00100225
-0.00116583
-0.00132461
-0.00147968
-0.00163062
-0.00177635
-0.00191594
-0.00204879
-0.00217398
-0.00066922
-0.000800996
-0.000928192
-0.00105175
-0.00117251
-0.00129015
-0.00140388
-0.001513
-0.00161706
-0.00171536
-0.000513697
-0.000612149
-0.000707296
-0.000799717
-0.000889998
-0.000977936
-0.001063
-0.00114471
-0.00122272
-0.00129655
-0.000364126
-0.000431875
-0.000497978
-0.000562413
-0.000625288
-0.000686441
-0.000745575
-0.000802399
-0.000856706
-0.000908191
-0.000222818
-0.000261417
-0.000299108
-0.000336112
-0.000372463
-0.00040798
-0.000442394
-0.000475489
-0.000507157
-0.000537316
-8.92357e-05
-0.000107307
-0.000121214
-0.00013319
-0.00014499
-0.000156791
-0.00016829
-0.000179271
-0.000189543
-0.000198971
0.00503772
0.00508238
0.00518356
0.00533756
0.00555493
0.0058288
0.00618343
0.00660251
0.00713653
0.00774494
0.00853587
0.00940748
0.0106018
0.0118465
0.0137225
0.0153669
0.0183701
0.0188352
0.0214839
-0.00264034
0.00491722
0.0049606
0.00505789
0.00520645
0.00541494
0.00567773
0.00601473
0.00641272
0.00691224
0.00747953
0.00819897
0.0089837
0.0100143
0.0110533
0.0124973
0.0136104
0.015226
0.0147215
0.0126067
0.00345552
0.00477392
0.00481553
0.00490808
0.00504955
0.00524699
0.00549551
0.00581105
0.00618237
0.00664073
0.00715754
0.00779415
0.00847811
0.00932768
0.0101543
0.0111634
0.0118474
0.0123804
0.0115898
0.00841093
0.00438309
0.00460885
0.00464833
0.0047353
0.00486845
0.00505293
0.00528493
0.0055757
0.00591681
0.0063288
0.00679045
0.00733716
0.00791747
0.00858352
0.00921337
0.00983677
0.010193
0.0100316
0.00919337
0.00582006
0.00245576
0.00442324
0.0044603
0.00454107
0.00466493
0.0048351
0.00504886
0.00531284
0.00562135
0.00598462
0.00638881
0.00684554
0.0073238
0.00782054
0.00827399
0.00859259
0.00870607
0.00816377
0.00724824
0.00410169
0.000971985
0.0042185
0.00425289
0.00432705
0.00444092
0.00459598
0.00479037
0.00502666
0.00530137
0.00561604
0.00596269
0.00633448
0.00671612
0.00706716
0.00736866
0.00746719
0.0073982
0.00666863
0.00566295
0.00294103
6.07059e-05
0.00399612
0.00402766
0.004095
0.00419846
0.00433809
0.00451258
0.00472127
0.00496209
0.00523014
0.00552124
0.0058164
0.00610999
0.00634223
0.00651698
0.00646534
0.00625826
0.00546078
0.00440164
0.0021321
-0.000425362
0.00375763
0.00378621
0.0038467
0.00393961
0.0040639
0.00421852
0.00440048
0.00460835
0.00483311
0.0050723
0.00530074
0.00551688
0.00565587
0.00572831
0.00557943
0.00527438
0.00448021
0.00342312
0.00154883
-0.000649214
0.00350462
0.00353021
0.00358395
0.00366642
0.00377581
0.00391107
0.00406776
0.00424444
0.00443003
0.00462219
0.00479414
0.00494444
0.00501242
0.00500599
0.0047984
0.00443342
0.00368092
0.00267408
0.00112043
-0.000728932
0.00323865
0.00326127
0.00330849
0.00338082
0.00347601
0.00359283
0.00372612
0.00387402
0.00402491
0.00417569
0.00430092
0.00439729
0.00441283
0.00434934
0.00411065
0.00371869
0.00302585
0.00210074
0.000804111
-0.000735829
0.00296122
0.00298097
0.003022
0.00308466
0.00316654
0.00326613
0.0033781
0.00350005
0.00362078
0.00373616
0.00382363
0.00387755
0.00385597
0.00375469
0.00350453
0.00311131
0.00248535
0.00165783
0.000570651
-0.000705665
0.00267381
0.00269082
0.00272603
0.00277962
0.00284917
0.00293295
0.00302579
0.0031248
0.0032198
0.00330572
0.00336344
0.00338551
0.00333927
0.00321643
0.0029688
0.00259282
0.00203599
0.00131097
0.000399047
-0.000655042
0.0023778
0.00239223
0.00242203
0.00246722
0.00252549
0.00259495
0.00267086
0.00274996
0.00282336
0.00288545
0.00292047
0.00292005
0.00285926
0.0027279
0.00249294
0.0021467
0.00165919
0.00103535
0.000273977
-0.000592246
0.00207448
0.00208651
0.00211133
0.0021488
0.00219683
0.00225347
0.00231453
0.00237665
0.00243224
0.00247561
0.00249404
0.00247907
0.00241192
0.0022822
0.00206734
0.00175892
0.00133999
0.000813069
0.000183823
-0.000521928
0.00176506
0.00177488
0.00179511
0.00182553
0.00186431
0.00190958
0.00195772
0.00200551
0.00204667
0.0020758
0.00208283
0.00205989
0.00199297
0.0018726
0.00168333
0.00141769
0.0010662
0.000630978
0.000119665
-0.000446954
0.00145065
0.00145843
0.00147445
0.00149844
0.00152888
0.00156405
0.001601
0.0016368
0.00166643
0.00168511
0.00168504
0.00165944
0.00159796
0.00149269
0.00133305
0.00111316
0.000827773
0.000479108
7.46499e-05
-0.000369155
0.00113227
0.00113817
0.00115031
0.00116842
0.00119128
0.00121748
0.00124468
0.00127046
0.00129096
0.00130227
0.00129858
0.00127445
0.00122246
0.00113648
0.00100938
0.000836932
0.000616301
0.000349672
4.33888e-05
-0.000289818
0.000810883
0.000815034
0.000823563
0.000836236
0.000852163
0.000870271
0.000888887
0.000906198
0.00091946
0.000925789
0.000921143
0.00090157
0.000862075
0.000798339
0.000705802
0.000581696
0.000424584
0.000236326
2.1505e-05
-0.000210431
0.000487372
0.000489862
0.000494976
0.000502538
0.000511997
0.000522682
0.000533578
0.000543554
0.000550963
0.000554025
0.000550343
0.000537508
0.000512615
0.000473108
0.000416432
0.000341067
0.000246406
0.000133788
5.90395e-06
-0.000132309
0.000162603
0.000163458
0.000165208
0.000167778
0.000170978
0.00017457
0.000178211
0.000181507
0.000183899
0.000184775
0.000183324
0.00017871
0.000169956
0.000156193
0.000136583
0.000110649
7.82526e-05
4.00016e-05
-2.90299e-06
-5.02349e-05
0.00527902
0.00532368
0.00542658
0.00558159
0.00580272
0.00607925
0.00644259
0.0068677
0.00742119
0.00804305
0.00887823
0.00978151
0.0110808
0.012413
0.0145684
0.0165517
0.0205202
0.0230884
0.0322479
0.0275941
0.00527772
0.0053225
0.00542672
0.00558296
0.00580689
0.00608585
0.0064548
0.00688421
0.00744883
0.0080786
0.00893729
0.00985787
0.0112129
0.0125962
0.0149072
0.0171045
0.0215834
0.0252716
0.0351914
0.0367875
0.00527193
0.00531691
0.00542202
0.00557936
0.00580522
0.00608638
0.00645912
0.00689257
0.00746451
0.0081021
0.00897621
0.00991396
0.0113063
0.0127386
0.0151565
0.0175419
0.0223519
0.0268666
0.0371559
0.0425556
0.00526173
0.00530685
0.00541258
0.0055707
0.0057979
0.00608061
0.00645595
0.00689222
0.00746917
0.0081121
0.00899671
0.00994644
0.0113641
0.0128312
0.0153213
0.0178379
0.0228624
0.0279088
0.0384674
0.0458991
0.00524709
0.00529229
0.00539837
0.00555694
0.00578491
0.00606846
0.00644526
0.00688299
0.00746272
0.00810828
0.00899861
0.00995422
0.0113856
0.01287
0.0153986
0.0179798
0.0231099
0.0283973
0.0390736
0.0472896
0.005228
0.00527321
0.00537938
0.00553805
0.0057662
0.0060499
0.00642699
0.00686485
0.00744497
0.00809059
0.0089815
0.00993703
0.0113696
0.0128539
0.0153847
0.0179622
0.0230868
0.0283232
0.0389683
0.0469165
0.00520444
0.0052496
0.0053556
0.00551403
0.00574178
0.00602493
0.00640111
0.00683781
0.00741593
0.008059
0.00894538
0.00989486
0.0113162
0.0127828
0.0152799
0.017786
0.0227952
0.0276917
0.0381542
0.0447362
0.00517644
0.00522147
0.00532704
0.0054849
0.00571168
0.00599357
0.0063677
0.00680188
0.00737574
0.00801358
0.00889055
0.00982794
0.0112261
0.0126581
0.0150878
0.0174595
0.0222456
0.0265224
0.0366314
0.0404444
0.005144
0.00518884
0.00529372
0.00545068
0.00567591
0.00595588
0.00632678
0.0067572
0.00732446
0.00795466
0.00881725
0.00973721
0.0111004
0.0124834
0.0148127
0.0169987
0.0214519
0.0248422
0.0344125
0.0333281
0.00510708
0.0051518
0.00525556
0.00541148
0.00563433
0.0059121
0.00627807
0.00670431
0.0072615
0.00788346
0.00872424
0.00962564
0.0109368
0.0122669
0.0144531
0.0164331
0.0204215
0.0227094
0.0311896
0.0222185
)
;

boundaryField
{
    inlet
    {
        type            zeroGradient;
    }
    outlet
    {
        type            fixedValue;
        value           uniform 0;
    }
    upAndBottom
    {
        type            empty;
    }
    obstacle
    {
        type            zeroGradient;
    }
}


// ************************************************************************* //
