/*--------------------------------*- C++ -*----------------------------------*\
| =========                 |                                                 |
| \\      /  F ield         | OpenFOAM: The Open Source CFD Toolbox           |
|  \\    /   O peration     | Version:  v1806                                 |
|   \\  /    A nd           | Web:      www.OpenFOAM.com                      |
|    \\/     M anipulation  |                                                 |
\*---------------------------------------------------------------------------*/
FoamFile
{
    version     2.0;
    format      ascii;
    class       volScalarField;
    location    "180";
    object      p;
}
// * * * * * * * * * * * * * * * * * * * * * * * * * * * * * * * * * * * * * //

dimensions      [0 2 -2 0 0 0 0];


internalField   nonuniform List<scalar> 
4916
(
-0.0038009
-0.00379857
-0.00379857
-0.0038009
-0.00374957
-0.00374801
-0.00374801
-0.00374957
-0.00389449
-0.00389309
-0.00389309
-0.00389449
-0.00390373
-0.00390125
-0.00390125
-0.00390373
-0.00389787
-0.00389625
-0.00389625
-0.00389787
-0.00384949
-0.00384792
-0.00384792
-0.00384949
0.0386343
0.0386345
0.0386345
0.0386343
0.0421589
0.0421628
0.0421628
0.0421589
0.0366907
0.0366933
0.0366933
0.0366907
0.0403081
0.0403086
0.0403086
0.0403081
0.0322233
0.0322267
0.0322267
0.0322233
0.033194
0.0331977
0.0331977
0.033194
-0.00431703
-0.00431547
-0.00431547
-0.00431703
-0.00472425
-0.00472211
-0.00472211
-0.00472425
-0.00439638
-0.0043947
-0.0043947
-0.00439638
-0.00479204
-0.00478882
-0.00478882
-0.00479204
-0.00425464
-0.00425341
-0.00425341
-0.00425465
0.0407736
0.0408088
0.0408088
0.0407736
0.0421451
0.0421577
0.0421577
0.0421451
0.0515323
0.0515576
0.0515576
0.0515323
0.0508489
0.0508482
0.0508482
0.0508489
0.0297726
0.0297687
0.0297687
0.0297726
0.0309705
0.0309686
0.0309686
0.0309705
-0.00420026
-0.00419848
-0.00419848
-0.00420026
-0.00410529
-0.00410452
-0.00410452
-0.00410529
-0.00374839
-0.00374612
-0.00374612
-0.00374839
-0.003748
-0.00374562
-0.00374562
-0.003748
-0.00384654
-0.00384484
-0.00384484
-0.00384654
-0.00369422
-0.00369304
-0.00369304
-0.00369422
-0.00393621
-0.00393312
-0.00393312
-0.00393621
-0.00395544
-0.00395406
-0.00395406
-0.00395544
-0.00407565
-0.00407423
-0.00407423
-0.00407564
-0.00419344
-0.00419204
-0.00419204
-0.00419344
-0.00430626
-0.00430504
-0.00430504
-0.00430626
-0.00430232
-0.00430105
-0.00430105
-0.00430232
-0.00439351
-0.00439219
-0.00439219
-0.00439351
-0.00439421
-0.00439297
-0.00439297
-0.00439421
0.0518343
0.0518442
0.0518442
0.0518343
0.0478754
0.0478785
0.0478785
0.0478754
0.0526719
0.0526755
0.0526755
0.0526719
0.0492036
0.0492146
0.0492146
0.0492036
0.0441343
0.0441399
0.0441399
0.0441343
0.0446065
0.044614
0.044614
0.0446065
0.0406509
0.0406545
0.0406545
0.0406509
0.0370005
0.0370036
0.0370036
0.0370005
0.0334143
0.0334199
0.0334199
0.0334143
0.0299976
0.0300026
0.0300026
0.0299976
0.029899
0.0299059
0.0299059
0.029899
-0.00415257
-0.00415232
-0.00415232
-0.00415257
0.0354136
0.0354147
0.0354147
0.0354136
0.0290965
0.0291035
0.0291035
0.0290965
-0.0042327
-0.00423093
-0.00423093
-0.0042327
-0.00434419
-0.0043433
-0.0043433
-0.00434419
-0.00443933
-0.00443813
-0.00443813
-0.00443933
-0.00445075
-0.00444966
-0.00444966
-0.00445075
-0.00444561
-0.0044444
-0.0044444
-0.00444561
-0.00449968
-0.00449815
-0.00449815
-0.00449968
-0.00396323
-0.00396139
-0.00396139
-0.00396323
-0.0040881
-0.00408659
-0.00408659
-0.0040881
-0.00421807
-0.00421673
-0.00421673
-0.00421807
-0.00433775
-0.00433628
-0.00433628
-0.00433775
-0.00444244
-0.00444108
-0.00444108
-0.00444244
-0.00451574
-0.0045147
-0.0045147
-0.00451574
-0.00368087
-0.00367932
-0.00367932
-0.00368087
-0.00395616
-0.00395614
-0.00395614
-0.00395616
-0.00379123
-0.00378864
-0.00378864
-0.00379123
0.0550491
0.0550485
0.0550485
0.0550491
0.0547412
0.054747
0.054747
0.0547412
0.0459445
0.0459517
0.0459517
0.0459445
0.0493827
0.0493888
0.0493888
0.0493827
0.0467629
0.0467648
0.0467648
0.0467629
0.043081
0.043092
0.043092
0.043081
0.0395578
0.0395573
0.0395573
0.0395578
0.0363557
0.0363604
0.0363604
0.0363557
0.0329073
0.0329142
0.0329142
0.0329073
0.0295156
0.0295211
0.0295211
0.0295156
0.0264453
0.0264523
0.0264523
0.0264453
0.0268866
0.0268932
0.0268932
0.0268866
0.0268346
0.0268404
0.0268404
0.0268346
0.0262618
0.0262688
0.0262688
0.0262618
0.039316
0.0393117
0.0393117
0.039316
0.0362733
0.0362686
0.0362686
0.0362733
0.0334237
0.0334239
0.0334239
0.0334237
0.0306518
0.0306569
0.0306569
0.0306518
0.0279189
0.0279268
0.0279268
0.0279189
0.0252569
0.0252657
0.0252657
0.0252569
0.0422379
0.0422385
0.0422385
0.0422379
0.0448419
0.0448468
0.0448468
0.0448419
0.0518695
0.0518706
0.0518706
0.0518695
-0.00374615
-0.00374585
-0.00374585
-0.00374615
-0.00400887
-0.00400705
-0.00400705
-0.00400887
-0.0041436
-0.00414211
-0.00414211
-0.0041436
-0.00428247
-0.00428115
-0.00428115
-0.00428247
-0.0044203
-0.00441877
-0.00441877
-0.0044203
-0.00454443
-0.00454309
-0.00454309
-0.00454443
-0.00464322
-0.00464204
-0.00464204
-0.00464323
-0.00469597
-0.00469497
-0.00469497
-0.00469597
-0.00453364
-0.00453284
-0.00453284
-0.00453364
-0.00444949
-0.00444877
-0.00444877
-0.00444949
-0.00444052
-0.0044397
-0.0044397
-0.00444052
-0.0045124
-0.00451158
-0.00451158
-0.0045124
-0.00465763
-0.00465654
-0.00465654
-0.00465763
-0.00460544
-0.00460396
-0.00460396
-0.00460544
-0.00453829
-0.00453692
-0.00453692
-0.00453829
-0.00441675
-0.00441566
-0.00441566
-0.00441675
-0.00427972
-0.00427838
-0.00427838
-0.00427972
-0.00412003
-0.00411783
-0.00411783
-0.00412003
-0.00398562
-0.00398358
-0.00398358
-0.00398562
-0.00386828
-0.00386563
-0.00386563
-0.00386828
0.0439023
0.0438952
0.0438952
0.0439023
0.0410751
0.0410928
0.0410928
0.0410751
0.0374371
0.0374399
0.0374399
0.0374371
0.0345015
0.034512
0.034512
0.0345015
0.0314644
0.0314687
0.0314687
0.0314644
0.0283898
0.0283956
0.0283956
0.0283898
0.0254921
0.0254975
0.0254975
0.0254921
0.0229573
0.0229616
0.0229616
0.0229573
0.0237794
0.0237854
0.0237854
0.0237794
0.0241968
0.0242026
0.0242026
0.0241968
0.0241883
0.0241941
0.0241941
0.0241883
0.0237598
0.0237665
0.0237665
0.0237598
0.0228546
0.0228626
0.0228626
0.0228546
0.0355041
0.0355021
0.0355021
0.0355041
0.0333181
0.0333129
0.0333129
0.0333181
0.0309876
0.0309846
0.0309846
0.0309876
0.0285586
0.0285643
0.0285643
0.0285586
0.0261293
0.0261389
0.0261389
0.0261293
0.023927
0.0239371
0.0239371
0.023927
0.0217042
0.0217128
0.0217128
0.0217042
-0.00377714
-0.0037749
-0.0037749
-0.00377714
-0.00487631
-0.00487522
-0.00487522
-0.00487631
-0.00480344
-0.0048017
-0.0048017
-0.00480344
-0.00466782
-0.00466658
-0.00466658
-0.00466782
-0.00453116
-0.00453037
-0.00453037
-0.00453116
-0.00437502
-0.00437396
-0.00437396
-0.00437502
-0.00423077
-0.00422978
-0.00422978
-0.00423078
-0.00410219
-0.0041014
-0.0041014
-0.00410219
-0.00401344
-0.00401193
-0.00401193
-0.00401344
-0.00466035
-0.00465976
-0.00465976
-0.00466035
-0.00446825
-0.00446775
-0.00446775
-0.00446825
-0.00436602
-0.00436573
-0.00436574
-0.00436602
-0.00435333
-0.00435315
-0.00435315
-0.00435333
-0.00443338
-0.00443327
-0.00443327
-0.00443338
-0.00461137
-0.00461095
-0.00461095
-0.00461137
-0.00488035
-0.00487988
-0.00487988
-0.00488035
-0.00398888
-0.00398728
-0.00398728
-0.00398887
-0.00409437
-0.00409273
-0.00409273
-0.00409437
-0.00422756
-0.00422609
-0.00422609
-0.00422756
-0.004385
-0.00438381
-0.00438381
-0.004385
-0.00454856
-0.00454698
-0.00454699
-0.00454857
-0.00470673
-0.00470536
-0.00470536
-0.00470673
-0.00484815
-0.00484713
-0.00484713
-0.00484815
-0.00493256
-0.00493156
-0.00493156
-0.00493256
-0.00495271
-0.00495206
-0.00495206
-0.00495271
0.0375148
0.0375197
0.0375197
0.0375148
0.0459914
0.0459995
0.0459995
0.0459914
0.0385773
0.0385758
0.0385758
0.0385773
0.0363809
0.0363785
0.0363785
0.0363809
0.0411893
0.0412076
0.0412076
0.0411893
0.0372452
0.0372545
0.0372545
0.0372452
0.0341955
0.034202
0.034202
0.0341955
0.0316305
0.0316324
0.0316324
0.0316305
0.0291662
0.0291663
0.0291663
0.0291662
0.0266724
0.0266765
0.0266765
0.0266724
0.0240815
0.0240862
0.0240862
0.0240815
0.0217858
0.0217901
0.0217901
0.0217858
0.0197624
0.019766
0.019766
0.0197624
0.0208122
0.0208163
0.0208163
0.0208122
0.021552
0.0215568
0.0215568
0.021552
0.0219298
0.0219338
0.0219338
0.0219298
0.021926
0.0219298
0.0219298
0.021926
0.0215477
0.021552
0.021552
0.0215477
0.0207731
0.020778
0.020778
0.0207731
0.0196917
0.0196977
0.0196977
0.0196917
0.0280257
0.0280238
0.0280238
0.0280257
0.0259793
0.0259819
0.0259819
0.0259793
0.0239366
0.0239451
0.0239451
0.0239366
0.0219651
0.0219775
0.0219775
0.0219651
0.020134
0.0201433
0.0201433
0.020134
0.0183924
0.0183988
0.0183988
0.0183924
0.0313988
0.0313926
0.0313926
0.0313988
0.0287658
0.028758
0.028758
0.0287658
0.0202825
0.0202677
0.0202677
0.0202825
0.0180013
0.0180045
0.0180045
0.0180013
0.0189614
0.0189649
0.0189649
0.0189614
0.0196328
0.0196358
0.0196358
0.0196328
0.0199723
0.0199754
0.0199754
0.0199723
0.0199681
0.0199714
0.0199714
0.0199681
0.0196318
0.0196351
0.0196351
0.0196318
0.0189563
0.0189605
0.0189605
0.0189563
0.0179773
0.017983
0.017983
0.0179773
0.016768
0.0167736
0.0167736
0.016768
0.0235762
0.0235789
0.0235789
0.0235762
0.0304186
0.0304208
0.0304208
0.0304186
0.0322472
0.0322454
0.0322454
0.0322472
0.0316205
0.0316243
0.0316243
0.0316205
0.0300395
0.0300384
0.0300384
0.0300395
0.0283539
0.0283487
0.0283487
0.0283539
0.0264421
0.0264412
0.0264412
0.0264421
0.0243523
0.0243585
0.0243585
0.0243523
0.0222255
0.0222307
0.0222307
0.0222255
0.0202503
0.0202538
0.0202538
0.0202503
0.0184707
0.0184735
0.0184735
0.0184707
0.016841
0.0168441
0.0168441
0.016841
-0.00407384
-0.00407225
-0.00407225
-0.00407383
-0.00403498
-0.00403257
-0.00403257
-0.00403498
-0.00409293
-0.00409144
-0.00409144
-0.00409293
-0.00418975
-0.00418825
-0.00418825
-0.00418975
-0.00432863
-0.00432717
-0.00432717
-0.00432863
-0.00450971
-0.00450885
-0.00450885
-0.00450971
-0.00471166
-0.00471022
-0.00471023
-0.00471166
-0.0049223
-0.00492114
-0.00492114
-0.0049223
-0.00511638
-0.00511545
-0.00511545
-0.00511638
-0.00527008
-0.00526916
-0.00526916
-0.00527008
-0.00536126
-0.00536054
-0.00536054
-0.00536126
-0.00535118
-0.00535099
-0.00535099
-0.00535118
-0.00486526
-0.00486519
-0.0048652
-0.00486527
-0.00451946
-0.00451947
-0.00451947
-0.00451947
-0.00429787
-0.00429798
-0.00429798
-0.00429787
-0.00418094
-0.00418122
-0.00418122
-0.00418094
-0.00416379
-0.0041641
-0.0041641
-0.0041638
-0.00424758
-0.00424773
-0.00424774
-0.00424758
-0.00443701
-0.00443696
-0.00443696
-0.00443701
-0.00474117
-0.00474106
-0.00474106
-0.00474117
-0.00517638
-0.0051762
-0.0051762
-0.00517638
-0.00525557
-0.00525499
-0.00525499
-0.00525557
-0.00520936
-0.00520851
-0.00520851
-0.00520936
-0.00506784
-0.00506649
-0.00506649
-0.00506784
-0.00488755
-0.00488645
-0.00488645
-0.00488755
-0.00469576
-0.0046947
-0.0046947
-0.00469576
-0.00450149
-0.00450017
-0.00450017
-0.00450149
-0.00432904
-0.00432752
-0.00432752
-0.00432904
-0.00419118
-0.00418926
-0.00418926
-0.00419118
-0.00408764
-0.00408494
-0.00408494
-0.00408764
-0.00403051
-0.00403077
-0.00403077
-0.00403051
-0.00403743
-0.00403487
-0.00403487
-0.00403743
-0.00404007
-0.00403747
-0.00403747
-0.00404007
-0.00425048
-0.00425012
-0.00425012
-0.00425048
-0.00414708
-0.00414551
-0.00414551
-0.00414708
-0.00417847
-0.00417731
-0.00417731
-0.00417847
-0.00428002
-0.00427892
-0.00427892
-0.00428002
-0.0044348
-0.00443378
-0.00443378
-0.0044348
-0.00463817
-0.00463713
-0.00463713
-0.00463817
-0.00488631
-0.00488546
-0.00488546
-0.00488631
-0.00514823
-0.00514732
-0.00514732
-0.00514823
-0.00540626
-0.00540542
-0.00540542
-0.00540626
-0.00563393
-0.00563354
-0.00563354
-0.00563393
-0.00576828
-0.0057681
-0.0057681
-0.00576828
-0.00576862
-0.00576898
-0.00576898
-0.00576862
-0.00515279
-0.00515327
-0.00515327
-0.0051528
-0.00461772
-0.00461834
-0.00461834
-0.00461772
-0.00424331
-0.00424407
-0.00424407
-0.00424331
-0.00400884
-0.00400961
-0.00400961
-0.00400884
-0.00388439
-0.00388509
-0.0038851
-0.00388439
-0.00386226
-0.00386295
-0.00386295
-0.00386226
-0.00394284
-0.00394349
-0.00394349
-0.00394284
-0.00413286
-0.00413358
-0.00413359
-0.00413287
-0.00445158
-0.00445225
-0.00445225
-0.00445158
-0.00493332
-0.00493392
-0.00493392
-0.00493332
-0.00557724
-0.00557807
-0.00557807
-0.00557724
0.0230023
0.0230219
0.0230219
0.0230023
0.025022
0.0250204
0.0250204
0.025022
0.0260804
0.026087
0.026087
0.0260804
0.0254016
0.025396
0.025396
0.0254016
0.0245144
0.0245091
0.0245091
0.0245144
0.023293
0.0232885
0.0232885
0.023293
0.0217526
0.0217549
0.0217549
0.0217526
0.0200252
0.020028
0.020028
0.0200252
0.0184111
0.0184145
0.0184145
0.0184111
0.0168604
0.0168634
0.0168634
0.0168604
0.015435
0.0154378
0.0154378
0.015435
0.0141615
0.0141628
0.0141628
0.0141615
0.0154138
0.0154149
0.0154149
0.0154138
0.0165074
0.0165076
0.0165076
0.0165074
0.017367
0.0173678
0.0173678
0.017367
0.0179714
0.0179727
0.0179727
0.0179714
0.0182705
0.0182722
0.0182722
0.0182705
0.0182625
0.0182644
0.0182644
0.0182625
0.0179539
0.0179559
0.0179559
0.0179539
0.0173556
0.0173584
0.0173584
0.0173556
0.0164608
0.016465
0.016465
0.0164608
0.015375
0.0153796
0.0153796
0.015375
0.0141018
0.0141081
0.0141081
0.0141018
0.015437
0.0154429
0.0154429
0.015437
0.0168004
0.0168062
0.0168062
0.0168004
0.0182213
0.0182292
0.0182292
0.0182213
0.0197902
0.0198012
0.0198012
0.0197902
0.0214319
0.0214407
0.0214407
0.0214319
0.0230456
0.0230471
0.0230471
0.0230456
0.0245815
0.0245797
0.0245797
0.0245815
0.0255854
0.025579
0.025579
0.0255854
-0.00413756
-0.00413524
-0.00413524
-0.00413755
-0.0041659
-0.0041644
-0.0041644
-0.0041659
-0.00426395
-0.00426275
-0.00426275
-0.00426395
-0.00441448
-0.00441306
-0.00441307
-0.00441448
-0.00463844
-0.00463781
-0.00463781
-0.00463845
-0.00488908
-0.00488778
-0.00488778
-0.00488908
-0.00517228
-0.00517129
-0.00517129
-0.00517228
-0.00545585
-0.0054551
-0.0054551
-0.00545585
-0.00570755
-0.005707
-0.005707
-0.00570755
-0.00589651
-0.00589636
-0.00589636
-0.00589651
-0.00596792
-0.00596837
-0.00596837
-0.00596793
-0.00583512
-0.00583597
-0.00583597
-0.00583512
0.0260886
0.0260832
0.0260832
0.0260886
0.0248316
0.0248086
0.0248086
0.0248316
0.0219667
0.0219685
0.0219685
0.0219667
0.0109892
0.0109606
0.0109606
0.0109892
0.0136979
0.0136724
0.0136724
0.0136979
-7.03289e-05
-7.30203e-05
-7.30204e-05
-7.03288e-05
-0.000920888
-0.000881529
-0.000881529
-0.000920888
-0.0116328
-0.0116242
-0.0116242
-0.0116328
-0.012098
-0.0120833
-0.0120833
-0.012098
-0.0108073
-0.0108059
-0.0108059
-0.0108073
-0.00873665
-0.00873004
-0.00873004
-0.00873665
-0.00760262
-0.00760175
-0.00760175
-0.00760262
-0.00643459
-0.00643151
-0.00643151
-0.00643459
-0.00552869
-0.00552588
-0.00552588
-0.00552869
-0.00493468
-0.00493147
-0.00493147
-0.00493468
-0.00453168
-0.00452908
-0.00452908
-0.00453168
-0.00427645
-0.00427438
-0.00427438
-0.00427645
-0.00414566
-0.00414422
-0.00414422
-0.00414566
-0.00418058
-0.00417954
-0.00417954
-0.00418058
-0.00430839
-0.00430752
-0.00430752
-0.00430839
-0.0045011
-0.00450032
-0.00450032
-0.0045011
-0.00475099
-0.00474995
-0.00474995
-0.00475099
-0.00507159
-0.00507084
-0.00507084
-0.00507159
-0.00542168
-0.00542092
-0.00542092
-0.00542168
-0.00577968
-0.00577901
-0.00577901
-0.00577968
-0.00612955
-0.00612931
-0.00612931
-0.00612955
-0.00637179
-0.00637191
-0.00637191
-0.00637179
-0.00646135
-0.00646214
-0.00646214
-0.00646135
-0.00631564
-0.00631681
-0.0063168
-0.00631563
-0.00543597
-0.00543753
-0.00543753
-0.00543597
-0.00473203
-0.00473335
-0.00473335
-0.00473203
-0.00419909
-0.00420039
-0.00420039
-0.00419909
-0.00383099
-0.00383212
-0.00383212
-0.00383099
-0.00359984
-0.00360081
-0.00360081
-0.00359985
-0.0034781
-0.00347891
-0.00347891
-0.0034781
-0.00345142
-0.00345223
-0.00345223
-0.00345142
-0.003521
-0.00352184
-0.00352184
-0.003521
-0.00369538
-0.00369637
-0.00369637
-0.00369538
-0.00399502
-0.0039962
-0.0039962
-0.00399502
-0.00446495
-0.0044662
-0.0044662
-0.00446495
-0.00510366
-0.00510479
-0.00510478
-0.00510366
-0.00585193
-0.00585377
-0.00585377
-0.00585192
-0.00752315
-0.00754951
-0.00754951
-0.00752315
0.00107308
0.00104177
0.00104177
0.00107308
0.0104529
0.0104629
0.0104629
0.0104529
0.0166781
0.016678
0.016678
0.0166781
0.0195214
0.0195234
0.0195234
0.0195214
0.0210724
0.0210823
0.0210823
0.0210724
0.0211314
0.0211239
0.0211239
0.0211314
0.020821
0.0208177
0.0208177
0.020821
0.0199421
0.0199381
0.0199381
0.0199421
0.018847
0.0188504
0.0188504
0.018847
0.0175603
0.0175619
0.0175619
0.0175603
0.0162681
0.0162718
0.0162718
0.0162681
0.0149872
0.01499
0.01499
0.0149872
0.0137846
0.0137874
0.0137874
0.0137846
0.0126811
0.0126828
0.0126828
0.0126811
0.0117138
0.0117145
0.0117145
0.0117138
0.0130605
0.0130611
0.0130611
0.0130605
0.014243
0.014243
0.014243
0.014243
0.0152475
0.0152467
0.0152467
0.0152475
0.0160223
0.0160211
0.0160211
0.0160223
0.0165443
0.0165438
0.0165438
0.0165443
0.0168102
0.0168109
0.0168109
0.0168102
0.016804
0.0168048
0.0168048
0.016804
0.0165275
0.0165282
0.0165282
0.0165275
0.015988
0.0159893
0.0159893
0.015988
0.0151899
0.0151923
0.0151923
0.0151899
0.0141795
0.0141823
0.0141823
0.0141795
0.0129952
0.0129988
0.0129988
0.0129952
0.0116674
0.0116706
0.0116706
0.0116674
0.0126535
0.0126595
0.0126595
0.0126535
0.0137712
0.0137786
0.0137786
0.0137712
0.0149512
0.0149567
0.0149567
0.0149512
0.0161741
0.0161798
0.0161798
0.0161741
0.0174219
0.0174278
0.0174278
0.0174219
0.0186752
0.018682
0.018682
0.0186752
0.0198724
0.0198751
0.0198751
0.0198724
0.0209242
0.0209237
0.0209237
0.0209242
0.0214078
0.0214006
0.0214006
0.0214078
0.0211378
0.0211294
0.0211294
0.0211378
0.0194674
0.019458
0.019458
0.0194674
0.0162285
0.0162396
0.0162396
0.0162285
0.0106792
0.0107155
0.0107155
0.0106792
0.0003616
0.00032842
0.00032842
0.0003616
-0.0125434
-0.0125759
-0.0125759
-0.0125434
-0.00788128
-0.00792911
-0.00792911
-0.00788128
-0.0109237
-0.0109131
-0.0109131
-0.0109237
-0.0130576
-0.0130446
-0.0130446
-0.0130576
-0.0110402
-0.011037
-0.011037
-0.0110402
-0.00930427
-0.0092982
-0.0092982
-0.00930428
-0.00813185
-0.00812834
-0.00812834
-0.00813185
-0.006792
-0.00678825
-0.00678825
-0.006792
-0.00578703
-0.00578377
-0.00578376
-0.00578702
-0.00499667
-0.00499168
-0.00499168
-0.00499667
-0.00456679
-0.00456435
-0.00456436
-0.00456683
-0.00428472
-0.00428242
-0.00428242
-0.00428474
-0.00413942
-0.00413809
-0.00413809
-0.00413942
-0.00415374
-0.00415278
-0.00415278
-0.00415374
-0.00428222
-0.00428178
-0.00428178
-0.00428222
-0.00446222
-0.00446101
-0.00446101
-0.00446223
-0.00473752
-0.00473685
-0.00473685
-0.00473752
-0.0050558
-0.00505466
-0.00505466
-0.00505581
-0.00542626
-0.00542554
-0.00542554
-0.00542626
-0.00581546
-0.00581485
-0.00581485
-0.00581547
-0.00619008
-0.00618979
-0.00618979
-0.00619008
-0.00649301
-0.00649313
-0.00649313
-0.006493
-0.00666308
-0.00666395
-0.00666395
-0.00666308
-0.00659615
-0.00659725
-0.00659725
-0.00659615
-0.00621915
-0.00622135
-0.00622135
-0.00621915
0.0108858
0.0108848
0.0108848
0.0108858
0.0121381
0.0121368
0.0121368
0.0121381
0.0132441
0.0132422
0.0132422
0.0132441
0.0141695
0.0141672
0.0141672
0.0141695
0.0148769
0.014875
0.014875
0.0148769
0.0153493
0.0153481
0.0153481
0.0153493
0.0155852
0.0155848
0.0155848
0.0155852
0.0155804
0.0155804
0.0155804
0.0155804
0.0153307
0.0153306
0.0153306
0.0153307
0.0148402
0.0148397
0.0148397
0.0148402
0.014122
0.0141216
0.0141216
0.014122
0.0132003
0.0132004
0.0132004
0.0132003
0.0120974
0.0120984
0.0120984
0.0120974
0.0108493
0.0108501
0.0108501
0.0108493
0.00946783
0.00946825
0.00946825
0.00946783
0.0101716
0.0101744
0.0101744
0.0101716
0.0109818
0.0109864
0.0109864
0.0109818
0.011902
0.0119076
0.0119076
0.011902
0.0128747
0.0128791
0.0128791
0.0128747
0.013866
0.0138705
0.0138705
0.013866
0.0148614
0.0148641
0.0148641
0.0148614
0.015809
0.0158109
0.0158109
0.015809
0.0166328
0.0166338
0.0166338
0.0166328
0.0172761
0.0172761
0.0172761
0.0172761
0.0173529
0.0173462
0.0173462
0.0173529
0.0167059
0.0167007
0.0167007
0.0167059
0.0150447
0.0150458
0.0150458
0.0150447
0.0123268
0.0123344
0.0123344
0.0123268
0.00832489
0.00832459
0.00832459
0.00832489
0.00196121
0.00192767
0.00192767
0.00196121
-0.00486007
-0.00488093
-0.00488093
-0.00486007
-0.00766073
-0.00764616
-0.00764616
-0.00766073
-0.0094503
-0.00944775
-0.00944775
-0.00945029
-0.00949871
-0.0095036
-0.0095036
-0.00949871
-0.0084235
-0.00842047
-0.00842047
-0.0084235
-0.00707095
-0.00706347
-0.00706347
-0.00707094
-0.00603118
-0.00602375
-0.00602375
-0.00603116
-0.00540555
-0.00540467
-0.00540468
-0.00540554
-0.00478523
-0.00478218
-0.00478219
-0.00478524
-0.00431885
-0.00431744
-0.00431744
-0.00431886
-0.0039575
-0.00395372
-0.00395372
-0.0039575
-0.00392017
-0.00391739
-0.00391738
-0.00392017
-0.00402071
-0.00401797
-0.00401796
-0.00402071
-0.00422484
-0.00422355
-0.00422355
-0.00422484
-0.00444648
-0.00444499
-0.004445
-0.00444648
-0.00478905
-0.00478904
-0.00478904
-0.00478905
-0.00517223
-0.00517152
-0.00517152
-0.00517223
-0.00563816
-0.00563814
-0.00563814
-0.00563816
-0.00612664
-0.0061266
-0.0061266
-0.00612664
-0.00662155
-0.00662189
-0.00662189
-0.00662155
-0.00703057
-0.00703126
-0.00703125
-0.00703057
-0.00728437
-0.00728587
-0.00728587
-0.00728437
-0.00726278
-0.00726401
-0.00726401
-0.00726278
-0.00690374
-0.0069065
-0.0069065
-0.00690374
-0.00609909
-0.0061007
-0.0061007
-0.00609909
-0.00548146
-0.00548256
-0.00548256
-0.00548146
-0.00474404
-0.00474536
-0.00474536
-0.00474404
-0.00409606
-0.004097
-0.004097
-0.00409605
-0.0036128
-0.0036138
-0.0036138
-0.00361279
-0.00328966
-0.00329053
-0.00329053
-0.00328966
-0.00308545
-0.00308622
-0.00308623
-0.00308545
-0.00297622
-0.00297691
-0.00297691
-0.00297623
-0.00294739
-0.00294809
-0.00294808
-0.00294739
-0.00299869
-0.0029994
-0.0029994
-0.00299869
-0.00313754
-0.00313835
-0.00313835
-0.00313754
-0.00338887
-0.00338976
-0.00338976
-0.00338887
-0.00379201
-0.00379284
-0.00379284
-0.00379201
-0.00436173
-0.00436232
-0.00436232
-0.00436172
-0.00504299
-0.00504364
-0.00504363
-0.00504299
-0.00560776
-0.00560904
-0.00560904
-0.00560776
-0.00649843
-0.00650062
-0.00650062
-0.00649843
-0.00698885
-0.00699012
-0.00699012
-0.00698885
-0.00711158
-0.00711296
-0.00711296
-0.00711158
-0.00694449
-0.00694522
-0.00694522
-0.00694449
-0.0065829
-0.00658326
-0.00658326
-0.00658289
-0.00612616
-0.0061262
-0.0061262
-0.00612616
-0.00565712
-0.00565719
-0.00565719
-0.00565712
-0.00522043
-0.0052206
-0.0052206
-0.00522043
-0.00481573
-0.00481515
-0.00481515
-0.00481573
-0.00450773
-0.00450715
-0.00450715
-0.00450773
-0.0042658
-0.00426463
-0.00426463
-0.0042658
-0.00409264
-0.00409083
-0.00409083
-0.00409264
-0.00398441
-0.0039821
-0.0039821
-0.00398441
-0.00403967
-0.00403709
-0.00403709
-0.00403967
-0.00433347
-0.00433284
-0.00433284
-0.00433347
-0.00484952
-0.00484917
-0.00484917
-0.00484952
-0.00538546
-0.00538459
-0.00538459
-0.00538546
-0.00604995
-0.00604902
-0.00604902
-0.00604995
-0.00687892
-0.00687655
-0.00687655
-0.00687892
-0.00812814
-0.00812558
-0.00812558
-0.00812814
-0.00980186
-0.00980467
-0.00980467
-0.00980186
-0.0100889
-0.0101006
-0.0101006
-0.0100889
-0.00799137
-0.00801101
-0.00801101
-0.00799137
-0.00362094
-0.00361269
-0.00361269
-0.00362094
0.0018783
0.00185007
0.00185007
0.0018783
0.00898545
0.00901339
0.00901339
0.00898545
0.0123047
0.0123014
0.0123014
0.0123047
0.0151907
0.0152045
0.0152045
0.0151907
0.0166578
0.0166628
0.0166628
0.0166578
0.0171645
0.0171584
0.0171584
0.0171645
0.017213
0.017209
0.017209
0.017213
0.0166695
0.0166655
0.0166655
0.0166695
0.0158751
0.0158785
0.0158785
0.0158751
0.0149064
0.014908
0.014908
0.0149064
0.0139201
0.0139229
0.0139229
0.0139201
0.0129079
0.0129092
0.0129092
0.0129079
0.011955
0.011958
0.011958
0.011955
0.0110173
0.0110196
0.0110196
0.0110173
0.0102011
0.0102023
0.0102023
0.0102011
0.00948598
0.00948521
0.00948521
0.00948598
0.00795993
0.00796029
0.00796029
0.00795993
0.00852544
0.00852744
0.00852744
0.00852544
0.00917584
0.00917829
0.00917829
0.00917584
0.00989123
0.009894
0.009894
0.00989123
0.0106489
0.0106508
0.0106508
0.0106489
0.0114236
0.0114253
0.0114253
0.0114236
0.0121938
0.012195
0.012195
0.0121938
0.0128865
0.012887
0.012887
0.0128865
0.0134139
0.0134143
0.0134143
0.0134139
0.0137318
0.0137336
0.0137336
0.0137318
0.0136086
0.0136079
0.0136079
0.0136086
0.0129525
0.0129515
0.0129515
0.0129525
0.0115002
0.0115013
0.0115013
0.0115002
0.0093418
0.00934557
0.00934557
0.0093418
0.00630689
0.00629697
0.00629697
0.00630689
0.00214038
0.00211833
0.00211833
0.00214038
-0.00244124
-0.00245743
-0.00245743
-0.00244124
-0.00501893
-0.00500844
-0.00500844
-0.00501893
-0.00656433
-0.00655741
-0.00655741
-0.00656433
-0.00705439
-0.00704771
-0.00704771
-0.00705439
-0.00669292
-0.00668373
-0.00668374
-0.00669292
-0.00606995
-0.00606509
-0.00606509
-0.00606995
-0.00540291
-0.00539867
-0.00539868
-0.0054029
-0.0047886
-0.00478457
-0.00478457
-0.00478859
-0.00417298
-0.00416558
-0.00416558
-0.00417298
-0.00388016
-0.00387707
-0.00387707
-0.00388016
-0.00379919
-0.00379704
-0.00379704
-0.00379918
-0.0038676
-0.00386787
-0.00386787
-0.0038676
-0.00395268
-0.00395129
-0.00395129
-0.00395268
-0.00413578
-0.00413455
-0.00413455
-0.00413578
-0.00439364
-0.00439148
-0.00439148
-0.00439364
-0.00476092
-0.00475942
-0.00475942
-0.00476093
-0.00519529
-0.00519362
-0.00519362
-0.0051953
-0.00571043
-0.00570933
-0.00570933
-0.00571043
-0.00626091
-0.00626025
-0.00626025
-0.00626091
-0.00680604
-0.00680585
-0.00680585
-0.00680603
-0.00726893
-0.00726926
-0.00726926
-0.00726892
-0.00755041
-0.00755162
-0.00755161
-0.00755041
-0.00751983
-0.00752129
-0.00752129
-0.00751983
-0.00715876
-0.00716337
-0.00716337
-0.00715876
-0.00625863
-0.00626006
-0.00626006
-0.00625864
-0.00512787
-0.00513198
-0.00513199
-0.00512788
-0.00498418
-0.00498613
-0.00498614
-0.00498418
-0.00446046
-0.00446111
-0.00446111
-0.00446045
-0.00382001
-0.0038205
-0.00382049
-0.00382
-0.00328755
-0.00328786
-0.00328786
-0.00328755
-0.00290236
-0.00290289
-0.00290289
-0.00290236
-0.00265174
-0.0026523
-0.0026523
-0.00265174
-0.00249596
-0.00249653
-0.00249653
-0.00249596
-0.00240989
-0.00241044
-0.00241044
-0.00240989
-0.00238066
-0.00238122
-0.00238122
-0.00238066
-0.00240699
-0.00240751
-0.00240751
-0.00240699
-0.00249641
-0.0024969
-0.0024969
-0.00249641
-0.00266956
-0.00266996
-0.00266996
-0.00266955
-0.00296541
-0.00296535
-0.00296534
-0.0029654
-0.00341129
-0.00341144
-0.00341144
-0.00341129
-0.00395495
-0.0039552
-0.0039552
-0.00395495
-0.00440016
-0.00440199
-0.00440199
-0.00440016
-0.00454085
-0.00454384
-0.00454384
-0.00454085
-0.00578529
-0.00578754
-0.00578754
-0.0057853
-0.00674981
-0.00675337
-0.00675337
-0.00674981
-0.00725981
-0.00726168
-0.00726168
-0.00725981
-0.00739191
-0.00739311
-0.00739311
-0.00739192
-0.00719499
-0.00719528
-0.00719528
-0.00719499
-0.00678342
-0.00678324
-0.00678324
-0.00678342
-0.00627842
-0.0062778
-0.0062778
-0.00627842
-0.00574923
-0.00574777
-0.00574777
-0.00574924
-0.00525856
-0.00525687
-0.00525687
-0.00525856
-0.00480369
-0.00480135
-0.00480135
-0.00480369
-0.00445025
-0.00444826
-0.00444826
-0.00445025
-0.00417452
-0.00417256
-0.00417256
-0.00417452
-0.0039745
-0.00397274
-0.00397274
-0.0039745
-0.00386404
-0.00386307
-0.00386307
-0.00386404
-0.00382678
-0.00382405
-0.00382405
-0.00382678
-0.00392349
-0.00392215
-0.00392215
-0.00392349
-0.00409622
-0.00409066
-0.00409066
-0.00409622
-0.00451942
-0.00451336
-0.00451336
-0.00451943
-0.00517842
-0.00517637
-0.00517637
-0.00517842
-0.00580983
-0.00580537
-0.00580537
-0.00580983
-0.00643716
-0.00642243
-0.00642243
-0.00643716
-0.00708636
-0.00706846
-0.00706846
-0.00708636
-0.00680492
-0.0067999
-0.0067999
-0.00680492
-0.00492273
-0.0049382
-0.0049382
-0.00492273
-0.00147478
-0.00147233
-0.00147233
-0.00147478
0.00207023
0.0020398
0.0020398
0.00207023
0.00691325
0.00692335
0.00692335
0.00691325
0.00936211
0.00935465
0.00935465
0.00936211
0.0117139
0.0117297
0.0117297
0.0117139
0.0128777
0.0128799
0.0128799
0.0128777
0.013592
0.0135923
0.0135923
0.013592
0.013757
0.0137542
0.0137542
0.013757
0.0134652
0.0134642
0.0134642
0.0134652
0.0129146
0.0129173
0.0129173
0.0129146
0.012217
0.0122176
0.0122176
0.012217
0.01148
0.0114809
0.0114809
0.01148
0.0107056
0.0107058
0.0107058
0.0107056
0.00994536
0.00994848
0.00994848
0.00994536
0.00920944
0.00921222
0.00921222
0.00920944
0.00854658
0.00854841
0.00854841
0.00854658
0.00796893
0.00796797
0.00796797
0.00796893
0.00748524
0.00748299
0.00748299
0.00748524
0.00890467
0.0089018
0.0089018
0.00890467
0.0102204
0.010217
0.010217
0.0102204
0.0114078
0.0114041
0.0114041
0.0114078
0.0124339
0.0124303
0.0124303
0.0124339
0.013281
0.0132778
0.0132778
0.013281
0.0139296
0.0139271
0.0139271
0.0139296
0.0143669
0.0143652
0.0143652
0.0143669
0.0145851
0.0145841
0.0145841
0.0145851
0.0145804
0.0145796
0.0145796
0.0145804
0.0143511
0.0143502
0.0143502
0.0143511
0.0139049
0.0139034
0.0139034
0.0139049
0.0132526
0.0132505
0.0132505
0.0132526
0.0124003
0.0123984
0.0123984
0.0124003
0.0113688
0.0113671
0.0113671
0.0113688
0.0101925
0.0101908
0.0101908
0.0101925
0.00888119
0.00887958
0.00887958
0.00888119
0.00747469
0.00747355
0.00747355
0.00747469
-0.00421349
-0.00421587
-0.00421587
-0.00421349
-0.00540915
-0.00540977
-0.00540978
-0.00540915
-0.00642039
-0.00642446
-0.00642447
-0.00642038
-0.00697257
-0.00697495
-0.00697496
-0.00697258
-0.0071831
-0.0071863
-0.0071863
-0.00718311
-0.00706889
-0.00707134
-0.00707134
-0.00706889
-0.00673263
-0.0067349
-0.0067349
-0.00673263
-0.00625101
-0.00625315
-0.00625315
-0.00625101
-0.00572634
-0.0057283
-0.0057283
-0.00572634
-0.00522192
-0.00522369
-0.00522369
-0.00522191
-0.00477217
-0.00477322
-0.00477322
-0.00477217
-0.00439935
-0.00439987
-0.00439987
-0.00439934
-0.00409694
-0.00409731
-0.00409731
-0.00409694
-0.00383473
-0.00383462
-0.00383462
-0.00383473
-0.00363849
-0.00363768
-0.00363768
-0.00363849
-0.00354684
-0.00354248
-0.00354248
-0.00354684
-0.00367833
-0.00367599
-0.00367599
-0.00367833
-0.00390588
-0.00390816
-0.00390816
-0.00390588
-0.00411478
-0.00411894
-0.00411894
-0.00411478