/*--------------------------------*- C++ -*----------------------------------*\
| =========                 |                                                 |
| \\      /  F ield         | OpenFOAM: The Open Source CFD Toolbox           |
|  \\    /   O peration     | Version:  v1806                                 |
|   \\  /    A nd           | Web:      www.OpenFOAM.com                      |
|    \\/     M anipulation  |                                                 |
\*---------------------------------------------------------------------------*/
FoamFile
{
    version     2.0;
    format      ascii;
    class       surfaceScalarField;
    location    "110";
    object      phi;
}
// * * * * * * * * * * * * * * * * * * * * * * * * * * * * * * * * * * * * * //

dimensions      [0 3 -1 0 0 0 0];
oriented        oriented;


internalField   nonuniform List<scalar> 
8600
(
0.0498284
-0.0638493
-0.0442611
0.058282
0.044011
-0.0764461
0.0822635
0.0355688
-0.0821978
0.09064
0.028796
-0.0861588
0.0929315
0.0239436
-0.0885854
0.0934379
0.0204982
-0.0899231
0.0933685
0.0180106
-0.0905332
0.0930208
0.0161618
-0.0906871
0.0925359
0.0147496
-0.0905762
0.0919884
0.0136478
-0.0903145
0.0914164
0.012774
-0.0899657
0.0908394
0.0120728
-0.0895665
0.0902677
0.0115055
-0.0891388
0.0897062
0.0110448
-0.0886964
0.089157
0.0106716
-0.0882472
0.0886204
0.0103718
-0.0877959
0.0880957
0.0101356
-0.0873448
0.0875811
0.00995542
-0.0868953
0.0870755
0.00982535
-0.0864552
0.0865852
-0.0860785
0.0861634
0.029811
-0.0618406
-0.0318198
0.0255025
-0.0721377
0.0224931
-0.0791884
0.0204136
-0.0840793
0.0187029
-0.0868747
0.0171544
-0.0883745
0.015776
-0.0891549
0.014596
-0.0895071
0.0136067
-0.0895869
0.0127818
-0.0894896
0.0120935
-0.0892774
0.0115181
-0.0889911
0.011037
-0.0886577
0.0106358
-0.0882952
0.0103038
-0.0879152
0.0100327
-0.0875249
0.00981649
-0.0871286
0.00965083
-0.0867297
0.00953239
-0.0863367
-0.0859963
0.024666
-0.0646546
-0.021852
0.025106
-0.0725777
0.023995
-0.0780774
0.0218469
-0.0819312
0.0195596
-0.0845875
0.0175551
-0.08637
0.0159089
-0.0875087
0.0145748
-0.0881731
0.0134893
-0.0885013
0.0125994
-0.0885997
0.0118656
-0.0885435
0.0112583
-0.0883837
0.0107552
-0.0881547
0.0103397
-0.0878797
0.00999899
-0.0875745
0.00972358
-0.0872494
0.00950643
-0.0869115
0.00934246
-0.0865657
0.00922703
-0.0862213
-0.0859208
0.0177516
-0.0676209
-0.0147853
0.0182057
-0.0730318
0.0176556
-0.0775273
0.0168017
-0.0810773
0.0158977
-0.0836835
0.0149839
-0.0854562
0.0140822
-0.0866069
0.0132318
-0.0873227
0.0124613
-0.0877308
0.011781
-0.0879195
0.0111897
-0.0879522
0.0106809
-0.087875
0.010247
-0.0877208
0.00988051
-0.0875132
0.00957502
-0.087269
0.00932521
-0.0869996
0.00912688
-0.0867131
0.00897675
-0.0864156
0.00887168
-0.0861162
-0.0858535
0.0141242
-0.0707872
-0.010958
0.0156666
-0.0745742
0.0161436
-0.0780043
0.01587
-0.0808037
0.0151579
-0.0829713
0.014284
-0.0845823
0.0134091
-0.085732
0.012599
-0.0865126
0.011874
-0.0870058
0.0112361
-0.0872816
0.0106807
-0.0873968
0.0102014
-0.0873956
0.00979125
-0.0873107
0.00944411
-0.0871661
0.00915444
-0.0869793
0.00891769
-0.0867629
0.00873023
-0.0865257
0.00858918
-0.0862745
0.00849178
-0.0860188
-0.0857929
0.010905
-0.0733865
-0.0083057
0.0123334
-0.0760026
0.0129158
-0.0785867
0.0129815
-0.0808693
0.0127584
-0.0827482
0.0123746
-0.0841985
0.0119033
-0.0852607
0.0113956
-0.086005
0.0108892
-0.0864994
0.0104085
-0.0868009
0.00996706
-0.0869554
0.00957108
-0.0869996
0.00922258
-0.0869621
0.00892132
-0.0868648
0.00866606
-0.0867241
0.00845521
-0.086552
0.00828723
-0.0863577
0.00816071
-0.086148
0.00807392
-0.085932
-0.0857399
0.00879257
-0.0756727
-0.00650634
0.0103188
-0.0775289
0.0111899
-0.0794578
0.011549
-0.0812283
0.0115386
-0.0827379
0.0112986
-0.0839585
0.0109375
-0.0848996
0.0105254
-0.0855929
0.0101037
-0.0860777
0.00969603
-0.0863932
0.00931561
-0.086575
0.0089696
-0.0866536
0.00866151
-0.0866541
0.00839271
-0.086596
0.00816338
-0.0864947
0.0079731
-0.0863618
0.00782125
-0.0862058
0.00770713
-0.0860339
0.00762952
-0.0858544
-0.0856936
0.00710631
-0.0775324
-0.00524657
0.00843638
-0.078859
0.00927409
-0.0802955
0.00972134
-0.0816756
0.00988483
-0.0829014
0.0098523
-0.083926
0.00969131
-0.0847386
0.00945138
-0.085353
0.0091694
-0.0857957
0.00887225
-0.086096
0.00857848
-0.0862812
0.00830025
-0.0863754
0.00804518
-0.086399
0.00781782
-0.0863687
0.00762081
-0.0862977
0.00745559
-0.0861965
0.00732289
-0.0860731
0.00722304
-0.085934
0.00715553
-0.0857869
-0.085654
0.00584634
-0.0791227
-0.00425604
0.00706917
-0.0800818
0.00792149
-0.0811478
0.00844758
-0.0822017
0.00870921
-0.083163
0.00877293
-0.0839897
0.00870072
-0.0846664
0.00854288
-0.0851951
0.00833592
-0.0855888
0.00810554
-0.0858656
0.00786963
-0.0860453
0.00764044
-0.0861462
0.00742625
-0.0861848
0.00723252
-0.0861749
0.00706281
-0.086128
0.00691941
-0.0860531
0.00680376
-0.0859575
0.00671672
-0.085847
0.00665827
-0.0857285
-0.0856204
0.0048421
-0.080432
-0.00353283
0.00588991
-0.0811296
0.00666214
-0.08192
0.00718212
-0.0827217
0.0074915
-0.0834724
0.00763556
-0.0841337
0.00765616
-0.084687
0.00758955
-0.0851285
0.00746548
-0.0854647
0.00730722
-0.0857074
0.00713251
-0.0858706
0.00695447
-0.0859682
0.00678255
-0.0860129
0.00662341
-0.0860158
0.00648168
-0.0859863
0.00636054
-0.085932
0.00626217
-0.0858591
0.00618799
-0.0857728
0.00613844
-0.0856789
-0.0855925
0.004029
-0.0815441
-0.00291688
0.0049487
-0.0820493
0.00565849
-0.0826298
0.0061663
-0.0832295
0.00649564
-0.0838017
0.00667759
-0.0843157
0.00674517
-0.0847546
0.00672904
-0.0851124
0.00665537
-0.085391
0.00654507
-0.0855971
0.00641429
-0.0857398
0.0062753
-0.0858292
0.00613727
-0.0858748
0.00600694
-0.0858855
0.00588922
-0.0858686
0.00578761
-0.0858304
0.00570462
-0.0857761
0.00564195
-0.0857101
0.00560033
-0.0856373
-0.0855696
0.00336099
-0.082465
-0.00244012
0.00414098
-0.0828293
0.00476321
-0.0832521
0.0052287
-0.083695
0.00555154
-0.0841246
0.00575267
-0.0845168
0.00585519
-0.0848571
0.00588163
-0.0851388
0.00585238
-0.0853618
0.00578499
-0.0855297
0.00569384
-0.0856486
0.00559032
-0.0857257
0.00548331
-0.0857678
0.00537956
-0.0857817
0.00528412
-0.0857731
0.00520073
-0.085747
0.00513211
-0.0857075
0.00508016
-0.0856582
0.00504583
-0.085603
-0.085551
0.00279009
-0.0832386
-0.0020165
0.00345654
-0.0834957
0.0040012
-0.0837967
0.0044219
-0.0841157
0.00472624
-0.0844289
0.00492808
-0.0847187
0.00504447
-0.0849735
0.00509313
-0.0851875
0.00509077
-0.0853594
0.00505208
-0.085491
0.00498946
-0.085586
0.00491301
-0.0856492
0.00483074
-0.0856856
0.00474893
-0.0856999
0.00467236
-0.0856965
0.00460469
-0.0856793
0.00454862
-0.0856514
0.00450609
-0.0856157
0.00447813
-0.085575
-0.0855363
0.00230188
-0.0838728
-0.00166768
0.0028563
-0.0840502
0.00331852
-0.0842589
0.00368479
-0.0844819
0.00395895
-0.0847031
0.00415009
-0.0849098
0.00427017
-0.0850935
0.00433222
-0.0852496
0.00434906
-0.0853763
0.00433249
-0.0854744
0.00429281
-0.0855464
0.00423876
-0.0855952
0.00417743
-0.0856242
0.00411451
-0.085637
0.00405445
-0.0856365
0.00400068
-0.0856255
0.00395577
-0.0856065
0.00392161
-0.0855815
0.00389927
-0.0855527
-0.0855248
0.00186702
-0.0843909
-0.00134891
0.00232419
-0.0845073
0.00271049
-0.0846452
0.00302214
-0.0847936
0.00326094
-0.0849419
0.00343276
-0.0850816
0.00354614
-0.0852069
0.00361089
-0.0853143
0.00363699
-0.0854024
0.00363386
-0.0854713
0.00360992
-0.0855224
0.00357242
-0.0855577
0.0035274
-0.0855792
0.00347977
-0.0855893
0.00343343
-0.0855902
0.00339144
-0.0855835
0.00335612
-0.0855712
0.00332918
-0.0855546
0.00331166
-0.0855351
-0.085516
0.00147897
-0.0847992
-0.00107066
0.00184247
-0.0848708
0.00215331
-0.0849561
0.00240783
-0.0850481
0.00260652
-0.0851406
0.00275312
-0.0852282
0.00285352
-0.0853073
0.00291479
-0.0853756
0.00294436
-0.0854319
0.00294943
-0.0854764
0.00293662
-0.0855096
0.00291176
-0.0855328
0.00287977
-0.0855472
0.00284476
-0.0855543
0.00281002
-0.0855554
0.00277814
-0.0855517
0.00275113
-0.0855442
0.00273048
-0.0855339
0.00271711
-0.0855218
-0.0855096
0.00112018
-0.08511
-0.000809398
0.00139836
-0.085149
0.00163792
-0.0851956
0.00183593
-0.0852461
0.00199244
-0.0852971
0.0021098
-0.0853456
0.00219206
-0.0853896
0.00224423
-0.0854277
0.00227173
-0.0854594
0.00227992
-0.0854846
0.00227379
-0.0855035
0.00225779
-0.0855168
0.00223573
-0.0855252
0.00221082
-0.0855294
0.00218567
-0.0855303
0.00216235
-0.0855283
0.00214248
-0.0855243
0.00212724
-0.0855187
0.00211744
-0.085512
-0.0855051
0.000786149
-0.0853273
-0.000568824
0.000981874
-0.0853447
0.00115133
-0.0853651
0.00129242
-0.0853872
0.00140494
-0.0854096
0.00149033
-0.085431
0.00155116
-0.0854504
0.00159075
-0.0854673
0.00161275
-0.0854814
0.00162082
-0.0854926
0.00161844
-0.0855011
0.00160874
-0.0855071
0.00159444
-0.0855109
0.00157784
-0.0855128
0.00156083
-0.0855133
0.00154492
-0.0855124
0.0015313
-0.0855107
0.00152083
-0.0855082
0.00151412
-0.0855053
-0.0855021
0.00046663
-0.085458
-0.000335967
0.000583479
-0.0854616
0.000684823
-0.0854664
0.000769476
-0.0854719
0.000837303
-0.0854774
0.000889066
-0.0854827
0.000926225
-0.0854876
0.000950687
-0.0854918
0.000964582
-0.0854953
0.000970072
-0.0854981
0.000969215
-0.0855002
0.000963877
-0.0855017
0.000955695
-0.0855027
0.000946053
-0.0855032
0.000936099
-0.0855033
0.000926756
-0.0855031
0.000918736
-0.0855027
0.000912565
-0.0855021
0.000908611
-0.0855013
-0.0855005
0.000155856
-0.000113815
0.00019426
0.000227818
0.00025595
0.000278535
0.000295801
0.000308219
0.000316416
0.000321095
0.00032297
0.000322726
0.000320982
0.000318285
0.000315097
0.0003118
0.000308699
0.000306035
0.000303983
0.00030268
-0.0393911
-0.00695617
0.0463473
-0.0333503
-0.00604078
-0.0279648
-0.00538553
-0.0230851
-0.00487967
-0.018605
-0.00448007
-0.0144397
-0.00416537
-0.010517
-0.0039227
-0.00677444
-0.00374253
-0.00315622
-0.00361822
0.000389181
-0.0035454
0.00391074
-0.00352156
0.00745666
-0.00354592
0.0110761
-0.00361942
0.014821
-0.00374491
0.0187486
-0.00392759
0.0229246
-0.00417601
0.0274287
-0.00450409
0.0323641
-0.00493542
0.037882
-0.00551794
-0.00637904
-0.0253778
-0.00900496
0.0274266
-0.0228818
-0.00853678
-0.0201457
-0.00812165
-0.0172597
-0.00776562
-0.014273
-0.00746683
-0.0112164
-0.00722195
-0.00811135
-0.00702772
-0.00497255
-0.00688133
-0.00181017
-0.00678061
0.0013685
-0.00672407
0.00455782
-0.00671088
0.00775279
-0.00674089
0.010948
-0.00681466
0.0141367
-0.00693353
0.0173088
-0.00709978
0.0204498
-0.00731695
0.023536
-0.0075903
0.0265284
-0.00792785
0.0293538
-0.00834332
-0.00884501
-0.0165241
-0.0102435
0.0177626
-0.0150464
-0.0100144
-0.013365
-0.00980314
-0.0115179
-0.00961263
-0.00953965
-0.00944513
-0.00745917
-0.00930244
-0.00530089
-0.009186
-0.00308535
-0.00909687
-0.000830114
-0.00903584
0.00144927
-0.00900345
0.00373846
-0.00900007
0.00602356
-0.00902599
0.00829025
-0.00908136
0.010523
-0.0091663
0.0127041
-0.00928085
0.0148121
-0.00942498
0.0168205
-0.00959864
0.0186947
-0.00980207
0.0203879
-0.0100365
-0.0103091
-0.0101716
-0.0112299
0.0111581
-0.00909827
-0.0110877
-0.00794512
-0.0109563
-0.00671999
-0.0108378
-0.00543126
-0.0107338
-0.00408787
-0.0106458
-0.00269919
-0.0105747
-0.00127495
-0.0105211
0.000174863
-0.0104857
0.00164011
-0.0104687
0.00311052
-0.0104705
0.00457569
-0.0104912
0.00602507
-0.0105307
0.00744796
-0.0105892
0.00883346
-0.0106664
0.0101705
-0.010762
0.0114476
-0.0108758
0.012653
-0.0110075
0.0137735
-0.011157
-0.0113209
-0.00730438
-0.0119716
0.00804608
-0.00650307
-0.0118891
-0.00564596
-0.0118134
-0.00473822
-0.0117455
-0.00378592
-0.0116862
-0.00279568
-0.0116361
-0.00177446
-0.0115959
-0.000729409
-0.0115662
0.000332212
-0.0115473
0.00140308
-0.0115396
0.00247582
-0.0115432
0.00354299
-0.0115583
0.0045971
-0.0115849
0.00563056
-0.0116226
0.00663566
-0.0116715
0.00760455
-0.0117309
0.00852923
-0.0118005
0.00940146
-0.0118797
0.0102124
-0.011968
-0.0120664
-0.00503276
-0.0125749
0.00563607
-0.00440138
-0.0125205
-0.00374399
-0.0124708
-0.00306299
-0.0124265
-0.00236105
-0.0123881
-0.00164111
-0.012356
-0.000906401
-0.0123306
-0.000160348
-0.0123122
0.000593416
-0.012301
0.00135112
-0.0122973
0.00210891
-0.012301
0.00286285
-0.0123123
0.00360903
-0.012331
0.00434358
-0.0123572
0.00506275
-0.0123906
0.00576291
-0.012431
0.00644064
-0.0124782
0.00709273
-0.0125318
0.00771621
-0.0125915
-0.0126559
-0.00379486
-0.0130489
0.00426882
-0.00330112
-0.0130142
-0.00278901
-0.0129829
-0.00226019
-0.0129553
-0.00171662
-0.0129317
-0.00116045
-0.0129122
-0.00059403
-0.012897
-1.98514e-05
-0.0128864
0.000559488
-0.0128804
0.00114131
-0.0128791
0.00172288
-0.0128826
0.00230145
-0.0128908
0.00287427
-0.0129039
0.00343863
-0.0129216
0.00399185
-0.0129438
0.00453135
-0.0129705
0.00505465
-0.0130015
0.00555943
-0.0130366
0.00604344
-0.0130755
-0.0131188
-0.00282466
-0.0134396
0.00321534
-0.00242306
-0.0134158
-0.00201154
-0.0133944
-0.00159116
-0.0133757
-0.00116309
-0.0133597
-0.000728568
-0.0133467
-0.000288892
-0.0133367
0.000154562
-0.0133298
0.000600375
-0.0133262
0.00104709
-0.0133258
0.00149323
-0.0133287
0.0019373
-0.0133349
0.00237784
-0.0133444
0.00281339
-0.0133571
0.00324255
-0.013373
0.00366396
-0.013392
0.00407635
-0.0134139
0.0044785
-0.0134387
0.00486927
-0.0134662
-0.0134961
-0.00220764
-0.0137557
0.00252375
-0.00188376
-0.0137397
-0.00155277
-0.0137254
-0.00121544
-0.013713
-0.000872586
-0.0137026
-0.0005251
-0.0136942
-0.000173931
-0.0136879
0.000179925
-0.0136837
0.000535437
-0.0136817
0.000891548
-0.0136819
0.00124719
-0.0136843
0.00160127
-0.013689
0.00195273
-0.0136959
0.00230052
-0.0137049
0.0026436
-0.0137161
0.00298097
-0.0137293
0.0033117
-0.0137446
0.0036349
-0.0137619
0.00394972
-0.0137811
-0.0138024
-0.00172395
-0.0140191
0.00198734
-0.00145575
-0.0140079
-0.00118323
-0.0139979
-0.000906921
-0.0139893
-0.000627377
-0.0139821
-0.000345179
-0.0139764
-6.09314e-05
-0.0139721
0.000224747
-0.0139694
0.000511221
-0.0139682
0.000797848
-0.0139685
0.00108398
-0.0139705
0.00136896
-0.013974
0.00165216
-0.0139791
0.00193293
-0.0139857
0.00221066
-0.0139938
0.00248474
-0.0140034
0.00275459
-0.0140145
0.00301965
-0.014027
0.00327937
-0.0140408
-0.0140559
-0.00137922
-0.0142358
0.00159592
-0.00115904
-0.014228
-0.000935739
-0.0142212
-0.000709687
-0.0142154
-0.000481289
-0.0142105
-0.000250969
-0.0142067
-1.91665e-05
-0.0142039
0.000213662
-0.0142022
0.000447049
-0.0142016
0.000680519
-0.014202
0.000913594
-0.0142036
0.00114579
-0.0142062
0.00137663
-0.0142099
0.00160565
-0.0142147
0.00183238
-0.0142205
0.00205637
-0.0142274
0.00227719
-0.0142353
0.00249444
-0.0142442
0.00270771
-0.0142541
-0.014265
-0.00110377
-0.0144167
0.00128472
-0.000920483
-0.0144113
-0.000735123
-0.0144066
-0.000547969
-0.0144025
-0.000359309
-0.0143992
-0.000169439
-0.0143966
2.13336e-05
-0.0143947
0.000212698
-0.0143936
0.000404339
-0.0143932
0.000595936
-0.0143936
0.000787169
-0.0143948
0.000977718
-0.0143967
0.00116726
-0.0143994
0.00135549
-0.0144029
0.00154209
-0.0144071
0.00172676
-0.0144121
0.0019092
-0.0144178
0.00208912
-0.0144241
0.00226625
-0.0144312
-0.0144389
-0.000890276
-0.0145658
0.00103934
-0.000739502
-0.0145621
-0.000587211
-0.0145589
-0.000433608
-0.0145561
-0.000278906
-0.0145539
-0.000123325
-0.0145522
3.291e-05
-0.0145509
0.000189566
-0.0145502
0.000346407
-0.01455
0.000503196
-0.0145504
0.000659692
-0.0145513
0.000815655
-0.0145527
0.000970847
-0.0145546
0.00112503
-0.0145571
0.00127798
-0.0145601
0.00142946
-0.0145636
0.00157925
-0.0145675
0.00172714
-0.014572
0.00187292
-0.014577
-0.0145825
-0.000713793
-0.0146887
0.00083671
-0.000589667
-0.0146862
-0.000464483
-0.0146841
-0.000338391
-0.0146822
-0.000211551
-0.0146807
-8.41228e-05
-0.0146796
4.37285e-05
-0.0146788
0.000171836
-0.0146783
0.000300031
-0.0146782
0.000428143
-0.0146785
0.000556002
-0.0146791
0.000683437
-0.0146801
0.00081028
-0.0146815
0.00093636
-0.0146832
0.00106151
-0.0146852
0.00118558
-0.0146876
0.00130839
-0.0146904
0.00142979
-0.0146934
0.00154963
-0.0146968
-0.0147005
-0.000567555
-0.0147879
0.00066673
-0.000467494
-0.0147863
-0.000366657
-0.0147849
-0.000265158
-0.0147837
-0.000163113
-0.0147828
-6.06425e-05
-0.0147821
4.21326e-05
-0.0147816
0.000145087
-0.0147813
0.000248097
-0.0147813
0.000351033
-0.0147814
0.00045377
-0.0147819
0.000556181
-0.0147825
0.000658138
-0.0147834
0.000759516
-0.0147846
0.000860192
-0.0147859
0.000960043
-0.0147875
0.00105895
-0.0147893
0.0011568
-0.0147913
0.00125347
-0.0147935
-0.014796
-0.000441219
-0.0148664
0.00051973
-0.000362077
-0.0148654
-0.000282386
-0.0148646
-0.00020223
-0.0148639
-0.000121695
-0.0148633
-4.08698e-05
-0.0148629
4.01579e-05
-0.0148626
0.000121298
-0.0148624
0.000202459
-0.0148624
0.000283549
-0.0148625
0.000364478
-0.0148628
0.000445154
-0.0148632
0.000525485
-0.0148638
0.000605381
-0.0148644
0.000684752
-0.0148653
0.00076351
-0.0148662
0.000841568
-0.0148673
0.000918841
-0.0148685
0.000995245
-0.0148699
-0.0148714
-0.000330117
-0.0149257
0.000389371
-0.000270416
-0.0149251
-0.000210328
-0.0149247
-0.000149913
-0.0149243
-8.92309e-05
-0.014924
-2.8345e-05
-0.0149238
3.26813e-05
-0.0149236
9.37837e-05
-0.0149235
0.000154898
-0.0149235
0.000215957
-0.0149236
0.000276898
-0.0149237
0.000337654
-0.014924
0.000398161
-0.0149243
0.000458353
-0.0149246
0.000518167
-0.0149251
0.000577539
-0.0149256
0.000636407
-0.0149262
0.000694709
-0.0149268
0.000752386
-0.0149276
-0.0149284
-0.000229135
-0.0149672
0.000270715
-0.000187261
-0.014967
-0.000145133
-0.0149668
-0.00010279
-0.0149666
-6.02751e-05
-0.0149665
-1.76296e-05
-0.0149664
2.51035e-05
-0.0149663
6.78812e-05
-0.0149663
0.00011066
-0.0149663
0.000153397
-0.0149663
0.000196047
-0.0149664
0.000238568
-0.0149665
0.000280916
-0.0149666
0.000323048
-0.0149668
0.00036492
-0.014967
0.000406488
-0.0149672
0.000447711
-0.0149674
0.000488543
-0.0149677
0.00052894
-0.014968
-0.0149683
-0.000135041
-0.0149918
0.000159605
-0.000110309
-0.0149917
-8.54315e-05
-0.0149917
-6.04318e-05
-0.0149916
-3.53341e-05
-0.0149916
-1.01627e-05
-0.0149916
1.50576e-05
-0.0149916
4.03016e-05
-0.0149916
6.55442e-05
-0.0149916
9.07599e-05
-0.0149916
0.000115923
-0.0149916
0.000141009
-0.0149916
0.000165992
-0.0149916
0.000190847
-0.0149916
0.00021555
-0.0149917
0.000240075
-0.0149917
0.000264398
-0.0149917
0.000288493
-0.0149918
0.000312334
-0.0149918
-0.0149919
-4.47287e-05
5.29348e-05
-3.64673e-05
-2.81561e-05
-1.98032e-05
-1.14161e-05
-3.00212e-06
5.43122e-06
1.38765e-05
2.23265e-05
3.0774e-05
3.92122e-05
4.76344e-05
5.60345e-05
6.44071e-05
7.27473e-05
8.10514e-05
8.93166e-05
9.75419e-05
0.000105729
-0.0260618
-0.0144182
0.0153309
0.0251492
-0.027079
-0.0143344
0.0153516
-0.0282506
-0.0142346
0.0154063
-0.0295946
-0.0141328
0.0154767
-0.0311238
-0.0140318
0.015561
-0.0328435
-0.0139343
0.015654
-0.0347482
-0.0138419
0.0157466
-0.0368184
-0.0137548
0.0158249
-0.039018
-0.01367
0.0158696
-0.0412933
-0.0135814
0.0158568
-0.0435728
-0.0134785
0.015758
-0.045769
-0.0133458
0.015542
-0.0477813
-0.0131633
0.0151756
-0.0495004
-0.0129063
0.0146254
-0.0508116
-0.0125465
0.0138577
-0.0515956
-0.0120538
0.0128377
-0.0517223
-0.0113988
0.0115255
-0.0510387
-0.0105546
0.00987104
-0.0493553
-0.0094898
0.00780639
-0.00816332
0.00515528
-0.0189783
-0.0142214
0.0187814
-0.0191898
-0.0141229
-0.0194083
-0.014016
-0.0196476
-0.0138935
-0.0199247
-0.0137547
-0.02026
-0.0135989
-0.020676
-0.0134259
-0.0211944
-0.0132363
-0.0218332
-0.0130313
-0.0226025
-0.0128121
-0.0235007
-0.0125803
-0.02451
-0.0123364
-0.0255935
-0.0120798
-0.0266922
-0.0118076
-0.0277239
-0.0115148
-0.0285831
-0.0111946
-0.0291431
-0.0108388
-0.029259
-0.0104386
-0.0287606
-0.00998826
-0.00949731
-0.020178
-0.0139178
0.0198744
-0.0204671
-0.0138339
-0.0207419
-0.0137412
-0.0209934
-0.0136421
-0.0212128
-0.0135354
-0.021392
-0.0134197
-0.0215246
-0.0132933
-0.0216062
-0.0131548
-0.021635
-0.0130024
-0.0216121
-0.0128351
-0.0215406
-0.0126518
-0.0214244
-0.0124526
-0.0212662
-0.012238
-0.0210647
-0.0120092
-0.0208112
-0.0117683
-0.020488
-0.0115178
-0.0200661
-0.0112607
-0.0195045
-0.0110003
-0.0187521
-0.0107406
-0.0104868
-0.0150746
-0.013822
0.0149788
-0.0151768
-0.0137317
-0.0152811
-0.0136368
-0.0153859
-0.0135373
-0.015488
-0.0134333
-0.0155827
-0.0133249
-0.0156636
-0.0132125
-0.0157223
-0.0130961
-0.0157491
-0.0129756
-0.015733
-0.0128512
-0.0156624
-0.0127224
-0.0155259
-0.0125891
-0.0153127
-0.0124511
-0.0150138
-0.0123081
-0.0146219
-0.0121602
-0.0141318
-0.0120079
-0.0135405
-0.011852
-0.0128468
-0.011694
-0.0120515
-0.0115359
-0.0113803
-0.0137903
-0.0138571
0.0138254
-0.0137349
-0.013787
-0.0136591
-0.0137126
-0.013562
-0.0136344
-0.0134428
-0.0135525
-0.0133009
-0.0134668
-0.0131361
-0.0133773
-0.0129479
-0.0132842
-0.0127358
-0.0131878
-0.0124987
-0.0130882
-0.0122352
-0.012986
-0.0119426
-0.0128817
-0.0116177
-0.012776
-0.0112562
-0.0126695
-0.0108534
-0.0125631
-0.0104038
-0.0124575
-0.00990228
-0.0123535
-0.00934419
-0.0122521
-0.00872606
-0.012154
-0.0120603
-0.0111279
-0.0139137
0.0111845
-0.0110609
-0.0138541
-0.010981
-0.0137925
-0.0108859
-0.0137295
-0.0107733
-0.0136651
-0.0106406
-0.0135994
-0.0104854
-0.0135325
-0.0103052
-0.0134645
-0.0100975
-0.0133955
-0.00986017
-0.0133255
-0.00959137
-0.0132548
-0.00928956
-0.0131835
-0.00895362
-0.0131119
-0.00858285
-0.0130403
-0.00817697
-0.0129689
-0.00773609
-0.0128983
-0.00726067
-0.0128289
-0.00675145
-0.0127613
-0.00620948
-0.012696
-0.0126337
-0.00954104
-0.0140332
0.00966057
-0.00940882
-0.0139863
-0.00926328
-0.013938
-0.00910413
-0.0138886
-0.00893104
-0.0138382
-0.00874364
-0.0137868
-0.00854151
-0.0137347
-0.00832414
-0.0136819
-0.00809093
-0.0136287
-0.00784122
-0.0135752
-0.00757422
-0.0135218
-0.00728911
-0.0134686
-0.00698503
-0.013416
-0.0066611
-0.0133642
-0.00631655
-0.0133135
-0.00595072
-0.0132642
-0.00556311
-0.0132165
-0.00515349
-0.0131709
-0.00472194
-0.0131276
-0.0130868
-0.00796491
-0.0141501
0.00808177
-0.00783777
-0.0141134
-0.00769981
-0.014076
-0.00755023
-0.0140382
-0.00738831
-0.0140001
-0.00721334
-0.0139618
-0.00702469
-0.0139233
-0.0068218
-0.0138848
-0.0066042
-0.0138463
-0.00637151
-0.0138079
-0.00612349
-0.0137698
-0.00585999
-0.0137321
-0.00558098
-0.013695
-0.00528656
-0.0136586
-0.00497693
-0.0136231
-0.0046524
-0.0135887
-0.00431341
-0.0135555
-0.00396048
-0.0135238
-0.00359422
-0.0134938
-0.0134657
-0.00673075
-0.0142794
0.00686005
-0.00659335
-0.0142508
-0.00644735
-0.014222
-0.00629261
-0.014193
-0.00612897
-0.0141638
-0.00595627
-0.0141345
-0.00577436
-0.0141052
-0.00558307
-0.0140761
-0.00538225
-0.0140471
-0.00517176
-0.0140184
-0.00495145
-0.0139901
-0.00472121
-0.0139624
-0.00448097
-0.0139353
-0.00423069
-0.0139089
-0.00397038
-0.0138834
-0.00370011
-0.013859
-0.00342004
-0.0138356
-0.0031304
-0.0138135
-0.0028315
-0.0137927
-0.0137734
-0.00568314
-0.0143995
0.00580325
-0.00555604
-0.0143779
-0.0054219
-0.0143561
-0.0052805
-0.0143344
-0.00513166
-0.0143126
-0.00497522
-0.0142909
-0.00481105
-0.0142694
-0.00463907
-0.014248
-0.00445921
-0.0142269
-0.00427147
-0.0142061
-0.00407586
-0.0141857
-0.00387246
-0.0141658
-0.00366139
-0.0141463
-0.00344279
-0.0141275
-0.00321687
-0.0141093
-0.00298388
-0.014092
-0.00274408
-0.0140754
-0.00249782
-0.0140597
-0.00224543
-0.0140451
-0.0140315
-0.00478626
-0.0145137
0.00490047
-0.00466688
-0.0144973
-0.00454209
-0.0144809
-0.00441186
-0.0144646
-0.00427614
-0.0144483
-0.0041349
-0.0144322
-0.00398813
-0.0144162
-0.00383581
-0.0144004
-0.00367796
-0.0143848
-0.00351459
-0.0143695
-0.00334573
-0.0143546
-0.00317145
-0.0143401
-0.00299181
-0.014326
-0.00280691
-0.0143124
-0.00261688
-0.0142994
-0.00242187
-0.014287
-0.00222204
-0.0142752
-0.00201761
-0.0142642
-0.00180882
-0.0142539
-0.0142444
-0.00403542
-0.0146159
0.00413768
-0.00392876
-0.014604
-0.00381775
-0.0145919
-0.00370234
-0.01458
-0.0035825
-0.0145682
-0.00345823
-0.0145564
-0.00332952
-0.0145449
-0.0031964
-0.0145335
-0.00305889
-0.0145223
-0.00291706
-0.0145113
-0.00277096
-0.0145007
-0.00262068
-0.0144903
-0.00246634
-0.0144803
-0.00230806
-0.0144707
-0.00214597
-0.0144615
-0.00198024
-0.0144527
-0.00181105
-0.0144444
-0.00163859
-0.0144366
-0.00146307
-0.0144294
-0.0144228
-0.00336872
-0.014707
0.00345976
-0.00327443
-0.0146983
-0.00317679
-0.0146896
-0.00307582
-0.014681
-0.00297151
-0.0146725
-0.00286389
-0.0146641
-0.00275297
-0.0146558
-0.0026388
-0.0146476
-0.0025214
-0.0146397
-0.00240084
-0.0146319
-0.00227716
-0.0146244
-0.00215044
-0.014617
-0.00202077
-0.01461
-0.00188822
-0.0146032
-0.00175291
-0.0145968
-0.00161495
-0.0145907
-0.00147447
-0.0145849
-0.0013316
-0.0145795
-0.00118651
-0.0145745
-0.0145699
-0.00279516
-0.0147854
0.00287357
-0.00271405
-0.0147794
-0.0026303
-0.0147733
-0.0025439
-0.0147674
-0.00245488
-0.0147615
-0.00236325
-0.0147557
-0.00226904
-0.01475
-0.00217228
-0.0147444
-0.00207302
-0.0147389
-0.00197131
-0.0147336
-0.00186721
-0.0147285
-0.00176079
-0.0147235
-0.00165213
-0.0147187
-0.0015413
-0.0147141
-0.0014284
-0.0147097
-0.00131354
-0.0147055
-0.00119682
-0.0147016
-0.00107836
-0.014698
-0.000958278
-0.0146946
-0.0146915
-0.00227279
-0.0148515
0.00233893
-0.00220467
-0.0148475
-0.00213453
-0.0148435
-0.0020624
-0.0148395
-0.00198829
-0.0148356
-0.00191222
-0.0148318
-0.00183422
-0.014828
-0.00175432
-0.0148243
-0.00167257
-0.0148207
-0.001589
-0.0148172
-0.00150367
-0.0148138
-0.00141662
-0.0148105
-0.00132791
-0.0148074
-0.00123762
-0.0148044
-0.0011458
-0.0148015
-0.00105254
-0.0147988
-0.000957913
-0.0147962
-0.000862008
-0.0147939
-0.000764915
-0.0147917
-0.0147897
-0.00180571
-0.0149053
0.00185943
-0.00175041
-0.0149028
-0.00169357
-0.0149003
-0.00163521
-0.0148979
-0.00157533
-0.0148955
-0.00151397
-0.0148931
-0.00145115
-0.0148908
-0.00138689
-0.0148886
-0.00132122
-0.0148864
-0.0012542
-0.0148842
-0.00118585
-0.0148821
-0.00111621
-0.0148801
-0.00104535
-0.0148782
-0.000973312
-0.0148764
-0.00090015
-0.0148747
-0.000825925
-0.014873
-0.000750701
-0.0148715
-0.000674547
-0.01487
-0.000597532
-0.0148687
-0.0148675
-0.00136886
-0.0149468
0.00141044
-0.00132619
-0.0149455
-0.00128239
-0.0149441
-0.0012375
-0.0149428
-0.00119151
-0.0149415
-0.00114446
-0.0149402
-0.00109636
-0.0149389
-0.00104724
-0.0149377
-0.000997108
-0.0149365
-0.000946007
-0.0149353
-0.000893963
-0.0149342
-0.000841008
-0.0149331
-0.000787178
-0.0149321
-0.00073251
-0.0149311
-0.000677046
-0.0149301
-0.000620829
-0.0149292
-0.000563903
-0.0149284
-0.000506318
-0.0149276
-0.000448123
-0.0149269
-0.0149262
-0.000961901
-0.0149763
0.00099139
-0.000931602
-0.0149758
-0.000900528
-0.0149752
-0.00086869
-0.0149746
-0.000836102
-0.0149741
-0.00080278
-0.0149735
-0.000768738
-0.014973
-0.000733994
-0.0149724
-0.000698567
-0.0149719
-0.000662476
-0.0149714
-0.000625743
-0.0149709
-0.000588392
-0.0149705
-0.000550448
-0.01497
-0.000511938
-0.0149696
-0.000472891
-0.0149692
-0.000433338
-0.0149688
-0.000393309
-0.0149684
-0.000352839
-0.0149681
-0.000311962
-0.0149678
-0.0149675
-0.000569388
-0.014994
0.000587027
-0.00055134
-0.0149938
-0.000532838
-0.0149937
-0.000513892
-0.0149936
-0.000494512
-0.0149934
-0.000474706
-0.0149933
-0.000454483
-0.0149932
-0.000433855
-0.0149931
-0.000412832
-0.0149929
-0.000391426
-0.0149928
-0.00036965
-0.0149927
-0.000347518
-0.0149926
-0.000325044
-0.0149925
-0.000302245
-0.0149924
-0.000279136
-0.0149923
-0.000255736
-0.0149922
-0.000232064
-0.0149921
-0.000208137
-0.014992
-0.000183977
-0.0149919
-0.0149919
-0.000190707
0.000196748
-0.000184507
-0.000178188
-0.000171746
-0.000165181
-0.00015849
-0.000151673
-0.000144732
-0.000137669
-0.000130485
-0.000123184
-0.000115769
-0.000108244
-0.000100615
-9.28852e-05
-8.50609e-05
-7.71476e-05
-6.91514e-05
-6.10786e-05
-0.0146119
-0.00379344
0.0184053
-0.0115652
-0.00304671
-0.00908898
-0.0024762
-0.0070672
-0.00202179
-0.00541654
-0.00165066
-0.00407363
-0.00134291
-0.00298854
-0.00108509
-0.00212093
-0.000867609
-0.00143751
-0.00068342
-0.000910297
-0.000527213
-0.000515378
-0.000394919
-0.000231974
-0.000283404
-4.16828e-05
-0.000190291
7.21795e-05
-0.000113862
0.00012526
-5.3081e-05
0.000133426
-8.16609e-06
0.000108369
2.50579e-05
6.59791e-05
4.23894e-05
2.32431e-05
4.27359e-05
2.32431e-05
-0.0129571
-0.00518452
0.0143481
-0.0114737
-0.00453006
-0.0100043
-0.00394564
-0.0086038
-0.00342225
-0.00730215
-0.00295232
-0.00611493
-0.00253013
-0.005049
-0.00215102
-0.00410554
-0.00181107
-0.00328197
-0.00150699
-0.00257322
-0.00123596
-0.0019725
-0.000995638
-0.00147188
-0.000784021
-0.00106271
-0.000599465
-0.00073592
-0.00044065
-0.000482424
-0.000306577
-0.000294028
-0.000196562
-0.000158775
-0.000110195
-6.89438e-05
-4.74414e-05
-1.79527e-05
-8.25508e-06
5.29042e-06
-0.010533
-0.00612204
0.0114705
-0.00953566
-0.00552735
-0.00851941
-0.00496189
-0.00751498
-0.00442668
-0.00654506
-0.00392224
-0.00562617
-0.00344902
-0.00476992
-0.00300726
-0.00398398
-0.00259702
-0.00327284
-0.00221813
-0.00263849
-0.00187031
-0.00208093
-0.0015532
-0.00159858
-0.00126637
-0.00118867
-0.00100937
-0.000847555
-0.000781762
-0.000571014
-0.000583118
-0.000354507
-0.00041307
-0.000193386
-0.000271316
-8.32072e-05
-0.00015762
-1.96203e-05
-7.1842e-05
-1.43298e-05
-0.00873345
-0.00694306
0.00955447
-0.00790865
-0.00635216
-0.00709291
-0.00577764
-0.00629717
-0.00522242
-0.00553073
-0.00468868
-0.00480138
-0.00417837
-0.00411548
-0.00369316
-0.00347803
-0.00323447
-0.00289273
-0.00280343
-0.00236205
-0.00240098
-0.00188742
-0.00202784
-0.00146926
-0.00168453
-0.00110719
-0.00137144
-0.000800138
-0.00108881
-0.000546468
-0.000836788
-0.000344122
-0.000615416
-0.000190756
-0.000424681
-8.38553e-05
-0.000264521
-2.08649e-05
-0.000134832
-3.51947e-05
-0.00806968
-0.00772457
0.00885119
-0.00729755
-0.00712429
-0.00654184
-0.00653335
-0.00580949
-0.00595477
-0.00510677
-0.0053914
-0.00443917
-0.00484597
-0.00381138
-0.00432095
-0.00322721
-0.00381863
-0.00268963
-0.00334102
-0.00220075
-0.00288986
-0.00176194
-0.00246665
-0.00137383
-0.00207264
-0.00103642
-0.00170886
-0.000749151
-0.00137608
-0.000511019
-0.00107492
-0.000320629
-0.000805805
-0.000176305
-0.000569006
-7.61643e-05
-0.000364661
-1.82111e-05
-0.000192786
-5.34058e-05
-0.00780725
-0.00849576
0.00857845
-0.00705013
-0.00788141
-0.00631306
-0.00727042
-0.00560164
-0.00666618
-0.00492107
-0.00607198