/*--------------------------------*- C++ -*----------------------------------*\
| =========                 |                                                 |
| \\      /  F ield         | OpenFOAM: The Open Source CFD Toolbox           |
|  \\    /   O peration     | Version:  v1806                                 |
|   \\  /    A nd           | Web:      www.OpenFOAM.com                      |
|    \\/     M anipulation  |                                                 |
\*---------------------------------------------------------------------------*/
FoamFile
{
    version     2.0;
    format      ascii;
    class       surfaceScalarField;
    location    "330";
    object      phi;
}
// * * * * * * * * * * * * * * * * * * * * * * * * * * * * * * * * * * * * * //

dimensions      [0 3 -1 0 0 0 0];
oriented        oriented;


internalField   nonuniform List<scalar> 
14009
(
1.2967e-08
0.00337986
-0.00098044
-0.00259734
0.000197902
-1.13569e-13
0.00337831
-0.000980171
-0.00259497
0.000196845
-1.29668e-08
0.00337831
-0.000980171
-0.00259497
0.000196845
0.00337986
-0.00098044
-0.00259734
0.000197902
-3.64139e-08
0.000458106
0.00324982
-0.000328024
-6.83421e-15
0.000457869
0.00324744
-0.000327036
3.64137e-08
0.000457869
0.00324744
-0.000327036
0.000458106
0.00324982
-0.000328024
-1.12501e-08
0.00264241
-0.00183142
-0.000352874
-1.70171e-13
0.0026398
-0.00182969
-0.000352254
1.12501e-08
0.0026398
-0.00182969
-0.000352254
0.00264241
-0.00183142
-0.000352874
-9.93294e-09
0.00163401
-0.000221152
0.00122957
-1.5106e-13
0.00163137
-0.000221603
0.00123002
9.93283e-09
0.00163137
-0.000221603
0.00123002
0.00163401
-0.000221152
0.00122957
-4.14463e-08
0.00134227
0.0077135
-0.00679025
-0.00226548
-2.77657e-13
0.00134647
0.00771411
-0.00679124
-0.00226938
4.14465e-08
0.00134647
0.00771411
-0.00679124
-0.00226938
0.00134227
0.0077135
-0.00679025
-0.00226548
-2.49884e-08
0.000613694
2.06035e-05
0.000708001
-1.60727e-13
0.00061494
2.18242e-05
0.000709685
2.49885e-08
0.00061494
2.18242e-05
0.000709685
0.000613694
2.06035e-05
0.000708001
-8.304e-09
0.000229578
9.1774e-05
0.00029235
-2.03425e-13
0.000229139
9.10543e-05
0.000294739
8.30417e-09
0.000229139
9.10543e-05
0.000294739
0.000229578
9.1774e-05
0.00029235
-1.49988e-08
0.00803469
-9.16018e-05
-1.82127e-13
0.00803648
-9.32441e-05
1.49989e-08
0.00803648
-9.32441e-05
0.00803469
-9.16018e-05
-2.12061e-07
-0.070987
0.0205891
0.0559755
-0.00557739
-1.78226e-13
-0.0709908
0.0205971
0.05597
-0.00557654
2.12062e-07
-0.0709908
0.0205971
0.05597
-0.00557654
-0.070987
0.0205891
0.0559755
-0.00557739
-5.94262e-08
-0.00770725
-0.0657738
0.00249407
4.58938e-13
-0.00770731
-0.0657791
0.0024955
5.94258e-08
-0.00770731
-0.0657791
0.0024955
-0.00770725
-0.0657738
0.00249407
6.6655e-08
0.00921663
0.0231219
-0.0117495
1.10143e-13
0.00922229
0.0231207
-0.0117458
-6.66547e-08
0.00922229
0.0231207
-0.0117458
0.00921663
0.0231219
-0.0117495
1.08493e-07
-0.0241411
-0.00304423
0.0273687
-0.000183404
-8.22219e-13
-0.0241213
-0.00304325
0.0273634
-0.000198747
-1.08493e-07
-0.0241213
-0.00304325
0.0273634
-0.000198747
-0.0241411
-0.00304423
0.0273687
-0.000183404
1.01089e-07
0.0110019
-0.01593
-0.0192132
-9.36091e-13
0.0110006
-0.0159398
-0.0191819
-1.01089e-07
0.0110006
-0.0159398
-0.0191819
0.0110019
-0.01593
-0.0192132
-7.72646e-08
0.0103919
-0.00243415
-4.08773e-13
0.0103871
-0.00242982
7.72647e-08
0.0103871
-0.00242982
0.0103919
-0.00243415
2.40548e-08
0.00183195
0.00947306
-0.000913124
-5.13997e-13
0.00182759
0.00947059
-0.000911067
-2.40545e-08
0.00182759
0.00947059
-0.000911067
0.00183195
0.00947306
-0.000913124
1.19152e-08
0.0245889
0.00461167
-7.25765e-13
0.0245846
0.00460639
-1.1915e-08
0.0245846
0.00460639
0.0245889
0.00461167
-1.79811e-09
-0.00150985
-0.0076971
0.00991343
-0.000706479
-7.01706e-14
-0.00150739
-0.00769918
0.00992118
-0.000714618
1.7984e-09
-0.00150739
-0.00769918
0.00992118
-0.000714618
-0.00150985
-0.0076971
0.00991343
-0.000706479
-1.48544e-11
-0.00268765
0.000722322
0.000455482
6.34958e-14
-0.00269065
0.000726923
0.000456341
1.50956e-11
-0.00269065
0.000726923
0.000456341
-0.00268765
0.000722322
0.000455482
-6.08164e-08
-0.00116806
-1.00413e-13
-0.0011676
6.08166e-08
-0.0011676
-0.00116806
1.95713e-07
0.0183729
0.00912685
-0.0274999
2.91766e-13
0.0183684
0.00911922
-0.0274874
-1.95713e-07
0.0183684
0.00911922
-0.0274874
0.0183729
0.00912685
-0.0274999
-1.37452e-07
0.0106658
1.95352e-13
0.010661
1.37451e-07
0.010661
0.0106658
-3.72422e-09
-0.0749462
0.0182992
4.75423e-13
-0.0749621
0.0183022
3.72465e-09
-0.0749621
0.0183022
-0.0749462
0.0182992
9.66088e-08
-0.0423044
-0.0509966
0.0183548
-2.80528e-13
-0.0423057
-0.0510106
0.0183544
-9.66079e-08
-0.0423057
-0.0510106
0.0183544
-0.0423044
-0.0509966
0.0183548
-2.17725e-07
0.0553133
-0.0619653
0.00317638
0.00347584
-5.92082e-14
0.0552882
-0.0619407
0.00317702
0.00347532
2.17726e-07
0.0552882
-0.0619407
0.00317702
0.00347532
0.0553133
-0.0619653
0.00317638
0.00347584
-5.22333e-07
0.0445623
0.0045036
0.00624799
6.34123e-14
0.0445234
0.00451625
0.00624796
5.22334e-07
0.0445234
0.00451625
0.00624796
0.0445623
0.0045036
0.00624799
-2.42649e-08
-0.000526281
-0.00127003
0.00179634
-1.84292e-13
-0.000527468
-0.00126862
0.00179606
2.4265e-08
-0.000527468
-0.00126862
0.00179606
-0.000526281
-0.00127003
0.00179634
-2.70264e-08
-0.00198267
0.00217874
-3.93728e-13
-0.00197918
0.00217861
2.70258e-08
-0.00197918
0.00217861
-0.00198267
0.00217874
-2.59733e-08
-0.000965829
0.000617192
-5.68796e-14
-0.000963147
0.000615309
2.59734e-08
-0.000963147
0.000615309
-0.000965829
0.000617192
4.2139e-08
-0.0619787
2.09698e-05
-2.42691e-05
0.0619819
2.02276e-15
-0.0619781
1.68488e-05
-2.44441e-05
0.0619858
-4.2139e-08
-0.0619781
1.68488e-05
-2.44441e-05
0.0619858
-0.0619787
2.09698e-05
-2.42691e-05
0.0619819
-2.14148e-08
0.00430549
-0.0639389
-0.00234524
1.56338e-14
0.00430583
-0.0639406
-0.00234342
2.14148e-08
0.00430583
-0.0639406
-0.00234342
0.00430549
-0.0639389
-0.00234524
-1.4738e-07
-0.0671354
0.00246969
0.00270056
8.49879e-16
-0.0671144
0.00246751
0.00270606
1.4738e-07
-0.0671144
0.00246751
0.00270606
-0.0671354
0.00246969
0.00270056
-9.49668e-08
-0.0695078
0.00201544
0.000357037
-4.21413e-14
-0.0694903
0.00201115
0.000364599
9.49669e-08
-0.0694903
0.00201115
0.000364599
-0.0695078
0.00201544
0.000357037
-9.82497e-08
-0.0738381
0.00594035
-0.00160991
1.68187e-15
-0.0738259
0.00593807
-0.00160253
9.82497e-08
-0.0738259
0.00593807
-0.00160253
-0.0738381
0.00594035
-0.00160991
-1.05015e-07
-0.0544523
0.0107527
-0.0301384
5.75041e-15
-0.0544405
0.0107494
-0.030135
1.05015e-07
-0.0544405
0.0107494
-0.030135
-0.0544523
0.0107527
-0.0301384
-6.11316e-08
-0.0622324
0.00780111
2.68882e-14
-0.0622254
0.00780172
6.11317e-08
-0.0622254
0.00780172
-0.0622324
0.00780111
-3.97674e-08
-0.0633152
0.00538834
2.61777e-14
-0.0633104
0.00539079
3.97674e-08
-0.0633104
0.00539079
-0.0633152
0.00538834
-3.40245e-08
-0.00370635
0.00448853
-0.0640973
2.83893e-14
-0.00370478
0.00448772
-0.0640934
3.40245e-08
-0.00370478
0.00448772
-0.0640934
-0.00370635
0.00448853
-0.0640973
-1.29536e-08
-0.0650444
-0.00260079
2.53888e-14
-0.0650421
-0.00260331
1.29536e-08
-0.0650421
-0.00260331
-0.0650444
-0.00260079
-5.95815e-07
0.00444051
-0.00466282
0.0447852
-3.15198e-13
0.00447989
-0.0046482
0.0446911
5.95815e-07
0.00447989
-0.0046482
0.0446911
0.00444051
-0.00466282
0.0447852
-1.35284e-07
-0.0580701
0.0565364
0.0059743
-8.49427e-13
-0.0580611
0.0565443
0.00599651
1.35285e-07
-0.0580611
0.0565443
0.00599651
-0.0580701
0.0565364
0.0059743
-1.64521e-10
-0.0620021
0.00843558
-3.53812e-13
-0.0619853
0.00844052
1.64877e-10
-0.0619853
0.00844052
-0.0620021
0.00843558
1.51122e-08
-0.064994
0.00616827
-1.25023e-13
-0.0649784
0.00617007
-1.5112e-08
-0.0649784
0.00617007
-0.064994
0.00616827
7.10507e-09
-0.0679393
0.00541501
-4.32499e-14
-0.0679256
0.00541473
-7.10492e-09
-0.0679256
0.00541473
-0.0679393
0.00541501
-1.9226e-08
-0.0695528
0.00362892
-3.38817e-14
-0.0695449
0.0036304
1.92261e-08
-0.0695449
0.0036304
-0.0695528
0.00362892
-5.28517e-08
-0.0696435
0.00603113
-7.35357e-15
-0.0696361
0.00602922
5.28518e-08
-0.0696361
0.00602922
-0.0696435
0.00603113
-4.2483e-08
-0.0656943
0.00680358
9.55212e-15
-0.0656904
0.00680369
4.24831e-08
-0.0656904
0.00680369
-0.0656943
0.00680358
-5.94129e-08
-0.065053
0.00715989
3.22261e-14
-0.0650479
0.00715916
5.9413e-08
-0.0650479
0.00715916
-0.065053
0.00715989
-3.45179e-08
-0.0643274
0.00466278
2.68377e-14
-0.0643212
0.00466409
3.45179e-08
-0.0643212
0.00466409
-0.0643274
0.00466278
-4.70674e-08
-0.062593
0.00275412
2.58033e-14
-0.0625898
0.00275632
4.70674e-08
-0.0625898
0.00275632
-0.062593
0.00275412
-4.25403e-08
-0.00489492
0.00758974
-0.0652878
3.20628e-14
-0.00489597
0.00758972
-0.0652836
4.25403e-08
-0.00489597
0.00758972
-0.0652836
-0.00489492
0.00758974
-0.0652878
-3.7881e-08
-0.00345998
-0.0655322
3.20373e-14
-0.00346065
-0.0655287
3.7881e-08
-0.00346065
-0.0655287
-0.00345998
-0.0655322
-3.50859e-08
0.000370869
-0.0688753
3.13044e-14
0.000372149
-0.0688749
3.50859e-08
0.000372149
-0.0688749
0.000370869
-0.0688753
-3.42914e-08
0.0649717
-0.068551
0.00395025
2.79973e-14
0.064972
-0.0685503
0.00395041
3.42914e-08
0.064972
-0.0685503
0.00395041
0.0649717
-0.068551
0.00395025
-2.6741e-08
0.0641018
-0.00173088
2.13062e-14
0.0641004
-0.00173169
2.6741e-08
0.0641004
-0.00173169
0.0641018
-0.00173088
-1.82888e-08
0.0595468
0.00220982
7.84867e-15
0.0595424
0.00221458
1.82888e-08
0.0595424
0.00221458
0.0595468
0.00220982
-4.13677e-09
0.0529702
0.00655226
7.16263e-15
0.052965
0.00655285
4.1368e-09
0.052965
0.00655285
0.0529702
0.00655226
-4.71978e-08
0.0763365
0.00847729
-0.0318435
5.53081e-16
0.076337
0.00847874
-0.0318508
4.71979e-08
0.076337
0.00847874
-0.0318508
0.0763365
0.00847729
-0.0318435
2.44439e-08
0.073134
0.00159253
5.08919e-15
0.0731401
0.00159438
-2.44438e-08
0.0731401
0.00159438
0.073134
0.00159253
3.87333e-08
0.0686925
0.00479852
-2.51123e-14
0.0687045
0.00480025
-3.87332e-08
0.0687045
0.00480025
0.0686925
0.00479852
-3.14677e-08
0.0660347
0.00535843
-2.39676e-14
0.0660489
0.0053617
3.14677e-08
0.0660489
0.0053617
0.0660347
0.00535843
-4.81229e-08
0.0629569
0.00655371
-2.33208e-13
0.0629691
0.00655503
4.8123e-08
0.0629691
0.00655503
0.0629569
0.00655371
-9.98528e-08
0.0623463
0.00685868
-3.46184e-14
0.0623537
0.00686329
9.98531e-08
0.0623537
0.00686329
0.0623463
0.00685868
-1.26627e-07
0.00100602
0.0566776
-8.65726e-13
0.00101654
0.0566888
1.26627e-07
0.00101654
0.0566888
0.00100602
0.0566776
-1.37064e-08
0.00721109
0.0431241
0.0062013
-2.12107e-12
0.00721284
0.0431289
0.00620253
1.37068e-08
0.00721284
0.0431289
0.00620253
0.00721109
0.0431241
0.0062013
-2.43093e-08
-0.058839
0.0491328
0.0169173
5.8789e-13
-0.058852
0.0491425
0.0169223
2.43093e-08
-0.058852
0.0491425
0.0169223
-0.058839
0.0491328
0.0169173
-1.95357e-07
-0.0634801
0.0106156
2.65707e-13
-0.0634758
0.0106202
1.95358e-07
-0.0634758
0.0106202
-0.0634801
0.0106156
-1.42435e-07
-0.0661494
0.0111051
1.97765e-13
-0.0661361
0.0111006
1.42435e-07
-0.0661361
0.0111006
-0.0661494
0.0111051
-1.02561e-07
-0.0662656
0.00628453
4.78564e-14
-0.0662513
0.00628518
1.02561e-07
-0.0662513
0.00628518
-0.0662656
0.00628453
-1.1223e-07
-0.0668577
0.00600724
4.75196e-15
-0.0668454
0.00600873
1.1223e-07
-0.0668454
0.00600873
-0.0668577
0.00600724
-1.08565e-07
-0.0685921
0.00536339
-2.04808e-14
-0.0685819
0.00536677
1.08565e-07
-0.0685819
0.00536677
-0.0685921
0.00536339
-8.23175e-08
-0.0686715
0.00611065
-2.13451e-15
-0.0686672
0.00611447
8.23176e-08
-0.0686672
0.00611447
-0.0686715
0.00611065
-3.69464e-08
-0.0688026
0.00693469
1.06233e-14
-0.0688004
0.00693691
3.69465e-08
-0.0688004
0.00693691
-0.0688026
0.00693469
-3.83037e-08
-0.0665268
0.00488408
2.8433e-14
-0.0665274
0.00488605
3.83037e-08
-0.0665274
0.00488605
-0.0665268
0.00488408
-3.79157e-08
-0.0652058
0.00334189
2.48426e-14
-0.0652062
0.0033429
3.79157e-08
-0.0652062
0.0033429
-0.0652058
0.00334189
-4.68015e-08
-0.0676027
0.00515106
2.82592e-14
-0.0676029
0.00515302
4.68015e-08
-0.0676029
0.00515302
-0.0676027
0.00515106
-3.45638e-08
-0.0666158
0.00660287
3.47149e-14
-0.066616
0.00660275
3.45638e-08
-0.066616
0.00660275
-0.0666158
0.00660287
-3.25614e-08
-0.00509351
0.00565903
-0.0671813
3.97581e-14
-0.00509363
0.00565936
-0.0671818
3.25614e-08
-0.00509363
0.00565936
-0.0671818
-0.00509351
0.00565903
-0.0671813
-3.94238e-08
-0.00211669
-0.0682646
3.86044e-14
-0.00211541
-0.0682619
3.94238e-08
-0.00211541
-0.0682619
-0.00211669
-0.0682646
-3.36697e-08
0.000651102
-0.0683
3.751e-14
0.000652326
-0.0682965
3.36697e-08
0.000652326
-0.0682965
0.000651102
-0.0683
-1.88201e-08
0.00261006
-0.0708342
3.77158e-14
0.00260896
-0.0708315
1.88201e-08
0.00260896
-0.0708315
0.00261006
-0.0708342
-2.30005e-08
0.00490814
-0.0708491
3.38661e-14
0.00490599
-0.0708474
2.30005e-08
0.00490599
-0.0708474
0.00490814
-0.0708491
-2.84946e-08
0.0691031
0.00551401
-0.0697089
3.04737e-14
0.0691033
0.00551255
-0.0697098
2.84946e-08
0.0691033
0.00551255
-0.0697098
0.0691031
0.00551401
-0.0697089
-3.26462e-08
0.0659642
0.00708914
2.3746e-14
0.0659654
0.00708823
3.26462e-08
0.0659654
0.00708823
0.0659642
0.00708914
-2.99802e-08
0.0647529
-0.000519522
2.00223e-14
0.064752
-0.000518334
2.99802e-08
0.064752
-0.000518334
0.0647529
-0.000519522
5.42323e-09
0.063668
0.00329471
6.31607e-15
0.0636714
0.00329526
-5.42319e-09
0.0636714
0.00329526
0.063668
0.00329471
-6.76255e-09
0.0663681
0.0038522
-2.03013e-15
0.066372
0.00385218
6.76262e-09
0.066372
0.00385218
0.0663681
0.0038522
1.57027e-08
0.0707718
0.00407351
-7.15253e-15
0.070776
0.00407477
-1.57026e-08
0.070776
0.00407477
0.0707718
0.00407351
-3.4153e-08
0.0683194
0.00404503
-6.18968e-15
0.0683224
0.00404792
3.41531e-08
0.0683224
0.00404792
0.0683194
0.00404503
-8.04242e-08
0.06839
0.00472796
-4.28472e-14
0.0683931
0.00472954
8.04242e-08
0.0683931
0.00472954
0.06839
0.00472796
-1.38124e-07
0.0670048
0.00674379
-7.55425e-14
0.06701
0.00674467
1.38124e-07
0.06701
0.00674467
0.0670048
0.00674379
-1.98695e-07
0.06515
0.00840874
-4.46963e-14
0.0651543
0.00841049
1.98695e-07
0.0651543
0.00841049
0.06515
0.00840874
-2.53318e-07
0.0640108
0.00799809
-1.31008e-13
0.0640174
0.00799991
2.53318e-07
0.0640174
0.00799991
0.0640108
0.00799809
-2.06139e-07
0.0575363
0.00748068
-7.31431e-14
0.0575464
0.00748737
2.06139e-07
0.0575464
0.00748737
0.0575363
0.00748068
-1.83914e-07
0.0018364
0.0408317
0.0140096
8.46252e-14
0.00183617
0.0408398
0.0140127
1.83915e-07
0.00183617
0.0408398
0.0140127
0.0018364
0.0408317
0.0140096
-8.51065e-08
0.0409839
0.0183889
-3.43707e-13
0.0409944
0.0183881
8.51065e-08
0.0409944
0.0183881
0.0409839
0.0183889
3.69792e-07
0.0531924
0.0286228
1.39821e-12
0.0532098
0.0286247
-3.69793e-07
0.0532098
0.0286247
0.0531924
0.0286228
5.71165e-07
0.064279
0.0279772
1.47359e-12
0.0643221
0.0279498
-5.71166e-07
0.0643221
0.0279498
0.064279
0.0279772
-2.08165e-08
0.000355566
-0.00300992
0.00167393
-2.52152e-14
0.000356727
-0.00301101
0.0016741
2.08165e-08
0.000356727
-0.00301101
0.0016741
0.000355566
-0.00300992
0.00167393
-1.84476e-08
-0.00233863
9.68794e-05
3.09758e-15
-0.00233673
9.84764e-05
1.84477e-08
-0.00233673
9.84764e-05
-0.00233863
9.68794e-05
-1.36969e-08
0.00241454
-0.000208688
-0.00317167
-1.53505e-13
0.00241272
-0.00020751
-0.00316837
1.3697e-08
0.00241272
-0.00020751
-0.00316837
0.00241454
-0.000208688
-0.00317167
-4.95835e-09
0.00123629
-3.20024e-14
0.00123515
4.95868e-09
0.00123515
0.00123629
8.23857e-10
0.00101951
0.00028821
0.0019421
-7.33225e-14
0.00101823
0.000290858
0.00193835
-8.23715e-10
0.00101823
0.000290858
0.00193835
0.00101951
0.00028821
0.0019421
-2.24951e-08
0.00110319
-1.39458e-13
0.00110544
2.24952e-08
0.00110544
0.00110319
-1.48997e-08
0.00773974
0.00139816
-2.09079e-13
0.00774157
0.00140033
1.48998e-08
0.00774157
0.00140033
0.00773974
0.00139816
9.91614e-09
0.00706696
0.000960975
-2.18154e-13
0.00706856
0.000963884
-9.91606e-09
0.00706856
0.000963884
0.00706696
0.000960975
-3.13005e-10
0.00811863
-0.00137969
-1.2187e-13
0.00811946
-0.00137793
3.1316e-10
0.00811946
-0.00137793
0.00811863
-0.00137969
-1.49925e-08
0.0083477
-0.00323897
-9.11907e-14
0.0083463
-0.00323787
1.49926e-08
0.0083463
-0.00323787
0.0083477
-0.00323897
2.27776e-08
-0.000779895
-0.000155446
-0.00140332
-1.10437e-13
-0.000777594
-0.000156069
-0.00140305
-2.27774e-08
-0.000777594
-0.000156069
-0.00140305
-0.000779895
-0.000155446
-0.00140332
9.33832e-09
-0.00214592
0.00303995
-6.2281e-14
-0.00214306
0.00303957
-9.3383e-09
-0.00214306
0.00303957
-0.00214592
0.00303995
4.00592e-08
-0.00580004
0.0120018
-1.953e-13
-0.00579802
0.0120013
-4.00592e-08
-0.00579802
0.0120013
-0.00580004
0.0120018
-1.47348e-08
-0.000651546
-0.000981958
-1.67601e-13
-0.000649197
-0.00098366
1.4735e-08
-0.000649197
-0.00098366
-0.000651546
-0.000981958
-7.55746e-09
0.000120338
-0.000674996
-2.64441e-13
0.000122234
-0.000672962
7.55773e-09
0.000122234
-0.000672962
0.000120338
-0.000674996
1.46937e-09
0.000924149
-0.000959259
-1.82235e-13
0.000923957
-0.000957791
-1.46925e-09
0.000923957
-0.000957791
0.000924149
-0.000959259
-2.29558e-09
-0.00712148
0.000674036
-0.000342805
-4.1726e-13
-0.00712217
0.000677183
-0.000346259
2.29578e-09
-0.00712217
0.000677183
-0.000346259
-0.00712148
0.000674036
-0.000342805
-4.43705e-08
-0.00780123
0.000916742
-0.00023695
-4.32661e-13
-0.00780204
0.000913205
-0.000233376
4.43706e-08
-0.00780204
0.000913205
-0.000233376
-0.00780123
0.000916742
-0.00023695
-3.25485e-08
0.00233676
-0.000664893
-5.32145e-13
0.00233179
-0.000663278
3.25488e-08
0.00233179
-0.000663278
0.00233676
-0.000664893
-1.57904e-08
0.025476
0.00144967
-5.9581e-13
0.0254756
0.00144079
1.57906e-08
0.0254756
0.00144079
0.025476
0.00144967
-2.98453e-08
0.0242519
0.00214094
-4.97209e-13
0.0242487
0.00214008
2.98456e-08
0.0242487
0.00214008
0.0242519
0.00214094
4.24885e-08
0.0238671
0.00105873
-4.73085e-13
0.0238669
0.00105894
-4.24882e-08
0.0238669
0.00105894
0.0238671
0.00105873
-6.162e-08
0.0239012
-0.00229948
-3.75319e-13
0.0238967
-0.00229922
6.16202e-08
0.0238967
-0.00229922
0.0239012
-0.00229948
-1.4996e-09
0.0237182
9.13889e-05
-3.31936e-13
0.0237154
8.80895e-05
1.49991e-09
0.0237154
8.80895e-05
0.0237182
9.1389e-05
-5.71804e-09
0.0237946
0.00132176
-2.36887e-13
0.0237945
0.00132125
5.71835e-09
0.0237945
0.00132125
0.0237946
0.00132176
1.68991e-08
0.0248288
-7.32308e-05
-9.79064e-14
0.0248299
-7.15917e-05
-1.68988e-08
0.0248299
-7.15917e-05
0.0248288
-7.32308e-05
-3.1519e-08
0.0252167
-0.00176756
-6.96991e-14
0.0252179
-0.00176596
3.15193e-08
0.0252179
-0.00176596
0.0252167
-0.00176756
-3.64675e-08
0.026145
-0.00416724
-1.60719e-13
0.0261442
-0.00416416
3.64676e-08
0.0261442
-0.00416416
0.026145
-0.00416724
3.45735e-08
0.0260345
-0.00568958
-3.36835e-13
0.0260367
-0.00569047
-3.45736e-08
0.0260367
-0.00569047
0.0260345
-0.00568958
-1.14976e-08
-0.00011112
-0.000980113
0.00201539
-8.73016e-14
-0.000111843
-0.00098008
0.00201587
1.14976e-08
-0.000111843
-0.00098008
0.00201587
-0.00011112
-0.000980113
0.00201539
-1.51041e-08
-0.00105153
-0.000462893
-2.89437e-14
-0.00105251
-0.000462396
1.51041e-08
-0.00105251
-0.000462396
-0.00105153
-0.000462893
-2.06071e-08
-0.00254781
0.00453625
-1.51372e-13
-0.00254971
0.00453675
2.0607e-08
-0.00254971
0.00453675
-0.00254781
0.00453625
-2.85113e-08
-0.00494608
0.0144001
-2.28011e-13
-0.00494643
0.014398
2.85112e-08
-0.00494643
0.014398
-0.00494608
0.0144001
-2.70664e-08
0.0270267
-0.00593831
-2.65337e-13
0.0270261
-0.00593587
2.70663e-08
0.0270261
-0.00593587
0.0270267
-0.00593831
-3.43081e-08
0.00941936
0.00267284
-1.71415e-13
0.00942461
0.00267515
3.43082e-08
0.00942461
0.00267515
0.00941936
0.00267284
-3.5252e-08
0.00879685
0.00123974
-1.29647e-13
0.00880127
0.00123861
3.5252e-08
0.00880127
0.00123861
0.00879685
0.00123974
-5.86863e-10
0.0087936
-0.0002179
-1.15334e-13
0.00879761
-0.000217949
5.86809e-10
0.00879761
-0.000217949
0.0087936
-0.0002179
-1.82358e-08
0.00927885
-0.00083811
-1.81821e-13
0.00928193
-0.000836585
1.82358e-08
0.00928193
-0.000836585
0.00927885
-0.00083811
-2.12987e-08
0.0093572
-0.00106028
-1.97903e-13
0.00935839
-0.00106014
2.12988e-08
0.00935839
-0.00106014
0.0093572
-0.00106028
-4.94215e-09
0.00933804
-0.000655837
-1.83725e-13
0.00933952
-0.000654102
4.94218e-09
0.00933952
-0.000654102
0.00933804
-0.000655837
1.55061e-08
0.0101192
-0.00174042
-1.00067e-13
0.0101191
-0.00173731
-1.55061e-08
0.0101191
-0.00173731
0.0101192
-0.00174042
-1.45868e-08
-0.0022381
0.0113772
-5.0715e-14
-0.00223802
0.011377
1.45867e-08
-0.00223802
0.011377
-0.0022381
0.0113772
4.11899e-08
-0.0429554
-0.00515684
0.00580777
-4.53169e-13
-0.0429456
-0.00515584
0.00579575
-4.11894e-08
-0.0429456
-0.00515584
0.00579575
-0.0429554
-0.00515684
0.00580777
1.27067e-07
-0.0614265
0.0220204
-0.00354947
-2.38133e-13
-0.0614211
0.0220228
-0.00354718
-1.27067e-07
-0.0614211
0.0220228
-0.00354718
-0.0614265
0.0220204
-0.00354947
1.45531e-07
-0.0696624
0.0178479
-0.00961208
-2.16636e-14
-0.069653
0.0178494
-0.00961746
-1.45531e-07
-0.069653
0.0178494
-0.00961746
-0.0696624
0.0178479
-0.00961208
9.48923e-08
-0.0745265
0.0166337
-0.0117697
3.29131e-13
-0.0745193
0.0166438
-0.0117773
-9.48922e-08
-0.0745193
0.0166438
-0.0117773
-0.0745265
0.0166337
-0.0117697
-4.24375e-07
-0.0819483
0.0201688
-0.0127467
1.05611e-12
-0.0819592
0.0201584
-0.012719
4.24375e-07
-0.0819592
0.0201584
-0.012719
-0.0819483
0.0201688
-0.0127467
1.26448e-07
-0.0562243
0.0274683
7.34717e-13
-0.056216
0.0274668
-1.26447e-07
-0.056216
0.0274668
-0.0562243
0.0274683
-4.92681e-08
-0.0593206
0.0214853
6.85243e-14
-0.0593267
0.0214987
4.92685e-08
-0.0593267
0.0214987
-0.0593206
0.0214853
-5.46589e-08
-0.0655539
0.0137141
-1.29454e-13
-0.0655585
0.0137192
5.46592e-08
-0.0655585
0.0137192
-0.0655539
0.0137141
-7.33702e-08
-0.0674733
0.00991756
-1.13548e-13
-0.0674816
0.00992291
7.33703e-08
-0.0674816
0.00992291
-0.0674733
0.00991756
-3.04818e-08
-0.066838
0.00777346
-9.54921e-14
-0.0668454
0.00777428
3.04819e-08
-0.0668454
0.00777428
-0.066838
0.00777346
-3.39238e-08
-0.0670432
0.00694896
-5.49077e-14
-0.0670499
0.00694918
3.39238e-08
-0.0670499
0.00694918
-0.0670432
0.00694896
-2.60037e-08
-0.0691278
0.0068126
-3.12337e-14
-0.0691317
0.00681122
2.60038e-08
-0.0691317
0.00681122
-0.0691278
0.0068126
-1.03222e-08
-0.0692333
0.00415057
-3.44389e-15
-0.0692349
0.00415112
1.03222e-08
-0.0692349
0.00415112
-0.0692333
0.00415057
2.59246e-08
-0.0675347
0.00237482
5.52808e-15
-0.0675342
0.00237417
-2.59246e-08
-0.0675342
0.00237417
-0.0675347
0.00237482
7.26504e-09
-0.0663884
0.00270593
6.23187e-15
-0.066389
0.00270701
-7.26498e-09
-0.066389
0.00270701
-0.0663884
0.00270593
3.12787e-09
-0.067968
0.00487426
5.98836e-15
-0.0679676
0.00487387
-3.12782e-09
-0.0679676
0.00487387
-0.067968
0.00487426
-2.38383e-08
-0.0727485
0.00426102
7.93289e-15
-0.0727482
0.00426221
2.38383e-08
-0.0727482
0.00426221
-0.0727485
0.00426102
-2.79907e-08
-0.0709983
0.00533903
9.93064e-15
-0.0709989
0.00533886
2.79907e-08
-0.0709989
0.00533886
-0.0709983
0.00533903
-2.81376e-08
-0.0704504
0.00496607
2.48218e-14
-0.070452
0.00496568
2.81376e-08
-0.070452
0.00496568
-0.0704504
0.00496607
-3.85864e-08
0.026561
-0.00414553
-7.8768e-14
0.0265565
-0.00415046
3.85869e-08
0.0265565
-0.00415046
0.026561
-0.00414553
1.44889e-08
0.0271365
0.00209732
-1.76833e-13
0.0271375
0.00209419
-1.44891e-08
0.0271375
0.00209419
0.0271365
0.00209732
-4.65426e-08
0.0273462
0.00103005
-6.03059e-14
0.0273484
0.00102769
4.65425e-08
0.0273484
0.00102769
0.0273462
0.00103005
-4.70597e-09
0.0269975
0.000130841
-9.93295e-14
0.0270001
0.00013033
4.70588e-09
0.0270001
0.00013033
0.0269975
0.000130841
-5.71709e-09
0.0272179
-0.00105855
-1.60389e-13
0.0272199
-0.00105634
5.71707e-09
0.0272199
-0.00105634
0.0272179
-0.00105855
-1.4854e-08
0.0264938
-0.000336174
-1.8936e-13
0.0264951
-0.000335402
1.48539e-08
0.0264951
-0.000335402
0.0264938
-0.000336174
8.75892e-11
0.0259393
-0.00010128
-1.71644e-13
0.025939
-9.79575e-05
-8.76304e-11
0.025939
-9.79575e-05
0.0259393
-0.00010128
1.84639e-08
0.025161
-0.000962201
-1.59392e-13
0.0251621
-0.000960442
-1.84639e-08
0.0251621
-0.000960442
0.025161
-0.000962201
-2.83454e-08
0.0264676
-0.00354468
-1.03733e-13
0.0264662
-0.00354216
2.83454e-08
0.0264662
-0.00354216
0.0264676
-0.00354468
1.09746e-08
0.00211958
0.026399
-0.00205097
2.52097e-14
0.00211758
0.0263976
-0.00204893
-1.09745e-08
0.00211758
0.0263976
-0.00204893
0.00211958
0.026399
-0.00205097
2.45015e-10
0.00113523
0.0123615
1.56155e-14
0.0011348
0.0123598
-2.44914e-10
0.0011348
0.0123598
0.00113523
0.0123615
2.95978e-09
-1.99244e-05
0.00317055
4.97745e-14
-1.96961e-05
0.00317036
-2.95973e-09
-1.96962e-05
0.00317036
-1.99244e-05
0.00317055
8.25699e-09
-0.00103867
0.000555845
3.35684e-14
-0.00103804
0.000555955
-8.25702e-09
-0.00103804
0.000555955
-0.00103867
0.000555845
2.08957e-09
-0.0020525
0.00555008
-5.19228e-14
-0.00205079
0.0055495
-2.0896e-09
-0.00205079
0.0055495
-0.0020525
0.00555008
1.08706e-08
-0.00284602
0.0151936
1.9086e-16
-0.00284378
0.015191
-1.08707e-08
-0.00284378
0.015191
-0.00284602
0.0151936
3.21244e-08
-0.00397413
0.0281548
2.83068e-14
-0.00397405
0.0281564
-3.21246e-08
-0.00397405
0.0281564
-0.00397413
0.0281548
2.13343e-08
-0.0433799
0.0457662
-0.00636048
2.71304e-14
-0.0433806
0.0457679
-0.00636131
-2.13342e-08
-0.0433806
0.0457679
-0.00636131
-0.0433799
0.0457662
-0.00636048
-1.92859e-08
-0.04395
-0.00536825
-1.88271e-13
-0.0439516
-0.00536491
1.9286e-08
-0.0439516
-0.00536491
-0.04395
-0.00536825
2.82577e-08
-0.045358
-0.00428159
-2.51881e-13
-0.0453589
-0.00428315
-2.82578e-08
-0.0453589
-0.00428315
-0.045358
-0.00428159
-3.93253e-08
-0.0462564
-0.00326881
-6.50403e-14
-0.0462584
-0.00326471
3.93251e-08
-0.0462584
-0.00326471
-0.0462564
-0.00326881
-8.6314e-09
-0.0461634
-0.00186056
-6.242e-14
-0.0461647
-0.0018596
8.63132e-09
-0.0461647
-0.0018596
-0.0461634
-0.00186056
2.56401e-08
-0.0477819
0.00154524
-2.10553e-13
-0.0477816
0.00154536
-2.56401e-08
-0.0477816
0.00154536
-0.0477819
0.00154524
1.77681e-08
-0.0482704
0.00181024
-2.56809e-13
-0.0482662
0.0018058
-1.7768e-08
-0.0482662
0.0018058
-0.0482704
0.00181024
-2.18567e-08
-0.0477264
-0.00045257
-2.19594e-13
-0.047723
-0.000455074
2.18567e-08
-0.047723
-0.000455074
-0.0477264
-0.00045257
-9.24657e-08
-0.0498738
-0.000152002
-2.4323e-13
-0.0498726
-0.000149729
9.24658e-08
-0.0498726
-0.000149729
-0.0498738
-0.000152002
8.44559e-09
-0.0498279
0.0010129
-3.57639e-13
-0.0498241
0.00101043
-8.44545e-09
-0.0498241
0.00101043
-0.0498279
0.0010129
-2.62103e-08
-0.0512735
0.00358656
-4.98143e-13
-0.0512699
0.00358587
2.62104e-08
-0.0512699
0.00358587
-0.0512735
0.00358656
-7.68558e-08
-0.052757
0.00293326
-5.8672e-13
-0.0527526
0.00292338
7.6856e-08
-0.0527526
0.00292338
-0.052757
0.00293326
6.18508e-08
-0.0566779
0.00853248
-6.3899e-13
-0.056661
0.00851485
-6.18506e-08
-0.056661
0.00851485
-0.0566779
0.00853248
-6.89967e-09
-0.0598154
0.00295408
-6.132e-13
-0.0597992
0.0029395
6.89962e-09
-0.0597992
0.0029395
-0.0598154
0.00295408
-1.73405e-07
-0.0817069
0.00596175
-6.10268e-13
-0.0816951
0.00595584
1.73405e-07
-0.0816951
0.00595584
-0.0817069
0.00596175
3.4078e-07
-0.0806013
0.00913476
-0.0102407
-3.48944e-13
-0.0805853
0.00912518
-0.0102346
-3.40779e-07
-0.0805853
0.00912518
-0.0102346
-0.0806013
0.00913476
-0.0102407
4.1382e-08
-0.083586
0.0168431
-0.0138585
-1.23284e-12
-0.0836022
0.0168501
-0.0138332
-4.13833e-08
-0.0836022
0.0168501
-0.0138332
-0.083586
0.0168431
-0.0138585
-8.97887e-08
-0.0912592
0.0239589
-0.0162856
-2.84778e-12
-0.0912866
0.0239469
-0.0162625
8.97865e-08
-0.0912866
0.0239469
-0.0162625
-0.0912592
0.0239589
-0.0162856
3.72756e-07
-0.0595816
0.0326011
8.10257e-14
-0.0595798
0.0326157
-3.72757e-07
-0.0595798
0.0326157
-0.0595816
0.0326011
2.19346e-07
-0.0636641
0.0209996
-5.3663e-13
-0.0636649
0.0210077
-2.19346e-07
-0.0636649
0.0210077
-0.0636641
0.0209996
3.94233e-08
-0.0662753
0.0132267
-2.77209e-13
-0.0662719
0.0132272
-3.94231e-08
-0.0662719
0.0132272
-0.0662753
0.0132267
-4.51719e-08
-0.0650292
0.00985904
-1.85195e-13
-0.0650343
0.00986296
4.5172e-08
-0.0650343
0.00986296
-0.0650292
0.00985904
-4.93444e-08
-0.0680494
0.00930481
-1.02562e-13
-0.0680554
0.00930614
4.93445e-08
-0.0680554
0.00930614
-0.0680494
0.00930481
-6.81083e-08
-0.0688392
0.00679714
-5.77457e-14
-0.0688474
0.00680072
6.81084e-08
-0.0688474
0.00680072
-0.0688392
0.00679714
-7.14429e-08
-0.0695679
0.00609218
-2.65832e-14
-0.0695746
0.00609387
7.1443e-08
-0.0695746
0.00609387
-0.0695679
0.00609218
-4.60782e-08
-0.0694633
0.00600603
-3.24919e-15
-0.0694681
0.00600793
4.60782e-08
-0.0694681
0.00600793
-0.0694633
0.00600603
-1.35473e-08
-0.0700003
0.00747173
1.08154e-14
-0.0700023
0.00747108
1.35473e-08
-0.0700023
0.00747108
-0.0700003
0.00747173
-2.57562e-08
-0.0684495
0.00333332
2.7368e-14
-0.0684525
0.00333631
2.57562e-08
-0.0684525
0.00333631
-0.0684495
0.00333332
-3.73086e-08
-0.0683168
0.0032092
2.83168e-14
-0.0683209
0.00321119
3.73087e-08
-0.0683209
0.00321119
-0.0683168
0.0032092
-3.19279e-08
-0.0687005
0.00553486
3.1547e-14
-0.0687035
0.00553557
3.1928e-08
-0.0687035
0.00553557
-0.0687005
0.00553486
-2.33457e-08
-0.0660027
0.00390501
3.41208e-14
-0.0660057
0.00390493
2.33457e-08
-0.0660057
0.00390493
-0.0660027
0.00390501
-2.56434e-08
-0.0672834
0.00693982
3.70598e-14
-0.0672858
0.00693948
2.56435e-08
-0.0672858
0.00693948
-0.0672834
0.00693982
-1.88014e-08
-0.00457845
0.00633059
-0.0690356
3.78745e-14
-0.00457863
0.00632963
-0.0690368
1.88014e-08
-0.00457863
0.00632963
-0.0690368
-0.00457845
0.00633059
-0.0690356
-2.38803e-08
-0.00230233
-0.0694574
4.00807e-14
-0.00230343
-0.069457
2.38803e-08
-0.00230343
-0.069457
-0.00230233
-0.0694574
-3.01181e-08
-0.000163597
-0.0704033
4.06024e-14
-0.000164682
-0.0704007
3.01181e-08
-0.000164682
-0.0704007
-0.000163597
-0.0704033
-2.81565e-08
0.00250563
-0.0709692
3.90716e-14
0.00250472
-0.0709659
2.81565e-08
0.00250472
-0.0709659
0.00250563
-0.0709692
-2.47112e-08
0.00277939
-0.0711079
3.89707e-14
0.00277929
-0.0711061
2.47112e-08
0.00277929
-0.0711061
0.00277939
-0.0711079
-2.59464e-08
0.00235858
-0.0704283
3.70821e-14
0.00235939