/*--------------------------------*- C++ -*----------------------------------*\
| =========                 |                                                 |
| \\      /  F ield         | OpenFOAM: The Open Source CFD Toolbox           |
|  \\    /   O peration     | Version:  v1806                                 |
|   \\  /    A nd           | Web:      www.OpenFOAM.com                      |
|    \\/     M anipulation  |                                                 |
\*---------------------------------------------------------------------------*/
FoamFile
{
    version     2.0;
    format      ascii;
    class       volVectorField;
    location    "330";
    object      U;
}
// * * * * * * * * * * * * * * * * * * * * * * * * * * * * * * * * * * * * * //

dimensions      [0 1 -1 0 0 0 0];


internalField   nonuniform List<vector> 
4400
(
(0.206477 0.236041 0)
(0.274342 0.192588 0)
(0.299416 0.157518 0)
(0.310798 0.126804 0)
(0.317816 0.102816 0)
(0.321913 0.0857084 0)
(0.323513 0.0735069 0)
(0.323412 0.0644942 0)
(0.322347 0.0576511 0)
(0.320793 0.0523468 0)
(0.319003 0.0481629 0)
(0.317104 0.044817 0)
(0.315165 0.042116 0)
(0.313221 0.0399248 0)
(0.31129 0.0381475 0)
(0.309381 0.0367152 0)
(0.307495 0.0355784 0)
(0.305636 0.0347043 0)
(0.30384 0.0340567 0)
(0.302337 0.0335425 0)
(0.233478 0.138428 0)
(0.267579 0.111026 0)
(0.288434 0.0946269 0)
(0.303775 0.0848376 0)
(0.312487 0.0768544 0)
(0.316586 0.0695887 0)
(0.31826 0.0631029 0)
(0.318655 0.0575126 0)
(0.318284 0.0528018 0)
(0.317413 0.0488691 0)
(0.316212 0.0455893 0)
(0.314799 0.0428488 0)
(0.313257 0.0405566 0)
(0.311644 0.0386429 0)
(0.309995 0.0370545 0)
(0.308332 0.0357513 0)
(0.306665 0.0347038 0)
(0.305006 0.033892 0)
(0.303393 0.033285 0)
(0.302033 0.0328195 0)
(0.217163 0.0998641 0)
(0.250693 0.103274 0)
(0.275379 0.100452 0)
(0.291305 0.0922602 0)
(0.301287 0.0819313 0)
(0.307615 0.0723805 0)
(0.311424 0.0644802 0)
(0.313408 0.0580815 0)
(0.314136 0.0528797 0)
(0.314046 0.0486237 0)
(0.313436 0.0451221 0)
(0.312494 0.0422291 0)
(0.311342 0.0398342 0)
(0.310058 0.0378541 0)
(0.308693 0.0362258 0)
(0.307279 0.0349022 0)
(0.305836 0.0338481 0)
(0.304381 0.0330391 0)
(0.302953 0.0324437 0)
(0.301737 0.0320026 0)
(0.237241 0.0690764 0)
(0.260207 0.0736021 0)
(0.276674 0.0719232 0)
(0.289103 0.0682871 0)
(0.297996 0.0642977 0)
(0.303876 0.0601789 0)
(0.307552 0.0560599 0)
(0.309707 0.0521281 0)
(0.310802 0.048528 0)
(0.311145 0.0453271 0)
(0.310956 0.0425333 0)
(0.310393 0.0401231 0)
(0.309574 0.0380624 0)
(0.308581 0.0363162 0)
(0.307473 0.0348537 0)
(0.306289 0.0336486 0)
(0.305056 0.0326803 0)
(0.303795 0.0319337 0)
(0.302545 0.0313845 0)
(0.301474 0.0309872 0)
(0.242579 0.0518326 0)
(0.258434 0.0605573 0)
(0.272982 0.064258 0)
(0.284655 0.0641062 0)
(0.29329 0.0614199 0)
(0.29941 0.0575853 0)
(0.303588 0.0535599 0)
(0.306274 0.0497776 0)
(0.307838 0.0463719 0)
(0.308582 0.0433643 0)
(0.308742 0.0407398 0)
(0.30849 0.0384703 0)
(0.30795 0.0365244 0)
(0.307209 0.0348717 0)
(0.306331 0.0334854 0)
(0.305358 0.0323428 0)
(0.304321 0.0314258 0)
(0.303244 0.0307209 0)
(0.302165 0.0302067 0)
(0.301233 0.0298445 0)
(0.254804 0.0393649 0)
(0.266395 0.0468784 0)
(0.276796 0.0504299 0)
(0.28549 0.0512446 0)
(0.292417 0.0505346 0)
(0.297641 0.0489577 0)
(0.301382 0.0468887 0)
(0.303931 0.0445954 0)
(0.305554 0.04227 0)
(0.306466 0.0400381 0)
(0.306841 0.0379725 0)
(0.306816 0.0361089 0)
(0.306499 0.0344606 0)
(0.30597 0.0330279 0)
(0.305291 0.0318053 0)
(0.304506 0.0307853 0)
(0.303647 0.02996 0)
(0.30274 0.029323 0)
(0.301821 0.0288592 0)
(0.30102 0.0285393 0)
(0.261791 0.0308504 0)
(0.269656 0.0382682 0)
(0.277737 0.0428751 0)
(0.285057 0.0450572 0)
(0.291147 0.0454082 0)
(0.295917 0.0445401 0)
(0.299476 0.0429868 0)
(0.302006 0.0411271 0)
(0.303697 0.0391875 0)
(0.304726 0.0372935 0)
(0.305246 0.0355142 0)
(0.305382 0.0338873 0)
(0.305233 0.0324313 0)
(0.304873 0.0311535 0)
(0.304361 0.030055 0)
(0.303738 0.0291334 0)
(0.303037 0.0283856 0)
(0.302283 0.0278081 0)
(0.30151 0.0273896 0)
(0.300832 0.0271074 0)
(0.269588 0.0246847 0)
(0.275406 0.0308731 0)
(0.28138 0.0350353 0)
(0.286882 0.0373607 0)
(0.29163 0.0383225 0)
(0.295513 0.0383318 0)
(0.298532 0.0376949 0)
(0.300768 0.0366486 0)
(0.302336 0.0353767 0)
(0.303355 0.0340129 0)
(0.303935 0.0326496 0)
(0.304171 0.0313476 0)
(0.304143 0.0301452 0)
(0.303915 0.0290653 0)
(0.30354 0.028121 0)
(0.303056 0.027319 0)
(0.302493 0.0266629 0)
(0.301876 0.0261541 0)
(0.301236 0.0257861 0)
(0.30067 0.0255428 0)
(0.275127 0.0199491 0)
(0.27921 0.0254837 0)
(0.283686 0.0295295 0)
(0.288048 0.0321258 0)
(0.291957 0.0334997 0)
(0.295247 0.0339289 0)
(0.297876 0.033688 0)
(0.299876 0.0330121 0)
(0.30132 0.0320816 0)
(0.302295 0.031025 0)
(0.302888 0.0299306 0)
(0.303176 0.0288585 0)
(0.303228 0.027849 0)
(0.303098 0.0269286 0)
(0.302831 0.0261145 0)
(0.302462 0.0254172 0)
(0.302017 0.0248435 0)
(0.301519 0.0243976 0)
(0.300997 0.0240761 0)
(0.30053 0.0238678 0)
(0.280359 0.016397 0)
(0.283374 0.0210196 0)
(0.286699 0.0245735 0)
(0.289977 0.0270253 0)
(0.292978 0.0285235 0)
(0.295574 0.0292594 0)
(0.297708 0.0294152 0)
(0.299382 0.0291513 0)
(0.300629 0.0286044 0)
(0.301504 0.0278851 0)
(0.302064 0.0270786 0)
(0.302369 0.0262479 0)
(0.302469 0.0254385 0)
(0.302408 0.0246824 0)
(0.302225 0.0240015 0)
(0.301949 0.023411 0)
(0.301604 0.022921 0)
(0.30121 0.0225385 0)
(0.300791 0.0222631 0)
(0.300413 0.0220881 0)
(0.28441 0.0134753 0)
(0.286569 0.0174825 0)
(0.289024 0.0206758 0)
(0.291528 0.0230118 0)
(0.293885 0.0245606 0)
(0.295967 0.0254419 0)
(0.297713 0.025793 0)
(0.299108 0.0257485 0)
(0.30017 0.0254271 0)
(0.300932 0.0249261 0)
(0.301438 0.0243219 0)
(0.301732 0.0236729 0)
(0.301853 0.0230225 0)
(0.301838 0.0224025 0)
(0.301718 0.0218359 0)
(0.301516 0.0213393 0)
(0.301253 0.0209244 0)
(0.300946 0.0205992 0)
(0.300616 0.0203657 0)
(0.300315 0.0202202 0)
(0.288008 0.0111719 0)
(0.289579 0.0145184 0)
(0.291378 0.0172694 0)
(0.293228 0.0193644 0)
(0.294992 0.0208398 0)
(0.296578 0.0217749 0)
(0.297935 0.0222637 0)
(0.299042 0.022402 0)
(0.299903 0.0222796 0)
(0.300536 0.021975 0)
(0.30097 0.0215545 0)
(0.301235 0.0210711 0)
(0.30136 0.0205665 0)
(0.301373 0.0200722 0)
(0.301297 0.0196119 0)
(0.301153 0.0192031 0)
(0.300957 0.0188585 0)
(0.300724 0.0185871 0)
(0.300469 0.0183925 0)
(0.300235 0.0182736 0)
(0.29089 0.00919298 0)
(0.292004 0.012032 0)
(0.293299 0.0144095 0)
(0.294657 0.016276 0)
(0.295975 0.0176454 0)
(0.297179 0.0185661 0)
(0.298224 0.0191047 0)
(0.299087 0.0193351 0)
(0.299768 0.0193298 0)
(0.300277 0.0191542 0)
(0.300633 0.0188643 0)
(0.300858 0.0185063 0)
(0.300974 0.0181175 0)
(0.301 0.0177268 0)
(0.300955 0.0173565 0)
(0.300855 0.0170237 0)
(0.300713 0.0167409 0)
(0.30054 0.0165173 0)
(0.300349 0.0163573 0)
(0.30017 0.0162615 0)
(0.293356 0.00754756 0)
(0.294135 0.00988702 0)
(0.295045 0.0118842 0)
(0.296006 0.0134896 0)
(0.296946 0.0147057 0)
(0.297815 0.015563 0)
(0.298578 0.0161071 0)
(0.299218 0.0163911 0)
(0.29973 0.0164694 0)
(0.300119 0.0163933 0)
(0.300397 0.0162087 0)
(0.300577 0.0159549 0)
(0.300675 0.0156643 0)
(0.300705 0.0153632 0)
(0.30068 0.015072 0)
(0.300613 0.0148066 0)
(0.300513 0.0145791 0)
(0.300389 0.0143983 0)
(0.30025 0.0142692 0)
(0.300119 0.0141935 0)
(0.29533 0.00608451 0)
(0.295854 0.00800449 0)
(0.296471 0.00966107 0)
(0.297128 0.0110155 0)
(0.29778 0.0120651 0)
(0.298388 0.0128281 0)
(0.298927 0.0133359 0)
(0.299383 0.0136277 0)
(0.299751 0.0137453 0)
(0.300033 0.0137292 0)
(0.300238 0.0136165 0)
(0.300373 0.0134395 0)
(0.300449 0.0132256 0)
(0.300477 0.012997 0)
(0.300465 0.0127718 0)
(0.300421 0.0125639 0)
(0.300354 0.0123843 0)
(0.300269 0.0122409 0)
(0.300172 0.0121388 0)
(0.300079 0.0120802 0)
(0.296945 0.00480296 0)
(0.297278 0.00632037 0)
(0.297672 0.00764538 0)
(0.298094 0.00874392 0)
(0.298514 0.00961059 0)
(0.298908 0.0102561 0)
(0.29926 0.0107018 0)
(0.299561 0.0109752 0)
(0.299806 0.0111071 0)
(0.299996 0.0111279 0)
(0.300135 0.0110666 0)
(0.300228 0.0109487 0)
(0.300282 0.0107964 0)
(0.300304 0.0106281 0)
(0.300298 0.0104589 0)
(0.300272 0.0103008 0)
(0.300229 0.010163 0)
(0.300174 0.0100525 0)
(0.300111 0.00997398 0)
(0.30005 0.00992995 0)
(0.298183 0.0036232 0)
(0.298376 0.00478026 0)
(0.298606 0.00579684 0)
(0.298853 0.00664734 0)
(0.2991 0.00732661 0)
(0.299334 0.00784084 0)
(0.299544 0.00820411 0)
(0.299724 0.00843583 0)
(0.299871 0.00855804 0)
(0.299986 0.00859331 0)
(0.300071 0.00856314 0)
(0.300128 0.00848701 0)
(0.300162 0.00838194 0)
(0.300176 0.00826229 0)
(0.300174 0.00813985 0)
(0.300159 0.00802412 0)
(0.300134 0.00792256 0)
(0.300102 0.00784082 0)
(0.300065 0.00778288 0)
(0.300028 0.00775116 0)
(0.2991 0.0025366 0)
(0.299194 0.00334681 0)
(0.299306 0.00406356 0)
(0.299428 0.00466739 0)
(0.29955 0.005154 0)
(0.299665 0.0055268 0)
(0.299769 0.00579466 0)
(0.299858 0.00597019 0)
(0.299932 0.00606809 0)
(0.29999 0.00610365 0)
(0.300032 0.00609168 0)
(0.300062 0.0060458 0)
(0.300079 0.00597804 0)
(0.300087 0.00589868 0)
(0.300086 0.00581619 0)
(0.300079 0.00573746 0)
(0.300067 0.00566795 0)
(0.300051 0.00561181 0)
(0.300032 0.00557214 0)
(0.300013 0.00555091 0)
(0.299692 0.00149926 0)
(0.299722 0.0019825 0)
(0.29976 0.00241014 0)
(0.299802 0.00277155 0)
(0.299844 0.0030643 0)
(0.299884 0.0032901 0)
(0.299919 0.00345382 0)
(0.29995 0.00356264 0)
(0.299976 0.00362505 0)
(0.299996 0.00364998 0)
(0.300011 0.00364615 0)
(0.300021 0.00362164 0)
(0.300027 0.0035836 0)
(0.30003 0.0035382 0)
(0.300029 0.00349053 0)
(0.300027 0.00344475 0)
(0.300023 0.00340416 0)
(0.300017 0.00337131 0)
(0.300011 0.00334816 0)
(0.300004 0.003336 0)
(0.299985 0.000503588 0)
(0.299986 0.000658536 0)
(0.299988 0.000799573 0)
(0.29999 0.000919562 0)
(0.299992 0.00101709 0)
(0.299994 0.00109257 0)
(0.299996 0.00114756 0)
(0.299998 0.00118437 0)
(0.299999 0.00120575 0)
(0.3 0.00121464 0)
(0.300001 0.00121391 0)
(0.300001 0.00120622 0)
(0.300001 0.00119396 0)
(0.300002 0.00117917 0)
(0.300002 0.00116356 0)
(0.300001 0.00114852 0)
(0.300001 0.00113516 0)
(0.300001 0.00112434 0)
(0.300001 0.00111672 0)
(0.3 0.00111276 0)
(0.0892816 -0.159851 0)
(0.0731845 -0.136512 0)
(0.0626032 -0.114616 0)
(0.054839 -0.094977 0)
(0.0488732 -0.0770728 0)
(0.0442473 -0.0604635 0)
(0.040713 -0.0448531 0)
(0.0381176 -0.0299965 0)
(0.036362 -0.0156721 0)
(0.0353841 -0.00167588 0)
(0.0351509 0.0121849 0)
(0.0356561 0.0260978 0)
(0.0369206 0.0402522 0)
(0.0389969 0.054846 0)
(0.0419798 0.0700924 0)
(0.0460308 0.0862275 0)
(0.0514374 0.103547 0)
(0.0587706 0.122513 0)
(0.0693396 0.143675 0)
(0.086678 0.166145 0)
(0.165967 -0.103014 0)
(0.152537 -0.0933829 0)
(0.140953 -0.0826049 0)
(0.131283 -0.0712279 0)
(0.123383 -0.0594517 0)
(0.117078 -0.0473838 0)
(0.112207 -0.0351065 0)
(0.108632 -0.0226808 0)
(0.106253 -0.0101492 0)
(0.105 0.00245873 0)
(0.104833 0.015121 0)
(0.105747 0.0278189 0)
(0.107765 0.0405341 0)
(0.110948 0.0532442 0)
(0.115394 0.0659165 0)
(0.121261 0.0784967 0)
(0.128776 0.0909095 0)
(0.138289 0.103132 0)
(0.15035 0.115202 0)
(0.165838 0.125885 0)
(0.186292 -0.0684201 0)
(0.181321 -0.0625666 0)
(0.17685 -0.0559051 0)
(0.172887 -0.0485648 0)
(0.16945 -0.0406885 0)
(0.166565 -0.0323957 0)
(0.164259 -0.0237835 0)
(0.162553 -0.0149335 0)
(0.161463 -0.00591501 0)
(0.161001 0.00321108 0)
(0.161177 0.0123894 0)
(0.161998 0.0215672 0)
(0.163471 0.0306908 0)
(0.165599 0.0397034 0)
(0.168385 0.0485401 0)
(0.171829 0.0571229 0)
(0.175934 0.0653598 0)
(0.180709 0.073157 0)
(0.186199 0.0803892 0)
(0.192543 0.0865873 0)
(0.215552 -0.0436031 0)
(0.211808 -0.0392021 0)
(0.208354 -0.0344737 0)
(0.205258 -0.0294802 0)
(0.202564 -0.0242461 0)
(0.200307 -0.0188004 0)
(0.198506 -0.0131776 0)
(0.197178 -0.00741434 0)
(0.196331 -0.00154839 0)
(0.195974 0.00438176 0)
(0.19611 0.0103369 0)
(0.196741 0.0162771 0)
(0.197871 0.0221618 0)
(0.1995 0.0279498 0)
(0.201629 0.0335985 0)
(0.204256 0.039064 0)
(0.207381 0.0443035 0)
(0.211005 0.0492854 0)
(0.215139 0.0539727 0)
(0.219804 0.0581718 0)
(0.230222 -0.0315464 0)
(0.22826 -0.0282913 0)
(0.226502 -0.0248179 0)
(0.224958 -0.0211433 0)
(0.223637 -0.0172897 0)
(0.222549 -0.0132827 0)
(0.221704 -0.00914957 0)
(0.221111 -0.00491819 0)
(0.220777 -0.000616974 0)
(0.220708 0.00372542 0)
(0.220906 0.00808012 0)
(0.221372 0.012418 0)
(0.222104 0.0167098 0)
(0.223099 0.0209257 0)
(0.224349 0.0250354 0)
(0.225845 0.029008 0)
(0.227575 0.0328123 0)
(0.229526 0.0364189 0)
(0.231687 0.0397967 0)
(0.23405 0.0428814 0)
(0.246054 -0.0224761 0)
(0.244652 -0.0198963 0)
(0.243377 -0.0171971 0)
(0.242245 -0.0144084 0)
(0.241269 -0.0115385 0)
(0.240459 -0.00859691 0)
(0.239825 -0.00559628 0)
(0.239375 -0.00255042 0)
(0.239114 0.000526308 0)
(0.239046 0.00361904 0)
(0.239173 0.0067125 0)
(0.239496 0.00979116 0)
(0.240013 0.0128395 0)
(0.240722 0.015842 0)
(0.241617 0.0187836 0)
(0.242694 0.0216493 0)
(0.243943 0.0244258 0)
(0.245356 0.0271035 0)
(0.246924 0.029673 0)
(0.248636 0.0320906 0)
(0.255914 -0.0169856 0)
(0.255044 -0.0149879 0)
(0.254276 -0.0129128 0)
(0.253611 -0.0107706 0)
(0.253052 -0.00856785 0)
(0.252602 -0.00631274 0)
(0.252264 -0.00401473 0)
(0.252038 -0.00168391 0)
(0.251927 0.000669254 0)
(0.251932 0.00303398 0)
(0.252053 0.00539928 0)
(0.252289 0.00775407 0)
(0.25264 0.0100873 0)
(0.253101 0.0123878 0)
(0.253672 0.0146449 0)
(0.254347 0.016848 0)
(0.255122 0.018987 0)
(0.255994 0.0210528 0)
(0.256956 0.0230374 0)
(0.258006 0.0249269 0)
(0.265392 -0.0130147 0)
(0.264779 -0.0113907 0)
(0.264232 -0.00971613 0)
(0.263756 -0.0080071 0)
(0.263352 -0.00626701 0)
(0.263024 -0.00449976 0)
(0.262775 -0.00271079 0)
(0.262607 -0.000905924 0)
(0.262521 0.000908996 0)
(0.262518 0.00272799 0)
(0.2626 0.00454494 0)
(0.262765 0.0063538 0)
(0.263012 0.00814853 0)
(0.263341 0.00992321 0)
(0.263749 0.011672 0)
(0.264234 0.0133894 0)
(0.264793 0.0150701 0)
(0.26542 0.0167104 0)
(0.266114 0.0183067 0)
(0.266869 0.0198436 0)
(0.272086 -0.0101865 0)
(0.271668 -0.00888638 0)
(0.271302 -0.0075532 0)
(0.270988 -0.00619441 0)
(0.270729 -0.00481243 0)
(0.270523 -0.00341038 0)
(0.270371 -0.00199219 0)
(0.270275 -0.000562044 0)
(0.270233 0.000875773 0)
(0.270247 0.0023169 0)
(0.270316 0.00375693 0)
(0.270439 0.00519141 0)
(0.270616 0.00661591 0)
(0.270846 0.00802608 0)
(0.271128 0.00941766 0)
(0.271459 0.0107865 0)
(0.27184 0.0121286 0)
(0.272268 0.0134407 0)
(0.272741 0.0147199 0)
(0.273258 0.0159606 0)
(0.278161 -0.00814496 0)
(0.277866 -0.00707116 0)
(0.277607 -0.00597311 0)
(0.277385 -0.00486013 0)
(0.277199 -0.00373359 0)
(0.277052 -0.00259519 0)
(0.276944 -0.00144746 0)
(0.276874 -0.000293158 0)
(0.276844 0.00086502 0)
(0.276853 0.00202436 0)
(0.276902 0.00318214 0)
(0.27699 0.00433563 0)
(0.277117 0.00548216 0)
(0.277283 0.00661907 0)
(0.277485 0.00774376 0)
(0.277724 0.00885368 0)
(0.277998 0.00994646 0)
(0.278306 0.0110203 0)
(0.278646 0.0120736 0)
(0.279018 0.0130995 0)
(0.282785 -0.00653291 0)
(0.282573 -0.00565564 0)
(0.28239 -0.00476203 0)
(0.282235 -0.00385743 0)
(0.282108 -0.00294276 0)
(0.282008 -0.00201933 0)
(0.281936 -0.001089 0)
(0.281892 -0.000153747 0)
(0.281876 0.000784452 0)
(0.281888 0.0017236 0)
(0.281927 0.00266169 0)
(0.281993 0.00359671 0)
(0.282087 0.00452665 0)
(0.282206 0.00544955 0)
(0.282352 0.00636347 0)
(0.282523 0.00726651 0)
(0.282718 0.00815687 0)
(0.282938 0.00903301 0)
(0.283181 0.00989369 0)
(0.283447 0.010736 0)
(0.28684 -0.0053281 0)
(0.286692 -0.00459984 0)
(0.286563 -0.00385886 0)
(0.286454 -0.00311081 0)
(0.286364 -0.00235625 0)
(0.286294 -0.00159592 0)
(0.286244 -0.000831153 0)
(0.286214 -6.33394e-05 0)
(0.286203 0.000706142 0)
(0.286212 0.00147593 0)
(0.28624 0.00224465 0)
(0.286288 0.00301094 0)
(0.286355 0.00377347 0)
(0.28644 0.00453089 0)
(0.286544 0.0052819 0)
(0.286666 0.00602519 0)
(0.286806 0.00675955 0)
(0.286962 0.00748403 0)
(0.287135 0.00819781 0)
(0.287324 0.00889762 0)
(0.290044 -0.00431433 0)
(0.289936 -0.00371698 0)
(0.289844 -0.00311072 0)
(0.289766 -0.00249928 0)
(0.289704 -0.00188302 0)
(0.289655 -0.00126251 0)
(0.289621 -0.000638726 0)
(0.289601 -1.27007e-05 0)
(0.289595 0.000614547 0)
(0.289603 0.001242 0)
(0.289625 0.00186865 0)
(0.28966 0.00249347 0)
(0.289708 0.00311545 0)
(0.28977 0.0037336 0)
(0.289844 0.00434695 0)
(0.289931 0.00495452 0)
(0.290031 0.00555537 0)
(0.290142 0.00614874 0)
(0.290266 0.00673403 0)
(0.290401 0.00730962 0)
(0.292772 -0.00351311 0)
(0.292698 -0.00302227 0)
(0.292635 -0.00252433 0)
(0.292582 -0.00202288 0)
(0.292539 -0.0015181 0)
(0.292506 -0.00101035 0)
(0.292483 -0.000500337 0)
(0.29247 1.11602e-05 0)
(0.292466 0.000523397 0)
(0.292472 0.00103564 0)
(0.292488 0.00154715 0)
(0.292512 0.00205719 0)
(0.292546 0.00256505 0)
(0.292588 0.00307001 0)
(0.292639 0.00357137 0)
(0.292699 0.00406841 0)
(0.292768 0.00456048 0)
(0.292844 0.00504706 0)
(0.292929 0.00552774 0)
(0.293021 0.00600083 0)
(0.294938 -0.00281012 0)
(0.294885 -0.00241432 0)
(0.294841 -0.00201347 0)
(0.294805 -0.00161019 0)
(0.294775 -0.00120456 0)
(0.294753 -0.000796803 0)
(0.294738 -0.000387453 0)
(0.294729 2.29227e-05 0)
(0.294727 0.000433775 0)
(0.294731 0.000844561 0)
(0.294742 0.00125474 0)
(0.294758 0.00166377 0)
(0.294781 0.00207112 0)
(0.29481 0.00247627 0)
(0.294845 0.00287868 0)
(0.294885 0.00327785 0)
(0.294932 0.00367326 0)
(0.294983 0.00406452 0)
(0.295041 0.00445136 0)
(0.295103 0.00483281 0)
(0.296711 -0.00221484 0)
(0.296676 -0.00190143 0)
(0.296647 -0.00158412 0)
(0.296622 -0.00126529 0)
(0.296603 -0.000944917 0)
(0.296589 -0.000623109 0)
(0.296579 -0.000300243 0)
(0.296573 2.32631e-05 0)
(0.296571 0.000347013 0)
(0.296574 0.000670616 0)
(0.29658 0.000993687 0)
(0.29659 0.00131584 0)
(0.296604 0.00163668 0)
(0.296622 0.00195585 0)
(0.296644 0.00227296 0)
(0.296669 0.00258764 0)
(0.296698 0.00289952 0)
(0.29673 0.00320835 0)
(0.296765 0.00351396 0)
(0.296804 0.00381538 0)
(0.298066 -0.00166121 0)
(0.298041 -0.00142497 0)
(0.29802 -0.00118594 0)
(0.298004 -0.000945905 0)
(0.297991 -0.000704802 0)
(0.297981 -0.000462691 0)
(0.297974 -0.000219848 0)
(0.297969 2.34283e-05 0)
(0.297968 0.000266853 0)
(0.297969 0.000510151 0)
(0.297972 0.000753047 0)
(0.297977 0.000995269 0)
(0.297985 0.00123655 0)
(0.297995 0.00147661 0)
(0.298008 0.0017152 0)
(0.298022 0.00195203 0)
(0.298038 0.00218686 0)
(0.298057 0.0024195 0)
(0.298078 0.00264986 0)
(0.2981 0.0028773 0)
(0.299065 -0.00115054 0)
(0.299049 -0.000986938 0)
(0.299036 -0.000821013 0)
(0.299026 -0.000654167 0)
(0.299018 -0.000486396 0)
(0.299012 -0.000317775 0)
(0.299007 -0.000148528 0)
(0.299004 2.11126e-05 0)
(0.299003 0.000190933 0)
(0.299003 0.00036073 0)
(0.299004 0.000530306 0)
(0.299006 0.000699467 0)
(0.299009 0.000868024 0)
(0.299014 0.00103579 0)
(0.299019 0.00120258 0)
(0.299026 0.0013682 0)
(0.299033 0.00153247 0)
(0.299042 0.00169528 0)
(0.299051 0.00185656 0)
(0.299062 0.00201573 0)
(0.299696 -0.000662342 0)
(0.299689 -0.000568259 0)
(0.299684 -0.000472498 0)
(0.29968 -0.000375841 0)
(0.299676 -0.000278325 0)
(0.299674 -0.000180066 0)
(0.299672 -8.12465e-05 0)
(0.299671 1.79571e-05 0)
(0.29967 0.000117392 0)
(0.29967 0.000216918 0)
(0.29967 0.000316401 0)
(0.299671 0.000415715 0)
(0.299671 0.000514736 0)
(0.299673 0.000613347 0)
(0.299674 0.000711434 0)
(0.299676 0.000808879 0)
(0.299678 0.000905564 0)
(0.29968 0.00100141 0)
(0.299682 0.00109646 0)
(0.299684 0.00119054 0)
(0.299989 -0.000221578 0)
(0.299989 -0.000190685 0)
(0.299988 -0.000158596 0)
(0.299988 -0.00012623 0)
(0.299988 -9.35903e-05 0)
(0.299988 -6.06758e-05 0)
(0.299988 -2.75519e-05 0)
(0.299988 5.71658e-06 0)
(0.299988 3.90786e-05 0)
(0.299988 7.24911e-05 0)
(0.299988 0.000105915 0)
(0.299988 0.000139314 0)
(0.299988 0.000172656 0)
(0.299988 0.000205911 0)
(0.299988 0.000239053 0)
(0.299988 0.000272053 0)
(0.299988 0.000304896 0)
(0.299988 0.000337641 0)
(0.299988 0.000370411 0)
(0.299987 0.000402682 0)
(0.304915 -0.124429 0)
(0.303114 -0.128684 0)
(0.301235 -0.133206 0)
(0.299229 -0.137992 0)
(0.297038 -0.143026 0)
(0.294598 -0.148299 0)
(0.291828 -0.153788 0)
(0.288604 -0.159449 0)
(0.284764 -0.165218 0)
(0.280107 -0.171 0)
(0.274385 -0.17667 0)
(0.26731 -0.182065 0)
(0.258555 -0.186984 0)
(0.247765 -0.191179 0)
(0.234563 -0.194331 0)
(0.218571 -0.196033 0)
(0.199464 -0.195928 0)
(0.177015 -0.19404 0)
(0.150998 -0.190428 0)
(0.121099 -0.18204 0)
(0.304351 -0.0662164 0)
(0.302502 -0.0686554 0)
(0.300566 -0.0713056 0)
(0.298428 -0.0741421 0)
(0.296056 -0.0771766 0)
(0.293431 -0.0804305 0)
(0.290523 -0.0839196 0)
(0.287294 -0.0876509 0)
(0.283692 -0.0916186 0)
(0.279645 -0.0957969 0)
(0.27506 -0.100133 0)
(0.269821 -0.104539 0)
(0.263779 -0.108879 0)
(0.256756 -0.112958 0)
(0.248549 -0.116509 0)
(0.238948 -0.119191 0)
(0.22776 -0.120598 0)
(0.2148 -0.120251 0)
(0.199804 -0.117527 0)
(0.182541 -0.111633 0)
(0.297964 -0.0761973 0)
(0.296009 -0.0777439 0)
(0.293787 -0.0793109 0)
(0.291255 -0.0808685 0)
(0.288387 -0.0824059 0)
(0.285156 -0.083909 0)
(0.281532 -0.0853614 0)
(0.277486 -0.0867432 0)
(0.272989 -0.0880294 0)
(0.268016 -0.0891879 0)
(0.262545 -0.0901768 0)
(0.25656 -0.0909409 0)
(0.250054 -0.0914076 0)
(0.243031 -0.0914812 0)
(0.235512 -0.0910403 0)
(0.22754 -0.0899351 0)
(0.219187 -0.0879826 0)
(0.210553 -0.0849553 0)
(0.201792 -0.0805938 0)
(0.19314 -0.0746915 0)
(0.301594 -0.0541209 0)
(0.300252 -0.0556343 0)
(0.298768 -0.0572105 0)
(0.297066 -0.0587974 0)
(0.295117 -0.060374 0)
(0.292894 -0.0619152 0)
(0.290364 -0.0633902 0)
(0.287495 -0.0647615 0)
(0.284252 -0.0659846 0)
(0.2806 -0.0670061 0)
(0.276507 -0.0677642 0)
(0.271946 -0.0681869 0)
(0.2669 -0.0681929 0)
(0.261364 -0.0676925 0)
(0.255355 -0.0665904 0)
(0.248916 -0.0647898 0)
(0.242119 -0.0621939 0)
(0.235073 -0.0587192 0)
(0.227932 -0.0543179 0)
(0.220892 -0.0489146 0)
(0.297144 -0.0521542 0)
(0.295712 -0.0529642 0)
(0.294111 -0.0537569 0)
(0.292314 -0.0545294 0)
(0.290305 -0.0552647 0)
(0.288073 -0.0559444 0)
(0.285603 -0.0565453 0)
(0.282882 -0.0570387 0)
(0.279899 -0.05739 0)
(0.276648 -0.0575578 0)
(0.273123 -0.0574942 0)
(0.269329 -0.0571441 0)
(0.265277 -0.0564441 0)
(0.260987 -0.0553248 0)
(0.256497 -0.0537125 0)
(0.251855 -0.0515314 0)
(0.247129 -0.0487077 0)
(0.242403 -0.0451789 0)
(0.237778 -0.0409165 0)
(0.233358 -0.0359276 0)
(0.301117 -0.0430079 0)
(0.300056 -0.0437805 0)
(0.298842 -0.0445261 0)
(0.29745 -0.0452306 0)
(0.295863 -0.0458728 0)
(0.294066 -0.0464316 0)
(0.292043 -0.0468816 0)
(0.289785 -0.0471941 0)
(0.28728 -0.0473364 0)
(0.284526 -0.0472731 0)
(0.281524 -0.0469649 0)
(0.278282 -0.0463689 0)
(0.274819 -0.0454396 0)
(0.271164 -0.04413 0)
(0.267356 -0.0423938 0)
(0.263452 -0.0401871 0)
(0.259518 -0.037471 0)
(0.255638 -0.034224 0)
(0.251903 -0.0304619 0)
(0.248404 -0.0261827 0)
(0.298756 -0.0392001 0)
(0.297821 -0.0397006 0)
(0.296759 -0.0401476 0)
(0.295558 -0.0405554 0)
(0.294204 -0.0409017 0)
(0.292687 -0.0411689 0)
(0.290997 -0.0413349 0)
(0.28913 -0.0413743 0)
(0.287081 -0.0412584 0)
(0.28485 -0.0409555 0)
(0.282443 -0.0404311 0)
(0.279872 -0.0396485 0)
(0.277156 -0.0385696 0)
(0.274322 -0.0371564 0)
(0.271408 -0.0353728 0)
(0.268459 -0.0331862 0)
(0.265532 -0.0305695 0)
(0.262689 -0.0275079 0)
(0.259996 -0.0240155 0)
(0.257512 -0.0201189 0)
(0.301063 -0.033999 0)
(0.30032 -0.0344388 0)
(0.299443 -0.0348139 0)
(0.29844 -0.0351412 0)
(0.297296 -0.0353971 0)
(0.296004 -0.0355665 0)
(0.294557 -0.0356294 0)
(0.292952 -0.035564 0)
(0.291187 -0.0353463 0)
(0.289267 -0.0349504 0)
(0.287198 -0.0343486 0)
(0.284996 -0.0335122 0)
(0.282681 -0.0324126 0)
(0.280281 -0.0310223 0)
(0.277833 -0.0293165 0)
(0.275379 -0.0272748 0)
(0.27297 -0.0248824 0)
(0.270663 -0.0221369 0)
(0.268514 -0.0190676 0)
(0.266576 -0.0157008 0)
(0.300089 -0.0305088 0)
(0.299505 -0.0308416 0)
(0.298818 -0.031101 0)
(0.298028 -0.0313173 0)
(0.297123 -0.0314648 0)
(0.296097 -0.0315306 0)
(0.294945 -0.031496 0)
(0.293664 -0.0313415 0)
(0.292253 -0.0310456 0)
(0.290718 -0.0305856 0)
(0.289065 -0.0299375 0)
(0.287307 -0.0290772 0)
(0.285465 -0.0279812 0)
(0.283562 -0.0266276 0)
(0.28163 -0.0249976 0)
(0.279706 -0.0230769 0)
(0.277833 -0.0208561 0)
(0.276056 -0.0183349 0)
(0.27442 -0.0155378 0)
(0.272957 -0.0124964 0)
(0.30117 -0.0267778 0)
(0.30071 -0.0270729 0)
(0.300143 -0.0272903 0)
(0.29949 -0.0274643 0)
(0.298735 -0.0275691 0)
(0.297875 -0.0275944 0)
(0.296908 -0.0275234 0)
(0.29583 -0.0273393 0)
(0.294643 -0.0270234 0)
(0.293352 -0.0265564 0)
(0.291963 -0.0259184 0)
(0.29049 -0.0250896 0)
(0.288952 -0.0240514 0)
(0.287369 -0.0227871 0)
(0.285772 -0.0212833 0)
(0.284193 -0.0195311 0)
(0.282669 -0.0175263 0)
(0.281239 -0.0152736 0)
(0.279942 -0.0128026 0)
(0.278806 -0.0101467 0)
(0.300808 -0.0237379 0)
(0.30047 -0.0239817 0)
(0.300052 -0.0241513 0)
(0.299562 -0.0242833 0)
(0.298989 -0.024351 0)
(0.298328 -0.0243449 0)
(0.297577 -0.0242497 0)
(0.296732 -0.0240496 0)
(0.295797 -0.0237284 0)
(0.294773 -0.023269 0)
(0.293669 -0.0226544 0)
(0.292495 -0.0218678 0)
(0.291268 -0.0208937 0)
(0.290007 -0.0197189 0)
(0.288736 -0.018333 0)
(0.287484 -0.0167302 0)
(0.286281 -0.0149086 0)
(0.28516 -0.0128733 0)
(0.284152 -0.0106494 0)
(0.283275 -0.00826898 0)
(0.301257 -0.0206892 0)
(0.301003 -0.0209115 0)
(0.300676 -0.0210635 0)
(0.300288 -0.0211807 0)
(0.299831 -0.0212378 0)
(0.2993 -0.0212261 0)
(0.298694 -0.0211328 0)
(0.298011 -0.0209436 0)
(0.297253 -0.0206446 0)
(0.296423 -0.0202206 0)
(0.295527 -0.0196567 0)
(0.294574 -0.0189388 0)
(0.293578 -0.0180539 0)
(0.292556 -0.0169913 0)
(0.291528 -0.0157435 0)
(0.29052 -0.0143071 0)
(0.289557 -0.0126827 0)
(0.288667 -0.0108773 0)
(0.287877 -0.00891709 0)
(0.287203 -0.006835 0)
(0.301125 -0.0179655 0)
(0.300947 -0.0181546 0)
(0.30072 -0.0182861 0)
(0.30044 -0.0183871 0)
(0.300107 -0.0184369 0)
(0.299713 -0.0184248 0)
(0.299258 -0.0183409 0)
(0.298741 -0.018171 0)
(0.298162 -0.0179024 0)
(0.297521 -0.0175213 0)
(0.296825 -0.0170147 0)
(0.296081 -0.0163701 0)
(0.2953 -0.0155766 0)
(0.294496 -0.0146255 0)
(0.293688 -0.0135112 0)
(0.292895 -0.0122314 0)
(0.29214 -0.010788 0)
(0.291447 -0.00918796 0)
(0.290837 -0.00745386 0)
(0.29032 -0.00561531 0)
(0.301301 -0.0152776 0)
(0.30117 -0.0154445 0)
(0.301009 -0.0155695 0)
(0.300801 -0.0156655 0)
(0.300556 -0.015722 0)
(0.300261 -0.0157222 0)
(0.299917 -0.0156594 0)
(0.29952 -0.0155196 0)
(0.299071 -0.015292 0)
(0.298572 -0.0149645 0)
(0.298027 -0.0145259 0)
(0.297443 -0.0139656 0)
(0.29683 -0.0132744 0)
(0.296198 -0.0124451 0)
(0.295564 -0.0114734 0)
(0.294944 -0.0103583 0)
(0.294356 -0.0091023 0)
(0.293821 -0.00771283 0)
(0.293357 -0.00621165 0)
(0.292972 -0.00462715 0)
(0.301259 -0.0127573 0)
(0.301165 -0.0128897 0)
(0.301078 -0.0130119 0)
(0.300939 -0.0131011 0)
(0.300771 -0.0131618 0)
(0.300557 -0.0131703 0)
(0.300303 -0.0131249 0)
(0.300007 -0.0130137 0)
(0.299671 -0.0128275 0)
(0.299296 -0.012556 0)
(0.298886 -0.012189 0)
(0.298446 -0.011717 0)
(0.297983 -0.011132 0)
(0.297506 -0.0104276 0)
(0.297027 -0.00960006 0)
(0.296559 -0.00864875 0)
(0.296116 -0.00757597 0)
(0.295714 -0.00638833 0)
(0.295369 -0.00510457 0)
(0.295085 -0.00374912 0)
(0.301344 -0.0102868 0)
(0.30127 -0.010385 0)
(0.301219 -0.0105065 0)
(0.301106 -0.0105804 0)
(0.300975 -0.0106398 0)
(0.300814 -0.0106574 0)
(0.300628 -0.0106341 0)
(0.300415 -0.0105587 0)
(0.300175 -0.0104218 0)
(0.299907 -0.010214 0)
(0.299612 -0.00992591 0)
(0.299294 -0.00954927 0)
(0.298957 -0.00907686 0)
(0.298607 -0.00850314 0)
(0.298254 -0.00782478 0)
(0.297906 -0.00704112 0)
(0.297576 -0.00615432 0)
(0.297277 -0.00517069 0)
(0.297022 -0.00410733 0)
(0.296816 -0.00298658 0)
(0.301356 -0.00792568 0)
(0.301267 -0.00794365 0)
(0.301245 -0.00805291 0)
(0.301179 -0.00811577 0)
(0.301112 -0.00818217 0)
(0.301027 -0.00821858 0)
(0.300922 -0.00822201 0)
(0.300793 -0.00818284 0)
(0.300639 -0.00809335 0)
(0.30046 -0.00794593 0)
(0.300256 -0.0077332 0)
(0.30003 -0.00744819 0)
(0.299784 -0.00708482 0)
(0.299524 -0.00663835 0)
(0.299256 -0.00610597 0)
(0.298989 -0.00548718 0)
(0.298733 -0.00478411 0)
(0.298499 -0.00400267 0)
(0.298301 -0.00315713 0)
(0.298144 -0.00226582 0)
(0.301375 -0.00561386 0)
(0.301363 -0.00554763 0)
(0.301451 -0.00566716 0)
(0.301481 -0.00574021 0)
(0.301481 -0.00580814 0)
(0.301444 -0.00584925 0)
(0.301377 -0.00586241 0)
(0.301283 -0.00584364 0)
(0.301163 -0.0057879 0)
(0.30102 -0.00568955 0)
(0.300853 -0.00554271 0)
(0.300667 -0.00534178 0)
(0.300463 -0.00508195 0)
(0.300246 -0.00475966 0)
(0.300022 -0.00437308 0)
(0.299799 -0.0039224 0)
(0.299587 -0.00341011 0)
(0.299396 -0.00284161 0)
(0.299238 -0.00222793 0)
(0.299119 -0.00158305 0)
(0.301321 -0.0034799 0)
(0.30148 -0.0033714 0)
(0.301595 -0.00343298 0)
(0.301613 -0.00345954 0)
(0.301584 -0.00348047 0)
(0.301526 -0.00349395 0)
(0.301447 -0.00349643 0)
(0.301352 -0.00348368 0)
(0.301241 -0.00345079 0)
(0.301116 -0.00339298 0)
(0.300977 -0.00330582 0)
(0.300827 -0.00318544 0)
(0.300667 -0.00302871 0)
(0.300503 -0.00283356 0)
(0.300337 -0.00259918 0)
(0.300177 -0.00232619 0)
(0.300028 -0.00201672 0)
(0.299898 -0.00167466 0)
(0.299795 -0.00130631 0)
(0.299723 -0.000918774 0)
(0.300999 -0.00147188 0)
(0.30085 -0.00122603 0)
(0.30078 -0.00113609 0)
(0.300732 -0.00111062 0)
(0.30069 -0.00110587 0)
(0.300649 -0.00110827 0)
(0.300607 -0.00111065 0)
(0.300562 -0.00110941 0)
(0.300514 -0.00110214 0)
(0.300463 -0.00108688 0)
(0.30041 -0.00106195 0)
(0.300354 -0.00102588 0)
(0.300296 -0.000977522 0)
(0.300239 -0.000916112 0)
(0.300184 -0.000841346 0)
(0.300132 -0.000753461 0)
(0.300085 -0.000653303 0)
(0.300045 -0.000542447 0)
(0.300015 -0.00042374 0)
(0.299995 -0.000302143 0)
(0.0361925 -0.0897011 0)
(0.0318939 -0.0679565 9.20095e-21)
(0.0267238 -0.049826 -9.2011e-21)
(0.021918 -0.034712 0)
(0.0175149 -0.0224928 -1.01303e-20)
(0.0135469 -0.0128432 1.51956e-20)
(0.0100399 -0.00540141 -5.06518e-21)
(0.00700343 7.3789e-05 0)
(0.00442025 0.00385685 -4.94554e-21)
(0.00229702 0.00627865 4.94559e-21)
(0.000608225 0.0075694 0)
(-0.000666859 0.00795884 0)
(-0.00157332 0.00764963 0)
(-0.00216344 0.00682558 0)
(-0.00248165 0.00566669 0)
(-0.00256265 0.00433036 0)
(-0.00242523 0.00296008 -1.18728e-21)
(-0.00206856 0.00168713 1.18729e-21)
(-0.00147344 0.000632306 0)
(-0.000601096 8.71114e-05 0)
(0.112503 -0.0985375 8.33846e-21)
(0.0952263 -0.0792896 0)
(0.079416 -0.0629823 0)