x,y,z,U_0,U_1,U_2
0,0,0,0.300393,0.000395754,0
0,0.1,0,0.300281,0.000282681,0
0,0.2,0,0.300168,0.000169609,0
0,0.3,0,0.300056,5.65362e-05,0
0,0.4,0,0.3,0,0
0,0.5,0,0.3,0,0
0,0.6,0,0.3,0,0
0,0.7,0,0.3,-8.64664e-19,0
0,0.8,0,0.3,0,0
0,0.9,0,0.3,0,0
0,1,0,0.3,0,0
0,1.1,0,0.3,0,0
0,1.2,0,0.3,0,0
0,1.3,0,0.3,0,0
0,1.4,0,0.3,0,0
0,1.5,0,0.3,0,0
0,1.6,0,0.3,0,0
0,1.7,0,0.3,0,0
0,1.8,0,0.3,0,0
0,1.9,0,0.3,0,0
0,2,0,0.3,0,0
0,2.1,0,0.3,0,0
0,2.2,0,0.3,0,0
0,2.3,0,0.3,0,0
0,2.4,0,0.3,0,0
0,2.5,0,0.3,0,0
0,2.6,0,0.3,0,0
0,2.7,0,0.3,0,0
0,2.8,0,0.3,0,0
0,2.9,0,0.3,0,0
0,3,0,0.3,0,0
0,3.1,0,0.3,0,0
0,3.2,0,0.3,0,0
0,3.3,0,0.3,0,0
0,3.4,0,0.3,0,0
0,3.5,0,0.3,0,0
0,3.6,0,0.3,0,0
0,3.7,0,0.3,0,0
0,3.8,0,0.3,0,0
0,3.9,0,0.3,0,0
0,4,0,0.3,0,0
0,4.1,0,0.3,0,0
0,4.2,0,0.3,0,0
0,4.3,0,0.3,0,0
0,4.4,0,0.3,0,0
0,4.5,0,0.3,0,0
0,4.6,0,0.3,0,0
0,4.7,0,0.3,0,0
0,4.8,0,0.3,0,0
0,4.9,0,0.3,-2.39531e-19,0
0,5,0,0.3,0,0
0,5.1,0,0.3,0,0
0,5.2,0,0.3,0,0
0,5.3,0,0.3,0,0
0,5.4,0,0.3,0,0
0,5.5,0,0.3,0,0
0,5.6,0,0.3,-1.25873e-19,0
0,5.7,0,0.3,0,0
0,5.8,0,0.3,0,0
0,5.9,0,0.3,0,0
0,6,0,0.3,0,0
0,6.1,0,0.3,0,0
0,6.2,0,0.3,0,0
0,6.3,0,0.3,-1.04496e-20,0
0,6.4,0,0.3,0,0
0,6.5,0,0.3,0,0
0,6.6,0,0.3,0,0
0,6.7,0,0.3,0,0
0,6.8,0,0.3,0,0
0,6.9,0,0.3,0,0
0,7,0,0.3,0,0
0,7.1,0,0.3,0,0
0,7.2,0,0.3,1.38396e-19,0
0,7.3,0,0.3,1.54574e-19,0
0,7.4,0,0.3,1.70755e-19,0
0,7.5,0,0.3,0,0
0,7.6,0,0.3,2.03096e-19,0
0,7.7,0,0.3,0,0
0,7.8,0,0.3,2.35351e-19,0
0,7.9,0,0.3,0,0
0,8,0,0.3,0,0
0,8.1,0,0.3,0,0
0,8.2,0,0.3,0,0
0,8.3,0,0.3,0,0
0,8.4,0,0.3,0,0
0,8.5,0,0.3,0,0
0,8.6,0,0.3,0,0
0,8.7,0,0.3,0,0
0,8.8,0,0.3,0,0
0,8.9,0,0.3,0,0
0,9,0,0.3,0,0
0,9.1,0,0.3,0,0
0,9.2,0,0.3,0,0
0,9.3,0,0.3,0,0
0,9.4,0,0.3,0,0
0,9.5,0,0.3,0,0
0,9.6,0,0.3,0,0
0,9.7,0,0.3,0,0
0,9.8,0,0.3,0,0
0,9.9,0,0.3,0,0
0,10,0,0.3,0,0
0,10.1,0,0.3,0,0
0,10.2,0,0.3,0,0
0,10.3,0,0.3,0,0
0,10.4,0,0.3,0,0
0,10.5,0,0.3,0,0
0,10.6,0,0.3,0,0
0,10.7,0,0.3,0,0
0,10.8,0,0.3,0,0
0,10.9,0,0.3,0,0
0,11,0,0.3,0,0
0,11.1,0,0.3,0,0
0,11.2,0,0.3,0,0
0,11.3,0,0.3,0,0
0,11.4,0,0.3,0,0
0,11.5,0,0.3,0,0
0,11.6,0,0.3,0,0
0,11.7,0,0.3,0,0
0,11.8,0,0.3,0,0
0,11.9,0,0.3,0,0
0,12,0,0.3,0,0
0,12.1,0,0.3,0,0
0,12.2,0,0.3,0,0
0,12.3,0,0.3,0,0
0,12.4,0,0.3,0,0
0,12.5,0,0.300055,-4.79637e-05,0
0,12.6,0,0.30021,-0.000185003,0
0,12.7,0,0.300366,-0.000322042,0
0.1,0,0,0.300434,-0.000540564,0
0.1,0.1,0,0.30043,0.000432807,0
0.1,0.2,0,0.300318,0.000319735,0
0.1,0.3,0,0.300205,0.000206662,0
0.1,0.4,0,0.30019,0.000102164,0
0.1,0.5,0,0.30019,0.000102164,0
0.1,0.6,0,0.30019,0.000102164,0
0.1,0.7,0,0.300066,-0.000819811,0
0.1,0.8,0,0.300172,5.98341e-05,0
0.1,0.9,0,0.300172,5.98341e-05,0
0.1,1,0,0.300172,5.98341e-05,0
0.1,1.1,0,0.30015,1.48707e-05,0
0.1,1.2,0,0.30015,1.48707e-05,0
0.1,1.3,0,0.30015,1.48707e-05,0
0.1,1.4,0,0.300035,-0.000730315,0
0.1,1.5,0,0.300127,-1.51402e-05,0
0.1,1.6,0,0.300127,-1.51402e-05,0
0.1,1.7,0,0.300127,-1.51402e-05,0
0.1,1.8,0,0.300107,-3.86432e-05,0
0.1,1.9,0,0.300107,-3.86432e-05,0
0.1,2,0,0.300107,-3.86432e-05,0
0.1,2.1,0,0.300013,-0.000636963,0
0.1,2.2,0,0.300091,-5.57339e-05,0
0.1,2.3,0,0.300091,-5.57339e-05,0
0.1,2.4,0,0.300091,-5.57339e-05,0
0.1,2.5,0,0.300079,-6.72899e-05,0
0.1,2.6,0,0.300079,-6.72899e-05,0
0.1,2.7,0,0.300079,-6.72899e-05,0
0.1,2.8,0,0.299998,-0.000539341,0
0.1,2.9,0,0.300067,-7.40067e-05,0
0.1,3,0,0.300067,-7.40067e-05,0
0.1,3.1,0,0.300067,-7.40067e-05,0
0.1,3.2,0,0.300057,-7.68015e-05,0
0.1,3.3,0,0.300057,-7.68015e-05,0
0.1,3.4,0,0.300057,-7.68015e-05,0
0.1,3.5,0,0.299988,-0.000437798,0
0.1,3.6,0,0.300049,-7.64493e-05,0
0.1,3.7,0,0.300049,-7.64493e-05,0
0.1,3.8,0,0.300049,-7.64493e-05,0
0.1,3.9,0,0.300041,-7.34105e-05,0
0.1,4,0,0.300041,-7.34105e-05,0
0.1,4.1,0,0.300041,-7.34105e-05,0
0.1,4.2,0,0.29998,-0.000333397,0
0.1,4.3,0,0.300034,-6.83171e-05,0
0.1,4.4,0,0.300034,-6.83171e-05,0
0.1,4.5,0,0.300034,-6.83171e-05,0
0.1,4.6,0,0.300028,-6.16398e-05,0
0.1,4.7,0,0.300028,-6.16398e-05,0
0.1,4.8,0,0.300028,-6.16398e-05,0
0.1,4.9,0,0.299976,-0.000227106,0
0.1,5,0,0.300022,-5.38143e-05,0
0.1,5.1,0,0.300022,-5.38143e-05,0
0.1,5.2,0,0.300022,-5.38143e-05,0
0.1,5.3,0,0.300017,-4.52505e-05,0
0.1,5.4,0,0.300017,-4.52505e-05,0
0.1,5.5,0,0.300017,-4.52505e-05,0
0.1,5.6,0,0.299973,-0.000119344,0
0.1,5.7,0,0.300012,-3.63046e-05,0
0.1,5.8,0,0.300012,-3.63046e-05,0
0.1,5.9,0,0.300012,-3.63046e-05,0
0.1,6,0,0.300007,-2.72189e-05,0
0.1,6.1,0,0.300007,-2.72189e-05,0
0.1,6.2,0,0.300007,-2.72189e-05,0
0.1,6.3,0,0.299972,-9.90755e-06,0
0.1,6.4,0,0.300002,-1.7724e-05,0
0.1,6.5,0,0.300002,-1.7724e-05,0
0.1,6.6,0,0.300002,-1.7724e-05,0
0.1,6.7,0,0.299998,-1.05298e-05,0
0.1,6.8,0,0.299998,-1.05298e-05,0
0.1,6.9,0,0.299998,-1.05298e-05,0
0.1,7,0,0.299972,9.08758e-05,0
0.1,7.1,0,0.299973,0.000115842,0
0.1,7.2,0,0.299973,0.000131217,0
0.1,7.3,0,0.299973,0.000146555,0
0.1,7.4,0,0.299973,0.000161898,0
0.1,7.5,0,0.299974,0.000177237,0
0.1,7.6,0,0.299974,0.000192561,0
0.1,7.7,0,0.299974,0.000207863,0
0.1,7.8,0,0.299975,0.000223142,0
0.1,7.9,0,0.299975,0.000238403,0
0.1,8,0,0.299976,0.00025873,0
0.1,8.1,0,0.299994,5.63072e-05,0
0.1,8.2,0,0.299994,5.63072e-05,0
0.1,8.3,0,0.299997,6.37284e-05,0
0.1,8.4,0,0.299997,6.37284e-05,0
0.1,8.5,0,0.300001,6.98448e-05,0
0.1,8.6,0,0.300001,6.98448e-05,0
0.1,8.7,0,0.299985,0.000302428,0
0.1,8.8,0,0.300006,7.4972e-05,0
0.1,8.9,0,0.300006,7.4972e-05,0
0.1,9,0,0.300011,7.87998e-05,0
0.1,9.1,0,0.300011,7.87998e-05,0
0.1,9.2,0,0.300017,8.11272e-05,0
0.1,9.3,0,0.300017,8.11272e-05,0
0.1,9.4,0,0.300001,0.000311174,0
0.1,9.5,0,0.300024,8.18295e-05,0
0.1,9.6,0,0.300024,8.18295e-05,0
0.1,9.7,0,0.300032,8.07703e-05,0
0.1,9.8,0,0.300032,8.07703e-05,0
0.1,9.9,0,0.300032,0.000165577,0
0.1,10,0,0.30004,7.77947e-05,0
0.1,10.1,0,0.300025,0.000271538,0
0.1,10.2,0,0.300048,7.27341e-05,0
0.1,10.3,0,0.300048,7.27341e-05,0
0.1,10.4,0,0.300058,6.54006e-05,0
0.1,10.5,0,0.300058,6.54006e-05,0
0.1,10.6,0,0.300047,0.000284051,0
0.1,10.7,0,0.300069,5.55794e-05,0
0.1,10.8,0,0.30006,0.000172885,0
0.1,10.9,0,0.300082,4.30204e-05,0
0.1,11,0,0.300082,4.30204e-05,0
0.1,11.1,0,0.300096,2.7448e-05,0
0.1,11.2,0,0.300096,2.7448e-05,0
0.1,11.3,0,0.300065,0.000438962,0
0.1,11.4,0,0.300112,8.73722e-06,0
0.1,11.5,0,0.300112,8.73722e-06,0
0.1,11.6,0,0.30013,-1.39795e-05,0
0.1,11.7,0,0.30013,-1.39795e-05,0
0.1,11.8,0,0.300149,-4.06901e-05,0
0.1,11.9,0,0.300149,-4.06901e-05,0
0.1,12,0,0.300083,0.000640878,0
0.1,12.1,0,0.300165,-7.26954e-05,0
0.1,12.2,0,0.300165,-7.26954e-05,0
0.1,12.3,0,0.300176,-0.000104864,0
0.1,12.4,0,0.300176,-0.000104864,0
0.1,12.5,0,0.300197,-0.000172898,0
0.1,12.6,0,0.300352,-0.000309937,0
0.1,12.7,0,0.30041,0.000612254,0
0.2,0,0,0.300474,-0.00147688,0
0.2,0.1,0,0.300579,0.000582933,0
0.2,0.2,0,0.300467,0.000469861,0
0.2,0.3,0,0.300309,-0.000298475,0
0.2,0.4,0,0.300308,-0.000420102,0
0.2,0.5,0,0.300379,0.000204329,0
0.2,0.6,0,0.300379,0.000204329,0
0.2,0.7,0,0.300133,-0.00163962,0
0.2,0.8,0,0.300345,0.000119668,0
0.2,0.9,0,0.300345,0.000119668,0
0.2,1,0,0.300266,-0.000416888,0
0.2,1.1,0,0.300236,-0.00047791,0
0.2,1.2,0,0.300301,2.97415e-05,0
0.2,1.3,0,0.300301,2.97415e-05,0
0.2,1.4,0,0.30007,-0.00146063,0
0.2,1.5,0,0.300255,-3.02804e-05,0
0.2,1.6,0,0.300255,-3.02804e-05,0
0.2,1.7,0,0.300188,-0.000460172,0
0.2,1.8,0,0.30016,-0.000492068,0
0.2,1.9,0,0.300214,-7.72863e-05,0
0.2,2,0,0.300214,-7.72863e-05,0
0.2,2.1,0,0.300026,-0.00127393,0
0.2,2.2,0,0.300182,-0.000111468,0
0.2,2.3,0,0.300182,-0.000111468,0
0.2,2.4,0,0.300127,-0.000454112,0
0.2,2.5,0,0.30011,-0.000469795,0
0.2,2.6,0,0.300157,-0.00013458,0
0.2,2.7,0,0.300157,-0.00013458,0
0.2,2.8,0,0.299996,-0.00107868,0
0.2,2.9,0,0.300134,-0.000148013,0
0.2,3,0,0.300134,-0.000148013,0
0.2,3.1,0,0.300086,-0.000414786,0
0.2,3.2,0,0.300073,-0.000418579,0
0.2,3.3,0,0.300115,-0.000153603,0
0.2,3.4,0,0.300115,-0.000153603,0
0.2,3.5,0,0.299975,-0.000875596,0
0.2,3.6,0,0.300098,-0.000152899,0
0.2,3.7,0,0.300098,-0.000152899,0
0.2,3.8,0,0.300056,-0.000351814,0
0.2,3.9,0,0.300045,-0.00034769,0
0.2,4,0,0.300082,-0.000146821,0
0.2,4.1,0,0.300082,-0.000146821,0
0.2,4.2,0,0.299961,-0.000666794,0
0.2,4.3,0,0.300069,-0.000136634,0
0.2,4.4,0,0.300069,-0.000136634,0
0.2,4.5,0,0.300032,-0.00027301,0
0.2,4.6,0,0.300024,-0.000263948,0
0.2,4.7,0,0.300056,-0.00012328,0
0.2,4.8,0,0.300056,-0.00012328,0
0.2,4.9,0,0.299952,-0.000454212,0
0.2,5,0,0.300044,-0.000107629,0
0.2,5.1,0,0.300044,-0.000107629,0
0.2,5.2,0,0.300013,-0.000184497,0
0.2,5.3,0,0.300006,-0.000172875,0
0.2,5.4,0,0.300033,-9.05011e-05,0
0.2,5.5,0,0.300033,-9.05011e-05,0
0.2,5.6,0,0.299946,-0.000238687,0
0.2,5.7,0,0.300023,-7.26093e-05,0
0.2,5.8,0,0.300023,-7.26093e-05,0
0.2,5.9,0,0.299998,-9.10353e-05,0
0.2,6,0,0.299991,-7.87047e-05,0
0.2,6.1,0,0.300013,-5.44379e-05,0
0.2,6.2,0,0.300013,-5.44379e-05,0
0.2,6.3,0,0.299944,-1.98151e-05,0
0.2,6.4,0,0.300005,-3.5448e-05,0
0.2,6.5,0,0.300005,-3.5448e-05,0
0.2,6.6,0,0.299985,5.19193e-06,0
0.2,6.7,0,0.299979,1.49555e-05,0
0.2,6.8,0,0.299996,-2.10595e-05,0
0.2,6.9,0,0.299996,-2.10595e-05,0
0.2,7,0,0.299944,0.000181752,0
0.2,7.1,0,0.299945,0.000231684,0
0.2,7.2,0,0.299946,0.000262434,0
0.2,7.3,0,0.299946,0.000293111,0
0.2,7.4,0,0.299947,0.000323796,0
0.2,7.5,0,0.299947,0.000354473,0
0.2,7.6,0,0.299948,0.000385121,0
0.2,7.7,0,0.299949,0.000415726,0
0.2,7.8,0,0.29995,0.000446284,0
0.2,7.9,0,0.299951,0.000476806,0
0.2,8,0,0.299952,0.000517459,0
0.2,8.1,0,0.299988,0.000112614,0
0.2,8.2,0,0.299978,0.000249088,0
0.2,8.3,0,0.299994,0.000127457,0
0.2,8.4,0,0.299994,0.000127457,0
0.2,8.5,0,0.299985,0.000340954,0
0.2,8.6,0,0.300002,0.00013969,0
0.2,8.7,0,0.299967,0.000663777,0
0.2,8.8,0,0.300011,0.000149944,0
0.2,8.9,0,0.300003,0.000273253,0
0.2,9,0,0.300022,0.0001576,0
0.2,9.1,0,0.300022,0.0001576,0
0.2,9.2,0,0.300005,0.000509653,0
0.2,9.3,0,0.300035,0.000162254,0
0.2,9.4,0,0.299991,0.000778452,0
0.2,9.5,0,0.300048,0.000163659,0
0.2,9.6,0,0.300043,0.000239638,0
0.2,9.7,0,0.300063,0.000161541,0
0.2,9.8,0,0.300063,0.000161541,0
0.2,9.9,0,0.30003,0.000701788,0
0.2,10,0,0.300079,0.000155589,0
0.2,10.1,0,0.300027,0.000841547,0
0.2,10.2,0,0.300097,0.000145468,0
0.2,10.3,0,0.300097,0.000145468,0
0.2,10.4,0,0.300116,0.000130801,0
0.2,10.5,0,0.300116,0.000130801,0
0.2,10.6,0,0.30006,0.00092007,0
0.2,10.7,0,0.300139,0.000111159,0
0.2,10.8,0,0.300079,0.000841063,0
0.2,10.9,0,0.300163,8.60408e-05,0
0.2,11,0,0.300163,8.60408e-05,0
0.2,11.1,0,0.300179,0.000176487,0
0.2,11.2,0,0.300192,5.4896e-05,0
0.2,11.3,0,0.300099,0.00116986,0
0.2,11.4,0,0.300225,1.74744e-05,0
0.2,11.5,0,0.300155,0.000762375,0
0.2,11.6,0,0.300261,-2.79589e-05,0
0.2,11.7,0,0.300261,-2.79589e-05,0
0.2,11.8,0,0.300261,0.000237505,0
0.2,11.9,0,0.300298,-8.13802e-05,0
0.2,12,0,0.300145,0.00146253,0
0.2,12.1,0,0.30033,-0.000145391,0
0.2,12.2,0,0.300257,0.000583472,0
0.2,12.3,0,0.300352,-0.000209729,0
0.2,12.4,0,0.300352,-0.000209729,0
0.2,12.5,0,0.300302,0.000293201,0
0.2,12.6,0,0.300495,-0.000434871,0
0.2,12.7,0,0.300453,0.00154655,0
0.3,0,0,0.300514,-0.0024132,0
0.3,0.1,0,0.300697,0.000422647,0
0.3,0.2,0,0.300616,0.000619986,0
0.3,0.3,0,0.300388,-0.00116765,0
0.3,0.4,0,0.300387,-0.00128927,0
0.3,0.5,0,0.300569,0.000306493,0
0.3,0.6,0,0.300534,4.30718e-05,0
0.3,0.7,0,0.300199,-0.00245943,0
0.3,0.8,0,0.300487,-7.18248e-05,0
0.3,0.9,0,0.300517,0.000179502,0
0.3,1,0,0.300315,-0.0011917,0
0.3,1.1,0,0.300285,-0.00125272,0
0.3,1.2,0,0.300451,4.46122e-05,0
0.3,1.3,0,0.300418,-0.000168298,0
0.3,1.4,0,0.300105,-0.00219095,0
0.3,1.5,0,0.300356,-0.000249756,0
0.3,1.6,0,0.300382,-4.54206e-05,0
0.3,1.7,0,0.300211,-0.00114403,0
0.3,1.8,0,0.300183,-0.00117593,0
0.3,1.9,0,0.300321,-0.000115929,0
0.3,2,0,0.300294,-0.000286878,0
0.3,2.1,0,0.300039,-0.00191089,0
0.3,2.2,0,0.300251,-0.000333267,0
0.3,2.3,0,0.300273,-0.000167202,0
0.3,2.4,0,0.300132,-0.00104285,0
0.3,2.5,0,0.300115,-0.00105853,0
0.3,2.6,0,0.300236,-0.00020187,0
0.3,2.7,0,0.300213,-0.000336742,0
0.3,2.8,0,0.299994,-0.00161802,0
0.3,2.9,0,0.300182,-0.000354973,0
0.3,3,0,0.300201,-0.00022202,0
0.3,3.1,0,0.300079,-0.000903772,0
0.3,3.2,0,0.300066,-0.000907565,0
0.3,3.3,0,0.300172,-0.000230404,0
0.3,3.4,0,0.300152,-0.000333546,0
0.3,3.5,0,0.299963,-0.00131339,0
0.3,3.6,0,0.300129,-0.00033259,0
0.3,3.7,0,0.300147,-0.000229348,0
0.3,3.8,0,0.300039,-0.000737687,0
0.3,3.9,0,0.300029,-0.000733563,0
0.3,4,0,0.300123,-0.000220232,0
0.3,4.1,0,0.300106,-0.000294513,0
0.3,4.2,0,0.299941,-0.00100019,0
0.3,4.3,0,0.300088,-0.000280688,0
0.3,4.4,0,0.300103,-0.000204951,0
0.3,4.5,0,0.30001,-0.000553466,0
0.3,4.6,0,0.300002,-0.000544404,0
0.3,4.7,0,0.300084,-0.000184919,0
0.3,4.8,0,0.300069,-0.000232195,0
0.3,4.9,0,0.299927,-0.000681318,0
0.3,5,0,0.300053,-0.000210955,0
0.3,5.1,0,0.300066,-0.000161443,0
0.3,5.2,0,0.299988,-0.000357884,0
0.3,5.3,0,0.29998,-0.000346262,0
0.3,5.4,0,0.30005,-0.000135752,0
0.3,5.5,0,0.300037,-0.000156921,0
0.3,5.6,0,0.299919,-0.000358031,0
0.3,5.7,0,0.300024,-0.000132639,0
0.3,5.8,0,0.300035,-0.000108914,0
0.3,5.9,0,0.29997,-0.000156003,0
0.3,6,0,0.299964,-0.000143672,0
0.3,6.1,0,0.30002,-8.16568e-05,0
0.3,6.2,0,0.30001,-7.67107e-05,0
0.3,6.3,0,0.299916,-2.97227e-05,0
0.3,6.4,0,0.299998,-5.09387e-05,0
0.3,6.5,0,0.300007,-5.3172e-05,0
0.3,6.6,0,0.299957,5.06856e-05,0
0.3,6.7,0,0.299951,6.04492e-05,0
0.3,6.8,0,0.299994,-3.15893e-05,0
0.3,6.9,0,0.299987,-2.61629e-06,0
0.3,7,0,0.299916,0.000272627,0
0.3,7.1,0,0.299918,0.000347527,0
0.3,7.2,0,0.299918,0.000393651,0
0.3,7.3,0,0.299919,0.000439666,0
0.3,7.4,0,0.29992,0.000485693,0
0.3,7.5,0,0.299921,0.00053171,0
0.3,7.6,0,0.299922,0.000577682,0
0.3,7.7,0,0.299923,0.00062359,0
0.3,7.8,0,0.299924,0.000669426,0
0.3,7.9,0,0.299926,0.00071521,0
0.3,8,0,0.299928,0.000776189,0
0.3,8.1,0,0.299982,0.000168921,0
0.3,8.2,0,0.299955,0.000538642,0
0.3,8.3,0,0.299983,0.000275269,0
0.3,8.4,0,0.299988,0.000235743,0
0.3,8.5,0,0.299964,0.000666459,0
0.3,8.6,0,0.300003,0.000209535,0
0.3,8.7,0,0.299948,0.00102513,0
0.3,8.8,0,0.300017,0.000224916,0
0.3,8.9,0,0.299987,0.0006702,0
0.3,9,0,0.300018,0.000419165,0
0.3,9.1,0,0.300033,0.000236399,0
0.3,9.2,0,0.299992,0.000941915,0
0.3,9.3,0,0.300052,0.000243381,0
0.3,9.4,0,0.299982,0.00124573,0
0.3,9.5,0,0.300073,0.000245488,0
0.3,9.6,0,0.300037,0.000741587,0
0.3,9.7,0,0.300065,0.000569396,0
0.3,9.8,0,0.300095,0.000242311,0
0.3,9.9,0,0.300027,0.001238,0
0.3,10,0,0.300119,0.000233384,0
0.3,10.1,0,0.30003,0.00141155,0
0.3,10.2,0,0.300145,0.000218202,0
0.3,10.3,0,0.300105,0.00073747,0
0.3,10.4,0,0.300125,0.000722647,0
0.3,10.5,0,0.300174,0.000196202,0
0.3,10.6,0,0.300073,0.00155609,0
0.3,10.7,0,0.300208,0.000166738,0
0.3,10.8,0,0.300098,0.00150924,0
0.3,10.9,0,0.300245,0.000129061,0
0.3,11,0,0.300202,0.000639094,0
0.3,11.1,0,0.300205,0.000876261,0
0.3,11.2,0,0.300288,8.2344e-05,0
0.3,11.3,0,0.300132,0.00190076,0
0.3,11.4,0,0.300337,2.62117e-05,0
0.3,11.5,0,0.300197,0.00152402,0
0.3,11.6,0,0.300391,-4.19384e-05,0
0.3,11.7,0,0.300346,0.000421046,0
0.3,11.8,0,0.300313,0.00102946,0
0.3,11.9,0,0.300447,-0.00012207,0
0.3,12,0,0.300207,0.00228418,0
0.3,12.1,0,0.300495,-0.000218086,0
0.3,12.2,0,0.300329,0.00143663,0
0.3,12.3,0,0.30051,-0.000151526,0
0.3,12.4,0,0.300492,5.40461e-05,0
0.3,12.5,0,0.300381,0.0011784,0
0.3,12.6,0,0.300637,-0.000559805,0
0.3,12.7,0,0.300496,0.00248085,0
0.4,0,0,0.300555,-0.00334952,0
0.4,0.1,0,0.300738,-0.000513671,0
0.4,0.2,0,0.300765,0.000770112,0
0.4,0.3,0,0.300467,-0.00203682,0
0.4,0.4,0,0.300465,-0.00215845,0
0.4,0.5,0,0.300759,0.000408658,0
0.4,0.6,0,0.3006,-0.000776739,0
0.4,0.7,0,0.300266,-0.00327924,0
0.4,0.8,0,0.300553,-0.000891635,0
0.4,0.9,0,0.30069,0.000239336,0
0.4,1,0,0.300365,-0.00196651,0
0.4,1.1,0,0.300335,-0.00202753,0
0.4,1.2,0,0.300601,5.94829e-05,0
0.4,1.3,0,0.300453,-0.000898613,0
0.4,1.4,0,0.30014,-0.00292126,0
0.4,1.5,0,0.300391,-0.000980072,0
0.4,1.6,0,0.300509,-6.05608e-05,0
0.4,1.7,0,0.300234,-0.00182789,0
0.4,1.8,0,0.300206,-0.00185979,0
0.4,1.9,0,0.300428,-0.000154573,0
0.4,2,0,0.300307,-0.000923841,0
0.4,2.1,0,0.300053,-0.00254785,0
0.4,2.2,0,0.300264,-0.00097023,0
0.4,2.3,0,0.300365,-0.000222936,0
0.4,2.4,0,0.300137,-0.00163158,0
0.4,2.5,0,0.30012,-0.00164727,0
0.4,2.6,0,0.300314,-0.00026916,0
0.4,2.7,0,0.300211,-0.000876083,0
0.4,2.8,0,0.299993,-0.00215737,0
0.4,2.9,0,0.30018,-0.000894314,0
0.4,3,0,0.300269,-0.000296027,0
0.4,3.1,0,0.300071,-0.00139276,0
0.4,3.2,0,0.300058,-0.00139655,0
0.4,3.3,0,0.30023,-0.000307206,0
0.4,3.4,0,0.30014,-0.000771344,0
0.4,3.5,0,0.299951,-0.00175119,0
0.4,3.6,0,0.300117,-0.000770388,0
0.4,3.7,0,0.300195,-0.000305797,0
0.4,3.8,0,0.300023,-0.00112356,0
0.4,3.9,0,0.300013,-0.00111944,0
0.4,4,0,0.300164,-0.000293642,0
0.4,4.1,0,0.300086,-0.00062791,0
0.4,4.2,0,0.299922,-0.00133359,0
0.4,4.3,0,0.300068,-0.000614085,0
0.4,4.4,0,0.300137,-0.000273268,0
0.4,4.5,0,0.299988,-0.000833923,0
0.4,4.6,0,0.299979,-0.000824861,0
0.4,4.7,0,0.300112,-0.000246559,0
0.4,4.8,0,0.300045,-0.000459301,0
0.4,4.9,0,0.299903,-0.000908424,0
0.4,5,0,0.300029,-0.000438061,0
0.4,5.1,0,0.300088,-0.000215257,0
0.4,5.2,0,0.299962,-0.000531271,0
0.4,5.3,0,0.299954,-0.000519649,0
0.4,5.4,0,0.300067,-0.000181002,0
0.4,5.5,0,0.300011,-0.000276265,0
0.4,5.6,0,0.299892,-0.000477374,0
0.4,5.7,0,0.299997,-0.000251983,0
0.4,5.8,0,0.300046,-0.000145219,0
0.4,5.9,0,0.299943,-0.00022097,0
0.4,6,0,0.299936,-0.000208639,0
0.4,6.1,0,0.300027,-0.000108876,0
0.4,6.2,0,0.299982,-8.66183e-05,0
0.4,6.3,0,0.299889,-3.96302e-05,0
0.4,6.4,0,0.29997,-6.08463e-05,0
0.4,6.5,0,0.300009,-7.0896e-05,0
0.4,6.6,0,0.299929,9.61793e-05,0
0.4,6.7,0,0.299923,0.000105943,0
0.4,6.8,0,0.299992,-4.21191e-05,0
0.4,6.9,0,0.299959,8.82595e-05,0
0.4,7,0,0.299889,0.000363503,0
0.4,7.1,0,0.29989,0.000463369,0
0.4,7.2,0,0.299891,0.000524868,0
0.4,7.3,0,0.299892,0.000586222,0
0.4,7.4,0,0.299893,0.000647591,0
0.4,7.5,0,0.299894,0.000708946,0
0.4,7.6,0,0.299896,0.000770243,0
0.4,7.7,0,0.299897,0.000831453,0
0.4,7.8,0,0.299899,0.000892568,0
0.4,7.9,0,0.299901,0.000953613,0
0.4,8,0,0.299904,0.00103492,0
0.4,8.1,0,0.299976,0.000225229,0
0.4,8.2,0,0.299933,0.000828196,0
0.4,8.3,0,0.299961,0.000564823,0
0.4,8.4,0,0.299967,0.000561248,0
0.4,8.5,0,0.299943,0.000991964,0
0.4,8.6,0,0.300003,0.000279379,0
0.4,8.7,0,0.29993,0.00138648,0
0.4,8.8,0,0.300019,0.000345586,0
0.4,8.9,0,0.299971,0.00106715,0
0.4,9,0,0.300002,0.000816111,0
0.4,9.1,0,0.300021,0.00065738,0
0.4,9.2,0,0.299978,0.00137418,0
0.4,9.3,0,0.30007,0.000324509,0
0.4,9.4,0,0.299972,0.00171301,0
0.4,9.5,0,0.300085,0.000466735,0
0.4,9.6,0,0.300031,0.00124354,0
0.4,9.7,0,0.300059,0.00107134,0
0.4,9.8,0,0.300101,0.00067193,0
0.4,9.9,0,0.300025,0.00177421,0
0.4,10,0,0.300158,0.000311179,0
0.4,10.1,0,0.300032,0.00198156,0
0.4,10.2,0,0.300168,0.000571314,0
0.4,10.3,0,0.300112,0.00134076,0
0.4,10.4,0,0.300132,0.00132594,0
0.4,10.5,0,0.300207,0.000583335,0
0.4,10.6,0,0.300086,0.00219211,0
0.4,10.7,0,0.300277,0.000222317,0
0.4,10.8,0,0.300117,0.00217742,0
0.4,10.9,0,0.300279,0.000650925,0
0.4,11,0,0.300227,0.00133887,0
0.4,11.1,0,0.300231,0.00157604,0
0.4,11.2,0,0.300361,0.000364232,0
0.4,11.3,0,0.300166,0.00263166,0
0.4,11.4,0,0.30045,3.49489e-05,0
0.4,11.5,0,0.300239,0.00228567,0
0.4,11.6,0,0.300436,0.000694955,0
0.4,11.7,0,0.300398,0.001213,0
0.4,11.8,0,0.300364,0.00182142,0
0.4,11.9,0,0.300582,-2.51529e-05,0
0.4,12,0,0.300269,0.00310583,0
0.4,12.1,0,0.30066,-0.000290781,0
0.4,12.2,0,0.300401,0.00228979,0
0.4,12.3,0,0.300582,0.000701632,0
0.4,12.4,0,0.300571,0.000939242,0
0.4,12.5,0,0.300461,0.00206359,0
0.4,12.6,0,0.300779,-0.000684739,0
0.4,12.7,0,0.300539,0.00341514,0
0.5,0,0,0.300595,-0.00428583,0
0.5,0.1,0,0.300778,-0.00144999,0
0.5,0.2,0,0.300849,-2.62528e-05,0
0.5,0.3,0,0.300545,-0.00290599,0
0.5,0.4,0,0.300544,-0.00302762,0
0.5,0.5,0,0.300845,-0.000391133,0
0.5,0.6,0,0.300667,-0.00159655,0
0.5,0.7,0,0.300332,-0.00409905,0
0.5,0.8,0,0.30062,-0.00171145,0
0.5,0.9,0,0.300748,-0.000475855,0
0.5,1,0,0.300415,-0.00274132,0
0.5,1.1,0,0.300385,-0.00280234,0
0.5,1.2,0,0.300658,-0.000658921,0
0.5,1.3,0,0.300488,-0.00162893,0
0.5,1.4,0,0.300176,-0.00365158,0
0.5,1.5,0,0.300426,-0.00171039,0
0.5,1.6,0,0.30054,-0.000696655,0
0.5,1.7,0,0.300257,-0.00251175,0
0.5,1.8,0,0.300229,-0.00254365,0
0.5,1.9,0,0.300457,-0.000792345,0
0.5,2,0,0.30032,-0.0015608,0
0.5,2.1,0,0.300066,-0.00318481,0
0.5,2.2,0,0.300278,-0.00160719,0
0.5,2.3,0,0.300376,-0.0007736,0
0.5,2.4,0,0.300142,-0.00222032,0
0.5,2.5,0,0.300125,-0.002236,0
0.5,2.6,0,0.300324,-0.000820649,0
0.5,2.7,0,0.300209,-0.00141542,0
0.5,2.8,0,0.299991,-0.00269671,0
0.5,2.9,0,0.300178,-0.00143366,0
0.5,3,0,0.300266,-0.000755372,0
0.5,3.1,0,0.300063,-0.00188174,0
0.5,3.2,0,0.30005,-0.00188554,0
0.5,3.3,0,0.300227,-0.00076675,0
0.5,3.4,0,0.300128,-0.00120914,0
0.5,3.5,0,0.299938,-0.00218899,0
0.5,3.6,0,0.300104,-0.00120819,0
0.5,3.7,0,0.300184,-0.000669569,0
0.5,3.8,0,0.300007,-0.00150943,0
0.5,3.9,0,0.299996,-0.00150531,0
0.5,4,0,0.300152,-0.000657197,0
0.5,4.1,0,0.300067,-0.000961307,0
0.5,4.2,0,0.299902,-0.00166698,0
0.5,4.3,0,0.300048,-0.000947482,0
0.5,4.4,0,0.300119,-0.000538572,0
0.5,4.5,0,0.299966,-0.00111438,0
0.5,4.6,0,0.299957,-0.00110532,0
0.5,4.7,0,0.300093,-0.000511386,0
0.5,4.8,0,0.300021,-0.000686407,0
0.5,4.9,0,0.299879,-0.00113553,0
0.5,5,0,0.300005,-0.000665167,0
0.5,5.1,0,0.300066,-0.000380103,0
0.5,5.2,0,0.299936,-0.000704658,0
0.5,5.3,0,0.299929,-0.000693036,0
0.5,5.4,0,0.300044,-0.000345237,0
0.5,5.5,0,0.299984,-0.000395608,0
0.5,5.6,0,0.299865,-0.000596718,0
0.5,5.7,0,0.29997,-0.000371327,0
0.5,5.8,0,0.300022,-0.000208139,0
0.5,5.9,0,0.299915,-0.000285937,0
0.5,6,0,0.299909,-0.000273607,0
0.5,6.1,0,0.300002,-0.000171147,0
0.5,6.2,0,0.299955,-9.65258e-05,0
0.5,6.3,0,0.299861,-4.95378e-05,0
0.5,6.4,0,0.299943,-7.07538e-05,0
0.5,6.5,0,0.299983,-2.99179e-05,0
0.5,6.6,0,0.299901,0.000141673,0
0.5,6.7,0,0.299895,0.000151437,0
0.5,6.8,0,0.299966,-6.27074e-07,0
0.5,6.9,0,0.299931,0.000179135,0
0.5,7,0,0.299861,0.000454379,0
0.5,7.1,0,0.299863,0.000579211,0
0.5,7.2,0,0.299864,0.000656085,0
0.5,7.3,0,0.299865,0.000732777,0
0.5,7.4,0,0.299866,0.000809489,0
0.5,7.5,0,0.299868,0.000886183,0
0.5,7.6,0,0.29987,0.000962803,0
0.5,7.7,0,0.299872,0.00103932,0
0.5,7.8,0,0.299874,0.00111571,0
0.5,7.9,0,0.299876,0.00119202,0
0.5,8,0,0.29988,0.00129365,0
0.5,8.1,0,0.299952,0.000475344,0
0.5,8.2,0,0.29991,0.00111775,0
0.5,8.3,0,0.299938,0.000854376,0
0.5,8.4,0,0.299946,0.000886753,0
0.5,8.5,0,0.299922,0.00131747,0
0.5,8.6,0,0.29999,0.000569403,0
0.5,8.7,0,0.299911,0.00174782,0
0.5,8.8,0,0.3,0.000706936,0
0.5,8.9,0,0.299955,0.00146409,0
0.5,9,0,0.299986,0.00121306,0
0.5,9.1,0,0.300008,0.00108964,0
0.5,9.2,0,0.299965,0.00180644,0
0.5,9.3,0,0.300072,0.000619251,0
0.5,9.4,0,0.299962,0.00218028,0
0.5,9.5,0,0.300075,0.000934013,0
0.5,9.6,0,0.300024,0.00174548,0
0.5,9.7,0,0.300053,0.00157329,0
0.5,9.8,0,0.300098,0.00120814,0
0.5,9.9,0,0.300023,0.00231042,0
0.5,10,0,0.300179,0.000630047,0
0.5,10.1,0,0.300035,0.00255157,0
0.5,10.2,0,0.30017,0.00114132,0
0.5,10.3,0,0.30012,0.00194405,0
0.5,10.4,0,0.300139,0.00192923,0
0.5,10.5,0,0.30022,0.00121935,0
0.5,10.6,0,0.300098,0.00282813,0
0.5,10.7,0,0.300319,0.000572907,0
0.5,10.8,0,0.300136,0.0028456,0
0.5,10.9,0,0.300298,0.0013191,0
0.5,11,0,0.300253,0.00203864,0
0.5,11.1,0,0.300257,0.00227581,0
0.5,11.2,0,0.300395,0.00109513,0
0.5,11.3,0,0.300199,0.00336256,0
0.5,11.4,0,0.300518,0.00044318,0
0.5,11.5,0,0.300282,0.00304732,0
0.5,11.6,0,0.300478,0.0014566,0
0.5,11.7,0,0.300449,0.00200496,0
0.5,11.8,0,0.300416,0.00261337,0
0.5,11.9,0,0.300644,0.000796498,0
0.5,12,0,0.300331,0.00392748,0
0.5,12.1,0,0.300748,0.00031204,0
0.5,12.2,0,0.300473,0.00314295,0
0.5,12.3,0,0.300654,0.00155479,0
0.5,12.4,0,0.300651,0.00182444,0
0.5,12.5,0,0.30054,0.00294879,0
0.5,12.6,0,0.300826,0.000204483,0
0.5,12.7,0,0.300583,0.00434944,0
0.6,0,0,0.300636,-0.00522215,0
0.6,0.1,0,0.300818,-0.00238631,0
0.6,0.2,0,0.300865,-0.00151625,0
0.6,0.3,0,0.300624,-0.00377516,0
0.6,0.4,0,0.300623,-0.00389679,0
0.6,0.5,0,0.300854,-0.00178715,0
0.6,0.6,0,0.300733,-0.00241636,0
0.6,0.7,0,0.300399,-0.00491886,0
0.6,0.8,0,0.300686,-0.00253126,0
0.6,0.9,0,0.300737,-0.00175332,0
0.6,1,0,0.300464,-0.00351613,0
0.6,1.1,0,0.300434,-0.00357715,0
0.6,1.2,0,0.300642,-0.00185955,0
0.6,1.3,0,0.300523,-0.00235924,0
0.6,1.4,0,0.300211,-0.00438189,0
0.6,1.5,0,0.300461,-0.0024407,0
0.6,1.6,0,0.30051,-0.00178919,0
0.6,1.7,0,0.30028,-0.00319561,0
0.6,1.8,0,0.300252,-0.00322751,0
0.6,1.9,0,0.300426,-0.0018181,0
0.6,2,0,0.300334,-0.00219777,0
0.6,2.1,0,0.300079,-0.00382178,0
0.6,2.2,0,0.300291,-0.00224416,0
0.6,2.3,0,0.300336,-0.00169447,0
0.6,2.4,0,0.300147,-0.00280906,0
0.6,2.5,0,0.30013,-0.00282474,0
0.6,2.6,0,0.300283,-0.00167913,0
0.6,2.7,0,0.300207,-0.00195477,0
0.6,2.8,0,0.299989,-0.00323605,0
0.6,2.9,0,0.300176,-0.001973,0
0.6,3,0,0.300219,-0.00151026,0
0.6,3.1,0,0.300056,-0.00237073,0
0.6,3.2,0,0.300043,-0.00237452,0
0.6,3.3,0,0.300179,-0.00146202,0
0.6,3.4,0,0.300115,-0.00164694,0
0.6,3.5,0,0.299926,-0.00262679,0
0.6,3.6,0,0.300092,-0.00164598,0
0.6,3.7,0,0.300132,-0.00126193,0
0.6,3.8,0,0.299991,-0.00189531,0
0.6,3.9,0,0.29998,-0.00189118,0
0.6,4,0,0.300101,-0.00119163,0
0.6,4.1,0,0.300047,-0.0012947,0
0.6,4.2,0,0.299883,-0.00200038,0
0.6,4.3,0,0.300029,-0.00128088,0
0.6,4.4,0,0.300066,-0.000970503,0
0.6,4.5,0,0.299944,-0.00139484,0
0.6,4.6,0,0.299935,-0.00138577,0
0.6,4.7,0,0.300041,-0.000886395,0
0.6,4.8,0,0.299996,-0.000913513,0
0.6,4.9,0,0.299855,-0.00136264,0
0.6,5,0,0.29998,-0.000892273,0
0.6,5.1,0,0.300014,-0.000652514,0
0.6,5.2,0,0.29991,-0.000878045,0
0.6,5.3,0,0.299903,-0.000866423,0
0.6,5.4,0,0.299993,-0.000560963,0
0.6,5.5,0,0.299957,-0.000514952,0
0.6,5.6,0,0.299838,-0.000716062,0
0.6,5.7,0,0.299943,-0.00049067,0
0.6,5.8,0,0.299972,-0.000320557,0
0.6,5.9,0,0.299888,-0.000350905,0
0.6,6,0,0.299881,-0.000338574,0
0.6,6.1,0,0.299954,-0.000226222,0
0.6,6.2,0,0.299927,-0.000106433,0
0.6,6.3,0,0.299833,-5.94453e-05,0
0.6,6.4,0,0.299915,-8.06614e-05,0
0.6,6.5,0,0.299938,2.00423e-05,0
0.6,6.6,0,0.299873,0.000187167,0
0.6,6.7,0,0.299867,0.00019693,0
0.6,6.8,0,0.299923,0.000102813,0
0.6,6.9,0,0.299903,0.000270011,0
0.6,7,0,0.299833,0.000545255,0
0.6,7.1,0,0.299835,0.000695053,0
0.6,7.2,0,0.299837,0.000787301,0
0.6,7.3,0,0.299838,0.000879332,0
0.6,7.4,0,0.29984,0.000971387,0
0.6,7.5,0,0.299841,0.00106342,0
0.6,7.6,0,0.299844,0.00115536,0
0.6,7.7,0,0.299846,0.00124718,0
0.6,7.8,0,0.299849,0.00133885,0
0.6,7.9,0,0.299852,0.00143042,0
0.6,8,0,0.299856,0.00155238,0
0.6,8.1,0,0.299919,0.000860623,0
0.6,8.2,0,0.299887,0.0014073,0
0.6,8.3,0,0.299915,0.00114393,0
0.6,8.4,0,0.299925,0.00121226,0
0.6,8.5,0,0.299901,0.00164297,0
0.6,8.6,0,0.299955,0.00112114,0
0.6,8.7,0,0.299893,0.00210917,0
0.6,8.8,0,0.299974,0.00117789,0
0.6,8.9,0,0.299939,0.00186104,0
0.6,9,0,0.29997,0.00161,0
0.6,9.1,0,0.299995,0.0015219,0
0.6,9.2,0,0.299952,0.0022387,0
0.6,9.3,0,0.300034,0.00141899,0
0.6,9.4,0,0.299952,0.00264756,0
0.6,9.5,0,0.300061,0.00145939,0
0.6,9.6,0,0.300018,0.00224743,0
0.6,9.7,0,0.300047,0.00207524,0
0.6,9.8,0,0.300096,0.00174435,0
0.6,9.9,0,0.300021,0.00284664,0
0.6,10,0,0.300139,0.00165847,0
0.6,10.1,0,0.300037,0.00312158,0
0.6,10.2,0,0.300173,0.00171133,0
0.6,10.3,0,0.300127,0.00254734,0
0.6,10.4,0,0.300147,0.00253252,0
0.6,10.5,0,0.300233,0.00185537,0
0.6,10.6,0,0.300111,0.00346415,0
0.6,10.7,0,0.300282,0.00182152,0
0.6,10.8,0,0.300155,0.00351377,0
0.6,10.9,0,0.300317,0.00198728,0
0.6,11,0,0.300279,0.00273842,0
0.6,11.1,0,0.300283,0.00297558,0
0.6,11.2,0,0.300419,0.00191901,0
0.6,11.3,0,0.300233,0.00409346,0
0.6,11.4,0,0.300485,0.00188694,0
0.6,11.5,0,0.300324,0.00380896,0
0.6,11.6,0,0.30052,0.00221825,0
0.6,11.7,0,0.300501,0.00279691,0
0.6,11.8,0,0.300468,0.00340533,0
0.6,11.9,0,0.300673,0.0019016,0
0.6,12,0,0.300393,0.00474913,0
0.6,12.1,0,0.30074,0.00182316,0
0.6,12.2,0,0.300545,0.0039961,0
0.6,12.3,0,0.300726,0.00240795,0
0.6,12.4,0,0.30073,0.00270963,0
0.6,12.5,0,0.300619,0.00383398,0
0.6,12.6,0,0.300835,0.00168683,0
0.6,12.7,0,0.300626,0.00528373,0
0.7,0,0,0.300676,-0.00615847,0
0.7,0.1,0,0.300844,-0.00354104,0
0.7,0.2,0,0.300835,-0.00347187,0
0.7,0.3,0,0.300703,-0.00464434,0
0.7,0.4,0,0.300701,-0.00476596,0
0.7,0.5,0,0.300809,-0.0035783,0
0.7,0.6,0,0.300776,-0.00344431,0
0.7,0.7,0,0.300465,-0.00573867,0
0.7,0.8,0,0.300727,-0.00352992,0
0.7,0.9,0,0.300681,-0.00340777,0
0.7,1,0,0.300514,-0.00429093,0
0.7,1.1,0,0.300484,-0.00435196,0
0.7,1.2,0,0.300576,-0.00337955,0
0.7,1.3,0,0.300537,-0.00325878,0
0.7,1.4,0,0.300246,-0.00511221,0
0.7,1.5,0,0.300474,-0.00331431,0
0.7,1.6,0,0.300441,-0.00318822,0
0.7,1.7,0,0.300302,-0.00387947,0
0.7,1.8,0,0.300275,-0.00391137,0
0.7,1.9,0,0.300355,-0.00310028,0
0.7,2,0,0.300329,-0.00297299,0
0.7,2.1,0,0.300092,-0.00445874,0
0.7,2.2,0,0.300285,-0.00299533,0
0.7,2.3,0,0.300263,-0.00286443,0
0.7,2.4,0,0.300152,-0.00339779,0
0.7,2.5,0,0.300135,-0.00341347,0
0.7,2.6,0,0.300208,-0.00273992,0
0.7,2.7,0,0.300189,-0.00260585,0
0.7,2.8,0,0.299987,-0.00377539,0
0.7,2.9,0,0.300158,-0.00260126,0
0.7,3,0,0.300143,-0.00246458,0
0.7,3.1,0,0.300048,-0.00285972,0
0.7,3.2,0,0.300035,-0.00286351,0
0.7,3.3,0,0.300102,-0.002312,0
0.7,3.4,0,0.300089,-0.00217306,0
0.7,3.5,0,0.299913,-0.00306459,0
0.7,3.6,0,0.300066,-0.00215009,0
0.7,3.7,0,0.300055,-0.00200915,0
0.7,3.8,0,0.299974,-0.00228118,0
0.7,3.9,0,0.299964,-0.00227706,0
0.7,4,0,0.300024,-0.00183749,0
0.7,4.1,0,0.300015,-0.00169506,0
0.7,4.2,0,0.299863,-0.00233378,0
0.7,4.3,0,0.299997,-0.00165973,0
0.7,4.4,0,0.29999,-0.00151604,0
0.7,4.5,0,0.299922,-0.00167529,0
0.7,4.6,0,0.299913,-0.00166623,0
0.7,4.7,0,0.299967,-0.00133232,0
0.7,4.8,0,0.299961,-0.00118751,0
0.7,4.9,0,0.29983,-0.00158974,0
0.7,5,0,0.299946,-0.001145,0
0.7,5.1,0,0.299942,-0.000999193,0
0.7,5.2,0,0.299884,-0.00105143,0
0.7,5.3,0,0.299877,-0.00103981,0
0.7,5.4,0,0.299924,-0.000808443,0
0.7,5.5,0,0.299921,-0.000661753,0
0.7,5.6,0,0.299812,-0.000835405,0
0.7,5.7,0,0.299908,-0.000616156,0
0.7,5.8,0,0.299906,-0.000468563,0
0.7,5.9,0,0.29986,-0.000415872,0
0.7,6,0,0.299854,-0.000403542,0
0.7,6.1,0,0.299892,-0.000273878,0
0.7,6.2,0,0.299891,-0.00012443,0
0.7,6.3,0,0.299805,-6.93529e-05,0
0.7,6.4,0,0.29988,-7.70223e-05,0
0.7,6.5,0,0.29988,7.33525e-05,0
0.7,6.6,0,0.299845,0.00023266,0
0.7,6.7,0,0.299839,0.000242424,0
0.7,6.8,0,0.299869,0.000249712,0
0.7,6.9,0,0.29987,0.000372892,0
0.7,7,0,0.299805,0.00063613,0
0.7,7.1,0,0.299808,0.000810895,0