/*--------------------------------*- C++ -*----------------------------------*\
| =========                 |                                                 |
| \\      /  F ield         | OpenFOAM: The Open Source CFD Toolbox           |
|  \\    /   O peration     | Version:  v1806                                 |
|   \\  /    A nd           | Web:      www.OpenFOAM.com                      |
|    \\/     M anipulation  |                                                 |
\*---------------------------------------------------------------------------*/
FoamFile
{
    version     2.0;
    format      ascii;
    class       volScalarField;
    location    "180";
    object      p;
}
// * * * * * * * * * * * * * * * * * * * * * * * * * * * * * * * * * * * * * //

dimensions      [0 2 -2 0 0 0 0];


internalField   nonuniform List<scalar> 
5028
(
0.0311031
0.0311156
0.0311156
0.0311031
0.0342287
0.0342316
0.0342316
0.0342287
0.0279686
0.0279787
0.0279787
0.0279686
0.0276979
0.0277009
0.0277009
0.0276979
0.0445278
0.044538
0.044538
0.0445278
0.0473678
0.0473761
0.0473761
0.0473678
0.0534808
0.0534928
0.0534928
0.0534808
0.0555106
0.0555121
0.0555121
0.0555106
0.0519254
0.0519232
0.0519232
0.0519254
-0.00101185
-0.00101064
-0.00101064
-0.00101185
-0.00149114
-0.0014905
-0.0014905
-0.00149114
-0.00111456
-0.00111333
-0.00111333
-0.00111456
-0.00149444
-0.00149028
-0.00149028
-0.00149444
-0.000938249
-0.000937145
-0.000937144
-0.000938247
-0.000361859
-0.000358945
-0.000358946
-0.000361861
-0.000445076
-0.000443417
-0.000443417
-0.000445078
-0.000335376
-0.000333958
-0.000333958
-0.000335377
-0.000275673
-0.000274127
-0.000274128
-0.000275674
-0.000518266
-0.000516953
-0.000516954
-0.000518269
-0.000512905
-0.000510486
-0.000510486
-0.000512907
-0.000304356
-0.000302416
-0.000302417
-0.000304358
-0.000512779
-0.000512304
-0.000512304
-0.000512781
-0.000450906
-0.000447813
-0.000447813
-0.000450906
-0.00010256
-0.000101285
-0.000101285
-0.000102559
-0.000127031
-0.000124827
-0.000124827
-0.000127033
-0.000235653
-0.000234382
-0.000234383
-0.000235654
-0.00020968
-0.00020886
-0.000208861
-0.00020968
0.054252
0.0542538
0.0542538
0.054252
0.0528938
0.0528963
0.0528963
0.0528938
0.0387613
0.0387654
0.0387654
0.0387613
0.0419664
0.0419736
0.0419736
0.0419664
0.0337103
0.0337108
0.0337108
0.0337103
0.0373889
0.0373914
0.0373914
0.0373889
0.0545454
0.0545585
0.0545585
0.0545454
0.0555593
0.0555581
0.0555581
0.0555593
-0.000323382
-0.000321643
-0.000321644
-0.000323384
-0.000120418
-0.000117377
-0.000117377
-0.000120418
0.0374503
0.0374521
0.0374521
0.0374503
0.0408797
0.0408843
0.0408843
0.0408797
0.0492114
0.0492112
0.0492112
0.0492114
-0.000330375
-0.000329933
-0.000329934
-0.000330375
0.0496262
0.0496394
0.0496394
0.0496262
-0.000314589
-0.000312259
-0.00031226
-0.00031459
-0.000399288
-0.000397889
-0.00039789
-0.000399289
-0.000466042
-0.000464692
-0.000464693
-0.000466043
-0.000519935
-0.000518803
-0.000518804
-0.000519937
-0.000547615
-0.000546719
-0.00054672
-0.000547617
-0.0005249
-0.000524309
-0.00052431
-0.000524903
-0.000434144
-0.000433942
-0.000433944
-0.000434147
-0.000434361
-0.000434178
-0.000434179
-0.000434364
-0.000520072
-0.000519433
-0.000519434
-0.000520075
-0.000540761
-0.00053996
-0.000539961
-0.000540764
-0.000512094
-0.000510966
-0.000510967
-0.000512097
-0.000450659
-0.000449168
-0.000449169
-0.000450661
-0.000374526
-0.000372816
-0.000372817
-0.000374528
-0.00028624
-0.000284546
-0.000284547
-0.000286241
-0.000180981
-0.000178331
-0.000178331
-0.000180982
-0.000162044
-0.00016044
-0.000160441
-0.000162046
-0.000309667
-0.00030827
-0.000308271
-0.000309668
-0.000233283
-0.000232813
-0.000232813
-0.000233284
-0.000286113
-0.000285711
-0.000285712
-0.000286115
-0.000324736
-0.000323171
-0.000323172
-0.000324738
-0.00040564
-0.000404352
-0.000404353
-0.000405642
-0.000484075
-0.000482705
-0.000482706
-0.000484078
-0.00054721
-0.000546071
-0.000546072
-0.000547213
-0.000580977
-0.000580064
-0.000580065
-0.00058098
-0.000567519
-0.000566829
-0.00056683
-0.000567522
-0.000488164
-0.000488029
-0.00048803
-0.000488167
0.0490997
0.0491021
0.0491021
0.0490997
-0.000352968
-0.000350757
-0.000350758
-0.000352969
-0.000435802
-0.000434398
-0.000434399
-0.000435804
-0.000513987
-0.000512646
-0.000512647
-0.00051399
-0.000576331
-0.000575386
-0.000575387
-0.000576334
-0.000603514
-0.00060278
-0.000602781
-0.000603517
-0.000580413
-0.000579798
-0.000579799
-0.000580417
-0.000494799
-0.000494546
-0.000494547
-0.000494802
-0.000337651
-0.000337709
-0.00033771
-0.000337653
-0.000274745
-0.000274795
-0.000274795
-0.000274748
-0.00027158
-0.000271678
-0.000271679
-0.000271583
-0.000324463
-0.00032457
-0.000324571
-0.000324465
0.0460818
0.046079
0.046079
0.0460818
0.0432797
0.0432859
0.0432859
0.0432797
0.0402033
0.0402054
0.0402054
0.0402033
0.0370248
0.0370268
0.0370268
0.0370248
0.0338391
0.0338445
0.0338445
0.0338391
0.0307496
0.0307642
0.0307642
0.0307496
0.0274628
0.0274717
0.0274717
0.0274628
0.0249427
0.0249523
0.0249523
0.0249427
0.0253053
0.0253148
0.0253148
0.0253053
0.0253655
0.0253766
0.0253766
0.0253655
0.0251247
0.0251322
0.0251322
0.0251247
0.027816
0.0278259
0.0278259
0.027816
0.0306415
0.0306461
0.0306461
0.0306415
0.033745
0.0337538
0.0337538
0.033745
0.0370881
0.0370991
0.0370991
0.0370881
0.0406047
0.0406105
0.0406105
0.0406047
0.0444153
0.0444224
0.0444224
0.0444153
0.047908
0.0479114
0.0479114
0.047908
0.0506539
0.0506565
0.0506565
0.0506539
0.0494312
0.0494365
0.0494365
0.0494312
0.050416
0.0504236
0.0504236
0.050416
0.0536502
0.0536521
0.0536521
0.0536502
0.0517637
0.0517628
0.0517628
0.0517637
-0.000269282
-0.000266417
-0.000266418
-0.000269285
-0.000373938
-0.000371705
-0.000371706
-0.000373941
-0.000470411
-0.000468393
-0.000468394
-0.000470414
-0.000561308
-0.000559683
-0.000559684
-0.000561311
-0.000633979
-0.000632794
-0.000632795
-0.000633981
-0.000678632
-0.000677679
-0.00067768
-0.000678634
-0.000673072
-0.000672242
-0.000672243
-0.000673073
-0.000600719
-0.000600308
-0.000600308
-0.00060072
-0.000437504
-0.000437576
-0.000437576
-0.000437504
0.0478986
0.0479002
0.0479002
0.0478986
0.0454104
0.0454127
0.0454127
0.0454104
0.042306
0.0423078
0.0423078
0.042306
0.0391137
0.0391245
0.0391245
0.0391137
0.035742
0.0357564
0.0357564
0.035742
0.0325738
0.0325864
0.0325864
0.0325738
0.0296395
0.0296486
0.0296486
0.0296395
0.0269365
0.0269445
0.0269445
0.0269365
0.0244595
0.024466
0.024466
0.0244595
0.0481902
0.0481883
0.0481883
0.0481902
0.0454002
0.0454072
0.0454072
0.0454002
0.0356816
0.0356899
0.0356899
0.0356816
0.0325957
0.0326054
0.0326054
0.0325957
0.029616
0.0296216
0.0296216
0.029616
0.0270029
0.0270123
0.0270123
0.0270029
0.0243403
0.0243468
0.0243468
0.0243403
0.02211
0.0221179
0.0221179
0.02211
0.0227079
0.022716
0.022716
0.0227079
0.0230604
0.0230665
0.0230665
0.0230604
0.0230901
0.0230979
0.0230979
0.0230901
0.0228132
0.0228196
0.0228196
0.0228132
0.0221962
0.0222018
0.0222018
0.0221962
0.0437393
0.0437511
0.0437511
0.0437393
0.0444565
0.0444641
0.0444641
0.0444565
-0.00041986
-0.000418169
-0.00041817
-0.000419863
-0.000511559
-0.000510218
-0.000510219
-0.000511562
-0.000597418
-0.000596165
-0.000596166
-0.000597421
-0.000670094
-0.000669079
-0.00066908
-0.000670097
-0.000709346
-0.000708754
-0.000708755
-0.000709348
-0.000694146
-0.000693384
-0.000693385
-0.000694147
-0.000621442
-0.000620426
-0.000620426
-0.000621443
-0.000476395
-0.000476331
-0.000476331
-0.000476395
-0.000229112
-0.000229317
-0.000229317
-0.000229112
-0.000110512
-0.000110719
-0.000110719
-0.000110513
-5.20537e-05
-5.22411e-05
-5.22416e-05
-5.20554e-05
-4.60781e-05
-4.62763e-05
-4.62771e-05
-4.60801e-05
-8.99627e-05
-9.01684e-05
-9.01689e-05
-8.99638e-05
-0.00019089
-0.000191134
-0.000191134
-0.00019089
0.0483722
0.0483793
0.0483793
0.0483722
0.0496883
0.0496987
0.0496987
0.0496883
-0.000482234
-0.000482218
-0.000482219
-0.000482236
-0.000497598
-0.000495868
-0.000495869
-0.0004976
-0.000585231
-0.000583867
-0.000583867
-0.000585233
-0.000687648
-0.000686246
-0.000686246
-0.000687649
-0.000784196
-0.000783129
-0.000783129
-0.000784196
-0.000846551
-0.000845563
-0.000845563
-0.00084655
-0.000861204
-0.000860223
-0.000860223
-0.000861202
-0.000796177
-0.000795624
-0.000795623
-0.000796175
-0.00063104
-0.000630955
-0.000630954
-0.000631038
-0.000364501
-0.000364817
-0.000364816
-0.000364499
0.0435146
0.0435182
0.0435182
0.0435146
0.0417797
0.0417866
0.0417866
0.0417797
0.0393423
0.0393495
0.0393495
0.0393423
0.0365276
0.0365416
0.0365416
0.0365276
0.0335692
0.033582
0.033582
0.0335692
0.0307078
0.0307175
0.0307175
0.0307078
0.0280696
0.0280779
0.0280779
0.0280696
0.0255964
0.0256043
0.0256043
0.0255964
0.023289
0.0232951
0.0232951
0.023289
0.0211896
0.0211944
0.0211944
0.0211896
0.0436361
0.0436391
0.0436391
0.0436361
0.0442041
0.0442131
0.0442131
0.0442041
0.0423038
0.0423162
0.0423162
0.0423038
0.0390702
0.0390748
0.0390748
0.0390702
0.0423025
0.0423065
0.0423065
0.0423025
0.0362708
0.0362725
0.0362725
0.0362708
0.0335052
0.0335099
0.0335099
0.0335052
0.0307961
0.0308041
0.0308041
0.0307961
0.0281069
0.0281142
0.0281142
0.0281069
0.0255912
0.0255982
0.0255982
0.0255912
0.0232976
0.0233045
0.0233045
0.0232976
0.0211438
0.0211499
0.0211499
0.0211438
0.0192344
0.0192399
0.0192399
0.0192344
0.0201113
0.0201178
0.0201178
0.0201113
0.0207361
0.0207431
0.0207431
0.0207361
0.0210769
0.0210835
0.0210835
0.0210769
0.0210701
0.0210763
0.0210763
0.0210701
0.0207792
0.0207849
0.0207849
0.0207792
0.0201676
0.0201721
0.0201721
0.0201676
0.0192659
0.0192699
0.0192699
0.0192659
-0.000519914
-0.000518159
-0.00051816
-0.000519916
-0.000623057
-0.000621559
-0.000621559
-0.000623059
-0.000731272
-0.000730014
-0.000730014
-0.000731273
-0.000826704
-0.000825428
-0.000825427
-0.000826704
-0.000894972
-0.000894301
-0.000894301
-0.000894971
-0.000907622
-0.000906758
-0.000906758
-0.000907621
-0.000849571
-0.000848486
-0.000848485
-0.000849568
-0.000697195
-0.000697041
-0.00069704
-0.000697192
-0.000422077
-0.000422322
-0.000422321
-0.000422074
-6.13034e-05
-6.15234e-05
-6.15229e-05
-6.13025e-05
8.75478e-05
8.72973e-05
8.72974e-05
8.75473e-05
0.00017245
0.000172202
0.000172202
0.000172449
0.000212768
0.000212513
0.000212513
0.000212767
0.000216853
0.000216614
0.000216613
0.000216852
0.000185831
0.000185561
0.000185561
0.00018583
0.000111683
0.000111415
0.000111415
0.000111684
-1.73607e-05
-1.75298e-05
-1.75289e-05
-1.73582e-05
-0.00024249
-0.000242755
-0.000242754
-0.000242487
-0.000652313
-0.000652616
-0.000652614
-0.000652309
-0.000944266
-0.000943979
-0.000943978
-0.000944263
-0.00110879
-0.00110802
-0.00110802
-0.00110879
-0.00115124
-0.00115018
-0.00115018
-0.00115124
-0.00110548
-0.00110442
-0.00110442
-0.00110548
-0.00099718
-0.00099587
-0.000995869
-0.000997178
-0.000858953
-0.000857287
-0.000857286
-0.000858951
-0.000727679
-0.000725756
-0.000725755
-0.000727676
-0.000617968
-0.000615431
-0.00061543
-0.000617965
-0.000559127
-0.00055748
-0.000557479
-0.000559123
0.000345106
0.000344955
0.000344955
0.000345107
0.000430436
0.000430286
0.000430286
0.000430435
0.000470236
0.000470042
0.000470042
0.000470235
0.000486974
0.000486757
0.000486757
0.000486973
0.000486909
0.00048675
0.00048675
0.000486909
0.000471867
0.000471702
0.000471702
0.000471868
0.000436376
0.000436218
0.000436219
0.000436378
0.00036815
0.000368115
0.000368117
0.000368153
0.00023448
0.000234634
0.000234635
0.000234484
-0.000585299
-0.000583689
-0.00058369
-0.000585301
-0.00066419
-0.000662339
-0.000662339
-0.000664191
-0.000778611
-0.000777084
-0.000777083
-0.00077861
-0.000920136
-0.000918836
-0.000918834
-0.000920133
-0.00105834
-0.00105707
-0.00105707
-0.00105834
-0.00117236
-0.00117118
-0.00117118
-0.00117236
-0.00123444
-0.00123331
-0.00123331
-0.00123443
-0.00120589
-0.00120503
-0.00120503
-0.00120588
-0.00104628
-0.00104616
-0.00104616
-0.00104628
-0.000738152
-0.000738432
-0.000738431
-0.000738149
-0.000310108
-0.000309723
-0.000309722
-0.000310106
0.000202213
0.000202491
0.000202491
0.000202213
0.0180921
0.0180956
0.0180956
0.0180921
0.0198667
0.019871
0.019871
0.0198667
0.0217999
0.0218049
0.0218049
0.0217999
0.0238848
0.0238908
0.0238908
0.0238848
0.0261135
0.0261197
0.0261197
0.0261135
0.0284071
0.0284151
0.0284151
0.0284071
0.030866
0.0308761
0.0308761
0.030866
0.0332949
0.0333052
0.0333052
0.0332949
0.0353555
0.0353632
0.0353632
0.0353555
0.0370033
0.0370122
0.0370122
0.0370033
0.037872
0.0378796
0.0378796
0.037872
0.0324882
0.0324911
0.0324911
0.0324882
0.0370724
0.0370652
0.0370652
0.0370724
0.0381994
0.0382074
0.0382074
0.0381994
0.0370516
0.0370612
0.0370612
0.0370516
0.0351177
0.0351226
0.0351226
0.0351177
0.0330186
0.0330155
0.0330155
0.0330186
0.0307808
0.030779
0.030779
0.0307808
0.0284518
0.0284578
0.0284578
0.0284518
0.0261156
0.0261242
0.0261242
0.0261156
0.0238724
0.0238799
0.0238799
0.0238724
0.0217945
0.0217995
0.0217995
0.0217945
0.0199153
0.0199211
0.0199211
0.0199153
0.0180637
0.0180699
0.0180699
0.0180637
0.0164718
0.0164761
0.0164761
0.0164718
0.0175467
0.0175509
0.0175509
0.0175467
0.018383
0.0183878
0.0183878
0.018383
0.0189632
0.0189672
0.0189672
0.0189632
0.0192587
0.0192622
0.0192622
0.0192587
0.0192623
0.0192663
0.0192663
0.0192623
0.0189782
0.0189825
0.0189825
0.0189782
0.0184032
0.0184066
0.0184066
0.0184032
0.0175733
0.0175764
0.0175764
0.0175733
0.01649
0.0164928
0.0164928
0.01649
0.0152524
0.0152546
0.0152546
0.0152524
0.0167076
0.01671
0.01671
0.0167076
0.0182868
0.0182899
0.0182899
0.0182868
0.0200035
0.0200078
0.0200078
0.0200035
0.0218454
0.0218497
0.0218497
0.0218454
0.0237525
0.0237562
0.0237562
0.0237525
0.0256867
0.0256914
0.0256914
0.0256867
0.0276685
0.0276762
0.0276762
0.0276685
0.0294989
0.0295064
0.0295064
0.0294989
0.0308595
0.0308606
0.0308606
0.0308595
0.0313937
0.031394
0.031394
0.0313937
0.0309803
0.03098
0.03098
0.0309803
0.0279161
0.0279111
0.0279111
0.0279161
0.0186247
0.0186125
0.0186125
0.0186247
0.0188272
0.0188147
0.0188147
0.0188272
0.0281931
0.0281834
0.0281834
0.0281931
0.0313575
0.0313581
0.0313581
0.0313575
0.0315767
0.0315844
0.0315844
0.0315767
0.0306101
0.030613
0.030613
0.0306101
0.0292266
0.0292207
0.0292207
0.0292266
0.0276125
0.0276073
0.0276073
0.0276125
0.0257019
0.0257057
0.0257057
0.0257019
0.0237317
0.0237379
0.0237379
0.0237317
0.0218118
0.0218185
0.0218185
0.0218118
0.0199936
0.0199993
0.0199993
0.0199936
0.0182717
0.018278
0.018278
0.0182717
0.0166858
0.0166909
0.0166909
0.0166858
0.0152143
0.0152183
0.0152183
0.0152143
0.0139269
0.0139296
0.0139296
0.0139269
0.015113
0.0151157
0.0151157
0.015113
0.0161059
0.0161082
0.0161082
0.0161059
0.0168834
0.0168855
0.0168855
0.0168834
0.0174115
0.0174139
0.0174139
0.0174115
0.0176788
0.0176816
0.0176816
0.0176788
0.0176791
0.0176819
0.0176819
0.0176791
0.0174109
0.0174129
0.0174129
0.0174109
0.0168924
0.0168938
0.0168938
0.0168924
0.0161175
0.0161188
0.0161188
0.0161175
0.0151161
0.0151175
0.0151175
0.0151161
0.0139317
0.0139332
0.0139332
0.0139317
-0.000727857
-0.000726287
-0.000726288
-0.000727861
-0.000685731
-0.000683306
-0.000683306
-0.000685732
-0.000739496
-0.000738037
-0.000738037
-0.000739495
-0.000831319
-0.000829851
-0.00082985
-0.000831317
-0.000970681
-0.000969876
-0.000969875
-0.000970678
-0.00115354
-0.00115298
-0.00115297
-0.00115353
-0.00135492
-0.00135392
-0.00135392
-0.00135492
-0.00154748
-0.00154641
-0.00154641
-0.00154748
-0.00168593
-0.00168513
-0.00168513
-0.00168592
-0.00170626
-0.00170581
-0.0017058
-0.00170626
-0.00155544
-0.00155552
-0.00155552
-0.00155543
-0.00120411
-0.00120414
-0.00120414
-0.00120411
-0.000679883
-0.00067965
-0.00067965
-0.000679882
-5.70061e-05
-5.65024e-05
-5.65032e-05
-5.70089e-05
0.000570536
0.000571018
0.000571018
0.000570534
0.000681067
0.0006812
0.000681201
0.00068107
0.000731487
0.000731445
0.000731444
0.000731488
0.000743617
0.000743537
0.000743536
0.000743616
0.00073809
0.000737954
0.000737953
0.000738088
0.000731076
0.000730963
0.000730963
0.000731075
0.000728155
0.000728061
0.000728061
0.000728155
0.000730543
0.000730441
0.000730442
0.000730545
0.000733335
0.000733282
0.000733284
0.000733339
0.000728568
0.000728615
0.000728617
0.000728572
0.000693219
0.000693485
0.000693487
0.000693223
0.000605889
0.00060659
0.00060659
0.000605891
1.53891e-05
1.61231e-05
1.61232e-05
1.53898e-05
-0.000585416
-0.000585088
-0.000585087
-0.000585415
-0.00108317
-0.00108321
-0.00108321
-0.00108317
-0.00141748
-0.00141722
-0.00141722
-0.00141748
-0.00156851
-0.00156798
-0.00156798
-0.0015685
-0.00156566
-0.00156471
-0.00156471
-0.00156565
-0.00145111
-0.00145019
-0.00145018
-0.00145111
-0.00127741
-0.00127662
-0.00127662
-0.00127741
-0.00108235
-0.00108126
-0.00108126
-0.00108235
-0.000912058
-0.000910984
-0.000910983
-0.000912056
-0.000779278
-0.000778176
-0.000778175
-0.000779276
-0.000694806
-0.000694105
-0.000694104
-0.000694804
-0.000648256
-0.000646611
-0.000646611
-0.000648256
-0.000649216
-0.000646936
-0.000646936
-0.000649215
-0.000836082
-0.000834883
-0.000834882
-0.00083608
-0.000752243
-0.000750728
-0.000750727
-0.00075224
-0.000785347
-0.000783425
-0.000783424
-0.000785344
-0.000903914
-0.000901595
-0.000901593
-0.00090391
-0.00108743
-0.00108499
-0.00108499
-0.00108743
-0.0013241
-0.00132208
-0.00132207
-0.00132409
-0.0016056
-0.00160401
-0.00160401
-0.0016056
-0.00188275
-0.00188148
-0.00188147
-0.00188275
-0.00209094
-0.00209002
-0.00209002
-0.00209094
-0.00216775
-0.00216728
-0.00216728
-0.00216775
-0.00203126
-0.00203145
-0.00203145
-0.00203126
-0.00164932
-0.00164944
-0.00164944
-0.00164932
-0.00104589
-0.00104522
-0.00104522
-0.00104589
-0.000289745
-0.000288702
-0.000288702
-0.000289744
0.000478228
0.000478704
0.000478704
0.000478229
0.00111502
0.00111535
0.00111535
0.00111502
0.00108321
0.0010834
0.0010834
0.00108321
0.00103413
0.00103428
0.00103428
0.00103413
0.000982183
0.00098233
0.000982328
0.00098218
0.000937602
0.000937629
0.000937628
0.000937599
0.000910063
0.000910091
0.00091009
0.000910061
0.00090437
0.000904432
0.000904433
0.000904371
0.000920763
0.000920812
0.000920813
0.000920766
0.000957049
0.000957083
0.000957085
0.000957054
0.00100884
0.00100896
0.00100896
0.00100884
0.00106405
0.00106429
0.00106429
0.00106405
0.00110904
0.00110952
0.00110952
0.00110904
0.00113559
0.00113601
0.00113601
0.00113558
0.012605
0.0126059
0.0126059
0.012605
0.013761
0.0137628
0.0137628
0.013761
0.0150319
0.0150342
0.0150342
0.0150319
0.0164083
0.0164108
0.0164108
0.0164083
0.0178849
0.0178884
0.0178884
0.0178849
0.0194799
0.0194834
0.0194834
0.0194799
0.0210815
0.0210828
0.0210828
0.0210815
0.0226321
0.0226345
0.0226345
0.0226321
0.0240896
0.0240956
0.0240956
0.0240896
0.0254037
0.0254117
0.0254117
0.0254037
0.0261314
0.026127
0.026127
0.0261314
0.0260571
0.0260578
0.0260578
0.0260571
0.0246751
0.0246631
0.0246631
0.0246751
0.0218867
0.0218983
0.0218983
0.0218867
0.0218758
0.0218755
0.0218755
0.0218758
0.0250362
0.0250232
0.0250232
0.0250362
0.0262611
0.0262707
0.0262707
0.0262611
0.0259421
0.025943
0.025943
0.0259421
0.0252005
0.025194
0.025194
0.0252005
0.0240723
0.0240647
0.0240647
0.0240723
0.0226158
0.022618
0.022618
0.0226158
0.0210303
0.0210345
0.0210345
0.0210303
0.019423
0.0194289
0.0194289
0.019423
0.0178621
0.0178671
0.0178671
0.0178621
0.0163811
0.0163864
0.0163864
0.0163811
0.0149869
0.0149911
0.0149911
0.0149869
0.0137229
0.0137274
0.0137274
0.0137229
0.0125559
0.0125587
0.0125587
0.0125559
0.0115629
0.0115638
0.0115638
0.0115629
0.0128418
0.0128423
0.0128423
0.0128418
0.0139559
0.0139558
0.0139558
0.0139559
0.0148807
0.0148808
0.0148808
0.0148807
0.0155893
0.0155896
0.0155896
0.0155893
0.0160686
0.0160694
0.0160694
0.0160686
0.0163109
0.0163119
0.0163119
0.0163109
0.0163119
0.0163129
0.0163129
0.0163119
0.0160728
0.0160734
0.0160734
0.0160728
0.0155979
0.0155979
0.0155979
0.0155979
0.0148897
0.0148897
0.0148897
0.0148897
0.0139614
0.0139616
0.0139616
0.0139614
0.012841
0.0128412
0.0128412
0.012841
-0.000812185
-0.000809439
-0.000809439
-0.000812186
-0.000849966
-0.000847944
-0.000847942
-0.000849964
-0.000966214
-0.000964067
-0.000964065
-0.00096621
-0.00115451
-0.00115227
-0.00115227
-0.00115451
-0.00140817
-0.00140596
-0.00140596
-0.00140816
-0.0017021
-0.0017001
-0.00170009
-0.0017021
-0.00199579
-0.00199445
-0.00199445
-0.00199579
-0.00224246
-0.00224157
-0.00224157
-0.00224245
-0.00233637
-0.00233602
-0.00233602
-0.00233636
-0.00220704
-0.00220749
-0.00220749
-0.00220704
-0.00181451
-0.00181439
-0.00181439
-0.00181451
-0.0011908
-0.00119037
-0.00119037
-0.0011908
-0.000385449
-0.000384737
-0.000384738
-0.00038545
0.000407023
0.000407535
0.000407533
0.000407018
0.00113151
0.00113172
0.00113172
0.0011315
0.0115865
0.0115865
0.0115865
0.0115865
0.0116365
0.0116107
0.0116107
0.0116365
0.0127148
0.0127017
0.0127017
0.0127148
0.00106089
0.00106443
0.00106444
0.00106089
0.00175648
0.00178916
0.00178917
0.00175648
-0.00311854
-0.00310804
-0.00310804
-0.00311854
-0.00444836
-0.00443963
-0.00443963
-0.00444836
-0.00259217
-0.00259362
-0.00259362
-0.00259217
-0.00123087
-0.00122362
-0.00122362
-0.00123087
-0.00111168
-0.00111133
-0.00111133
-0.00111168
-0.000789419
-0.000785952
-0.000785952
-0.00078942
-0.000740113
-0.00074007
-0.00074007
-0.000740114
-0.000819764
-0.000819864
-0.000819865
-0.000819767
-0.00101873
-0.00101996
-0.00101997
-0.00101874
-0.00128599
-0.00128752
-0.00128752
-0.00128599
-0.00161427
-0.00161597
-0.00161597
-0.00161428
-0.00199741
-0.00199915
-0.00199915
-0.00199741
-0.00238526
-0.00238684
-0.00238684
-0.00238526
-0.00270623
-0.00270734
-0.00270734
-0.00270623
-0.00287106
-0.00287189
-0.00287189
-0.00287106
-0.00274029
-0.00274123
-0.00274123
-0.0027403
-0.00227843
-0.00227848
-0.00227848
-0.00227843
-0.00154719
-0.00154652
-0.00154652
-0.00154719
-0.00059158
-0.00059083
-0.00059083
-0.000591579
0.000349693
0.000350237
0.000350238
0.000349698
0.0011529
0.00115312
0.00115312
0.0011529
0.00160733
0.00160748
0.00160748
0.00160733
0.00146999
0.0014701
0.00147011
0.00146999
0.00133642
0.00133661
0.00133661
0.00133642
0.00121534
0.00121553
0.00121552
0.00121534
0.00111445
0.00111461
0.00111461
0.00111445
0.00104088
0.001041
0.001041
0.00104088
0.000998697
0.000998804
0.000998802
0.000998694
0.000990532
0.000990652
0.000990652
0.000990533
0.00101674
0.00101685
0.00101685
0.00101675
0.00107642
0.00107655
0.00107655
0.00107642
0.00116657
0.00116677
0.00116677
0.00116657
0.00128231
0.00128265
0.00128265
0.00128231
0.00141305
0.0014134
0.0014134
0.00141305
0.00155602
0.00155632
0.00155632
0.00155602
0.00170885
0.00170964
0.00170964
0.00170885
-0.00153131
-0.00153858
-0.00153858
-0.00153131
0.00370349
0.003685
0.003685
0.00370349
0.0111855
0.0112043
0.0112043
0.0111855
0.0165743
0.0165778
0.0165778
0.0165743
0.0196263
0.0196189
0.0196189
0.0196263
0.0212291
0.021238
0.021238
0.0212291
0.0213587
0.0213562
0.0213562
0.0213587
0.0211795
0.0211729
0.0211729
0.0211795
0.0203731
0.0203667
0.0203667
0.0203731
0.019305
0.0193072
0.0193072
0.019305
0.0180451
0.0180482
0.0180482
0.0180451
0.0167645
0.0167692
0.0167692
0.0167645
0.0154689
0.0154716
0.0154716
0.0154689
0.0142416
0.0142448
0.0142448
0.0142416
0.0130672
0.0130707
0.0130707
0.0130672
0.0119908
0.0119952
0.0119952
0.0119908
0.0110006
0.0110039
0.0110039
0.0110006
0.0101292
0.0101307
0.0101307
0.0101292
0.00939833
0.00939701
0.00939701
0.00939833
0.0107397
0.0107382
0.0107382
0.0107397
0.0119428
0.0119413
0.0119413
0.0119428
0.0129892
0.0129874
0.0129874
0.0129892
0.0138422
0.0138406
0.0138406
0.0138422
0.0144941
0.0144934
0.0144934
0.0144941
0.0149362
0.0149363
0.0149363
0.0149362
0.0151607
0.0151611
0.0151611
0.0151607
0.0151613
0.0151616
0.0151616
0.0151613
0.0149392
0.0149389
0.0149389
0.0149392
0.0144995
0.0144984
0.0144984
0.0144995
0.013847
0.0138452
0.0138452
0.013847
0.0129879
0.0129864
0.0129864
0.0129879
0.0119473
0.0119464
0.0119464
0.0119473
0.0107412
0.0107401
0.0107401
0.0107412
0.00942351
0.00942206
0.00942206
0.00942351
0.0101702
0.0101703
0.0101703
0.0101702
0.0110426
0.0110434
0.0110434
0.0110426
0.0120075
0.0120087
0.0120087
0.0120075
0.0130914
0.0130931
0.0130931
0.0130914
0.0142602
0.0142616
0.0142616
0.0142602
0.0155023
0.0155037
0.0155037
0.0155023
0.0168074
0.0168098
0.0168098
0.0168074
0.0181042
0.0181049
0.0181049
0.0181042
0.0193071
0.0193094
0.0193094
0.0193071
0.0203497
0.0203536
0.0203536
0.0203497
0.0212471
0.0212546
0.0212546
0.0212471
0.0215749
0.0215719
0.0215719
0.0215749
0.0211398
0.0211431
0.0211431
0.0211398
0.019516
0.0195179
0.0195179
0.019516
0.0169234
0.0169402
0.0169402
0.0169234
0.0117945
0.0118164
0.0118164
0.0117945
0.00359043
0.00356987
0.00356987
0.00359042
-0.00475864
-0.00477556
-0.00477555
-0.00475864
-0.00140846
-0.00143424
-0.00143424
-0.00140847
-0.00246085
-0.00243991
-0.00243991
-0.00246085
-0.00421274
-0.00421858
-0.00421858
-0.00421274
-0.0025895
-0.00258439
-0.0025844
-0.00258951
-0.001764
-0.00176231
-0.00176232
-0.001764
-0.0011312
-0.00112681
-0.0011268
-0.00113117
-0.00095662
-0.000955292
-0.000955292
-0.000956612
-0.000806704
-0.000805455
-0.000805456
-0.000806704
-0.000900711
-0.000901153
-0.000901152
-0.000900709
-0.00109384
-0.00109491
-0.00109491
-0.00109383
-0.00135921
-0.00136078
-0.00136078
-0.00135921
-0.00170082
-0.00170262
-0.00170262
-0.00170082
-0.00210236
-0.00210409
-0.00210409
-0.00210236
-0.0025166
-0.00251819
-0.00251819
-0.0025166
-0.00286976
-0.00287109
-0.00287109
-0.00286977
-0.00304938
-0.00305055
-0.00305056
-0.00304938
-0.00292956
-0.0029307
-0.0029307
-0.00292957
-0.00246355
-0.00246356
-0.00246357
-0.00246356
-0.00169817
-0.00169751
-0.00169751
-0.00169818
-0.000698795
-0.000698
-0.000698002
-0.000698796
0.000268156
0.000268592
0.000268591
0.000268153
0.0011423
0.00114271
0.00114271
0.0011423
0.00174199
0.00174258
0.00174258
0.001742
0.00796153
0.00796022
0.00796022
0.00796153
0.0085745
0.00857444
0.00857444
0.0085745
0.00928688
0.00928722
0.00928722
0.00928688
0.0100826
0.0100832
0.0100832
0.0100826
0.0109658
0.0109665
0.0109665
0.0109658
0.0119252
0.0119258
0.0119258
0.0119252
0.0129228
0.0129225
0.0129225
0.0129228
0.0139571
0.013958
0.013958
0.0139571
0.014965
0.0149656
0.0149656
0.014965
0.0158908
0.0158932
0.0158932
0.0158908
0.0166281
0.0166305
0.0166305
0.0166281
0.0171839
0.01719
0.01719
0.0171839
0.0172473
0.0172488
0.0172488
0.0172473
0.0166768
0.0166836
0.0166836
0.0166768
0.0152679
0.0152764
0.0152764
0.0152679
0.0130665
0.0130732
0.0130732
0.0130665
0.00970768
0.00970333
0.00970333
0.00970768
0.00448993
0.00446246
0.00446247
0.00448993
0.000278491
0.000259733
0.000259734
0.000278491
-0.00151043
-0.00150753
-0.00150753
-0.00151043
-0.00234618
-0.00235045
-0.00235046
-0.00234619
-0.00164093
-0.0016348
-0.0016348
-0.00164093
-0.00102473
-0.00102022
-0.00102022
-0.00102472
-0.000688966
-0.000684708
-0.000684709
-0.000688961
-0.00063934
-0.000636673
-0.000636676
-0.000639341
-0.000555679
-0.000550122
-0.000550123
-0.000555679
-0.00073912
-0.00073402
-0.00073402
-0.000739117
-0.000990472
-0.000984577
-0.000984576
-0.000990468
-0.0013329
-0.00132695
-0.00132695
-0.0013329
-0.00177555
-0.00177026
-0.00177026
-0.00177554
-0.00229056
-0.00228613
-0.00228613
-0.00229056
-0.00282324
-0.00282003
-0.00282003
-0.00282324
-0.0032683
-0.00326639
-0.00326639
-0.0032683
-0.00350119
-0.00350033
-0.00350033
-0.00350119
-0.00339701
-0.00339697
-0.00339698
-0.00339701
-0.00287198
-0.00287193
-0.00287193
-0.00287198
-0.00199463
-0.00199456
-0.00199456
-0.00199464
-0.000903456
-0.000902716
-0.000902716
-0.000903456
0.000184234
0.000184938
0.000184937
0.000184235
0.0011394
0.00114018
0.00114018
0.00113941
0.00182527
0.00182669
0.0018267
0.00182528
0.00213155
0.00213191
0.00213191
0.00213156
0.00200298
0.00200344
0.00200344
0.00200298
0.00180423
0.00180459
0.00180459
0.00180423
0.00160118
0.00160151
0.00160151
0.00160118
0.00141488
0.00141511
0.00141511
0.00141489
0.00125518
0.00125529
0.00125529
0.00125518
0.00112881
0.00112889
0.00112889
0.0011288
0.00103991
0.00103996
0.00103995
0.0010399
0.000989634
0.000989672
0.000989671
0.000989632
0.000980048
0.000980093
0.000980093
0.00098005
0.00101128
0.00101132
0.00101132
0.00101128
0.00108228
0.00108237
0.00108237
0.00108229
0.00119185
0.00119196
0.00119196
0.00119185
0.00133724
0.00133737
0.00133736
0.00133724
0.00151418
0.00151448
0.00151447
0.00151418
0.00171328
0.00171347
0.00171347
0.00171328
0.00191947
0.00191948
0.00191948
0.00191947
0.00209532
0.00209597
0.00209597
0.00209532
0.00182326
0.00182445
0.00182445
0.00182326
0.00119071
0.00119151
0.00119151
0.00119071
0.000278785
0.000279584
0.000279581
0.000278775
-0.000790603
-0.000790358
-0.00079036
-0.000790614
-0.0018596
-0.00185979
-0.00185979
-0.00185961
-0.00270766
-0.00270767
-0.00270767
-0.00270766
-0.00323355
-0.00323354
-0.00323354
-0.00323355
-0.00334742
-0.00334706
-0.00334706
-0.00334742
-0.00311488
-0.00311303
-0.00311303
-0.00311488
-0.00269878
-0.00269563
-0.00269563
-0.00269878
-0.00218665
-0.0021823
-0.0021823
-0.00218665
-0.00168785
-0.00168263
-0.00168263
-0.00168786
-0.00126037
-0.00125475
-0.00125475
-0.00126037
-0.000920069
-0.000914525
-0.000914524
-0.000920066
-0.000673389
-0.000668053
-0.000668052
-0.000673386
-0.000554181
-0.000551143
-0.000551142
-0.000554176
-0.000480834
-0.000477295
-0.000477295
-0.00048083
-0.000864881
-0.000867088
-0.000867088
-0.000864877
-0.000826693
-0.000820824
-0.000820825
-0.00082669
-0.00191416
-0.00191387
-0.00191387
-0.00191416
-0.00285524
-0.00286021
-0.00286021
-0.00285524
-0.00249436
-0.00251287
-0.00251287
-0.00249436
4.38104e-05
4.95884e-05
4.95891e-05
4.38098e-05
0.00395344
0.00392879
0.00392879
0.00395344
0.00979767
0.00982162
0.00982162
0.00979767
0.0126958
0.012696
0.012696
0.0126958
0.0151927
0.0152011
0.0152011
0.0151927
0.0166356
0.0166435
0.0166435
0.0166356
0.0170536
0.0170528
0.0170528
0.0170536
0.0171495
0.0171466
0.0171466
0.0171495
0.0166628
0.0166593
0.0166594
0.0166628
0.0158889
0.0158914
0.0158914
0.0158889
0.0149345
0.0149361
0.0149361
0.0149345
0.0139351
0.0139375
0.0139375
0.0139351
0.0129093
0.0129096
0.0129096
0.0129093
0.0119201
0.0119216
0.0119216
0.0119201
0.0109582
0.0109609
0.0109609
0.0109582
0.0100543
0.0100587
0.0100587
0.0100543
0.00923794
0.00924166