/*--------------------------------*- C++ -*----------------------------------*\
| =========                 |                                                 |
| \\      /  F ield         | OpenFOAM: The Open Source CFD Toolbox           |
|  \\    /   O peration     | Version:  v1806                                 |
|   \\  /    A nd           | Web:      www.OpenFOAM.com                      |
|    \\/     M anipulation  |                                                 |
\*---------------------------------------------------------------------------*/
FoamFile
{
    version     2.0;
    format      ascii;
    class       volVectorField;
    location    "130";
    object      U;
}
// * * * * * * * * * * * * * * * * * * * * * * * * * * * * * * * * * * * * * //

dimensions      [0 1 -1 0 0 0 0];


internalField   nonuniform List<vector> 
4400
(
(0.215303 0.201096 0)
(0.261045 0.170613 0)
(0.270826 0.140651 0)
(0.272841 0.114732 0)
(0.277432 0.0949763 0)
(0.28379 0.081162 0)
(0.289247 0.071365 0)
(0.292998 0.0640945 0)
(0.295409 0.0586557 0)
(0.29698 0.0546561 0)
(0.298028 0.0517416 0)
(0.298728 0.0495996 0)
(0.299188 0.0479913 0)
(0.299478 0.0467557 0)
(0.299643 0.0457919 0)
(0.299711 0.0450392 0)
(0.299699 0.0444617 0)
(0.299615 0.044037 0)
(0.299451 0.0437498 0)
(0.299198 0.0435876 0)
(0.235561 0.062434 0)
(0.245132 0.0503246 0)
(0.255682 0.0449587 0)
(0.269182 0.0454192 0)
(0.27933 0.0477854 0)
(0.28523 0.0494471 0)
(0.288682 0.0500796 0)
(0.291087 0.0499755 0)
(0.292976 0.0494012 0)
(0.294492 0.0485317 0)
(0.295696 0.047505 0)
(0.296646 0.0464378 0)
(0.297392 0.0454203 0)
(0.297971 0.0445097 0)
(0.29841 0.0437329 0)
(0.298733 0.043097 0)
(0.298956 0.042599 0)
(0.299091 0.0422323 0)
(0.299131 0.041991 0)
(0.299053 0.0418707 0)
(0.218447 0.0496857 0)
(0.238871 0.0613163 0)
(0.256078 0.0680113 0)
(0.266157 0.0688684 0)
(0.27222 0.0654644 0)
(0.277114 0.0608688 0)
(0.281621 0.0565728 0)
(0.285543 0.0528989 0)
(0.288716 0.0498449 0)
(0.291195 0.0473778 0)
(0.293119 0.045445 0)
(0.294615 0.0439612 0)
(0.295777 0.0428273 0)
(0.296681 0.041955 0)
(0.297385 0.0412788 0)
(0.297932 0.0407561 0)
(0.298357 0.0403612 0)
(0.298678 0.040079 0)
(0.298895 0.0399036 0)
(0.29897 0.0398326 0)
(0.255164 0.0280753 0)
(0.259993 0.0310278 0)
(0.26343 0.0316925 0)
(0.268379 0.0323221 0)
(0.27397 0.0338499 0)
(0.27892 0.0356676 0)
(0.282847 0.0372673 0)
(0.285941 0.0384413 0)
(0.288457 0.0391754 0)
(0.290544 0.0395261 0)
(0.292279 0.0395742 0)
(0.293717 0.0394095 0)
(0.294906 0.0391185 0)
(0.295888 0.0387742 0)
(0.2967 0.0384307 0)
(0.297373 0.038123 0)
(0.297931 0.0378714 0)
(0.298389 0.0376864 0)
(0.298744 0.0375772 0)
(0.298942 0.0375488 0)
(0.24961 0.0198744 0)
(0.255785 0.0275619 0)
(0.263272 0.033675 0)
(0.269646 0.038009 0)
(0.274528 0.040226 0)
(0.278397 0.0407691 0)
(0.281731 0.0403932 0)
(0.284694 0.0396531 0)
(0.287286 0.038819 0)
(0.2895 0.038016 0)
(0.291363 0.0373068 0)
(0.292925 0.0367168 0)
(0.29423 0.0362444 0)
(0.295322 0.0358739 0)
(0.296237 0.0355865 0)
(0.297008 0.0353672 0)
(0.297663 0.0352063 0)
(0.298219 0.0350992 0)
(0.298672 0.0350489 0)
(0.298962 0.035058 0)
(0.270242 0.015882 0)
(0.272255 0.0187805 0)
(0.273792 0.0210175 0)
(0.275767 0.0227548 0)
(0.278351 0.0244198 0)
(0.281154 0.0261377 0)
(0.283799 0.0277601 0)
(0.286149 0.0291542 0)
(0.28821 0.0302705 0)
(0.290018 0.0311101 0)
(0.2916 0.0316989 0)
(0.292978 0.0320774 0)
(0.294172 0.0322937 0)
(0.295205 0.0323961 0)
(0.296101 0.0324276 0)
(0.296881 0.0324223 0)
(0.297565 0.032405 0)
(0.298166 0.0323931 0)
(0.298674 0.032403 0)
(0.299022 0.0324441 0)
(0.268406 0.010554 0)
(0.270811 0.0153502 0)
(0.274007 0.0193927 0)
(0.277263 0.0227991 0)
(0.280145 0.0253912 0)
(0.282641 0.027138 0)
(0.284862 0.0282039 0)
(0.286882 0.0288154 0)
(0.288717 0.0291535 0)
(0.290364 0.0293332 0)
(0.291826 0.0294263 0)
(0.293114 0.0294769 0)
(0.294247 0.0295101 0)
(0.295242 0.029538 0)
(0.296118 0.029565 0)
(0.296892 0.0295927 0)
(0.297582 0.0296219 0)
(0.298198 0.0296546 0)
(0.29873 0.0296986 0)
(0.299108 0.0297579 0)
(0.280273 0.0101194 0)
(0.281137 0.0122655 0)
(0.281927 0.0142826 0)
(0.282878 0.0160607 0)
(0.284131 0.0176747 0)
(0.285613 0.0192128 0)
(0.287169 0.0206653 0)
(0.288682 0.0219776 0)
(0.2901 0.023113 0)
(0.29141 0.0240605 0)
(0.292608 0.0248261 0)
(0.293695 0.0254262 0)
(0.294675 0.0258838 0)
(0.295557 0.0262249 0)
(0.296349 0.0264754 0)
(0.297065 0.0266587 0)
(0.297716 0.0267935 0)
(0.298308 0.0268952 0)
(0.298831 0.0269802 0)
(0.299213 0.0270572 0)
(0.280024 0.00662701 0)
(0.281162 0.00972121 0)
(0.282661 0.0124342 0)
(0.284309 0.0148493 0)
(0.285907 0.0169132 0)
(0.287382 0.0185797 0)
(0.288749 0.0198712 0)
(0.290029 0.0208557 0)
(0.291228 0.0216089 0)
(0.292342 0.0221931 0)
(0.293369 0.0226546 0)
(0.294309 0.0230262 0)
(0.295166 0.0233306 0)
(0.295946 0.0235827 0)
(0.296658 0.0237923 0)
(0.297309 0.0239655 0)
(0.297909 0.0241067 0)
(0.298462 0.0242202 0)
(0.298956 0.0243146 0)
(0.299324 0.0243936 0)
(0.287218 0.00680024 0)
(0.28761 0.00840737 0)
(0.288031 0.00999012 0)
(0.288536 0.01147 0)
(0.289188 0.0128397 0)
(0.289978 0.0141267 0)
(0.290854 0.0153361 0)
(0.291758 0.016451 0)
(0.29265 0.0174516 0)
(0.293508 0.0183272 0)
(0.294322 0.0190764 0)
(0.295085 0.0197044 0)
(0.295796 0.0202211 0)
(0.296455 0.0206391 0)
(0.297064 0.0209721 0)
(0.297631 0.0212335 0)
(0.298159 0.0214348 0)
(0.298652 0.0215866 0)
(0.299099 0.0217016 0)
(0.299437 0.0217863 0)
(0.287648 0.00452386 0)
(0.288237 0.00657838 0)
(0.288989 0.00843868 0)
(0.289841 0.0101399 0)
(0.290709 0.0116677 0)
(0.291549 0.0129977 0)
(0.292351 0.0141266 0)
(0.293119 0.0150718 0)
(0.293854 0.0158604 0)
(0.294556 0.0165198 0)
(0.29522 0.0170735 0)
(0.295845 0.0175399 0)
(0.29643 0.0179336 0)
(0.296978 0.0182649 0)
(0.29749 0.0185418 0)
(0.297971 0.0187697 0)
(0.298424 0.0189526 0)
(0.298852 0.0190945 0)
(0.299244 0.0192025 0)
(0.299544 0.0192794 0)
(0.292165 0.00465583 0)
(0.292346 0.0058563 0)
(0.292565 0.00704682 0)
(0.292835 0.00818817 0)
(0.293177 0.00926314 0)
(0.293595 0.0102765 0)
(0.294072 0.0112295 0)
(0.294582 0.0121159 0)
(0.295103 0.0129265 0)
(0.295621 0.0136539 0)
(0.296126 0.0142952 0)
(0.296611 0.014851 0)
(0.297075 0.0153246 0)
(0.297514 0.0157216 0)
(0.297931 0.0160485 0)
(0.298325 0.016312 0)
(0.2987 0.0165184 0)
(0.299056 0.016674 0)
(0.299387 0.0167871 0)
(0.299644 0.0168619 0)
(0.292806 0.00315597 0)
(0.293116 0.00453279 0)
(0.2935 0.00580925 0)
(0.293938 0.00699644 0)
(0.294396 0.00809013 0)
(0.294852 0.00907831 0)
(0.295297 0.00995552 0)
(0.295729 0.0107248 0)
(0.296149 0.0113948 0)
(0.296556 0.0119763 0)
(0.296948 0.0124798 0)
(0.297325 0.0129144 0)
(0.297684 0.0132877 0)
(0.298026 0.0136058 0)
(0.298353 0.0138735 0)
(0.298665 0.0140941 0)
(0.298964 0.0142706 0)
(0.299251 0.0144054 0)
(0.299519 0.0145034 0)
(0.299731 0.0145664 0)
(0.295679 0.00314943 0)
(0.295755 0.00401415 0)
(0.295858 0.00487045 0)
(0.295988 0.00569999 0)
(0.296154 0.00648961 0)
(0.29636 0.00723787 0)
(0.296599 0.00794365 0)
(0.296862 0.00860363 0)
(0.297138 0.00921312 0)
(0.297419 0.00976782 0)
(0.297698 0.010265 0)
(0.297972 0.0107039 0)
(0.298239 0.0110851 0)
(0.298496 0.0114106 0)
(0.298743 0.0116832 0)
(0.29898 0.011906 0)
(0.299209 0.0120818 0)
(0.29943 0.0122142 0)
(0.299639 0.0123076 0)
(0.299806 0.0123646 0)
(0.296277 0.00212958 0)
(0.296433 0.00302901 0)
(0.296621 0.00387595 0)
(0.296834 0.00467247 0)
(0.297059 0.00541668 0)
(0.297286 0.00610243 0)
(0.297509 0.00672577 0)
(0.297727 0.00728615 0)
(0.297939 0.00778582 0)
(0.298147 0.00822864 0)
(0.298349 0.00861887 0)
(0.298545 0.00896062 0)
(0.298734 0.00925748 0)
(0.298917 0.0095125 0)
(0.299093 0.00972814 0)
(0.299263 0.00990631 0)
(0.299429 0.0100485 0)
(0.299589 0.0101563 0)
(0.299742 0.0102319 0)
(0.299868 0.0102766 0)
(0.298068 0.00200851 0)
(0.298089 0.00257954 0)
(0.298123 0.00314417 0)
(0.29817 0.00369387 0)
(0.298233 0.00422035 0)
(0.298314 0.00472141 0)
(0.298413 0.00519554 0)
(0.298524 0.00564065 0)
(0.298645 0.00605413 0)
(0.29877 0.00643346 0)
(0.298897 0.00677673 0)
(0.299024 0.0070829 0)
(0.299149 0.00735172 0)
(0.29927 0.00758366 0)
(0.299389 0.00777966 0)
(0.299504 0.00794095 0)
(0.299616 0.00806885 0)
(0.299724 0.00816485 0)
(0.299829 0.00823086 0)
(0.299917 0.0082682 0)
(0.298487 0.0012775 0)
(0.298557 0.00181006 0)
(0.298638 0.00231586 0)
(0.298728 0.00279492 0)
(0.298823 0.00324615 0)
(0.298916 0.00366626 0)
(0.299007 0.0040528 0)
(0.299094 0.00440477 0)
(0.299178 0.00472246 0)
(0.29926 0.00500706 0)
(0.299339 0.00526021 0)
(0.299416 0.00548361 0)
(0.299491 0.00567885 0)
(0.299563 0.00584734 0)
(0.299633 0.00599024 0)
(0.299702 0.00610846 0)
(0.299769 0.00620274 0)
(0.299834 0.00627375 0)
(0.299898 0.0063222 0)
(0.299953 0.00634866 0)
(0.299511 0.00107414 0)
(0.299507 0.0013767 0)
(0.299505 0.0016768 0)
(0.299505 0.00197064 0)
(0.299511 0.00225364 0)
(0.299524 0.00252413 0)
(0.299543 0.00278099 0)
(0.299569 0.00302303 0)
(0.299599 0.0032489 0)
(0.299633 0.00345724 0)
(0.299668 0.00364691 0)
(0.299705 0.00381713 0)
(0.299742 0.0039675 0)
(0.299778 0.00409797 0)
(0.299814 0.00420876 0)
(0.299849 0.00430027 0)
(0.299883 0.00437299 0)
(0.299916 0.00442742 0)
(0.299949 0.00446401 0)
(0.299978 0.00448324 0)
(0.299671 0.000502014 0)
(0.299698 0.000732109 0)
(0.299725 0.000949637 0)
(0.299752 0.00115482 0)
(0.299779 0.00134791 0)
(0.299803 0.00152759 0)
(0.299824 0.00169286 0)
(0.299842 0.00184331 0)
(0.299859 0.00197904 0)
(0.299873 0.0021006 0)
(0.299887 0.00220869 0)
(0.2999 0.00230408 0)
(0.299913 0.00238749 0)
(0.299925 0.00245953 0)
(0.299937 0.00252068 0)
(0.299949 0.00257132 0)
(0.29996 0.00261173 0)
(0.299971 0.00264207 0)
(0.299983 0.00266235 0)
(0.299993 0.00267261 0)
(0.300078 0.000237537 0)
(0.300065 0.000290448 0)
(0.300052 0.000343946 0)
(0.300039 0.000396145 0)
(0.300027 0.000446634 0)
(0.300016 0.000495593 0)
(0.300008 0.000542975 0)
(0.300003 0.00058859 0)
(0.299999 0.000632108 0)
(0.299997 0.000673102 0)
(0.299996 0.000711128 0)
(0.299996 0.000745794 0)
(0.299996 0.000776803 0)
(0.299996 0.000803965 0)
(0.299997 0.000827185 0)
(0.299997 0.000846447 0)
(0.299998 0.000861789 0)
(0.299999 0.000873262 0)
(0.299999 0.00088088 0)
(0.3 0.00088468 0)
(0.135711 -0.145092 0)
(0.12175 -0.127216 0)
(0.113107 -0.109809 0)
(0.107038 -0.0933191 0)
(0.102466 -0.0775008 0)
(0.09893 -0.0621839 0)
(0.0962164 -0.0472686 0)
(0.0942174 -0.0326666 0)
(0.0928761 -0.0182897 0)
(0.092163 -0.00405067 0)
(0.0920653 0.0101365 0)
(0.0925835 0.0243579 0)
(0.093731 0.0387006 0)
(0.0955371 0.0532542 0)
(0.0980562 0.0681105 0)
(0.101388 0.0833636 0)
(0.105729 0.0991279 0)
(0.111488 0.115604 0)
(0.119623 0.133012 0)
(0.132571 0.150547 0)
(0.200241 -0.0477167 0)
(0.193904 -0.0434289 0)
(0.187687 -0.0385375 0)
(0.181925 -0.0332751 0)
(0.176817 -0.0277466 0)
(0.172478 -0.0220068 0)
(0.168966 -0.0160987 0)
(0.166307 -0.0100611 0)
(0.164511 -0.00392984 0)
(0.163581 0.00226158 0)
(0.163522 0.00848038 0)
(0.164344 0.0146939 0)
(0.166061 0.0208693 0)
(0.168697 0.0269722 0)
(0.172279 0.0329646 0)
(0.176836 0.0387999 0)
(0.182393 0.0444335 0)
(0.188957 0.0498752 0)
(0.196509 0.055141 0)
(0.204968 0.0594571 0)
(0.211823 -0.0331116 0)
(0.210237 -0.0301316 0)
(0.209003 -0.0268713 0)
(0.208051 -0.0233448 0)
(0.207324 -0.01958 0)
(0.206779 -0.015611 0)
(0.206388 -0.0114736 0)
(0.206131 -0.00720425 0)
(0.205998 -0.00283913 0)
(0.20598 0.00158621 0)
(0.206074 0.00603664 0)
(0.206276 0.010477 0)
(0.206582 0.0148717 0)
(0.206992 0.019184 0)
(0.207507 0.0233752 0)
(0.208133 0.0274049 0)
(0.208885 0.03123 0)
(0.209794 0.0348037 0)
(0.21092 0.0380782 0)
(0.212358 0.0410238 0)
(0.246218 -0.0151293 0)
(0.245129 -0.0132594 0)
(0.244049 -0.0113351 0)
(0.243019 -0.00936833 0)
(0.242075 -0.00736813 0)
(0.241252 -0.00534172 0)
(0.240576 -0.00329502 0)
(0.24007 -0.00123329 0)
(0.239751 0.000838545 0)
(0.239633 0.00291569 0)
(0.239722 0.00499337 0)
(0.240025 0.00706688 0)
(0.240542 0.00913163 0)
(0.241269 0.0111832 0)
(0.242199 0.013217 0)
(0.24332 0.0152283 0)
(0.244616 0.0172139 0)
(0.246065 0.0191762 0)
(0.247643 0.0211112 0)
(0.249321 0.0229332 0)
(0.247746 -0.0118023 0)
(0.247286 -0.0104992 0)
(0.246916 -0.00914872 0)
(0.246626 -0.00775204 0)
(0.246408 -0.00631217 0)
(0.24625 -0.00483365 0)
(0.246145 -0.0033223 0)
(0.246085 -0.00178498 0)
(0.246065 -0.00022932 0)
(0.246079 0.00133644 0)
(0.246123 0.00290365 0)
(0.246197 0.00446342 0)
(0.246298 0.00600673 0)
(0.246427 0.0075246 0)
(0.246587 0.00900835 0)
(0.24678 0.0104498 0)
(0.247012 0.0118406 0)
(0.247289 0.0131695 0)
(0.247622 0.0144292 0)
(0.248022 0.0156522 0)
(0.267419 -0.00721944 0)
(0.267176 -0.0061942 0)
(0.26694 -0.0051566 0)
(0.266719 -0.00410942 0)
(0.26652 -0.003055 0)
(0.266349 -0.00199531 0)
(0.266215 -0.000931919 0)
(0.266121 0.000133891 0)
(0.266072 0.0012011 0)
(0.266073 0.00226888 0)
(0.266125 0.00333656 0)
(0.266229 0.00440359 0)
(0.266387 0.00546947 0)
(0.266596 0.00653372 0)
(0.266854 0.00759575 0)
(0.267159 0.00865467 0)
(0.267505 0.00971022 0)
(0.267888 0.010765 0)
(0.2683 0.0118196 0)
(0.268734 0.0128392 0)
(0.267267 -0.00571896 0)
(0.26707 -0.00501228 0)
(0.266906 -0.00429541 0)
(0.266774 -0.00356884 0)
(0.266672 -0.00283332 0)
(0.266596 -0.00208992 0)
(0.266543 -0.00134 0)
(0.266513 -0.000585143 0)
(0.266503 0.000172859 0)
(0.266511 0.000932044 0)
(0.266537 0.00169034 0)
(0.266579 0.00244558 0)
(0.266638 0.00319558 0)
(0.266714 0.00393817 0)
(0.266807 0.0046713 0)
(0.266918 0.00539317 0)
(0.267051 0.00610163 0)
(0.267206 0.00679259 0)
(0.267387 0.00746344 0)
(0.267598 0.00813533 0)
(0.279258 -0.00421215 0)
(0.279194 -0.00357215 0)
(0.279134 -0.00292735 0)
(0.279078 -0.00227867 0)
(0.27903 -0.00162695 0)
(0.278991 -0.000972907 0)
(0.278962 -0.000317155 0)
(0.278946 0.000339773 0)
(0.278942 0.00099743 0)
(0.278952 0.00165544 0)
(0.278977 0.00231346 0)
(0.279018 0.00297122 0)
(0.279073 0.00362845 0)
(0.279143 0.00428488 0)
(0.279228 0.00494017 0)
(0.279325 0.00559384 0)
(0.279434 0.00624574 0)
(0.279553 0.00689725 0)
(0.27968 0.00754893 0)
(0.279813 0.00818342 0)
(0.279274 -0.00334971 0)
(0.279177 -0.00290838 0)
(0.279095 -0.00246446 0)
(0.279027 -0.00201814 0)
(0.278974 -0.00156966 0)
(0.278934 -0.00111935 0)
(0.278906 -0.000667612 0)
(0.278891 -0.000214891 0)
(0.278887 0.0002383 0)
(0.278893 0.000691408 0)
(0.278911 0.00114385 0)
(0.278938 0.00159502 0)
(0.278977 0.00204429 0)
(0.279025 0.00249106 0)
(0.279085 0.00293478 0)
(0.279156 0.00337499 0)
(0.279238 0.00381102 0)
(0.279333 0.00424113 0)
(0.279441 0.00466422 0)
(0.279564 0.00509167 0)
(0.286817 -0.00271644 0)
(0.286798 -0.00228996 0)
(0.286781 -0.00186116 0)
(0.286766 -0.00143044 0)
(0.286753 -0.000998157 0)
(0.286744 -0.000564645 0)
(0.286738 -0.000130209 0)
(0.286736 0.000304873 0)
(0.286739 0.000740347 0)
(0.286746 0.00117598 0)
(0.286758 0.00161154 0)
(0.286774 0.00204683 0)
(0.286796 0.00248164 0)
(0.286822 0.00291576 0)
(0.286853 0.00334897 0)
(0.286888 0.00378095 0)
(0.286926 0.00421155 0)
(0.286968 0.00464148 0)
(0.287012 0.00507107 0)
(0.287058 0.00549145 0)
(0.287178 -0.00217021 0)
(0.287128 -0.00187226 0)
(0.287085 -0.00157356 0)
(0.28705 -0.00127418 0)
(0.287022 -0.000974219 0)
(0.287001 -0.000673792 0)
(0.286987 -0.000373037 0)
(0.286979 -7.21074e-05 0)
(0.286978 0.000228829 0)
(0.286984 0.00052959 0)
(0.286995 0.000829988 0)
(0.287013 0.00112983 0)
(0.287037 0.00142891 0)
(0.287067 0.00172704 0)
(0.287103 0.00202405 0)
(0.287146 0.00231981 0)
(0.287196 0.00261409 0)
(0.287252 0.00290607 0)
(0.287316 0.00319524 0)
(0.287386 0.00348756 0)
(0.292 -0.00182944 0)
(0.291995 -0.0015382 0)
(0.29199 -0.00124577 0)
(0.291985 -0.000952316 0)
(0.291982 -0.000658031 0)
(0.29198 -0.000363086 0)
(0.29198 -6.76469e-05 0)
(0.29198 0.000228126 0)
(0.291983 0.000524083 0)
(0.291986 0.000820075 0)
(0.291992 0.00111596 0)
(0.291999 0.0014116 0)
(0.292007 0.00170686 0)
(0.292018 0.00200159 0)
(0.292029 0.00229565 0)
(0.292042 0.00258885 0)
(0.292057 0.00288108 0)
(0.292072 0.0031727 0)
(0.292089 0.0034639 0)
(0.292106 0.00375006 0)
(0.29253 -0.00145866 0)
(0.292504 -0.00125282 0)
(0.292482 -0.00104672 0)
(0.292464 -0.000840392 0)
(0.292449 -0.000633889 0)
(0.292438 -0.000427256 0)
(0.292431 -0.000220549 0)
(0.292428 -1.38269e-05 0)
(0.292428 0.000192845 0)
(0.292432 0.000399399 0)
(0.292439 0.000605766 0)
(0.292449 0.000811872 0)
(0.292463 0.00101765 0)
(0.292481 0.00122302 0)
(0.292502 0.00142792 0)
(0.292526 0.00163233 0)
(0.292555 0.00183614 0)
(0.292587 0.00203893 0)
(0.292622 0.00224048 0)
(0.292661 0.0024439 0)
(0.295618 -0.00123074 0)
(0.295617 -0.00103383 0)
(0.295616 -0.000836281 0)
(0.295615 -0.000638178 0)
(0.295615 -0.000439625 0)
(0.295615 -0.000240718 0)
(0.295615 -4.15513e-05 0)
(0.295616 0.000157783 0)
(0.295617 0.000357195 0)
(0.295619 0.000556596 0)
(0.295621 0.000755897 0)
(0.295624 0.000955012 0)
(0.295627 0.00115386 0)
(0.29563 0.00135234 0)
(0.295634 0.00155037 0)
(0.295639 0.00174784 0)
(0.295644 0.00194468 0)
(0.295649 0.00214107 0)
(0.295654 0.00233712 0)
(0.29566 0.0025304 0)
(0.296128 -0.000960977 0)
(0.296115 -0.000823005 0)
(0.296105 -0.000684927 0)
(0.296095 -0.000546763 0)
(0.296088 -0.000408533 0)
(0.296083 -0.000270263 0)
(0.29608 -0.000131976 0)
(0.296078 6.29946e-06 0)
(0.296078 0.000144537 0)
(0.296081 0.000282707 0)
(0.296085 0.00042078 0)
(0.29609 0.000558727 0)
(0.296098 0.000696516 0)
(0.296107 0.000834118 0)
(0.296119 0.00097151 0)
(0.296132 0.00110868 0)
(0.296147 0.00124557 0)
(0.296163 0.00138198 0)
(0.296182 0.00151779 0)
(0.296203 0.00165466 0)
(0.298057 -0.000781986 0)
(0.298058 -0.000656492 0)
(0.298058 -0.000530647 0)
(0.298059 -0.000404505 0)
(0.298059 -0.00027812 0)
(0.29806 -0.000151546 0)
(0.298061 -2.48361e-05 0)
(0.298061 0.000101958 0)
(0.298062 0.000228784 0)
(0.298062 0.000355591 0)
(0.298063 0.000482327 0)
(0.298063 0.000608941 0)
(0.298064 0.000735383 0)
(0.298064 0.000861603 0)
(0.298065 0.000987546 0)
(0.298065 0.00111315 0)
(0.298066 0.00123837 0)
(0.298066 0.00136331 0)
(0.298067 0.00148803 0)
(0.298067 0.00161123 0)
(0.298415 -0.000570415 0)
(0.298409 -0.000487973 0)
(0.298404 -0.000405488 0)
(0.2984 -0.000322969 0)
(0.298397 -0.000240426 0)
(0.298395 -0.000157868 0)
(0.298393 -7.53053e-05 0)
(0.298392 7.25083e-06 0)
(0.298393 8.97895e-05 0)
(0.298394 0.000172299 0)
(0.298396 0.000254769 0)
(0.298399 0.000337188 0)
(0.298402 0.000419543 0)
(0.298407 0.000501824 0)
(0.298412 0.000584024 0)
(0.298419 0.000666138 0)
(0.298426 0.000748145 0)
(0.298434 0.000829939 0)
(0.298442 0.000911477 0)
(0.298452 0.000993634 0)
(0.299518 -0.000413558 0)
(0.299519 -0.000346631 0)
(0.299521 -0.000279526 0)
(0.299522 -0.000212271 0)
(0.299523 -0.000144891 0)
(0.299523 -7.74145e-05 0)
(0.299524 -9.86725e-06 0)
(0.299524 5.77243e-05 0)
(0.299525 0.000125334 0)
(0.299525 0.000192936 0)
(0.299525 0.000260504 0)
(0.299524 0.000328013 0)
(0.299524 0.000395437 0)
(0.299523 0.000462752 0)
(0.299523 0.000529929 0)
(0.299522 0.000596936 0)
(0.299521 0.000663755 0)
(0.299519 0.000730452 0)
(0.299518 0.000797084 0)
(0.299516 0.000862881 0)
(0.299635 -0.000233693 0)
(0.299633 -0.000200855 0)
(0.299631 -0.000168024 0)
(0.299629 -0.000135202 0)
(0.299628 -0.00010239 0)
(0.299627 -6.95901e-05 0)
(0.299626 -3.68033e-05 0)
(0.299626 -4.03167e-06 0)
(0.299627 2.87227e-05 0)
(0.299627 6.14577e-05 0)
(0.299628 9.41714e-05 0)
(0.29963 0.000126861 0)
(0.299631 0.000159525 0)
(0.299634 0.000192161 0)
(0.299636 0.000224767 0)
(0.299639 0.000257346 0)
(0.299642 0.000289885 0)
(0.299646 0.000322326 0)
(0.29965 0.000354644 0)
(0.299654 0.000387347 0)
(0.300097 -8.41513e-05 0)
(0.300098 -6.95102e-05 0)
(0.300099 -5.48157e-05 0)
(0.3001 -4.00771e-05 0)
(0.300101 -2.53049e-05 0)
(0.300101 -1.05089e-05 0)
(0.300102 4.30096e-06 0)
(0.300102 1.91145e-05 0)
(0.300102 3.39218e-05 0)
(0.300101 4.87126e-05 0)
(0.300101 6.34766e-05 0)
(0.3001 7.82039e-05 0)
(0.300099 9.28841e-05 0)
(0.300098 0.000107508 0)
(0.300097 0.000122064 0)
(0.300096 0.00013654 0)
(0.300094 0.000150929 0)
(0.300092 0.000165251 0)
(0.30009 0.000179547 0)
(0.300088 0.000193583 0)
(0.269209 -0.110664 0)
(0.269943 -0.114929 0)
(0.271042 -0.119525 0)
(0.27243 -0.124501 0)
(0.273997 -0.129819 0)
(0.275597 -0.135413 0)
(0.277042 -0.1412 0)
(0.278105 -0.147073 0)
(0.278529 -0.152902 0)
(0.278031 -0.158538 0)
(0.276319 -0.163812 0)
(0.273095 -0.168541 0)
(0.268071 -0.172531 0)
(0.260972 -0.175575 0)
(0.251544 -0.177448 0)
(0.239558 -0.17791 0)
(0.224811 -0.176768 0)
(0.207138 -0.173948 0)
(0.186417 -0.169184 0)
(0.162575 -0.16076 0)
(0.25552 -0.0388919 0)
(0.252045 -0.0388042 0)
(0.248439 -0.0388868 0)
(0.244778 -0.0390885 0)
(0.241152 -0.0394545 0)
(0.237657 -0.0400233 0)
(0.234394 -0.0408154 0)
(0.231455 -0.041839 0)
(0.22891 -0.0430889 0)
(0.226799 -0.044544 0)
(0.225119 -0.0461642 0)
(0.223817 -0.0478891 0)
(0.222784 -0.0496368 0)
(0.221859 -0.0513034 0)
(0.220836 -0.0527629 0)
(0.219481 -0.0538701 0)
(0.217553 -0.0544602 0)
(0.214816 -0.0543416 0)
(0.21106 -0.0532852 0)
(0.206151 -0.0510785 0)
(0.268229 -0.0630785 0)
(0.267432 -0.0628547 0)
(0.266344 -0.0624789 0)
(0.264949 -0.0619529 0)
(0.263228 -0.061263 0)
(0.261164 -0.0604026 0)
(0.258745 -0.0593726 0)
(0.255972 -0.05818 0)
(0.252859 -0.0568375 0)
(0.249436 -0.0553618 0)
(0.24575 -0.0537728 0)
(0.241862 -0.0520909 0)
(0.23785 -0.0503342 0)
(0.233803 -0.0485156 0)
(0.229815 -0.0466403 0)
(0.225983 -0.0447034 0)
(0.222398 -0.0426882 0)
(0.219138 -0.0405648 0)
(0.216266 -0.0382918 0)
(0.213822 -0.0358216 0)
(0.258909 -0.0298889 0)
(0.257698 -0.0298142 0)
(0.256616 -0.0297374 0)
(0.255669 -0.0296561 0)
(0.254858 -0.0295586 0)
(0.254183 -0.0294304 0)
(0.253633 -0.0292559 0)
(0.253196 -0.029019 0)
(0.252851 -0.028703 0)
(0.252572 -0.0282913 0)
(0.252331 -0.0277684 0)
(0.252094 -0.0271205 0)
(0.251829 -0.0263367 0)
(0.251503 -0.0254094 0)
(0.251089 -0.024335 0)
(0.250566 -0.0231142 0)
(0.24992 -0.0217522 0)
(0.249149 -0.0202584 0)
(0.248261 -0.0186458 0)
(0.247274 -0.0169304 0)
(0.270119 -0.031908 0)
(0.269229 -0.0311641 0)
(0.268246 -0.0303825 0)
(0.267173 -0.0295536 0)
(0.266014 -0.0286832 0)
(0.264779 -0.0277783 0)
(0.263477 -0.0268443 0)
(0.262125 -0.0258864 0)
(0.260737 -0.0249089 0)
(0.259332 -0.0239157 0)
(0.257931 -0.0229095 0)
(0.256552 -0.0218916 0)
(0.255216 -0.020862 0)
(0.253942 -0.0198191 0)
(0.252747 -0.0187601 0)
(0.251643 -0.0176808 0)
(0.250643 -0.0165763 0)
(0.249752 -0.0154413 0)
(0.248973 -0.0142703 0)
(0.248306 -0.0130586 0)
(0.27118 -0.0210341 0)
(0.270819 -0.0206712 0)
(0.270502 -0.0202767 0)
(0.270229 -0.0198619 0)
(0.269997 -0.0194218 0)
(0.269803 -0.0189508 0)
(0.269641 -0.0184451 0)
(0.269505 -0.0179017 0)
(0.269388 -0.017318 0)
(0.269282 -0.0166921 0)
(0.26918 -0.0160227 0)
(0.269075 -0.0153095 0)
(0.268961 -0.014553 0)
(0.268832 -0.0137543 0)
(0.268685 -0.0129155 0)
(0.268518 -0.0120392 0)
(0.26833 -0.0111287 0)
(0.268123 -0.0101876 0)
(0.267898 -0.00921982 0)
(0.267662 -0.00822916 0)
(0.277054 -0.0182485 0)
(0.27652 -0.0176921 0)
(0.275968 -0.0171309 0)
(0.275399 -0.0165558 0)
(0.274816 -0.0159689 0)
(0.274223 -0.0153731 0)
(0.273625 -0.0147698 0)
(0.273025 -0.0141601 0)
(0.27243 -0.0135451 0)
(0.271845 -0.0129252 0)
(0.271275 -0.0123008 0)
(0.270725 -0.011672 0)
(0.270201 -0.0110384 0)
(0.269706 -0.0103997 0)
(0.269244 -0.00975514 0)
(0.268818 -0.00910388 0)
(0.26843 -0.00844507 0)
(0.268081 -0.00777786 0)
(0.267771 -0.00710148 0)
(0.2675 -0.00641532 0)
(0.280624 -0.0145362 0)
(0.280492 -0.0141637 0)
(0.280376 -0.0137709 0)
(0.280273 -0.0133662 0)
(0.280183 -0.012948 0)
(0.280105 -0.0125146 0)
(0.280038 -0.0120653 0)
(0.279978 -0.0115996 0)
(0.279924 -0.0111175 0)
(0.279875 -0.0106189 0)
(0.279828 -0.0101038 0)
(0.279781 -0.00957276 0)
(0.279733 -0.00902625 0)
(0.279684 -0.00846503 0)
(0.279631 -0.00789001 0)
(0.279575 -0.00730221 0)
(0.279516 -0.00670276 0)
(0.279454 -0.00609283 0)
(0.279389 -0.00547362 0)
(0.279323 -0.00484635 0)
(0.283971 -0.011663 0)
(0.28368 -0.0112712 0)
(0.283388 -0.01088 0)
(0.283094 -0.0104836 0)
(0.282799 -0.0100829 0)
(0.282507 -0.00967894 0)
(0.282217 -0.00927225 0)
(0.281932 -0.00886308 0)
(0.281653 -0.00845167 0)
(0.281381 -0.00803821 0)
(0.28112 -0.00762281 0)
(0.280869 -0.00720549 0)
(0.280631 -0.00678625 0)
(0.280406 -0.006365 0)
(0.280196 -0.00594163 0)
(0.280002 -0.00551601 0)
(0.279823 -0.00508799 0)
(0.279661 -0.00465744 0)
(0.279516 -0.00422425 0)
(0.279387 -0.00378834 0)
(0.287394 -0.0101532 0)
(0.287336 -0.00984922 0)
(0.287284 -0.00953399 0)
(0.287238 -0.00921248 0)
(0.287197 -0.00888419 0)
(0.28716 -0.00854847 0)
(0.287127 -0.00820519 0)
(0.287098 -0.00785442 0)
(0.287072 -0.00749624 0)
(0.287048 -0.00713078 0)
(0.287025 -0.00675822 0)
(0.287004 -0.0063788 0)
(0.286983 -0.00599283 0)
(0.286962 -0.00560064 0)
(0.286941 -0.00520261 0)
(0.28692 -0.00479918 0)
(0.286899 -0.00439076 0)
(0.286878 -0.00397782 0)
(0.286857 -0.00356082 0)
(0.286837 -0.00314021 0)
(0.289553 -0.00793282 0)
(0.289398 -0.00765477 0)
(0.289243 -0.00737764 0)
(0.289089 -0.00709816 0)
(0.288938 -0.0068167 0)
(0.288788 -0.00653379 0)
(0.288641 -0.00624962 0)
(0.288498 -0.00596428 0)
(0.288359 -0.00567787 0)
(0.288224 -0.00539045 0)
(0.288095 -0.0051021 0)
(0.287971 -0.00481285 0)
(0.287854 -0.00452272 0)
(0.287744 -0.00423172 0)
(0.28764 -0.00393986 0)
(0.287544 -0.00364713 0)
(0.287455 -0.00335351 0)
(0.287374 -0.003059 0)
(0.287301 -0.00276361 0)
(0.287235 -0.00246733 0)
(0.292253 -0.00711366 0)
(0.292226 -0.00688399 0)
(0.292202 -0.00664818 0)
(0.29218 -0.00640904 0)
(0.29216 -0.00616634 0)
(0.292143 -0.00591979 0)
(0.292127 -0.00566941 0)
(0.292113 -0.00541526 0)
(0.292101 -0.00515744 0)
(0.292089 -0.00489605 0)
(0.292079 -0.00463121 0)
(0.292069 -0.00436305 0)
(0.29206 -0.00409173 0)
(0.292052 -0.00381741 0)
(0.292043 -0.00354027 0)
(0.292035 -0.00326051 0)
(0.292028 -0.00297832 0)
(0.29202 -0.00269392 0)
(0.292013 -0.0024075 0)
(0.292006 -0.00211927 0)
(0.293745 -0.00548434 0)
(0.293663 -0.00528825 0)
(0.293582 -0.00509275 0)
(0.293502 -0.00489602 0)
(0.293424 -0.00469823 0)
(0.293347 -0.00449967 0)
(0.293272 -0.00430043 0)
(0.293199 -0.00410055 0)
(0.293128 -0.00390007 0)
(0.29306 -0.00369905 0)
(0.292995 -0.00349751 0)
(0.292933 -0.00329548 0)
(0.292873 -0.003093 0)
(0.292818 -0.00289007 0)
(0.292765 -0.00268673 0)
(0.292716 -0.00248298 0)
(0.292671 -0.00227883 0)
(0.29263 -0.00207431 0)
(0.292593 -0.00186943 0)
(0.292559 -0.0016642 0)
(0.295705 -0.0048838 0)
(0.295694 -0.00471964 0)
(0.295684 -0.00455209 0)
(0.295676 -0.00438271 0)
(0.295668 -0.0042114 0)
(0.295661 -0.00403802 0)
(0.295655 -0.00386257 0)
(0.29565 -0.00368513 0)
(0.295646 -0.00350575 0)
(0.295642 -0.00332449 0)
(0.295639 -0.00314143 0)
(0.295636 -0.00295664 0)
(0.295633 -0.0027702 0)
(0.29563 -0.0025822 0)
(0.295628 -0.00239273 0)
(0.295626 -0.0022019 0)
(0.295624 -0.00200979 0)
(0.295622 -0.00181652 0)
(0.295621 -0.00162219 0)
(0.295619 -0.00142689 0)
(0.29673 -0.00367243 0)
(0.296689 -0.0035398 0)
(0.296648 -0.0034075 0)
(0.296609 -0.00327451 0)
(0.29657 -0.00314093 0)
(0.296532 -0.0030069 0)
(0.296495 -0.00287248 0)
(0.296459 -0.00273768 0)
(0.296424 -0.00260253 0)
(0.29639 -0.00246707 0)
(0.296358 -0.0023313 0)
(0.296327 -0.00219526 0)
(0.296298 -0.00205895 0)
(0.296271 -0.00192241 0)
(0.296245 -0.00178563 0)
(0.296221 -0.00164864 0)
(0.296199 -0.00151145 0)
(0.296178 -0.00137408 0)
(0.29616 -0.00123653 0)
(0.296143 -0.00109882 0)
(0.29805 -0.00313897 0)
(0.298048 -0.00303112 0)
(0.298047 -0.00292141 0)
(0.298046 -0.0028107 0)
(0.298045 -0.00269894 0)
(0.298045 -0.00258605 0)
(0.298045 -0.00247204 0)
(0.298045 -0.00235696 0)
(0.298046 -0.00224084 0)
(0.298047 -0.00212371 0)
(0.298047 -0.00200562 0)
(0.298048 -0.00188661 0)
(0.298049 -0.00176672 0)
(0.29805 -0.001646 0)
(0.298051 -0.00152449 0)
(0.298052 -0.00140226 0)
(0.298053 -0.00127935 0)
(0.298054 -0.00115581 0)
(0.298055 -0.0010317 0)
(0.298056 -0.000907073 0)
(0.298687 -0.00219682 0)
(0.298668 -0.00211688 0)
(0.29865 -0.00203717 0)
(0.298633 -0.00195712 0)
(0.298615 -0.00187678 0)
(0.298598 -0.00179621 0)
(0.298581 -0.00171544 0)
(0.298565 -0.00163449 0)
(0.298549 -0.00155337 0)
(0.298534 -0.00147209 0)
(0.29852 -0.00139066 0)
(0.298506 -0.0013091 0)
(0.298493 -0.00122741 0)
(0.29848 -0.0011456 0)
(0.298468 -0.00106369 0)
(0.298457 -0.000981682 0)
(0.298447 -0.00089958 0)
(0.298438 -0.000817395 0)
(0.29843 -0.000735133 0)
(0.298422 -0.000652804 0)
(0.299465 -0.0016763 0)
(0.299468 -0.00161813 0)
(0.299471 -0.00155897 0)
(0.299473 -0.00149934 0)
(0.299476 -0.00143921 0)
(0.299479 -0.00137853 0)
(0.299482 -0.00131729 0)
(0.299486 -0.00125552 0)
(0.299489 -0.00119324 0)
(0.299492 -0.00113046 0)
(0.299495 -0.00106721 0)
(0.299497 -0.00100351 0)
(0.2995 -0.000939369 0)
(0.299503 -0.00087482 0)
(0.299506 -0.000809884 0)
(0.299508 -0.000744586 0)
(0.29951 -0.00067895 0)
(0.299512 -0.000613003 0)
(0.299514 -0.000546771 0)
(0.299516 -0.00048028 0)
(0.299744 -0.00088915 0)
(0.299737 -0.000856469 0)
(0.299729 -0.00082401 0)
(0.299722 -0.000791445 0)
(0.299715 -0.000758789 0)
(0.299709 -0.000726088 0)
(0.299702 -0.000693354 0)
(0.299696 -0.000660591 0)
(0.299689 -0.000627804 0)
(0.299683 -0.000594997 0)
(0.299677 -0.000562175 0)
(0.299672 -0.000529341 0)
(0.299666 -0.000496499 0)
(0.299661 -0.000463651 0)
(0.299656 -0.000430798 0)
(0.299652 -0.000397944 0)
(0.299648 -0.000365089 0)
(0.299644 -0.000332235 0)
(0.299641 -0.000299384 0)
(0.299638 -0.000266536 0)
(0.30004 -0.000352437 0)
(0.300044 -0.000340605 0)
(0.300048 -0.00032847 0)
(0.300051 -0.00031621 0)
(0.300055 -0.000303789 0)
(0.300058 -0.000291184 0)
(0.300062 -0.000278399 0)
(0.300065 -0.000265439 0)
(0.300068 -0.00025231 0)
(0.300071 -0.000239018 0)
(0.300075 -0.000225569 0)
(0.300077 -0.00021197 0)
(0.30008 -0.000198228 0)
(0.300083 -0.000184351 0)
(0.300085 -0.000170347 0)
(0.300088 -0.000156225 0)
(0.30009 -0.000141993 0)
(0.300092 -0.000127661 0)
(0.300094 -0.000113237 0)
(0.300095 -9.87306e-05 0)
(0.0488629 -0.0440417 0)
(0.0384952 -0.0364341 0)
(0.0307079 -0.0296239 0)
(0.024662 -0.0240122 0)
(0.0198471 -0.0193296 0)
(0.0159417 -0.0153802 0)
(0.0127315 -0.0120614 0)
(0.0100677 -0.00929616 0)
(0.00784339 -0.00701451 0)
(0.00598046 -0.00515466 0)
(0.0044204 -0.00366259 0)
(0.00311922 -0.0024905 0)