x,y,z,U_0,U_1,U_2
0,0,0,0.3,-0.00134426,0
0,0.1,0,0.3,-0.000806556,0
0,0.2,0,0.3,-0.000268852,0
0,0.3,0,0.3,0,0
0,0.4,0,0.3,0,0
0,0.5,0,0.3,0,0
0,0.6,0,0.3,0,0
0,0.7,0,0.3,0,0
0,0.8,0,0.3,0,0
0,0.9,0,0.3,0,0
0,1,0,0.3,0,0
0,1.1,0,0.3,0,0
0,1.2,0,0.3,0,0
0,1.3,0,0.3,0,0
0,1.4,0,0.3,0,0
0,1.5,0,0.3,0,0
0,1.6,0,0.3,0,0
0,1.7,0,0.3,0,0
0,1.8,0,0.3,0,0
0,1.9,0,0.3,0,0
0,2,0,0.3,0,0
0,2.1,0,0.3,0,0
0,2.2,0,0.3,0,0
0,2.3,0,0.3,0,0
0,2.4,0,0.3,0,0
0,2.5,0,0.3,0,0
0,2.6,0,0.3,0,0
0,2.7,0,0.3,0,0
0,2.8,0,0.3,0,0
0,2.9,0,0.3,0,0
0,3,0,0.3,0,0
0,3.1,0,0.3,0,0
0,3.2,0,0.3,0,0
0,3.3,0,0.3,0,0
0,3.4,0,0.3,0,0
0,3.5,0,0.3,0,0
0,3.6,0,0.3,0,0
0,3.7,0,0.3,0,0
0,3.8,0,0.3,0,0
0,3.9,0,0.3,0,0
0,4,0,0.3,0,0
0,4.1,0,0.3,0,0
0,4.2,0,0.3,0,0
0,4.3,0,0.3,0,0
0,4.4,0,0.3,0,0
0,4.5,0,0.3,0,0
0,4.6,0,0.3,0,0
0,4.7,0,0.3,0,0
0,4.8,0,0.3,0,0
0,4.9,0,0.3,0,0
0,5,0,0.3,0,0
0,5.1,0,0.3,0,0
0,5.2,0,0.3,0,0
0,5.3,0,0.3,0,0
0,5.4,0,0.3,0,0
0,5.5,0,0.3,0,0
0,5.6,0,0.3,0,0
0,5.7,0,0.3,0,0
0,5.8,0,0.3,0,0
0,5.9,0,0.3,0,0
0,6,0,0.3,0,0
0,6.1,0,0.3,0,0
0,6.2,0,0.3,0,0
0,6.3,0,0.3,0,0
0,6.4,0,0.3,0,0
0,6.5,0,0.3,0,0
0,6.6,0,0.3,0,0
0,6.7,0,0.3,0,0
0,6.8,0,0.3,0,0
0,6.9,0,0.3,0,0
0,7,0,0.3,0,0
0,7.1,0,0.3,0,0
0,7.2,0,0.3,0,0
0,7.3,0,0.3,0,0
0,7.4,0,0.3,0,0
0,7.5,0,0.3,0,0
0,7.6,0,0.3,0,0
0,7.7,0,0.3,0,0
0,7.8,0,0.3,0,0
0,7.9,0,0.3,0,0
0,8,0,0.3,0,0
0,8.1,0,0.3,0,0
0,8.2,0,0.3,0,0
0,8.3,0,0.3,0,0
0,8.4,0,0.3,0,0
0,8.5,0,0.3,0,0
0,8.6,0,0.3,0,0
0,8.7,0,0.3,0,0
0,8.8,0,0.3,0,0
0,8.9,0,0.3,0,0
0,9,0,0.3,0,0
0,9.1,0,0.3,0,0
0,9.2,0,0.3,0,0
0,9.3,0,0.3,0,0
0,9.4,0,0.3,0,0
0,9.5,0,0.3,0,0
0,9.6,0,0.3,0,0
0,9.7,0,0.3,0,0
0,9.8,0,0.3,0,0
0,9.9,0,0.3,0,0
0,10,0,0.3,0,0
0,10.1,0,0.3,0,0
0,10.2,0,0.3,0,0
0,10.3,0,0.3,0,0
0,10.4,0,0.3,0,0
0,10.5,0,0.3,0,0
0,10.6,0,0.3,0,0
0,10.7,0,0.3,0,0
0,10.8,0,0.3,0,0
0,10.9,0,0.3,0,0
0,11,0,0.3,0,0
0,11.1,0,0.3,0,0
0,11.2,0,0.3,0,0
0,11.3,0,0.3,0,0
0,11.4,0,0.3,0,0
0,11.5,0,0.3,0,0
0,11.6,0,0.3,0,0
0,11.7,0,0.3,0,0
0,11.8,0,0.3,0,0
0,11.9,0,0.3,0,0
0,12,0,0.3,0,0
0,12.1,0,0.3,0,0
0,12.2,0,0.3,0,0
0,12.3,0,0.3,0,0
0,12.4,0,0.3,0,0
0,12.5,0,0.3,0.000216598,0
0,12.6,0,0.3,0.00083545,0
0,12.7,0,0.3,0.0014543,0
0.1,0,0,0.300002,-0.00295642,0
0.1,0.1,0,0.3,-0.00241967,0
0.1,0.2,0,0.300002,-0.00215223,0
0.1,0.3,0,0.300002,-0.00215593,0
0.1,0.4,0,0.300001,-0.0021582,0
0.1,0.5,0,0.300008,-0.00216464,0
0.1,0.6,0,0.300002,-0.00217243,0
0.1,0.7,0,0.300006,-0.00217726,0
0.1,0.8,0,0.300007,-0.00218742,0
0.1,0.9,0,0.300002,-0.00219275,0
0.1,1,0,0.300014,-0.00220518,0
0.1,1.1,0,0.300003,-0.0022182,0
0.1,1.2,0,0.30001,-0.00222554,0
0.1,1.3,0,0.30001,-0.00224026,0
0.1,1.4,0,0.300003,-0.00224765,0
0.1,1.5,0,0.300018,-0.00226394,0
0.1,1.6,0,0.300003,-0.00227972,0
0.1,1.7,0,0.300011,-0.00228827,0
0.1,1.8,0,0.300011,-0.00230477,0
0.1,1.9,0,0.300003,-0.00231272,0
0.1,2,0,0.300018,-0.00232971,0
0.1,2.1,0,0.300003,-0.00234466,0
0.1,2.2,0,0.30001,-0.00235255,0
0.1,2.3,0,0.30001,-0.00236682,0
0.1,2.4,0,0.300003,-0.00237322,0
0.1,2.5,0,0.300013,-0.00238644,0
0.1,2.6,0,0.300002,-0.00239566,0
0.1,2.7,0,0.300005,-0.00240026,0
0.1,2.8,0,0.300005,-0.00240692,0
0.1,2.9,0,0.300002,-0.00240898,0
0.1,3,0,0.300001,-0.00241246,0
0.1,3.1,0,0.3,-0.00240978,0
0.1,3.2,0,0.299996,-0.00240777,0
0.1,3.3,0,0.299996,-0.00240012,0
0.1,3.4,0,0.299998,-0.00239449,0
0.1,3.5,0,0.299982,-0.00238109,0
0.1,3.6,0,0.299996,-0.0023594,0
0.1,3.7,0,0.299983,-0.00234708,0
0.1,3.8,0,0.299981,-0.00231783,0
0.1,3.9,0,0.299994,-0.0023009,0
0.1,4,0,0.299955,-0.00226328,0
0.1,4.1,0,0.29999,-0.00221567,0
0.1,4.2,0,0.299964,-0.00218961,0
0.1,4.3,0,0.299963,-0.00213225,0
0.1,4.4,0,0.299987,-0.00210095,0
0.1,4.5,0,0.299921,-0.00203317,0
0.1,4.6,0,0.299983,-0.00195475,0
0.1,4.7,0,0.299943,-0.0019126,0
0.1,4.8,0,0.299942,-0.00182306,0
0.1,4.9,0,0.29998,-0.00177568,0
0.1,5,0,0.299885,-0.00166365,0
0.1,5.1,0,0.299961,-0.00156062,0
0.1,5.2,0,0.299958,-0.00151603,0
0.1,5.3,0,0.299865,-0.00139612,0
0.1,5.4,0,0.299954,-0.00126859,0
0.1,5.5,0,0.299951,-0.00121575,0
0.1,5.6,0,0.299847,-0.00107912,0
0.1,5.7,0,0.299949,-0.000936546,0
0.1,5.8,0,0.299946,-0.000878045,0
0.1,5.9,0,0.299834,-0.000728109,0
0.1,6,0,0.299944,-0.000574137,0
0.1,6.1,0,0.299943,-0.000511579,0
0.1,6.2,0,0.299825,-0.000352757,0
0.1,6.3,0,0.299942,-0.000191993,0
0.1,6.4,0,0.299942,-0.00012731,0
0.1,6.5,0,0.299822,3.53395e-05,0
0.1,6.6,0,0.299942,0.000197721,0
0.1,6.7,0,0.299942,0.000262437,0
0.1,6.8,0,0.299825,0.000423633,0
0.1,6.9,0,0.299943,0.000582353,0
0.1,7,0,0.299944,0.000645024,0
0.1,7.1,0,0.299833,0.000799653,0
0.1,7.2,0,0.299946,0.000949729,0
0.1,7.3,0,0.299948,0.00100842,0
0.1,7.4,0,0.299847,0.00115181,0
0.1,7.5,0,0.299951,0.00128877,0
0.1,7.6,0,0.299954,0.00134187,0
0.1,7.7,0,0.299864,0.00147043,0
0.1,7.8,0,0.299957,0.00159083,0
0.1,7.9,0,0.29996,0.00163531,0
0.1,8,0,0.299883,0.00173732,0
0.1,8.1,0,0.299979,0.00184724,0
0.1,8.2,0,0.29993,0.00190472,0
0.1,8.3,0,0.299957,0.0019947,0
0.1,8.4,0,0.299966,0.00203932,0
0.1,8.5,0,0.29994,0.0021179,0
0.1,8.6,0,0.299986,0.00216302,0
0.1,8.7,0,0.299937,0.00222282,0
0.1,8.8,0,0.29999,0.00227867,0
0.1,8.9,0,0.299966,0.00230729,0
0.1,9,0,0.299977,0.00235378,0
0.1,9.1,0,0.299986,0.00237568,0
0.1,9.2,0,0.299972,0.00241298,0
0.1,9.3,0,0.299995,0.00243352,0
0.1,9.4,0,0.299978,0.00245696,0
0.1,9.5,0,0.299996,0.00247675,0
0.1,9.6,0,0.299991,0.00248609,0
0.1,9.7,0,0.299993,0.00249927,0
0.1,9.8,0,0.299998,0.00250424,0
0.1,9.9,0,0.299996,0.00251166,0
0.1,10,0,0.3,0.00251314,0
0.1,10.1,0,0.300002,0.00251441,0
0.1,10.2,0,0.300001,0.00251128,0
0.1,10.3,0,0.300004,0.00250918,0
0.1,10.4,0,0.300004,0.002503,0
0.1,10.5,0,0.300003,0.00249858,0
0.1,10.6,0,0.30001,0.00248999,0
0.1,10.7,0,0.300002,0.00248101,0
0.1,10.8,0,0.300011,0.00247295,0
0.1,10.9,0,0.300004,0.0024603,0
0.1,11,0,0.300008,0.00245361,0
0.1,11.1,0,0.300009,0.00244059,0
0.1,11.2,0,0.300004,0.00243336,0
0.1,11.3,0,0.300013,0.00242033,0
0.1,11.4,0,0.300002,0.00240912,0
0.1,11.5,0,0.300011,0.00240042,0
0.1,11.6,0,0.300005,0.00238812,0
0.1,11.7,0,0.300006,0.00238192,0
0.1,11.8,0,0.300008,0.0023709,0
0.1,11.9,0,0.300002,0.0023653,0
0.1,12,0,0.300009,0.00235585,0
0.1,12.1,0,0.300002,0.0023487,0
0.1,12.2,0,0.300005,0.00234407,0
0.1,12.3,0,0.300002,0.00233824,0
0.1,12.4,0,0.300002,0.0023357,0
0.1,12.5,0,0.300002,0.00233208,0
0.1,12.6,0,0.3,0.00258462,0
0.1,12.7,0,0.300002,0.00320222,0
0.2,0,0,0.300004,-0.00456858,0
0.2,0.1,0,0.300004,-0.0043021,0
0.2,0.2,0,0.300006,-0.00430588,0
0.2,0.3,0,0.300007,-0.00430958,0
0.2,0.4,0,0.30001,-0.00432056,0
0.2,0.5,0,0.300016,-0.00432927,0
0.2,0.6,0,0.300014,-0.0043419,0
0.2,0.7,0,0.300018,-0.00435935,0
0.2,0.8,0,0.300018,-0.00436951,0
0.2,0.9,0,0.300021,-0.0043926,0
0.2,1,0,0.300028,-0.00441036,0
0.2,1.1,0,0.300024,-0.00443072,0
0.2,1.2,0,0.300026,-0.00445842,0
0.2,1.3,0,0.300026,-0.00447314,0
0.2,1.4,0,0.300027,-0.0045042,0
0.2,1.5,0,0.300035,-0.00452788,0
0.2,1.6,0,0.300028,-0.00455221,0
0.2,1.7,0,0.300029,-0.0045851,0
0.2,1.8,0,0.300029,-0.0046016,0
0.2,1.9,0,0.300029,-0.00463449,0
0.2,2,0,0.300036,-0.00465943,0
0.2,2.1,0,0.300028,-0.00468226,0
0.2,2.2,0,0.300026,-0.00471297,0
0.2,2.3,0,0.300026,-0.00472725,0
0.2,2.4,0,0.300023,-0.00475326,0
0.2,2.5,0,0.300026,-0.00477288,0
0.2,2.6,0,0.300018,-0.0047867,0
0.2,2.7,0,0.300013,-0.00480512,0
0.2,2.8,0,0.300013,-0.00481177,0
0.2,2.9,0,0.300006,-0.00481938,0
0.2,3,0,0.300003,-0.00482492,0
0.2,3.1,0,0.299998,-0.00482023,0
0.2,3.2,0,0.299989,-0.00481353,0
0.2,3.3,0,0.299988,-0.00480588,0
0.2,3.4,0,0.299977,-0.00478121,0
0.2,3.5,0,0.299964,-0.00476218,0
0.2,3.6,0,0.299964,-0.00472817,0
0.2,3.7,0,0.299952,-0.00468185,0
0.2,3.8,0,0.299951,-0.0046526,0
0.2,3.9,0,0.299936,-0.00458112,0
0.2,4,0,0.299909,-0.00452656,0
0.2,4.1,0,0.299919,-0.0044529,0
0.2,4.2,0,0.299903,-0.00435317,0
0.2,4.3,0,0.299901,-0.00429581,0
0.2,4.4,0,0.299884,-0.00416543,0
0.2,4.5,0,0.299843,-0.00406635,0
0.2,4.6,0,0.299865,-0.00394577,0
0.2,4.7,0,0.299847,-0.00378304,0
0.2,4.8,0,0.299845,-0.0036935,0
0.2,4.9,0,0.299826,-0.00348671,0
0.2,5,0,0.299769,-0.00332731,0
0.2,5.1,0,0.299808,-0.00317631,0
0.2,5.2,0,0.299792,-0.00295336,0
0.2,5.3,0,0.29973,-0.00279224,0
0.2,5.4,0,0.299778,-0.00261005,0
0.2,5.5,0,0.299763,-0.00234588,0
0.2,5.6,0,0.299695,-0.00215823,0
0.2,5.7,0,0.299751,-0.00195569,0
0.2,5.8,0,0.29974,-0.00166318,0
0.2,5.9,0,0.299668,-0.00145622,0
0.2,6,0,0.299731,-0.00123872,0
0.2,6.1,0,0.299724,-0.000925924,0
0.2,6.2,0,0.299651,-0.000705514,0
0.2,6.3,0,0.29972,-0.00047969,0
0.2,6.4,0,0.299717,-0.000156276,0
0.2,6.5,0,0.299645,7.0679e-05,0
0.2,6.6,0,0.299717,0.000297539,0
0.2,6.7,0,0.299719,0.000621117,0
0.2,6.8,0,0.29965,0.000847265,0
0.2,6.9,0,0.299723,0.00106784,0
0.2,7,0,0.299731,0.00138119,0
0.2,7.1,0,0.299667,0.00159931,0
0.2,7.2,0,0.299739,0.00180674,0
0.2,7.3,0,0.29975,0.0021002,0
0.2,7.4,0,0.299694,0.00230362,0
0.2,7.5,0,0.299762,0.002492,0
0.2,7.6,0,0.299777,0.00275752,0
0.2,7.7,0,0.299729,0.00294086,0
0.2,7.8,0,0.29979,0.00310207,0
0.2,7.9,0,0.299806,0.00332447,0
0.2,8,0,0.299767,0.00347464,0
0.2,8.1,0,0.299825,0.00364321,0
0.2,8.2,0,0.299831,0.00384353,0
0.2,8.3,0,0.299846,0.00394828,0
0.2,8.4,0,0.299864,0.0041163,0
0.2,8.5,0,0.299858,0.00421466,0
0.2,8.6,0,0.299884,0.00434092,0
0.2,8.7,0,0.299871,0.004449,0
0.2,8.8,0,0.299904,0.00453085,0
0.2,8.9,0,0.299916,0.00463577,0
0.2,9,0,0.299922,0.00468744,0
0.2,9.1,0,0.299937,0.00476941,0
0.2,9.2,0,0.299935,0.00481851,0
0.2,9.3,0,0.299953,0.00487005,0
0.2,9.4,0,0.299953,0.00491672,0
0.2,9.5,0,0.299966,0.00494404,0
0.2,9.6,0,0.299977,0.00498008,0
0.2,9.7,0,0.299979,0.00499395,0
0.2,9.8,0,0.299989,0.00501233,0
0.2,9.9,0,0.299991,0.00502291,0
0.2,10,0,0.299998,0.00502609,0
0.2,10.1,0,0.300004,0.00502907,0
0.2,10.2,0,0.300006,0.00502443,0
0.2,10.3,0,0.300011,0.00501649,0
0.2,10.4,0,0.300012,0.00500995,0
0.2,10.5,0,0.300016,0.00499346,0
0.2,10.6,0,0.300021,0.00498169,0
0.2,10.7,0,0.30002,0.00496292,0
0.2,10.8,0,0.300025,0.00494373,0
0.2,10.9,0,0.300022,0.00492696,0
0.2,11,0,0.300023,0.0049014,0
0.2,11.1,0,0.300024,0.00488733,0
0.2,11.2,0,0.300024,0.0048609,0
0.2,11.3,0,0.300028,0.00484198,0
0.2,11.4,0,0.300023,0.0048207,0
0.2,11.5,0,0.300024,0.00479768,0
0.2,11.6,0,0.300021,0.00478219,0
0.2,11.7,0,0.30002,0.00475856,0
0.2,11.8,0,0.30002,0.00474595,0
0.2,11.9,0,0.300017,0.00472663,0
0.2,12,0,0.300019,0.00471211,0
0.2,12.1,0,0.300014,0.00469987,0
0.2,12.2,0,0.300012,0.00468596,0
0.2,12.3,0,0.30001,0.00467911,0
0.2,12.4,0,0.300007,0.00466942,0
0.2,12.5,0,0.300006,0.00466487,0
0.2,12.6,0,0.300004,0.00466168,0
0.2,12.7,0,0.300004,0.00495014,0
0.3,0,0,0.300009,-0.00644684,0
0.3,0.1,0,0.300009,-0.00645102,0
0.3,0.2,0,0.300011,-0.0064548,0
0.3,0.3,0,0.300018,-0.00646625,0
0.3,0.4,0,0.300021,-0.00647723,0
0.3,0.5,0,0.30003,-0.00649172,0
0.3,0.6,0,0.300032,-0.00651313,0
0.3,0.7,0,0.300035,-0.00653058,0
0.3,0.8,0,0.300041,-0.00656144,0
0.3,0.9,0,0.300044,-0.00658453,0
0.3,1,0,0.300055,-0.0066142,0
0.3,1.1,0,0.300051,-0.00664855,0
0.3,1.2,0,0.300054,-0.00667625,0
0.3,1.3,0,0.300057,-0.00672097,0
0.3,1.4,0,0.300059,-0.00675203,0
0.3,1.5,0,0.300069,-0.00679166,0
0.3,1.6,0,0.300062,-0.00683276,0
0.3,1.7,0,0.300062,-0.00686565,0
0.3,1.8,0,0.300063,-0.00691592,0
0.3,1.9,0,0.300062,-0.00694881,0
0.3,2,0,0.300069,-0.00699061,0
0.3,2.1,0,0.300059,-0.00702941,0
0.3,2.2,0,0.300057,-0.00706012,0
0.3,2.3,0,0.300053,-0.00710393,0
0.3,2.4,0,0.300049,-0.00712994,0
0.3,2.5,0,0.30005,-0.00716287,0
0.3,2.6,0,0.300038,-0.00718689,0
0.3,2.7,0,0.300033,-0.00720531,0
0.3,2.8,0,0.300022,-0.00722637,0
0.3,2.9,0,0.300016,-0.00723397,0
0.3,3,0,0.300006,-0.00724345,0
0.3,3.1,0,0.299993,-0.00723673,0
0.3,3.2,0,0.299984,-0.00723003,0
0.3,3.3,0,0.299965,-0.00720816,0
0.3,3.4,0,0.299955,-0.00718349,0
0.3,3.5,0,0.299931,-0.00715202,0
0.3,3.6,0,0.29992,-0.00709636,0
0.3,3.7,0,0.299908,-0.00705004,0
0.3,3.8,0,0.299882,-0.00696316,0
0.3,3.9,0,0.299867,-0.00689168,0
0.3,4,0,0.299825,-0.0068009,0
0.3,4.1,0,0.299823,-0.00667888,0
0.3,4.2,0,0.299807,-0.00657916,0
0.3,4.3,0,0.299775,-0.00640742,0
0.3,4.4,0,0.299757,-0.00627704,0
0.3,4.5,0,0.299696,-0.00611178,0
0.3,4.6,0,0.299706,-0.00591116,0
0.3,4.7,0,0.299688,-0.00574843,0
0.3,4.8,0,0.299654,-0.00547945,0
0.3,4.9,0,0.299635,-0.00527266,0
0.3,5,0,0.299555,-0.00500284,0
0.3,5.1,0,0.299582,-0.00472644,0
0.3,5.2,0,0.299566,-0.0045035,0
0.3,5.3,0,0.299479,-0.00419911,0
0.3,5.4,0,0.299517,-0.00386132,0
0.3,5.5,0,0.299502,-0.00359715,0
0.3,5.6,0,0.299411,-0.00324601,0
0.3,5.7,0,0.299462,-0.00286977,0
0.3,5.8,0,0.29945,-0.00257726,0
0.3,5.9,0,0.299359,-0.0021904,0
0.3,6,0,0.299421,-0.0017857,0
0.3,6.1,0,0.299414,-0.0014729,0
0.3,6.2,0,0.299326,-0.00106136,0
0.3,6.3,0,0.299399,-0.000640553,0
0.3,6.4,0,0.299396,-0.00031714,0
0.3,6.5,0,0.299314,0.000106114,0
0.3,6.6,0,0.299396,0.000529403,0
0.3,6.7,0,0.299398,0.000852981,0
0.3,6.8,0,0.299324,0.00127418,0
0.3,6.9,0,0.299413,0.00168621,0
0.3,7,0,0.29942,0.00199956,0
0.3,7.1,0,0.299357,0.00240522,0
0.3,7.2,0,0.299448,0.00279314,0
0.3,7.3,0,0.299459,0.0030866,0
0.3,7.4,0,0.299409,0.00346429,0
0.3,7.5,0,0.2995,0.00381695,0
0.3,7.6,0,0.299514,0.00408247,0
0.3,7.7,0,0.299476,0.00442223,0
0.3,7.8,0,0.299563,0.00472778,0
0.3,7.9,0,0.299579,0.00495019,0
0.3,8,0,0.29955,0.00522397,0
0.3,8.1,0,0.299631,0.00550107,0
0.3,8.2,0,0.29964,0.00572519,0
0.3,8.3,0,0.299683,0.00597878,0
0.3,8.4,0,0.299701,0.00614681,0
0.3,8.5,0,0.299717,0.00636506,0
0.3,8.6,0,0.29975,0.00651477,0
0.3,8.7,0,0.299747,0.00668024,0
0.3,8.8,0,0.299798,0.00682001,0
0.3,8.9,0,0.299812,0.00693247,0
0.3,9,0,0.299843,0.00706543,0
0.3,9.1,0,0.299858,0.00714739,0
0.3,9.2,0,0.299874,0.0072485,0
0.3,9.3,0,0.299897,0.00731257,0
0.3,9.4,0,0.299906,0.00737993,0
0.3,9.5,0,0.299932,0.00742953,0
0.3,9.6,0,0.299943,0.00746626,0
0.3,9.7,0,0.299963,0.00750388,0
0.3,9.8,0,0.299972,0.00752225,0
0.3,9.9,0,0.299985,0.00754114,0
0.3,10,0,0.299996,0.00754504,0
0.3,10.1,0,0.300006,0.0075486,0
0.3,10.2,0,0.300015,0.00754006,0
0.3,10.3,0,0.300021,0.00753212,0
0.3,10.4,0,0.30003,0.00751287,0
0.3,10.5,0,0.300034,0.00749638,0
0.3,10.6,0,0.300043,0.00747267,0
0.3,10.7,0,0.300043,0.00744648,0
0.3,10.8,0,0.300049,0.00742092,0
0.3,10.9,0,0.300048,0.00738701,0
0.3,11,0,0.30005,0.00736145,0
0.3,11.1,0,0.300051,0.00732247,0
0.3,11.2,0,0.30005,0.00729549,0
0.3,11.3,0,0.300055,0.00726092,0
0.3,11.4,0,0.300049,0.00722975,0
0.3,11.5,0,0.300051,0.00720085,0
0.3,11.6,0,0.300045,0.00716727,0
0.3,11.7,0,0.300043,0.00714364,0
0.3,11.8,0,0.30004,0.00711142,0
0.3,11.9,0,0.300037,0.00709066,0
0.3,12,0,0.300037,0.00706567,0
0.3,12.1,0,0.300029,0.00704686,0
0.3,12.2,0,0.300027,0.00703025,0
0.3,12.3,0,0.30002,0.00701399,0
0.3,12.4,0,0.300017,0.0070043,0
0.3,12.5,0,0.300011,0.00699369,0
0.3,12.6,0,0.300008,0.00699008,0
0.3,12.7,0,0.300008,0.00698597,0
0.4,0,0,0.300016,-0.0085912,0
0.4,0.1,0,0.300014,-0.00859576,0
0.4,0.2,0,0.300023,-0.00860332,0
0.4,0.3,0,0.30003,-0.00861477,0
0.4,0.4,0,0.300038,-0.008634,0
0.4,0.5,0,0.300052,-0.00865199,0
0.4,0.6,0,0.300052,-0.00867736,0
0.4,0.7,0,0.300066,-0.0087091,0
0.4,0.8,0,0.300072,-0.00873995,0
0.4,0.9,0,0.300075,-0.00878046,0
0.4,1,0,0.300093,-0.0088167,0
0.4,1.1,0,0.300085,-0.0088577,0
0.4,1.2,0,0.300098,-0.00890754,0
0.4,1.3,0,0.300102,-0.00895226,0
0.4,1.4,0,0.300099,-0.0090071,0
0.4,1.5,0,0.300117,-0.0090553,0
0.4,1.6,0,0.300103,-0.00910461,0
0.4,1.7,0,0.300113,-0.00916369,0
0.4,1.8,0,0.300113,-0.00921396,0
0.4,1.9,0,0.300104,-0.00927255,0
0.4,2,0,0.300119,-0.00932327,0
0.4,2.1,0,0.3001,-0.00937014,0
0.4,2.2,0,0.300102,-0.00942546,0
0.4,2.3,0,0.300097,-0.00946926,0
0.4,2.4,0,0.300081,-0.00951657,0
0.4,2.5,0,0.300086,-0.00955642,0
0.4,2.6,0,0.300066,-0.00958604,0
0.4,2.7,0,0.300056,-0.0096197,0
0.4,2.8,0,0.300045,-0.00964076,0
0.4,2.9,0,0.300023,-0.00965669,0
0.4,3,0,0.30001,-0.00966803,0
0.4,3.1,0,0.299993,-0.0096613,0
0.4,3.2,0,0.299965,-0.00965061,0
0.4,3.3,0,0.299946,-0.00962875,0
0.4,3.4,0,0.29992,-0.00958888,0
0.4,3.5,0,0.299883,-0.00955061,0
0.4,3.6,0,0.299875,-0.00948563,0
0.4,3.7,0,0.299825,-0.0094048,0
0.4,3.8,0,0.299799,-0.00931793,0
0.4,3.9,0,0.299772,-0.00919637,0
0.4,4,0,0.299703,-0.0090863,0
0.4,4.1,0,0.299714,-0.00894199,0
0.4,4.2,0,0.29964,-0.00876638,0
0.4,4.3,0,0.299608,-0.00859464,0
0.4,4.4,0,0.299587,-0.00836959,0
0.4,4.5,0,0.299482,-0.00816945,0
0.4,4.6,0,0.29952,-0.00793095,0
0.4,4.7,0,0.299425,-0.00764336,0
0.4,4.8,0,0.299391,-0.00737438,0
0.4,4.9,0,0.299383,-0.00702311,0
0.4,5,0,0.299241,-0.00669027,0
0.4,5.1,0,0.299297,-0.00637822,0
0.4,5.2,0,0.299246,-0.0059754,0
0.4,5.3,0,0.299112,-0.00561672,0
0.4,5.4,0,0.299184,-0.00522985,0
0.4,5.5,0,0.299138,-0.00475158,0
0.4,5.6,0,0.298997,-0.00434247,0
0.4,5.7,0,0.299088,-0.00391039,0
0.4,5.8,0,0.299052,-0.00338042,0
0.4,5.9,0,0.298907,-0.00293065,0
0.4,6,0,0.299016,-0.00246468,0
0.4,6.1,0,0.298993,-0.00189767,0
0.4,6.2,0,0.29885,-0.0014203,0
0.4,6.3,0,0.298974,-0.000934561,0
0.4,6.4,0,0.298966,-0.000348169,0
0.4,6.5,0,0.29883,0.000141646,0
0.4,6.6,0,0.298965,0.000631408,0
0.4,6.7,0,0.298973,0.0012181,0
0.4,6.8,0,0.298848,0.00170438,0
0.4,6.9,0,0.298991,0.00218219,0
0.4,7,0,0.299013,0.00275019,0
0.4,7.1,0,0.298904,0.00321739,0
0.4,7.2,0,0.299048,0.00366828,0
0.4,7.3,0,0.299084,0.00419997,0
0.4,7.4,0,0.298992,0.0046338,0
0.4,7.5,0,0.299134,0.00504456,0
0.4,7.6,0,0.29918,0.00552526,0
0.4,7.7,0,0.299107,0.00591452,0
0.4,7.8,0,0.299241,0.0062755,0
0.4,7.9,0,0.299291,0.00667726,0
0.4,8,0,0.299233,0.00698529,0
0.4,8.1,0,0.299379,0.00733805,0
0.4,8.2,0,0.299371,0.00768853,0
0.4,8.3,0,0.299434,0.00795778,0
0.4,8.4,0,0.299492,0.00824945,0
0.4,8.5,0,0.299493,0.00848635,0
0.4,8.6,0,0.299589,0.0087186,0
0.4,8.7,0,0.299568,0.00893022,0
0.4,8.8,0,0.299657,0.00909725,0
0.4,8.9,0,0.299675,0.00928335,0
0.4,9,0,0.299714,0.00942173,0
0.4,9.1,0,0.299765,0.00956267,0
0.4,9.2,0,0.299774,0.00967447,0
0.4,9.3,0,0.299831,0.00976929,0
0.4,9.4,0,0.29984,0.0098578,0
0.4,9.5,0,0.299881,0.00991511,0
0.4,9.6,0,0.299907,0.00997578,0
0.4,9.7,0,0.299928,0.0100141,0
0.4,9.8,0,0.299959,0.0100441,0
0.4,9.9,0,0.299973,0.0100653,0
0.4,10,0,0.299995,0.0100699,0
0.4,10.1,0,0.300013,0.0100736,0
0.4,10.2,0,0.300024,0.0100631,0
0.4,10.3,0,0.300042,0.0100473,0
0.4,10.4,0,0.300051,0.0100276,0
0.4,10.5,0,0.300061,0.00999724,0
0.4,10.6,0,0.300075,0.00996987,0
0.4,10.7,0,0.300072,0.00993277,0
0.4,10.8,0,0.300087,0.00989511,0
0.4,10.9,0,0.300082,0.00985659,0
0.4,11,0,0.300089,0.00981083,0
0.4,11.1,0,0.300091,0.00977075,0
0.4,11.2,0,0.300085,0.00972303,0
0.4,11.3,0,0.300096,0.00968246,0
0.4,11.4,0,0.300082,0.00964028,0
0.4,11.5,0,0.300089,0.00959656,0
0.4,11.6,0,0.300079,0.00955938,0
0.4,11.7,0,0.300075,0.00951747,0
0.4,11.8,0,0.300074,0.00948368,0
0.4,11.9,0,0.300061,0.00944811,0
0.4,12,0,0.300064,0.00941811,0
0.4,12.1,0,0.300049,0.00939356,0
0.4,12.2,0,0.300046,0.00936745,0
0.4,12.3,0,0.300037,0.00934993,0
0.4,12.4,0,0.300027,0.0093325,0
0.4,12.5,0,0.300022,0.00932097,0
0.4,12.6,0,0.300013,0.0093148,0
0.4,12.7,0,0.300015,0.00930971,0
0.5,0,0,0.300023,-0.0107356,0
0.5,0.1,0,0.30003,-0.0107435,0
0.5,0.2,0,0.300037,-0.0107515,0
0.5,0.3,0,0.300047,-0.0107668,0
0.5,0.4,0,0.30006,-0.0107895,0
0.5,0.5,0,0.300074,-0.0108123,0
0.5,0.6,0,0.300086,-0.010848,0
0.5,0.7,0,0.300099,-0.0108837,0
0.5,0.8,0,0.30011,-0.010925,0
0.5,0.9,0,0.300121,-0.0109721,0
0.5,1,0,0.300131,-0.0110192,0
0.5,1.1,0,0.30014,-0.0110757,0
0.5,1.2,0,0.300148,-0.0111322,0
0.5,1.3,0,0.300155,-0.0111921,0
0.5,1.4,0,0.300161,-0.0112555,0
0.5,1.5,0,0.300166,-0.0113189,0
0.5,1.6,0,0.300169,-0.0113862,0
0.5,1.7,0,0.300171,-0.0114535,0
0.5,1.8,0,0.300171,-0.0115209,0
0.5,1.9,0,0.30017,-0.0115884,0
0.5,2,0,0.300168,-0.0116559,0
0.5,2.1,0,0.300162,-0.0117193,0
0.5,2.2,0,0.300155,-0.0117827,0
0.5,2.3,0,0.300146,-0.0118415,0
0.5,2.4,0,0.300134,-0.0118957,0
0.5,2.5,0,0.300122,-0.01195,0
0.5,2.6,0,0.300104,-0.0119892,0
0.5,2.7,0,0.300086,-0.0120285,0
0.5,2.8,0,0.300065,-0.012057,0
0.5,2.9,0,0.30004,-0.0120748,0
0.5,3,0,0.300015,-0.0120926,0
0.5,3.1,0,0.299983,-0.0120819,0
0.5,3.2,0,0.29995,-0.0120712,0
0.5,3.3,0,0.299914,-0.0120425,0
0.5,3.4,0,0.299874,-0.0119959,0
0.5,3.5,0,0.299835,-0.0119492,0
0.5,3.6,0,0.299787,-0.0118591,0
0.5,3.7,0,0.29974,-0.0117689,0
0.5,3.8,0,0.299689,-0.0116534,0
0.5,3.9,0,0.299634,-0.0115125,0
0.5,4,0,0.29958,-0.0113717,0
0.5,4.1,0,0.29952,-0.0111738,0
0.5,4.2,0,0.299459,-0.0109759,0
0.5,4.3,0,0.299397,-0.010747,0
0.5,4.4,0,0.299332,-0.0104871,0
0.5,4.5,0,0.299268,-0.0102271,0
0.5,4.6,0,0.299201,-0.00990166,0
0.5,4.7,0,0.299134,-0.00957618,0
0.5,4.8,0,0.299066,-0.00920629,0
0.5,4.9,0,0.298996,-0.00879199,0
0.5,5,0,0.298927,-0.0083777,0
0.5,5.1,0,0.298866,-0.00792991,0
0.5,5.2,0,0.298806,-0.00748212,0
0.5,5.3,0,0.298745,-0.00703433,0
0.5,5.4,0,0.298691,-0.00650253,0
0.5,5.5,0,0.298636,-0.00597072,0
0.5,5.6,0,0.298582,-0.00543892,0
0.5,5.7,0,0.29854,-0.00484958,0
0.5,5.8,0,0.298497,-0.00426024,0
0.5,5.9,0,0.298455,-0.00367089,0
0.5,6,0,0.298428,-0.00304034,0
0.5,6.1,0,0.298402,-0.00240979,0
0.5,6.2,0,0.298375,-0.00177923,0
0.5,6.3,0,0.298365,-0.0011271,0
0.5,6.4,0,0.298356,-0.000474959,0
0.5,6.5,0,0.298347,0.000177177,0
0.5,6.6,0,0.298355,0.000829644,0
0.5,6.7,0,0.298364,0.00148211,0
0.5,6.8,0,0.298372,0.00213458,0
0.5,6.9,0,0.298399,0.00276624,0
0.5,7,0,0.298425,0.0033979,0
0.5,7.1,0,0.298451,0.00402956,0
0.5,7.2,0,0.298493,0.00462081,0
0.5,7.3,0,0.298534,0.00521206,0
0.5,7.4,0,0.298576,0.00580331,0
0.5,7.5,0,0.29863,0.00633782,0
0.5,7.6,0,0.298684,0.00687232,0
0.5,7.7,0,0.298738,0.00740682,0
0.5,7.8,0,0.298797,0.00785342,0
0.5,7.9,0,0.298856,0.00830001,0
0.5,8,0,0.298915,0.00874661,0
0.5,8.1,0,0.298986,0.00917587,0
0.5,8.2,0,0.299056,0.00960514,0
0.5,8.3,0,0.299124,0.00997381,0
0.5,8.4,0,0.29919,0.0103099,0
0.5,8.5,0,0.299256,0.0106275,0
0.5,8.6,0,0.29932,0.0109021,0
0.5,8.7,0,0.299384,0.0111767,0
0.5,8.8,0,0.299445,0.0113958,0
0.5,8.9,0,0.299506,0.0116119,0
0.5,9,0,0.299563,0.0117955,0
0.5,9.1,0,0.299619,0.0119574,0
0.5,9.2,0,0.299672,0.012107,0
0.5,9.3,0,0.299721,0.0122199,0
0.5,9.4,0,0.29977,0.0123328,0
0.5,9.5,0,0.299813,0.0124071,0
0.5,9.6,0,0.299855,0.0124772,0
0.5,9.7,0,0.299894,0.0125274,0
0.5,9.8,0,0.299929,0.0125614,0
0.5,9.9,0,0.299962,0.0125894,0
0.5,10,0,0.29999,0.0125939,0
0.5,10.1,0,0.300018,0.0125984,0
0.5,10.2,0,0.30004,0.0125833,0
0.5,10.3,0,0.300061,0.0125648,0
0.5,10.4,0,0.300079,0.0125378,0
0.5,10.5,0,0.300094,0.0125024,0
0.5,10.6,0,0.300108,0.0124652,0
0.5,10.7,0,0.300117,0.0124185,0
0.5,10.8,0,0.300126,0.0123717,0
0.5,10.9,0,0.300132,0.0123199,0
0.5,11,0,0.300136,0.0122668,0
0.5,11.1,0,0.300138,0.0122128,0
0.5,11.2,0,0.300138,0.0121576,0
0.5,11.3,0,0.300138,0.0121027,0
0.5,11.4,0,0.300134,0.0120492,0
0.5,11.5,0,0.30013,0.0119958,0
0.5,11.6,0,0.300124,0.011946,0
0.5,11.7,0,0.300118,0.0118974,0
0.5,11.8,0,0.30011,0.0118519,0
0.5,11.9,0,0.3001,0.0118108,0
0.5,12,0,0.300091,0.0117702,0
0.5,12.1,0,0.30008,0.0117387,0
0.5,12.2,0,0.300068,0.0117072,0
0.5,12.3,0,0.300056,0.0116836,0
0.5,12.4,0,0.300044,0.0116633,0
0.5,12.5,0,0.300034,0.0116477,0
0.5,12.6,0,0.300028,0.0116406,0
0.5,12.7,0,0.300021,0.0116335,0
0.6,0,0,0.300037,-0.012867,0
0.6,0.1,0,0.300034,-0.0128754,0
0.6,0.2,0,0.300049,-0.0128856,0
0.6,0.3,0,0.300069,-0.0129059,0
0.6,0.4,0,0.300084,-0.0129314,0
0.6,0.5,0,0.300111,-0.0129619,0
0.6,0.6,0,0.300122,-0.0130063,0
0.6,0.7,0,0.300143,-0.0130476,0
0.6,0.8,0,0.30016,-0.0131004,0
0.6,0.9,0,0.300169,-0.0131533,0
0.6,1,0,0.300197,-0.0132148,0
0.6,1.1,0,0.300198,-0.0132854,0
0.6,1.2,0,0.300215,-0.0133504,0
0.6,1.3,0,0.300226,-0.0134269,0
0.6,1.4,0,0.300225,-0.0134984,0
0.6,1.5,0,0.30025,-0.0135809,0
0.6,1.6,0,0.300238,-0.0136656,0
0.6,1.7,0,0.300249,-0.0137431,0
0.6,1.8,0,0.30025,-0.0138296,0
0.6,1.9,0,0.30024,-0.0139061,0
0.6,2,0,0.300253,-0.0139943,0
0.6,2.1,0,0.300229,-0.0140749,0
0.6,2.2,0,0.300228,-0.0141483,0
0.6,2.3,0,0.300214,-0.0142248,0
0.6,2.4,0,0.300192,-0.0142868,0
0.6,2.5,0,0.300185,-0.0143588,0
0.6,2.6,0,0.300148,-0.0144105,0
0.6,2.7,0,0.300129,-0.0144568,0
0.6,2.8,0,0.300097,-0.0144962,0
0.6,2.9,0,0.300064,-0.0145178,0
0.6,3,0,0.300025,-0.0145441,0
0.6,3.1,0,0.29998,-0.0145347,0
0.6,3.2,0,0.299934,-0.0145244,0
0.6,3.3,0,0.299881,-0.0144927,0
0.6,3.4,0,0.299837,-0.0144426,0
0.6,3.5,0,0.299756,-0.0143868,0
0.6,3.6,0,0.299707,-0.0142797,0
0.6,3.7,0,0.299631,-0.0141789,0
0.6,3.8,0,0.299554,-0.0140382,0
0.6,3.9,0,0.299503,-0.0138829,0
0.6,4,0,0.299375,-0.0137065,0
0.6,4.1,0,0.299331,-0.0134655,0
0.6,4.2,0,0.299225,-0.0132419,0
0.6,4.3,0,0.299131,-0.0129579,0
0.6,4.4,0,0.299081,-0.0126686,0
0.6,4.5,0,0.298907,-0.0123397,0
0.6,4.6,0,0.298883,-0.0119393,0
0.6,4.7,0,0.298754,-0.0115699,0
0.6,4.8,0,0.298654,-0.011121,0
0.6,4.9,0,0.298615,-0.0106715,0
0.6,5,0,0.298397,-0.0101179,0
0.6,5.1,0,0.298399,-0.00959374,0
0.6,5.2,0,0.298323,-0.00910011,0
0.6,5.3,0,0.298125,-0.00849946,0
0.6,5.4,0,0.298145,-0.00784779,0
0.6,5.5,0,0.298076,-0.00726101,0
0.6,5.6,0,0.29788,-0.00657417,0
0.6,5.7,0,0.29793,-0.00584563,0
0.6,5.8,0,0.297877,-0.00519503,0
0.6,5.9,0,0.29769,-0.00443861,0
0.6,6,0,0.297772,-0.00365261,0
0.6,6.1,0,0.297739,-0.0029563,0
0.6,6.2,0,0.29757,-0.00215242,0
0.6,6.3,0,0.297683,-0.00133314,0
0.6,6.4,0,0.297672,-0.000612897,0
0.6,6.5,0,0.297528,0.00021264,0
0.6,6.6,0,0.297671,0.00103834,0
0.6,6.7,0,0.297682,0.00175895,0
0.6,6.8,0,0.297567,0.0025789,0
0.6,6.9,0,0.297735,0.00338377,0
0.6,7,0,0.297767,0.0040813,0
0.6,7.1,0,0.297684,0.00486907,0
0.6,7.2,0,0.297871,0.00562759,0
0.6,7.3,0,0.297923,0.00628029,0
0.6,7.4,0,0.297872,0.00701149,0
0.6,7.5,0,0.298067,0.00770133,0
0.6,7.6,0,0.298135,0.00829107,0
0.6,7.7,0,0.298114,0.00894646,0
0.6,7.8,0,0.298311,0.00955121,0
0.6,7.9,0,0.298385,0.0100435,0
0.6,8,0,0.298379,0.0105603,0
0.6,8.1,0,0.298599,0.0111299,0
0.6,8.2,0,0.298627,0.0115991,0
0.6,8.3,0,0.298757,0.0120475,0
0.6,8.4,0,0.298849,0.0124282,0
0.6,8.5,0,0.298914,0.0128238,0
0.6,8.6,0,0.299054,0.013142,0
0.6,8.7,0,0.299085,0.0134762,0
0.6,8.8,0,0.299238,0.0137476,0
0.6,8.9,0,0.299285,0.0139918,0
0.6,9,0,0.299382,0.0142185,0
0.6,9.1,0,0.299463,0.0144002,0
0.6,9.2,0,0.299523,0.0145844,0
0.6,9.3,0,0.299618,0.0147137,0
0.6,9.4,0,0.299663,0.0148483,0
0.6,9.5,0,0.29975,0.0149365,0
0.6,9.6,0,0.299795,0.0150146,0
0.6,9.7,0,0.299854,0.0150732,0
0.6,9.8,0,0.299904,0.0151091,0
0.6,9.9,0,0.299948,0.0151415,0
0.6,10,0,0.299992,0.0151425,0
0.6,10.1,0,0.30003,0.0151464,0
0.6,10.2,0,0.300063,0.0151225,0
0.6,10.3,0,0.300092,0.0151003,0
0.6,10.4,0,0.300118,0.0150631,0
0.6,10.5,0,0.300135,0.0150205,0
0.6,10.6,0,0.300163,0.0149722,0
0.6,10.7,0,0.300167,0.0149124,0
0.6,10.8,0,0.300189,0.014856,0
0.6,10.9,0,0.300189,0.0147876,0
0.6,11,0,0.300198,0.0147263,0
0.6,11.1,0,0.300203,0.0146565,0
0.6,11.2,0,0.300196,0.0145922,0
0.6,11.3,0,0.300207,0.0145221,0
0.6,11.4,0,0.300189,0.014455,0
0.6,11.5,0,0.300193,0.0143915,0
0.6,11.6,0,0.300178,0.0143271,0
0.6,11.7,0,0.30017,0.0142713,0
0.6,11.8,0,0.300161,0.0142129,0
0.6,11.9,0,0.300142,0.0141653,0
0.6,12,0,0.300137,0.0141135,0
0.6,12.1,0,0.300111,0.0140738,0
0.6,12.2,0,0.300101,0.0140366,0
0.6,12.3,0,0.30008,0.0140061,0
0.6,12.4,0,0.300064,0.0139826,0
0.6,12.5,0,0.300047,0.0139618,0
0.6,12.6,0,0.300031,0.013953,0
0.6,12.7,0,0.300034,0.0139443,0
0.7,0,0,0.300051,-0.0149985,0
0.7,0.1,0,0.300056,-0.0150091,0
0.7,0.2,0,0.300071,-0.015022,0
0.7,0.3,0,0.300091,-0.0150423,0
0.7,0.4,0,0.30012,-0.0150783,0
0.7,0.5,0,0.300148,-0.0151116,0
0.7,0.6,0,0.300168,-0.0151616,0
0.7,0.7,0,0.300195,-0.0152172,0
0.7,0.8,0,0.300213,-0.01527,0
0.7,0.9,0,0.300237,-0.0153431,0
0.7,1,0,0.300263,-0.0154103,0
0.7,1.1,0,0.300273,-0.0154895,0
0.7,1.2,0,0.300292,-0.0155771,0
0.7,1.3,0,0.300302,-0.0156537,0
0.7,1.4,0,0.300315,-0.0157523,0
0.7,1.5,0,0.300334,-0.0158429,0
0.7,1.6,0,0.30033,-0.0159378,0
0.7,1.7,0,0.300336,-0.0160429,0
0.7,1.8,0,0.300337,-0.0161294,0
0.7,1.9,0,0.300333,-0.0162355,0
0.7,2,0,0.300338,-0.0163326,0
0.7,2.1,0,0.300319,-0.0164233,0
0.7,2.2,0,0.300305,-0.0165239,0
0.7,2.3,0,0.300291,-0.0166004,0
0.7,2.4,0,0.300265,-0.0166879,0
0.7,2.5,0,0.300248,-0.0167677,0
0.7,2.6,0,0.30021,-0.0168264,0
0.7,2.7,0,0.30017,-0.0168921,0
0.7,2.8,0,0.300138,-0.0169315,0
0.7,2.9,0,0.300082,-0.0169654,0
0.7,3,0,0.300035,-0.0169955,0
0.7,3.1,0,0.299977,-0.0169865,0
0.7,3.2,0,0.299905,-0.0169779,0
0.7,3.3,0,0.299851,-0.0169462,0
0.7,3.4,0,0.299762,-0.0168836,0
0.7,3.5,0,0.299677,-0.0168243,0
0.7,3.6,0,0.299599,-0.0167066,0
0.7,3.7,0,0.299493,-0.0165782,0
0.7,3.8,0,0.299416,-0.0164375,0
0.7,3.9,0,0.299295,-0.0162321,0
0.7,4,0,0.299169,-0.0160412,0
0.7,4.1,0,0.29908,-0.0157745,0
0.7,4.2,0,0.298945,-0.015482,0
0.7,4.3,0,0.298851,-0.015198,0
0.7,4.4,0,0.298706,-0.0148105,0
0.7,4.5,0,0.298547,-0.0144523,0
0.7,4.6,0,0.29846,-0.014008,0
0.7,4.7,0,0.29831,-0.0135197,0
0.7,4.8,0,0.29821,-0.0130708,0
0.7,4.9,0,0.298054,-0.0124468,0
0.7,5,0,0.297867,-0.011858,0
0.7,5.1,0,0.297814,-0.0112728,0
0.7,5.2,0,0.297678,-0.0105958,0
0.7,5.3,0,0.297505,-0.0099646,0
0.7,5.4,0,0.297468,-0.00925091,0
0.7,5.5,0,0.297345,-0.00844421,0
0.7,5.6,0,0.297179,-0.00770943,0
0.7,5.7,0,0.29717,-0.00691405,0
0.7,5.8,0,0.297075,-0.00601843,0
0.7,5.9,0,0.296925,-0.00520632,0
0.7,6,0,0.296951,-0.004351,0
0.7,6.1,0,0.29689,-0.00339167,0
0.7,6.2,0,0.296765,-0.00252562,0
0.7,6.3,0,0.296825,-0.00163697,0
0.7,6.4,0,0.296803,-0.000644292,0
0.7,6.5,0,0.296709,0.000248103,0
0.7,6.6,0,0.296802,0.0011408,0
0.7,6.7,0,0.296822,0.00213398,0
0.7,6.8,0,0.296761,0.00302323,0
0.7,6.9,0,0.296885,0.00389054,0
0.7,7,0,0.296944,0.00485152,0
0.7,7.1,0,0.296918,0.00570857,0
0.7,7.2,0,0.297067,0.00652308,0
0.7,7.3,0,0.29716,0.00742155,0
0.7,7.4,0,0.297167,0.00821966,0
0.7,7.5,0,0.297333,0.00895785,0
0.7,7.6,0,0.297454,0.00976858,0
0.7,7.7,0,0.29749,0.0104861,0
0.7,7.8,0,0.297662,0.011119,0
0.7,7.9,0,0.297794,0.011794,0
0.7,8,0,0.297843,0.0123741,0
0.7,8.1,0,0.298035,0.0129885,0
0.7,8.2,0,0.298173,0.0136169,0
0.7,8.3,0,0.298293,0.01408,0
0.7,8.4,0,0.298442,0.0145843,0
0.7,8.5,0,0.298538,0.0149996,0
0.7,8.6,0,0.298689,0.015398,0
0.7,8.7,0,0.298784,0.0157792,0
0.7,8.8,0,0.298926,0.016076,0
0.7,8.9,0,0.299055,0.0163925,0
0.7,9,0,0.29915,0.0166241,0
0.7,9.1,0,0.299275,0.0168613,0
0.7,9.2,0,0.299358,0.0170558,0
0.7,9.3,0,0.299469,0.0172127,0
0.7,9.4,0,0.299555,0.0173665,0
0.7,9.5,0,0.299643,0.0174612,0
0.7,9.6,0,0.299736,0.0175588,0
0.7,9.7,0,0.299796,0.0176179,0
0.7,9.8,0,0.299874,0.0176612,0
0.7,9.9,0,0.29993,0.0176945,0
0.7,10,0,0.299989,0.0176938,0
0.7,10.1,0,0.300044,0.0176944,0
0.7,10.2,0,0.300083,0.0176681,0