x,y,z,U_0,U_1,U_2
0,0,0,2.99932,-0.00547599,0
0,0.1,0,2.99959,-0.0032856,0
0,0.2,0,2.99986,-0.0010952,0
0,0.3,0,3,0,0
0,0.4,0,3,0,0
0,0.5,0,3,0,0
0,0.6,0,3,0,0
0,0.7,0,3,0,0
0,0.8,0,3,0,0
0,0.9,0,3,0,0
0,1,0,3,0,0
0,1.1,0,3,0,0
0,1.2,0,3,0,0
0,1.3,0,3,0,0
0,1.4,0,3,0,0
0,1.5,0,3,0,0
0,1.6,0,3,0,0
0,1.7,0,3,0,0
0,1.8,0,3,0,0
0,1.9,0,3,0,0
0,2,0,3,0,0
0,2.1,0,3,0,0
0,2.2,0,3,0,0
0,2.3,0,3,0,0
0,2.4,0,3,0,0
0,2.5,0,3,0,0
0,2.6,0,3,0,0
0,2.7,0,3,0,0
0,2.8,0,3,0,0
0,2.9,0,3,0,0
0,3,0,3,0,0
0,3.1,0,3,0,0
0,3.2,0,3,0,0
0,3.3,0,3,0,0
0,3.4,0,3,0,0
0,3.5,0,3,0,0
0,3.6,0,3,0,0
0,3.7,0,3,0,0
0,3.8,0,3,0,0
0,3.9,0,3,0,0
0,4,0,3,0,0
0,4.1,0,3,0,0
0,4.2,0,3,0,0
0,4.3,0,3,0,0
0,4.4,0,3,0,0
0,4.5,0,3,0,0
0,4.6,0,3,0,0
0,4.7,0,3,0,0
0,4.8,0,3,0,0
0,4.9,0,3,0,0
0,5,0,3,0,0
0,5.1,0,3,0,0
0,5.2,0,3,0,0
0,5.3,0,3,0,0
0,5.4,0,3,0,0
0,5.5,0,3,0,0
0,5.6,0,3,0,0
0,5.7,0,3,0,0
0,5.8,0,3,0,0
0,5.9,0,3,0,0
0,6,0,3,0,0
0,6.1,0,3,0,0
0,6.2,0,3,0,0
0,6.3,0,3,0,0
0,6.4,0,3,0,0
0,6.5,0,3,0,0
0,6.6,0,3,0,0
0,6.7,0,3,0,0
0,6.8,0,3,0,0
0,6.9,0,3,0,0
0,7,0,3,0,0
0,7.1,0,3,0,0
0,7.2,0,3,0,0
0,7.3,0,3,0,0
0,7.4,0,3,0,0
0,7.5,0,3,0,0
0,7.6,0,3,0,0
0,7.7,0,3,0,0
0,7.8,0,3,0,0
0,7.9,0,3,0,0
0,8,0,3,0,0
0,8.1,0,3,0,0
0,8.2,0,3,0,0
0,8.3,0,3,0,0
0,8.4,0,3,0,0
0,8.5,0,3,0,0
0,8.6,0,3,0,0
0,8.7,0,3,0,0
0,8.8,0,3,0,0
0,8.9,0,3,0,0
0,9,0,3,0,0
0,9.1,0,3,0,0
0,9.2,0,3,0,0
0,9.3,0,3,0,0
0,9.4,0,3,0,0
0,9.5,0,3,0,0
0,9.6,0,3,0,0
0,9.7,0,3,0,0
0,9.8,0,3,0,0
0,9.9,0,3,0,0
0,10,0,3,0,0
0,10.1,0,3,0,0
0,10.2,0,3,0,0
0,10.3,0,3,0,0
0,10.4,0,3,0,0
0,10.5,0,3,0,0
0,10.6,0,3,0,0
0,10.7,0,3,0,0
0,10.8,0,3,0,0
0,10.9,0,3,0,0
0,11,0,3,0,0
0,11.1,0,3,0,0
0,11.2,0,3,0,0
0,11.3,0,3,0,0
0,11.4,0,3,0,0
0,11.5,0,3,0,0
0,11.6,0,3,0,0
0,11.7,0,3,0,0
0,11.8,0,3,0,0
0,11.9,0,3,0,0
0,12,0,3,0,0
0,12.1,0,3,0,0
0,12.2,0,3,0,0
0,12.3,0,3,0,0
0,12.4,0,3,0,0
0,12.5,0,2.99998,0.000990215,0
0,12.6,0,2.99995,0.00215517,0
0,12.7,0,2.99992,0.00332013,0
0.1,0,0,2.99955,-0.0102895,0
0.1,0.1,0,2.99912,-0.00709164,0
0.1,0.2,0,2.99945,-0.00512239,0
0.1,0.3,0,2.99947,-0.00528235,0
0.1,0.4,0,2.9994,-0.00520067,0
0.1,0.5,0,3.00005,-0.00596505,0
0.1,0.6,0,2.99954,-0.00527542,0
0.1,0.7,0,2.99959,-0.00533786,0
0.1,0.8,0,2.99964,-0.0053181,0
0.1,0.9,0,2.9996,-0.00525347,0
0.1,1,0,2.99998,-0.00584777,0
0.1,1.1,0,3.00031,-0.00503156,0
0.1,1.2,0,3.00028,-0.00510244,0
0.1,1.3,0,3.00001,-0.0049436,0
0.1,1.4,0,3.00002,-0.00485507,0
0.1,1.5,0,2.9999,-0.00556141,0
0.1,1.6,0,3.0008,-0.00509693,0
0.1,1.7,0,3.00071,-0.00513014,0
0.1,1.8,0,3.00129,-0.00404201,0
0.1,1.9,0,3.00146,-0.0038879,0
0.1,2,0,2.99977,-0.00525783,0
0.1,2.1,0,3.00124,-0.00434121,0
0.1,2.2,0,3.00109,-0.00441248,0
0.1,2.3,0,3.00118,-0.00334054,0
0.1,2.4,0,3.00134,-0.00315017,0
0.1,2.5,0,2.99971,-0.00484291,0
0.1,2.6,0,3.00032,-0.00310806,0
0.1,2.7,0,3.00025,-0.00325363,0
0.1,2.8,0,3.00029,-0.00278204,0
0.1,2.9,0,3.00036,-0.00258407,0
0.1,3,0,2.99965,-0.00432345,0
0.1,3.1,0,3.00039,-0.00175268,0
0.1,3.2,0,3.00031,-0.00198542,0
0.1,3.3,0,3.00111,-0.00181473,0
0.1,3.4,0,3.00127,-0.00156301,0
0.1,3.5,0,2.99963,-0.0038733,0
0.1,3.6,0,3.00274,-0.000446902,0
0.1,3.7,0,3.00243,-0.000771456,0
0.1,3.8,0,3.00364,-0.000704161,0
0.1,3.9,0,3.00408,-0.00037213,0
0.1,4,0,2.99976,-0.00345443,0
0.1,4.1,0,3.00557,-0.000189855,0
0.1,4.2,0,3.005,-0.000487981,0
0.1,4.3,0,3.00512,-0.00127223,0
0.1,4.4,0,3.0057,-0.00106124,0
0.1,4.5,0,3.00008,-0.00277321,0
0.1,4.6,0,3.00331,-0.00215976,0
0.1,4.7,0,3.00301,-0.002165,0
0.1,4.8,0,2.99798,-0.00462625,0
0.1,4.9,0,2.99772,-0.00489449,0
0.1,5,0,3.00046,-0.00172734,0
0.1,5.1,0,3.00057,-0.0014841,0
0.1,5.2,0,3.00062,-0.00136237,0
0.1,5.3,0,3.00066,-0.00123011,0
0.1,5.4,0,3.00069,-0.0010908,0
0.1,5.5,0,3.0007,-0.000946156,0
0.1,5.6,0,3.00069,-0.000797733,0
0.1,5.7,0,3.00067,-0.000646294,0
0.1,5.8,0,3.00065,-0.000491867,0
0.1,5.9,0,3.00064,-0.000334022,0
0.1,6,0,3.00065,-0.000172344,0
0.1,6.1,0,3.00069,-7.05556e-06,0
0.1,6.2,0,3.00076,0.000160678,0
0.1,6.3,0,3.00084,0.000328578,0
0.1,6.4,0,3.00093,0.000493528,0
0.1,6.5,0,3.00104,0.000651756,0
0.1,6.6,0,3.00116,0.000798833,0
0.1,6.7,0,3.0013,0.000929272,0
0.1,6.8,0,3.00148,0.00103654,0
0.1,6.9,0,3.00165,0.00110777,0
0.1,7,0,3.00173,0.00127593,0
0.1,7.1,0,3.0509,-0.0243573,0
0.1,7.2,0,3.0509,-0.0243573,0
0.1,7.3,0,3.01966,-0.00609372,0
0.1,7.4,0,3.07812,-0.0312508,0
0.1,7.5,0,3.07812,-0.0312508,0
0.1,7.6,0,3.03945,-0.0161572,0
0.1,7.7,0,3.08172,-0.0366629,0
0.1,7.8,0,3.07117,-0.0314689,0
0.1,7.9,0,3.06034,-0.0296741,0
0.1,8,0,3.08431,-0.0429089,0
0.1,8.1,0,3.05359,-0.0258414,0
0.1,8.2,0,3.08585,-0.0451612,0
0.1,8.3,0,3.09057,-0.04786,0
0.1,8.4,0,3.03533,-0.0163717,0
0.1,8.5,0,3.09068,-0.0497467,0
0.1,8.6,0,3.09068,-0.0497467,0
0.1,8.7,0,3.01228,-0.00379298,0
0.1,8.8,0,3.0809,-0.048192,0
0.1,8.9,0,3.0809,-0.048192,0
0.1,9,0,3.00209,0.00130242,0
0.1,9.1,0,3.06444,-0.044032,0
0.1,9.2,0,3.06444,-0.044032,0
0.1,9.3,0,3.0127,-0.00869058,0
0.1,9.4,0,3.04684,-0.0388812,0
0.1,9.5,0,3.04684,-0.0388812,0
0.1,9.6,0,3.0165,-0.0165692,0
0.1,9.7,0,3.03173,-0.0341721,0
0.1,9.8,0,3.02471,-0.0259048,0
0.1,9.9,0,3.01579,-0.0225231,0
0.1,10,0,3.02044,-0.0298885,0
0.1,10.1,0,3.01072,-0.014278,0
0.1,10.2,0,3.01291,-0.02557,0
0.1,10.3,0,3.01291,-0.02557,0
0.1,10.4,0,3.00323,-0.0047269,0
0.1,10.5,0,3.00824,-0.0210536,0
0.1,10.6,0,3.00824,-0.0210536,0
0.1,10.7,0,2.99948,0.00272821,0
0.1,10.8,0,3.00547,-0.016362,0
0.1,10.9,0,3.00547,-0.016362,0
0.1,11,0,2.99954,0.00205322,0
0.1,11.1,0,3.00383,-0.011733,0
0.1,11.2,0,3.00383,-0.011733,0
0.1,11.3,0,3.00029,-0.00021583,0
0.1,11.4,0,3.00249,-0.00748324,0
0.1,11.5,0,3.00231,-0.00685756,0
0.1,11.6,0,3.00056,-0.000769091,0
0.1,11.7,0,3.00146,-0.00378712,0
0.1,11.8,0,3.0008,-0.00145153,0
0.1,11.9,0,3.00062,2.54055e-05,0
0.1,12,0,3.00083,-0.000619427,0
0.1,12.1,0,3.0001,0.00190836,0
0.1,12.2,0,3.00028,0.00161788,0
0.1,12.3,0,3.00028,0.00161788,0
0.1,12.4,0,2.99985,0.00349906,0
0.1,12.5,0,2.99992,0.00328419,0
0.1,12.6,0,2.9999,0.00444915,0
0.1,12.7,0,2.99981,0.00660012,0
0.2,0,0,2.99978,-0.015103,0
0.2,0.1,0,2.99879,-0.0110992,0
0.2,0.2,0,2.99952,-0.0111399,0
0.2,0.3,0,2.99955,-0.0112999,0
0.2,0.4,0,2.99894,-0.0105542,0
0.2,0.5,0,3.00011,-0.0119301,0
0.2,0.6,0,2.99918,-0.0106888,0
0.2,0.7,0,2.99961,-0.0112377,0
0.2,0.8,0,2.99966,-0.0112179,0
0.2,0.9,0,2.99928,-0.0106258,0
0.2,1,0,2.99996,-0.0116955,0
0.2,1.1,0,3.00056,-0.0102264,0
0.2,1.2,0,3.00023,-0.0108429,0
0.2,1.3,0,2.99996,-0.010684,0
0.2,1.4,0,3.00001,-0.0098514,0
0.2,1.5,0,2.99981,-0.0111228,0
0.2,1.6,0,3.00143,-0.0102868,0
0.2,1.7,0,3.00052,-0.0105592,0
0.2,1.8,0,3.00111,-0.00947103,0
0.2,1.9,0,3.00258,-0.00804978,0
0.2,2,0,2.99955,-0.0105157,0
0.2,2.1,0,3.00219,-0.00886574,0
0.2,2.2,0,3.00083,-0.00946637,0
0.2,2.3,0,3.00091,-0.00839443,0
0.2,2.4,0,3.00235,-0.00663889,0
0.2,2.5,0,2.99943,-0.00968582,0
0.2,2.6,0,3.00051,-0.00656309,0
0.2,2.7,0,2.99994,-0.00781739,0
0.2,2.8,0,2.99998,-0.0073458,0
0.2,2.9,0,3.00058,-0.00551602,0
0.2,3,0,2.9993,-0.0086469,0
0.2,3.1,0,3.00063,-0.00401951,0
0.2,3.2,0,2.99995,-0.00606558,0
0.2,3.3,0,3.00075,-0.00589488,0
0.2,3.4,0,3.00221,-0.00358808,0
0.2,3.5,0,2.99925,-0.0077466,0
0.2,3.6,0,3.00485,-0.00157908,0
0.2,3.7,0,3.0021,-0.0044639,0
0.2,3.8,0,3.00331,-0.0043966,0
0.2,3.9,0,3.0073,-0.00136072,0
0.2,4,0,2.99952,-0.00690886,0
0.2,4.1,0,3.00998,-0.00103263,0
0.2,4.2,0,3.00489,-0.00365909,0
0.2,4.3,0,3.00501,-0.00444334,0
0.2,4.4,0,3.01027,-0.00246487,0
0.2,4.5,0,3.00015,-0.00554643,0
0.2,4.6,0,3.00598,-0.00444221,0
0.2,4.7,0,3.0033,-0.00437712,0
0.2,4.8,0,2.99827,-0.00683837,0
0.2,4.9,0,2.996,-0.00915555,0
0.2,5,0,3.00091,-0.00345468,0
0.2,5.1,0,3.00114,-0.00296819,0
0.2,5.2,0,3.00124,-0.00272474,0
0.2,5.3,0,3.00133,-0.00246022,0
0.2,5.4,0,3.00138,-0.00218161,0
0.2,5.5,0,3.0014,-0.00189231,0
0.2,5.6,0,3.00138,-0.00159547,0
0.2,5.7,0,3.00133,-0.00129259,0
0.2,5.8,0,3.00129,-0.000983733,0
0.2,5.9,0,3.00128,-0.000668044,0
0.2,6,0,3.00131,-0.000344689,0
0.2,6.1,0,3.00139,-1.41111e-05,0
0.2,6.2,0,3.00152,0.000321356,0
0.2,6.3,0,3.00168,0.000657156,0
0.2,6.4,0,3.00187,0.000987056,0
0.2,6.5,0,3.00208,0.00130351,0
0.2,6.6,0,3.00232,0.00159767,0
0.2,6.7,0,3.00261,0.00185854,0
0.2,6.8,0,3.00296,0.00207309,0
0.2,6.9,0,3.0033,0.00221554,0
0.2,7,0,3.00347,0.00255187,0
0.2,7.1,0,3.0811,-0.0379216,0
0.2,7.2,0,3.06932,-0.0315626,0
0.2,7.3,0,3.02119,-0.00438006,0
0.2,7.4,0,3.14213,-0.0564293,0
0.2,7.5,0,3.0876,-0.0324844,0
0.2,7.6,0,3.04085,-0.0138593,0
0.2,7.7,0,3.16345,-0.0733258,0
0.2,7.8,0,3.07268,-0.0286575,0
0.2,7.9,0,3.06185,-0.0268627,0
0.2,8,0,3.16861,-0.0858179,0
0.2,8.1,0,3.05451,-0.0224243,0
0.2,8.2,0,3.08678,-0.0417441,0
0.2,8.3,0,3.17874,-0.0943509,0
0.2,8.4,0,3.03464,-0.0122074,0
0.2,8.5,0,3.10683,-0.0555134,0
0.2,8.6,0,3.15687,-0.0851328,0
0.2,8.7,0,3.00987,0.00103035,0
0.2,8.8,0,3.11357,-0.0656909,0
0.2,8.9,0,3.11973,-0.0696939,0
0.2,9,0,2.99883,0.00649065,0
0.2,9.1,0,3.10573,-0.0712254,0
0.2,9.2,0,3.07915,-0.0517556,0
0.2,9.3,0,3.00965,-0.00344701,0
0.2,9.4,0,3.08843,-0.0731178,0
0.2,9.5,0,3.04583,-0.034865,0
0.2,9.6,0,3.0142,-0.0113936,0
0.2,9.7,0,3.06347,-0.0683442,0
0.2,9.8,0,3.0231,-0.0208073,0
0.2,9.9,0,3.01418,-0.0174256,0
0.2,10,0,3.04087,-0.0597771,0
0.2,10.1,0,3.00944,-0.00927252,0
0.2,10.2,0,3.012,-0.0213691,0
0.2,10.3,0,3.02433,-0.0479334,0
0.2,10.4,0,3.00201,0.000166096,0
0.2,10.5,0,3.0095,-0.0229887,0
0.2,10.6,0,3.01322,-0.033274,0
0.2,10.7,0,2.99821,0.00749486,0
0.2,10.8,0,3.00757,-0.0221597,0
0.2,10.9,0,3.00704,-0.020566,0
0.2,11,0,2.99828,0.00669136,0
0.2,11.1,0,3.00631,-0.0191578,0
0.2,11.2,0,3.0036,-0.0102039,0
0.2,11.3,0,2.99915,0.00430796,0
0.2,11.4,0,3.00489,-0.0146505,0
0.2,11.5,0,3.00133,-0.00245288,0
0.2,11.6,0,2.99958,0.00363559,0
0.2,11.7,0,3.00292,-0.00757425,0
0.2,11.8,0,3.00001,0.00282977,0
0.2,11.9,0,2.99982,0.0043067,0
0.2,12,0,3.00166,-0.00123885,0
0.2,12.1,0,2.99953,0.00609174,0
0.2,12.2,0,2.99981,0.0055312,0
0.2,12.3,0,3.00047,0.00368983,0
0.2,12.4,0,2.99958,0.00758193,0
0.2,12.5,0,2.99972,0.00675508,0
0.2,12.6,0,2.99982,0.00715829,0
0.2,12.7,0,2.9997,0.0098801,0
0.3,0,0,3.00001,-0.0199165,0
0.3,0.1,0,2.99918,-0.0165761,0
0.3,0.2,0,2.9996,-0.0171575,0
0.3,0.3,0,2.99962,-0.0173174,0
0.3,0.4,0,2.99919,-0.0167643,0
0.3,0.5,0,3.00016,-0.0178951,0
0.3,0.6,0,2.99938,-0.0168411,0
0.3,0.7,0,2.99963,-0.0171376,0
0.3,0.8,0,2.99968,-0.0171178,0
0.3,0.9,0,2.99938,-0.0166675,0
0.3,1,0,2.99993,-0.0175433,0
0.3,1.1,0,3.00043,-0.0162868,0
0.3,1.2,0,3.00018,-0.0165833,0
0.3,1.3,0,2.99992,-0.0164245,0
0.3,1.4,0,2.9999,-0.0156784,0
0.3,1.5,0,2.99971,-0.0166842,0
0.3,1.6,0,3.00104,-0.0159478,0
0.3,1.7,0,3.00034,-0.0159882,0
0.3,1.8,0,3.00093,-0.0149001,0
0.3,1.9,0,3.00186,-0.01377,0
0.3,2,0,2.99932,-0.0157735,0
0.3,2.1,0,3.00152,-0.0143374,0
0.3,2.2,0,3.00056,-0.0145203,0
0.3,2.3,0,3.00064,-0.0134483,0
0.3,2.4,0,3.00158,-0.0120529,0
0.3,2.5,0,2.99914,-0.0145287,0
0.3,2.6,0,3.00004,-0.0118427,0
0.3,2.7,0,2.99963,-0.0123812,0
0.3,2.8,0,2.99967,-0.0119096,0
0.3,2.9,0,3.00003,-0.0104334,0
0.3,3,0,2.99896,-0.0129703,0
0.3,3.1,0,3.00005,-0.0090412,0
0.3,3.2,0,2.99959,-0.0101457,0
0.3,3.3,0,3.00039,-0.00997504,0
0.3,3.4,0,3.00135,-0.00821653,0
0.3,3.5,0,2.99888,-0.0116199,0
0.3,3.6,0,3.00356,-0.00642605,0
0.3,3.7,0,3.00177,-0.00815634,0
0.3,3.8,0,3.00298,-0.00808904,0
0.3,3.9,0,3.00574,-0.00581125,0
0.3,4,0,2.99928,-0.0103633,0
0.3,4.1,0,3.00804,-0.00538143,0
0.3,4.2,0,3.00478,-0.0068302,0
0.3,4.3,0,3.00489,-0.00761445,0
0.3,4.4,0,3.0086,-0.00587105,0
0.3,4.5,0,3.00023,-0.00831964,0
0.3,4.6,0,3.00514,-0.00723113,0
0.3,4.7,0,3.00358,-0.00658924,0
0.3,4.8,0,2.99856,-0.00905049,0
0.3,4.9,0,2.99722,-0.0100782,0
0.3,5,0,3.00137,-0.00518201,0
0.3,5.1,0,3.00171,-0.00445229,0
0.3,5.2,0,3.00186,-0.00408711,0
0.3,5.3,0,3.00199,-0.00369033,0
0.3,5.4,0,3.00207,-0.00327241,0
0.3,5.5,0,3.00209,-0.00283847,0
0.3,5.6,0,3.00206,-0.0023932,0
0.3,5.7,0,3.002,-0.00193888,0
0.3,5.8,0,3.00194,-0.0014756,0
0.3,5.9,0,3.00192,-0.00100207,0
0.3,6,0,3.00196,-0.000517033,0
0.3,6.1,0,3.00208,-2.11667e-05,0
0.3,6.2,0,3.00228,0.000482033,0
0.3,6.3,0,3.00252,0.000985733,0
0.3,6.4,0,3.0028,0.00148058,0
0.3,6.5,0,3.00312,0.00195527,0
0.3,6.6,0,3.00347,0.0023965,0
0.3,6.7,0,3.00391,0.00278782,0
0.3,6.8,0,3.00443,0.00310963,0
0.3,6.9,0,3.00495,0.00332332,0
0.3,7,0,3.0052,0.0038278,0
0.3,7.1,0,3.07894,-0.0345875,0
0.3,7.2,0,3.07084,-0.029849,0
0.3,7.3,0,3.02271,-0.0026664,0
0.3,7.4,0,3.11943,-0.0441213,0
0.3,7.5,0,3.08899,-0.0301864,0
0.3,7.6,0,3.04225,-0.0115613,0
0.3,7.7,0,3.12475,-0.0512637,0
0.3,7.8,0,3.07419,-0.0258461,0
0.3,7.9,0,3.06336,-0.0240513,0
0.3,8,0,3.12826,-0.0596681,0
0.3,8.1,0,3.05543,-0.0190072,0
0.3,8.2,0,3.0877,-0.038327,0
0.3,8.3,0,3.13559,-0.0658976,0
0.3,8.4,0,3.03395,-0.00804321,0
0.3,8.5,0,3.10614,-0.0513492,0
0.3,8.6,0,3.13281,-0.0675411,0
0.3,8.7,0,3.00745,0.00585368,0
0.3,8.8,0,3.11115,-0.0608676,0
0.3,8.9,0,3.11647,-0.0645057,0
0.3,9,0,2.99558,0.0116789,0
0.3,9.1,0,3.09182,-0.0582569,0
0.3,9.2,0,3.0761,-0.0465121,0
0.3,9.3,0,3.0066,0.00179656,0
0.3,9.4,0,3.06597,-0.0504833,0
0.3,9.5,0,3.04352,-0.0296894,0
0.3,9.6,0,3.01189,-0.00621795,0
0.3,9.7,0,3.04458,-0.0435441,0
0.3,9.8,0,3.02149,-0.0157099,0
0.3,9.9,0,3.01257,-0.0123281,0
0.3,10,0,3.02852,-0.0372664,0
0.3,10.1,0,3.00816,-0.004267,0
0.3,10.2,0,3.01072,-0.0163636,0
0.3,10.3,0,3.0175,-0.0309711,0
0.3,10.4,0,3.00078,0.00505909,0
0.3,10.5,0,3.00827,-0.0180957,0
0.3,10.6,0,3.01045,-0.0244105,0
0.3,10.7,0,2.99694,0.0122615,0
0.3,10.8,0,3.0063,-0.017393,0
0.3,10.9,0,3.00578,-0.0159279,0
0.3,11,0,2.99702,0.0113295,0
0.3,11.1,0,3.00388,-0.0106694,0
0.3,11.2,0,3.00246,-0.00568012,0
0.3,11.3,0,2.99801,0.00883175,0
0.3,11.4,0,3.00211,-0.0044956,0
0.3,11.5,0,3.00036,0.0019518,0
0.3,11.6,0,2.99861,0.00804027,0
0.3,11.7,0,3.00085,0.000838668,0
0.3,11.8,0,2.99921,0.00711107,0
0.3,11.9,0,2.99902,0.008588,0
0.3,12,0,3.00027,0.00540004,0
0.3,12.1,0,2.99897,0.0102751,0
0.3,12.2,0,2.99925,0.00971457,0
0.3,12.3,0,2.99992,0.00858286,0
0.3,12.4,0,2.9993,0.0116648,0
0.3,12.5,0,2.99944,0.010838,0
0.3,12.6,0,2.99969,0.0105795,0
0.3,12.7,0,2.99958,0.0131601,0
0.4,0,0,3.00024,-0.02473,0
0.4,0.1,0,2.99996,-0.0236011,0
0.4,0.2,0,2.99995,-0.023578,0
0.4,0.3,0,2.99996,-0.0236407,0
0.4,0.4,0,2.99992,-0.0235462,0
0.4,0.5,0,3.00021,-0.0238602,0
0.4,0.6,0,2.99991,-0.0234306,0
0.4,0.7,0,2.99985,-0.0233132,0
0.4,0.8,0,2.99986,-0.0232554,0
0.4,0.9,0,2.99978,-0.0231616,0
0.4,1,0,2.99991,-0.0233911,0
0.4,1.1,0,3.00005,-0.0228434,0
0.4,1.2,0,3,-0.0226502,0
0.4,1.3,0,2.99982,-0.0224474,0
0.4,1.4,0,2.99973,-0.0221252,0
0.4,1.5,0,2.99961,-0.0222456,0
0.4,1.6,0,2.99995,-0.0218413,0
0.4,1.7,0,2.9998,-0.021603,0
0.4,1.8,0,3.00008,-0.020877,0
0.4,1.9,0,3,-0.0205689,0
0.4,2,0,2.9991,-0.0210313,0
0.4,2.1,0,2.99978,-0.0203079,0
0.4,2.2,0,2.9997,-0.0199408,0
0.4,2.3,0,2.99972,-0.0191793,0
0.4,2.4,0,2.99969,-0.0187995,0
0.4,2.5,0,2.99886,-0.0193716,0
0.4,2.6,0,2.99912,-0.0181413,0
0.4,2.7,0,2.99908,-0.0176389,0
0.4,2.8,0,2.99908,-0.0171691,0
0.4,2.9,0,2.99901,-0.0167365,0
0.4,3,0,2.99861,-0.0172938,0
0.4,3.1,0,2.99896,-0.0156921,0
0.4,3.2,0,2.99893,-0.0152542,0
0.4,3.3,0,2.99937,-0.0149793,0
0.4,3.4,0,2.99934,-0.014607,0
0.4,3.5,0,2.9985,-0.0154932,0
0.4,3.6,0,3.00012,-0.0135449,0
0.4,3.7,0,3.00019,-0.0132193,0
0.4,3.8,0,3.00092,-0.0130144,0
0.4,3.9,0,3.00109,-0.012586,0
0.4,4,0,2.99904,-0.0138177,0
0.4,4.1,0,3.00212,-0.0118171,0
0.4,4.2,0,3.00234,-0.0113071,0
0.4,4.3,0,3.00253,-0.0114703,0
0.4,4.4,0,3.00287,-0.0107541,0
0.4,4.5,0,3.0003,-0.0110929,0
0.4,4.6,0,3.0022,-0.0100567,0
0.4,4.7,0,3.00258,-0.00904674,0
0.4,4.8,0,2.99994,-0.00999575,0
0.4,4.9,0,3.00024,-0.00912314,0
0.4,5,0,3.00183,-0.00690935,0
0.4,5.1,0,3.00228,-0.00593639,0
0.4,5.2,0,3.00249,-0.00544949,0
0.4,5.3,0,3.00265,-0.00492044,0
0.4,5.4,0,3.00276,-0.00436321,0
0.4,5.5,0,3.00279,-0.00378462,0
0.4,5.6,0,3.00275,-0.00319093,0
0.4,5.7,0,3.00267,-0.00258518,0
0.4,5.8,0,3.00259,-0.00196747,0
0.4,5.9,0,3.00256,-0.00133609,0
0.4,6,0,3.00261,-0.000689378,0
0.4,6.1,0,3.00278,-2.82222e-05,0
0.4,6.2,0,3.00303,0.000642711,0
0.4,6.3,0,3.00336,0.00131431,0
0.4,6.4,0,3.00374,0.00197411,0
0.4,6.5,0,3.00416,0.00260702,0
0.4,6.6,0,3.00463,0.00319533,0
0.4,6.7,0,3.00522,0.00371709,0
0.4,6.8,0,3.00591,0.00414618,0
0.4,6.9,0,3.0066,0.00443109,0
0.4,7,0,3.00693,0.00510373,0
0.4,7.1,0,3.03129,-0.00724059,0
0.4,7.2,0,3.03096,-0.00654944,0
0.4,7.3,0,3.02423,-0.000952738,0
0.4,7.4,0,3.04423,-0.00885883,0
0.4,7.5,0,3.04403,-0.00793629,0
0.4,7.6,0,3.04365,-0.00926339,0
0.4,7.7,0,3.04593,-0.00949144,0
0.4,7.8,0,3.0461,-0.00868068,0
0.4,7.9,0,3.04731,-0.011487,0
0.4,8,0,3.04638,-0.0105307,0
0.4,8.1,0,3.04545,-0.00957429,0
0.4,8.2,0,3.04779,-0.0116359,0
0.4,8.3,0,3.04524,-0.0104562,0
0.4,8.4,0,3.03326,-0.00387899,0
0.4,8.5,0,3.04175,-0.00984758,0
0.4,8.6,0,3.03902,-0.00880688,0
0.4,8.7,0,3.00504,0.010677,0
0.4,8.8,0,3.03122,-0.00687825,0
0.4,8.9,0,3.0299,-0.0063021,0
0.4,9,0,2.99232,0.0168671,0
0.4,9.1,0,3.02106,-0.0037931,0
0.4,9.2,0,3.02138,-0.00370571,0
0.4,9.3,0,3.00354,0.00704014,0
0.4,9.4,0,3.01377,-0.00118291,0
0.4,9.5,0,3.01495,-0.00129021,0
0.4,9.6,0,3.00782,0.00102448,0
0.4,9.7,0,3.00892,0.000901114,0
0.4,9.8,0,3.01002,0.000777745,0
0.4,9.9,0,3.00467,0.00287029,0
0.4,10,0,3.0052,0.00272508,0
0.4,10.1,0,3.00572,0.00257988,0
0.4,10.2,0,3.002,0.00467509,0
0.4,10.3,0,3.00208,0.00449742,0
0.4,10.4,0,2.99955,0.00995208,0
0.4,10.5,0,2.99978,0.00650226,0
0.4,10.6,0,2.99972,0.00630277,0
0.4,10.7,0,2.99566,0.0170282,0
0.4,10.8,0,2.9983,0.00837376,0
0.4,10.9,0,2.99831,0.00817085,0
0.4,11,0,2.99576,0.0159676,0
0.4,11.1,0,2.99765,0.0102255,0
0.4,11.2,0,2.99784,0.010045,0
0.4,11.3,0,2.99687,0.0133555,0
0.4,11.4,0,2.9975,0.0119161,0
0.4,11.5,0,2.99775,0.011728,0
0.4,11.6,0,2.99733,0.0135066,0
0.4,11.7,0,2.99761,0.0133118,0
0.4,11.8,0,2.9979,0.013117,0
0.4,11.9,0,2.99771,0.0146388,0
0.4,12,0,2.99808,0.0144841,0
0.4,12.1,0,2.99841,0.0144585,0
0.4,12.2,0,2.99834,0.0153899,0
0.4,12.3,0,2.99879,0.0152312,0
0.4,12.4,0,2.99902,0.0157477,0
0.4,12.5,0,2.99912,0.0157511,0
0.4,12.6,0,2.99935,0.0156484,0
0.4,12.7,0,2.99947,0.0164401,0
0.5,0,0,3.00031,-0.0306526,0
0.5,0.1,0,3.00074,-0.030639,0
0.5,0.2,0,3.00073,-0.0306159,0
0.5,0.3,0,3.0007,-0.0304494,0
0.5,0.4,0,3.00066,-0.0303549,0
0.5,0.5,0,3.00013,-0.0302788,0
0.5,0.6,0,3.00044,-0.030006,0
0.5,0.7,0,3.00038,-0.0298887,0
0.5,0.8,0,3.00027,-0.0297504,0
0.5,0.9,0,3.00019,-0.0296567,0
0.5,1,0,2.9997,-0.0296096,0
0.5,1.1,0,2.99963,-0.0294544,0
0.5,1.2,0,2.99959,-0.0292612,0
0.5,1.3,0,2.99972,-0.0289115,0
0.5,1.4,0,2.99963,-0.0285893,0
0.5,1.5,0,2.99928,-0.0281756,0
0.5,1.6,0,2.99885,-0.0276708,0
0.5,1.7,0,2.9987,-0.0274325,0
0.5,1.8,0,2.99819,-0.0277788,0
0.5,1.9,0,2.99811,-0.0274706,0
0.5,2,0,2.99867,-0.0266043,0
0.5,2.1,0,2.99806,-0.0262084,0
0.5,2.2,0,2.99798,-0.0258413,0
0.5,2.3,0,2.99779,-0.026003,0
0.5,2.4,0,2.99776,-0.0256232,0
0.5,2.5,0,2.99836,-0.0245379,0
0.5,2.6,0,2.99826,-0.0244311,0
0.5,2.7,0,2.99822,-0.0239286,0
0.5,2.8,0,2.99802,-0.0234423,0
0.5,2.9,0,2.99796,-0.0230097,0
0.5,3,0,2.99805,-0.021987,0
0.5,3.1,0,2.99788,-0.022376,0
0.5,3.2,0,2.99785,-0.0219381,0
0.5,3.3,0,2.99735,-0.0213004,0
0.5,3.4,0,2.99732,-0.020928,0
0.5,3.5,0,2.99793,-0.0196389,0
0.5,3.6,0,2.99663,-0.0207071,0
0.5,3.7,0,2.99671,-0.0203816,0
0.5,3.8,0,2.99626,-0.0198029,0
0.5,3.9,0,2.99643,-0.0193745,0
0.5,4,0,2.99862,-0.017291,0
0.5,4.1,0,2.99616,-0.0182843,0
0.5,4.2,0,2.99639,-0.0177744,0
0.5,4.3,0,2.99677,-0.0164365,0
0.5,4.4,0,2.99711,-0.0157202,0
0.5,4.5,0,3.00014,-0.0137218,0
0.5,4.6,0,2.99925,-0.0129624,0
0.5,4.7,0,2.99964,-0.0119525,0
0.5,4.8,0,3.00299,-0.00888424,0
0.5,4.9,0,3.0033,-0.00801164,0
0.5,5,0,3.00168,-0.00872154,0
0.5,5.1,0,3.0021,-0.00750602,0
0.5,5.2,0,3.00229,-0.00684708,0
0.5,5.3,0,3.00246,-0.0061494,0
0.5,5.4,0,3.00257,-0.00542463,0
0.5,5.5,0,3.00262,-0.00467941,0
0.5,5.6,0,3.0026,-0.00391965,0
0.5,5.7,0,3.00253,-0.00314781,0
0.5,5.8,0,3.00247,-0.00236332,0
0.5,5.9,0,3.00245,-0.00156392,0
0.5,6,0,3.00251,-0.000747667,0
0.5,6.1,0,3.00268,8.4425e-05,0
0.5,6.2,0,3.00295,0.000927167,0
0.5,6.3,0,3.0033,0.00177065,0
0.5,6.4,0,3.00371,0.00260146,0
0.5,6.5,0,3.00418,0.00340351,0
0.5,6.6,0,3.00473,0.00415793,0
0.5,6.7,0,3.00541,0.00484116,0
0.5,6.8,0,3.00623,0.00542473,0
0.5,6.9,0,3.00709,0.00585701,0
0.5,7,0,3.00777,0.00668511,0
0.5,7.1,0,2.98384,0.0199397,0
0.5,7.2,0,2.98351,0.0206309,0
0.5,7.3,0,2.98906,0.0167065,0
0.5,7.4,0,2.96874,0.0264236,0
0.5,7.5,0,2.96855,0.0273462,0
0.5,7.6,0,2.96909,0.0304674,0
0.5,7.7,0,2.96717,0.0323316,0
0.5,7.8,0,2.96734,0.0331423,0
0.5,7.9,0,2.96608,0.0375075,0
0.5,8,0,2.96515,0.0384638,0
0.5,8.1,0,2.96422,0.0394202,0
0.5,8.2,0,2.95783,0.043807,0
0.5,8.3,0,2.95528,0.0449867,0
0.5,8.4,0,2.96228,0.0405075,0
0.5,8.5,0,2.94769,0.0489731,0
0.5,8.6,0,2.94496,0.0500138,0
0.5,8.7,0,2.97516,0.0314571,0
0.5,8.8,0,2.94403,0.0515331,0
0.5,8.9,0,2.94271,0.0521092,0
0.5,9,0,2.98061,0.0284783,0
0.5,9.1,0,2.94989,0.0507724,0
0.5,9.2,0,2.95021,0.0508598,0
0.5,9.3,0,2.97023,0.0396214,0
0.5,9.4,0,2.96145,0.048139,0
0.5,9.5,0,2.96263,0.0480317,0
0.5,9.6,0,2.97234,0.0454583,0
0.5,9.7,0,2.97344,0.0453349,0
0.5,9.8,0,2.97454,0.0452116,0
0.5,9.9,0,2.98154,0.042887,0
0.5,10,0,2.98207,0.0427418,0
0.5,10.1,0,2.98259,0.0425966,0
0.5,10.2,0,2.98667,0.040139,0
0.5,10.3,0,2.98675,0.0399613,0
0.5,10.4,0,2.98945,0.0342455,0
0.5,10.5,0,2.98905,0.0372339,0
0.5,10.6,0,2.98898,0.0370345,0
0.5,10.7,0,2.993,0.0263664,0
0.5,10.8,0,2.99023,0.0341243,0
0.5,10.9,0,2.99025,0.0339214,0
0.5,11,0,2.99301,0.0263002,0
0.5,11.1,0,2.99137,0.0311226,0
0.5,11.2,0,2.99156,0.0309421,0
0.5,11.3,0,2.99302,0.0274831,0
0.5,11.4,0,2.99289,0.0283305,0
0.5,11.5,0,2.99315,0.0281424,0
0.5,11.6,0,2.99408,0.0259813,0
0.5,11.7,0,2.99436,0.0257865,0
0.5,11.8,0,2.99464,0.0255917,0
0.5,11.9,0,2.99548,0.0236958,0
0.5,12,0,2.99585,0.0235411,0
0.5,12.1,0,2.99627,0.0233351,0
0.5,12.2,0,2.99721,0.022068,0
0.5,12.3,0,2.99766,0.0219093,0
0.5,12.4,0,2.99834,0.0218559,0
0.5,12.5,0,2.99893,0.0207549,0
0.5,12.6,0,2.99916,0.0206522,0
0.5,12.7,0,2.99936,0.0216458,0
0.6,0,0,3.00023,-0.0376843,0
0.6,0.1,0,3.00152,-0.0376897,0
0.6,0.2,0,3.00097,-0.0376176,0
0.6,0.3,0,3.00092,-0.037365,0
0.6,0.4,0,3.00141,-0.0371904,0
0.6,0.5,0,2.99991,-0.0371508,0
0.6,0.6,0,3.00096,-0.0365674,0
0.6,0.7,0,3.0004,-0.0365686,0
0.6,0.8,0,3.00025,-0.0364042,0
0.6,0.9,0,3.00063,-0.0361527,0
0.6,1,0,2.99931,-0.036199,0
0.6,1.1,0,2.99919,-0.0361197,0
0.6,1.2,0,2.99912,-0.0357832,0
0.6,1.3,0,2.99941,-0.03536,0
0.6,1.4,0,2.99958,-0.0350707,0
0.6,1.5,0,2.99872,-0.0344741,0
0.6,1.6,0,2.99773,-0.0334363,0
0.6,1.7,0,2.99789,-0.0333951,0
0.6,1.8,0,2.99707,-0.0342369,0
0.6,1.9,0,2.9962,-0.0344752,0
0.6,2,0,2.99804,-0.0324925,0
0.6,2.1,0,2.99636,-0.0320388,0
0.6,2.2,0,2.99691,-0.0315929,0
0.6,2.3,0,2.9966,-0.0321827,0
0.6,2.4,0,2.99578,-0.032524,0
0.6,2.5,0,2.99765,-0.0300275,0
0.6,2.6,0,2.99745,-0.0307119,0
0.6,2.7,0,2.99745,-0.0296262,0
0.6,2.8,0,2.99714,-0.0291249,0
0.6,2.9,0,2.99686,-0.0292529,0
0.6,3,0,2.99728,-0.0270499,0
0.6,3.1,0,2.99681,-0.0290928,0
0.6,3.2,0,2.99695,-0.0274937,0
0.6,3.3,0,2.99606,-0.02667,0
0.6,3.4,0,2.99529,-0.0271797,0
0.6,3.5,0,2.99716,-0.0240571,0
0.6,3.6,0,2.9931,-0.0279127,0
0.6,3.7,0,2.99487,-0.0256488,0
0.6,3.8,0,2.99397,-0.0249089,0
0.6,3.9,0,2.99177,-0.0261768,0
0.6,4,0,2.99802,-0.0207831,0
0.6,4.1,0,2.99017,-0.0247831,0
0.6,4.2,0,2.99371,-0.0221451,0
0.6,4.3,0,2.99417,-0.0202274,0
0.6,4.4,0,2.99132,-0.0207694,0
0.6,4.5,0,2.99975,-0.0162066,0
0.6,4.6,0,2.99632,-0.0159484,0
0.6,4.7,0,2.99816,-0.0144285,0
0.6,4.8,0,3.00393,-0.00965874,0
0.6,4.9,0,3.00639,-0.00674365,0
0.6,5,0,3.00095,-0.0106186,0
0.6,5.1,0,3.00117,-0.00916119,0
0.6,5.2,0,3.00129,-0.00827989,0
0.6,5.3,0,3.00141,-0.00737719,0
0.6,5.4,0,3.00151,-0.00645666,0
0.6,5.5,0,3.00158,-0.00552283,0
0.6,5.6,0,3.00161,-0.00457936,0
0.6,5.7,0,3.0016,-0.00362678,0
0.6,5.8,0,3.00158,-0.00266317,0
0.6,5.9,0,3.00159,-0.00168557,0
0.6,6,0,3.00165,-0.0006919,0
0.6,6.1,0,3.00179,0.000316775,0
0.6,6.2,0,3.00202,0.0013354,0
0.6,6.3,0,3.00234,0.00235474,0
0.6,6.4,0,3.00272,0.00336264,0
0.6,6.5,0,3.00319,0.00434473,0
0.6,6.6,0,3.00375,0.00528428,0
0.6,6.7,0,3.00448,0.00616002,0
0.6,6.8,0,3.0054,0.00694529,0
0.6,6.9,0,3.00643,0.00760107,0
0.6,7,0,3.00771,0.00857193,0
0.6,7.1,0,2.9366,0.0469535,0
0.6,7.2,0,2.94384,0.0436766,0
0.6,7.3,0,2.98976,0.0185896,0
0.6,7.4,0,2.89297,0.0617261,0
0.6,7.5,0,2.92298,0.0494409,0
0.6,7.6,0,2.96985,0.0323102,0
0.6,7.7,0,2.88847,0.0742053,0
0.6,7.8,0,2.93849,0.0497559,0
0.6,7.9,0,2.94928,0.049275,0
0.6,8,0,2.88455,0.0873153,0
0.6,8.1,0,2.95383,0.0474705,0
0.6,8.2,0,2.91789,0.0696436,0
0.6,8.3,0,2.8657,0.100431,0
0.6,8.4,0,2.96331,0.0421931,0
0.6,8.5,0,2.88348,0.0898102,0
0.6,8.6,0,2.85064,0.108921,0
0.6,8.7,0,2.97706,0.0330795,0
0.6,8.8,0,2.86331,0.105652,0
0.6,8.9,0,2.8549,0.110728,0
0.6,9,0,2.98275,0.0304047,0
0.6,9.1,0,2.87829,0.10544,0
0.6,9.2,0,2.89594,0.093177,0
0.6,9.3,0,2.9718,0.0421438,0
0.6,9.4,0,2.90901,0.0974825,0
0.6,9.5,0,2.93528,0.0755326,0
0.6,9.6,0,2.971,0.0508576,0
0.6,9.7,0,2.93812,0.0897574,0
0.6,9.8,0,2.96403,0.0609302,0
0.6,9.9,0,2.97462,0.0573375,0
0.6,10,0,2.95913,0.0827837,0
0.6,10.1,0,2.98053,0.0492274,0
0.6,10.2,0,2.97822,0.0610634,0
0.6,10.3,0,2.97151,0.0754206,0
0.6,10.4,0,2.9884,0.0396408,0
0.6,10.5,0,2.98062,0.061979,0
0.6,10.6,0,2.97826,0.0677846,0
0.6,10.7,0,2.99198,0.0322535,0
0.6,10.8,0,2.98211,0.0598585,0
0.6,10.9,0,2.98269,0.0581194,0
0.6,11,0,2.99203,0.0325755,0
0.6,11.1,0,2.98504,0.0520218,0
0.6,11.2,0,2.98693,0.0473195,0
0.6,11.3,0,2.99209,0.0340634,0
0.6,11.4,0,2.98829,0.0447475,0
0.6,11.5,0,2.99066,0.0392678,0
0.6,11.6,0,2.99298,0.0335645,0
0.6,11.7,0,2.99109,0.0382629,0
0.6,11.8,0,2.99347,0.0337581,0
0.6,11.9,0,2.99426,0.0314544,0
0.6,12,0,2.99358,0.032571,0
0.6,12.1,0,2.9958,0.0304128,0
0.6,12.2,0,2.99633,0.0289217,0
0.6,12.3,0,2.99651,0.028617,0
0.6,12.4,0,2.99809,0.0289637,0
0.6,12.5,0,2.99885,0.0260361,0
0.6,12.6,0,2.99912,0.0255909,0
0.6,12.7,0,2.99925,0.0287772,0
0.7,0,0,3.00014,-0.044716,0
0.7,0.1,0,3.0017,-0.0447271,0
0.7,0.2,0,3.00084,-0.0445865,0
0.7,0.3,0,3.00079,-0.044334,0
0.7,0.4,0,3.00149,-0.0440515,0
0.7,0.5,0,2.99969,-0.0440229,0
0.7,0.6,0,3.00097,-0.0433463,0
0.7,0.7,0,3.00008,-0.0433275,0
0.7,0.8,0,2.99993,-0.0431631,0
0.7,0.9,0,3.00048,-0.042714,0
0.7,1,0,2.99891,-0.0427884,0
0.7,1.1,0,2.99877,-0.0427319,0
0.7,1.2,0,2.99865,-0.0422098,0
0.7,1.3,0,2.99894,-0.0417866,0
0.7,1.4,0,2.99917,-0.0414241,0
0.7,1.5,0,2.99816,-0.0407725,0
0.7,1.6,0,2.997,-0.0395749,0
0.7,1.7,0,2.99729,-0.039489,0
0.7,1.8,0,2.99647,-0.0403309,0
0.7,1.9,0,2.99519,-0.0406983,0
0.7,2,0,2.99741,-0.0383807,0
0.7,2.1,0,2.99541,-0.0379097,0
0.7,2.2,0,2.99624,-0.037292,0
0.7,2.3,0,2.99593,-0.0378818,0
0.7,2.4,0,2.99469,-0.038437,0
0.7,2.5,0,2.99695,-0.0355172,0
0.7,2.6,0,2.99671,-0.0364389,0
0.7,2.7,0,2.9967,-0.0349351,0
0.7,2.8,0,2.99639,-0.0344337,0
0.7,2.9,0,2.996,-0.0346699,0
0.7,3,0,2.99652,-0.0321128,0
0.7,3.1,0,2.99595,-0.0346519,0
0.7,3.2,0,2.99617,-0.0322753,0
0.7,3.3,0,2.99527,-0.0314516,0
0.7,3.4,0,2.99414,-0.032148,0
0.7,3.5,0,2.99639,-0.0284753,0
0.7,3.6,0,2.9915,-0.0331671,0
0.7,3.7,0,2.99415,-0.0296239,0
0.7,3.8,0,2.99326,-0.0288839,0
0.7,3.9,0,2.98994,-0.0306619,0
0.7,4,0,2.99741,-0.0242751,0
0.7,4.1,0,2.98795,-0.0291772,0
0.7,4.2,0,2.99323,-0.0250972,0
0.7,4.3,0,2.99369,-0.0231795,0
0.7,4.4,0,2.9893,-0.0240235,0
0.7,4.5,0,2.99935,-0.0186914,0
0.7,4.6,0,2.99516,-0.0185835,0
0.7,4.7,0,2.99766,-0.0165647,0
0.7,4.8,0,3.00343,-0.0117949,0
0.7,4.9,0,3.00681,-0.00769118,0
0.7,5,0,3.00021,-0.0125156,0
0.7,5.1,0,3.00024,-0.0108164,0
0.7,5.2,0,3.00028,-0.0097127,0
0.7,5.3,0,3.00036,-0.008605,0
0.7,5.4,0,3.00045,-0.00748868,0
0.7,5.5,0,3.00054,-0.00636626,0
0.7,5.6,0,3.00061,-0.00523906,0
0.7,5.7,0,3.00066,-0.00410574,0
0.7,5.8,0,3.00069,-0.00296302,0
0.7,5.9,0,3.00073,-0.00180722,0
0.7,6,0,3.00079,-0.000636133,0
0.7,6.1,0,3.00091,0.000549125,0
0.7,6.2,0,3.0011,0.00174363,0
0.7,6.3,0,3.00137,0.00293884,0
0.7,6.4,0,3.00173,0.00412382,0
0.7,6.5,0,3.00219,0.00528594,0
0.7,6.6,0,3.00278,0.00641063,0
0.7,6.7,0,3.00356,0.00747888,0
0.7,6.8,0,3.00456,0.00846585,0
0.7,6.9,0,3.00576,0.00934514,0
0.7,7,0,3.00765,0.0104588,0
0.7,7.1,0,2.93282,0.050824,0
0.7,7.2,0,2.94454,0.0455597,0
0.7,7.3,0,2.99046,0.0204727,0
0.7,7.4,0,2.86951,0.0741627,0
0.7,7.5,0,2.92375,0.0512837,0
0.7,7.6,0,2.97062,0.034153,0
0.7,7.7,0,2.84947,0.0960655,0
0.7,7.8,0,2.93871,0.0516344,0
0.7,7.9,0,2.9495,0.0511535,0
0.7,8,0,2.84437,0.112677,0
0.7,8.1,0,2.95407,0.0493389,0
0.7,8.2,0,2.91813,0.0715119,0
0.7,8.3,0,2.82381,0.127581,0
0.7,8.4,0,2.96435,0.0438787,0
0.7,8.5,0,2.88451,0.0914958,0
0.7,8.6,0,2.82975,0.124111,0
0.7,8.7,0,2.97895,0.0347019,0
0.7,8.8,0,2.8652,0.107275,0
0.7,8.9,0,2.85703,0.112655,0
0.7,9,0,2.98488,0.0323311,0
0.7,9.1,0,2.86878,0.115694,0
0.7,9.2,0,2.89752,0.0956994,0
0.7,9.3,0,2.97338,0.0446663,0
0.7,9.4,0,2.88926,0.118487,0
0.7,9.5,0,2.93583,0.078764,0
0.7,9.6,0,2.97155,0.054089,0
0.7,9.7,0,2.92062,0.113689,0
0.7,9.8,0,2.96364,0.0649546,0
0.7,9.9,0,2.97422,0.061362,0
0.7,10,0,2.94728,0.105093,0
0.7,10.1,0,2.97963,0.054002,0
0.7,10.2,0,2.97733,0.065838,0
0.7,10.3,0,2.96486,0.0926832,0
0.7,10.4,0,2.98735,0.045036,0
0.7,10.5,0,2.97957,0.0673742,0
0.7,10.6,0,2.9757,0.0775975,0
0.7,10.7,0,2.99095,0.0381407,0
0.7,10.8,0,2.98109,0.0657457,0
0.7,10.9,0,2.98171,0.0643946,0
0.7,11,0,2.99105,0.0388507,0
0.7,11.1,0,2.98279,0.0617606,0
0.7,11.2,0,2.98601,0.0538998,0
0.7,11.3,0,2.99117,0.0406436,0
0.7,11.4,0,2.98563,0.0559872,0
0.7,11.5,0,2.98989,0.0461096,0
0.7,11.6,0,2.9922,0.0404063,0
0.7,11.7,0,2.9891,0.0479589,0
0.7,11.8,0,2.99287,0.0407751,0
0.7,11.9,0,2.99365,0.0384714,0
0.7,12,0,2.9922,0.0406216,0
0.7,12.1,0,2.99533,0.0374905,0
0.7,12.2,0,2.99586,0.0359994,0
0.7,12.3,0,2.99597,0.0355984,0
0.7,12.4,0,2.99784,0.0360715,0
0.7,12.5,0,2.9986,0.0331439,0
0.7,12.6,0,2.99902,0.0325492,0
0.7,12.7,0,2.99915,0.0359086,0
0.8,0,0,3.00006,-0.0517476,0
0.8,0.1,0,3.00089,-0.0516934,0
0.8,0.2,0,3.00071,-0.0515555,0
0.8,0.3,0,3.00066,-0.051303,0
0.8,0.4,0,3.00056,-0.0510303,0
0.8,0.5,0,2.99947,-0.0508949,0
0.8,0.6,0,3.00007,-0.0503763,0
0.8,0.7,0,2.99975,-0.0500863,0
0.8,0.8,0,2.9996,-0.0499219,0
0.8,0.9,0,2.99948,-0.0495137,0
0.8,1,0,2.99851,-0.0493777,0
0.8,1.1,0,2.99836,-0.0491302,0
0.8,1.2,0,2.99818,-0.0486363,0
0.8,1.3,0,2.99847,-0.0482131,0
0.8,1.4,0,2.99827,-0.0476787,0