/*--------------------------------*- C++ -*----------------------------------*\
| =========                 |                                                 |
| \\      /  F ield         | OpenFOAM: The Open Source CFD Toolbox           |
|  \\    /   O peration     | Version:  v1806                                 |
|   \\  /    A nd           | Web:      www.OpenFOAM.com                      |
|    \\/     M anipulation  |                                                 |
\*---------------------------------------------------------------------------*/
FoamFile
{
    version     2.0;
    format      ascii;
    class       volVectorField;
    location    "40";
    object      U;
}
// * * * * * * * * * * * * * * * * * * * * * * * * * * * * * * * * * * * * * //

dimensions      [0 1 -1 0 0 0 0];


internalField   nonuniform List<vector> 
2400
(
(0.3 -0.00114545 0)
(0.299995 -0.00350044 0)
(0.299985 -0.00591626 0)
(0.299968 -0.0084108 0)
(0.299942 -0.0110382 0)
(0.299903 -0.0138047 0)
(0.299852 -0.0166559 0)
(0.299789 -0.0196089 0)
(0.299708 -0.0228115 0)
(0.299595 -0.0263353 0)
(0.299446 -0.0300269 0)
(0.299259 -0.0337435 0)
(0.299041 -0.037634 0)
(0.298753 -0.0421843 0)
(0.29835 -0.0473938 0)
(0.297801 -0.0529088 0)
(0.297067 -0.0583051 0)
(0.296171 -0.0636644 0)
(0.294998 -0.0704526 0)
(0.293299 -0.0789816 0)
(0.3 -0.00114144 0)
(0.299987 -0.00348741 0)
(0.299961 -0.0058941 0)
(0.299921 -0.00837816 0)
(0.299865 -0.0109908 0)
(0.299787 -0.01374 0)
(0.299688 -0.0165755 0)
(0.29957 -0.0195113 0)
(0.299428 -0.0226834 0)
(0.299241 -0.02616 0)
(0.299002 -0.029801 0)
(0.298706 -0.0334718 0)
(0.298363 -0.0373045 0)
(0.297938 -0.0417332 0)
(0.297363 -0.0467568 0)
(0.296595 -0.05203 0)
(0.295569 -0.0571718 0)
(0.294324 -0.0622475 0)
(0.292744 -0.0685475 0)
(0.29073 -0.0762576 0)
(0.299999 -0.00113336 0)
(0.299979 -0.00346172 0)
(0.299936 -0.00585047 0)
(0.299871 -0.00831507 0)
(0.29978 -0.010904 0)
(0.299658 -0.0136269 0)
(0.299506 -0.0164373 0)
(0.299325 -0.019346 0)
(0.29911 -0.0224782 0)
(0.29884 -0.0258996 0)
(0.298506 -0.02948 0)
(0.298104 -0.0330897 0)
(0.29764 -0.0368468 0)
(0.297079 -0.0411493 0)
(0.296353 -0.0459902 0)
(0.295411 -0.0510324 0)
(0.294204 -0.0559194 0)
(0.292757 -0.0607028 0)
(0.290987 -0.0665916 0)
(0.28871 -0.0736909 0)
(0.299999 -0.00112116 0)
(0.29997 -0.00342316 0)
(0.299911 -0.00578498 0)
(0.299819 -0.00822125 0)
(0.299693 -0.0107776 0)
(0.299526 -0.0134649 0)
(0.299319 -0.0162411 0)
(0.299075 -0.0191145 0)
(0.298788 -0.0221992 0)
(0.298439 -0.0255562 0)
(0.298016 -0.0290653 0)
(0.297516 -0.0326044 0)
(0.296944 -0.0362793 0)
(0.296269 -0.0404483 0)
(0.295422 -0.0450924 0)
(0.294355 -0.0498887 0)
(0.293017 -0.0545084 0)
(0.291433 -0.0590195 0)
(0.289519 -0.0644915 0)
(0.287091 -0.0710407 0)
(0.299999 -0.00110469 0)
(0.299961 -0.00337142 0)
(0.299884 -0.00569711 0)
(0.299765 -0.00809585 0)
(0.299602 -0.0106105 0)
(0.29939 -0.0132533 0)
(0.299128 -0.0159862 0)
(0.298819 -0.0188157 0)
(0.298461 -0.0218452 0)
(0.298035 -0.0251313 0)
(0.29753 -0.0285626 0)
(0.296942 -0.0320246 0)
(0.296279 -0.0356104 0)
(0.29551 -0.0396409 0)
(0.294569 -0.044087 0)
(0.293414 -0.0486401 0)
(0.291995 -0.0530038 0)
(0.290341 -0.0572237 0)
(0.288358 -0.0622894 0)
(0.285899 -0.0682249 0)
(0.299998 -0.00108368 0)
(0.299952 -0.00330576 0)
(0.299856 -0.00558567 0)
(0.299708 -0.00793733 0)
(0.299506 -0.0104011 0)
(0.299246 -0.0129903 0)
(0.298927 -0.0156713 0)
(0.298554 -0.018449 0)
(0.298124 -0.0214174 0)
(0.297622 -0.024628 0)
(0.297037 -0.0279778 0)
(0.29637 -0.0313603 0)
(0.295626 -0.0348568 0)
(0.294782 -0.0387525 0)
(0.293774 -0.0430072 0)
(0.292565 -0.0473302 0)
(0.291112 -0.0514437 0)
(0.289437 -0.0553956 0)
(0.287464 -0.0600572 0)
(0.285023 -0.0654434 0)
(0.299998 -0.00105775 0)
(0.299941 -0.00322507 0)
(0.299825 -0.00544892 0)
(0.299645 -0.00774341 0)
(0.299402 -0.0101468 0)
(0.29909 -0.0126733 0)
(0.298712 -0.0152937 0)
(0.29827 -0.0180126 0)
(0.297766 -0.0209148 0)
(0.297186 -0.0240475 0)
(0.296524 -0.0273153 0)
(0.29578 -0.0306204 0)
(0.294965 -0.0340327 0)
(0.29406 -0.0378031 0)
(0.293006 -0.0418828 0)
(0.291775 -0.0459948 0)
(0.290325 -0.0498859 0)
(0.288686 -0.0535884 0)
(0.286772 -0.0578785 0)
(0.284429 -0.0627411 0)
(0.299998 -0.00102639 0)
(0.29993 -0.00312793 0)
(0.29979 -0.00528457 0)
(0.299577 -0.00751104 0)
(0.299288 -0.00984365 0)
(0.298921 -0.0122981 0)
(0.298476 -0.014849 0)
(0.297961 -0.0175021 0)
(0.297377 -0.0203338 0)
(0.296715 -0.0233874 0)
(0.295971 -0.0265751 0)
(0.295151 -0.0298087 0)
(0.294268 -0.0331469 0)
(0.293311 -0.0368098 0)
(0.292228 -0.0407376 0)
(0.291 -0.0446706 0)
(0.289591 -0.0483701 0)
(0.28803 -0.0518618 0)
(0.286242 -0.0558143 0)
(0.284068 -0.0601896 0)
(0.299997 -0.000988998 0)
(0.299917 -0.00301259 0)
(0.299752 -0.00508976 0)
(0.299501 -0.00723631 0)
(0.299161 -0.00948681 0)
(0.298732 -0.0118586 0)
(0.298215 -0.0143305 0)
(0.297618 -0.0169106 0)
(0.296945 -0.019667 0)
(0.296192 -0.0226414 0)
(0.295358 -0.0257523 0)
(0.294454 -0.0289237 0)
(0.293501 -0.0322029 0)
(0.292494 -0.0357825 0)
(0.291393 -0.0395909 0)
(0.290187 -0.0433851 0)
(0.28885 -0.0469392 0)
(0.287416 -0.0502677 0)
(0.285812 -0.0539305 0)
(0.28388 -0.0578682 0)
(0.299997 -0.000944886 0)
(0.299902 -0.002877 0)
(0.29971 -0.0048611 0)
(0.299416 -0.00691446 0)
(0.29902 -0.00906999 0)
(0.298521 -0.0113473 0)
(0.297922 -0.0137292 0)
(0.297232 -0.0162278 0)
(0.296459 -0.0189031 0)
(0.2956 -0.0217981 0)
(0.294662 -0.0248357 0)
(0.293661 -0.0279571 0)
(0.292625 -0.0311953 0)
(0.291563 -0.0347238 0)
(0.290444 -0.0384526 0)
(0.289272 -0.0421632 0)
(0.288033 -0.0456307 0)
(0.286769 -0.0488633 0)
(0.285413 -0.0523018 0)
(0.28381 -0.0558597 0)
(0.299996 -0.000893285 0)
(0.299886 -0.00271892 0)
(0.299662 -0.00459477 0)
(0.299321 -0.00654006 0)
(0.298862 -0.00858584 0)
(0.298285 -0.010755 0)
(0.297592 -0.0130335 0)
(0.296796 -0.0154403 0)
(0.295905 -0.0180259 0)
(0.294923 -0.02084 0)
(0.293858 -0.023806 0)
(0.292738 -0.026892 0)
(0.291599 -0.0301083 0)
(0.29046 -0.0336261 0)
(0.289313 -0.0373227 0)
(0.288175 -0.0410225 0)
(0.287054 -0.0444795 0)
(0.286002 -0.047708 0)
(0.284965 -0.051007 0)
(0.283788 -0.0542642 0)
(0.299995 -0.000833405 0)
(0.299868 -0.00253595 0)
(0.29961 -0.00428669 0)
(0.299217 -0.00610715 0)
(0.298687 -0.00802618 0)
(0.298021 -0.0100711 0)
(0.297222 -0.0122296 0)
(0.296304 -0.0145313 0)
(0.295274 -0.0170142 0)
(0.294143 -0.0197434 0)
(0.292923 -0.0226344 0)
(0.291651 -0.0257006 0)
(0.290373 -0.028911 0)
(0.289124 -0.0324691 0)
(0.28792 -0.0361832 0)
(0.286796 -0.0399714 0)
(0.285802 -0.0435103 0)
(0.284997 -0.0468675 0)
(0.28436 -0.0501429 0)
(0.283729 -0.0532101 0)
(0.299994 -0.000764485 0)
(0.299849 -0.00232578 0)
(0.299552 -0.00393285 0)
(0.299102 -0.00560971 0)
(0.298494 -0.00738249 0)
(0.297731 -0.00928397 0)
(0.296812 -0.0113021 0)
(0.295754 -0.0134812 0)
(0.294561 -0.0158421 0)
(0.293252 -0.0184776 0)
(0.291836 -0.0212813 0)
(0.290367 -0.0243425 0)
(0.288897 -0.0275524 0)
(0.287482 -0.0312151 0)
(0.286169 -0.0349883 0)
(0.285012 -0.0390063 0)
(0.284137 -0.0427261 0)
(0.283593 -0.0464181 0)
(0.283452 -0.0498216 0)
(0.283518 -0.0528739 0)
(0.299993 -0.000685878 0)
(0.299828 -0.00208632 0)
(0.299491 -0.00352966 0)
(0.29898 -0.00504209 0)
(0.298287 -0.00664664 0)
(0.297418 -0.00838205 0)
(0.296364 -0.0102351 0)
(0.295148 -0.0122682 0)
(0.293764 -0.0144802 0)
(0.292243 -0.0170053 0)
(0.290583 -0.0196964 0)
(0.288862 -0.0227619 0)
(0.287124 -0.0259555 0)
(0.285463 -0.0298017 0)
(0.283951 -0.0336492 0)
(0.282674 -0.0381087 0)
(0.281873 -0.0420795 0)
(0.28156 -0.0464542 0)
(0.282038 -0.0501514 0)
(0.28298 -0.0535055 0)
(0.299993 -0.000597136 0)
(0.299807 -0.00181603 0)
(0.299427 -0.00307445 0)
(0.298852 -0.00439969 0)
(0.29807 -0.00581192 0)
(0.297086 -0.0073547 0)
(0.295886 -0.00901371 0)
(0.294495 -0.0108701 0)
(0.292895 -0.0128977 0)
(0.291125 -0.0152829 0)
(0.289167 -0.0178208 0)
(0.287123 -0.0208846 0)
(0.285016 -0.0240175 0)
(0.282999 -0.0281292 0)
(0.281139 -0.0320146 0)
(0.27961 -0.0372327 0)
(0.278763 -0.0414294 0)
(0.278577 -0.0471264 0)
(0.279824 -0.0511635 0)
(0.281795 -0.0554495 0)
(0.299992 -0.000498105 0)
(0.299785 -0.0015142 0)
(0.299363 -0.00256598 0)
(0.298722 -0.00367976 0)
(0.29785 -0.00487418 0)
(0.296745 -0.00619376 0)
(0.295394 -0.00762648 0)
(0.293811 -0.00926571 0)
(0.291976 -0.0110667 0)
(0.289917 -0.0132622 0)
(0.287611 -0.0155935 0)
(0.28516 -0.0186143 0)
(0.282569 -0.021617 0)
(0.280041 -0.0260394 0)
(0.277605 -0.029865 0)
(0.27563 -0.0362424 0)
(0.274448 -0.0404764 0)
(0.274264 -0.0487073 0)
(0.276361 -0.0527387 0)
(0.279381 -0.0594617 0)
(0.299991 -0.000389018 0)
(0.299763 -0.00118125 0)
(0.299302 -0.00200495 0)
(0.298595 -0.0028823 0)
(0.297636 -0.00383299 0)
(0.296408 -0.00489552 0)
(0.29491 -0.00606776 0)
(0.293119 -0.00743944 0)
(0.291049 -0.00896682 0)
(0.288653 -0.0108958 0)
(0.28598 -0.0129595 0)
(0.283 -0.0158313 0)
(0.279851 -0.0186308 0)
(0.276555 -0.0232808 0)
(0.273313 -0.0269584 0)
(0.270499 -0.0347643 0)
(0.268425 -0.0387484 0)
(0.268089 -0.0513097 0)
(0.270644 -0.0543998 0)
(0.275148 -0.0680309 0)
(0.299991 -0.000270583 0)
(0.299743 -0.000819078 0)
(0.299247 -0.00139437 0)
(0.298477 -0.00201099 0)
(0.297441 -0.0026927 0)
(0.296091 -0.00346306 0)
(0.294461 -0.00433993 0)
(0.292452 -0.00538625 0)
(0.290172 -0.00658954 0)
(0.287386 -0.00814866 0)
(0.284382 -0.00987767 0)
(0.280701 -0.0124108 0)
(0.277038 -0.0149435 0)
(0.272509 -0.0194995 0)
(0.268485 -0.0230755 0)
(0.263838 -0.0320142 0)
(0.260546 -0.0358941 0)
(0.258884 -0.0539647 0)
(0.259977 -0.0544651 0)
(0.268696 -0.0841211 0)
(0.299991 -0.000144106 0)
(0.299726 -0.000431198 0)
(0.299201 -0.000740004 0)
(0.298374 -0.001074 0)
(0.297277 -0.00146368 0)
(0.295813 -0.00190842 0)
(0.294078 -0.00245606 0)
(0.291854 -0.00311826 0)
(0.289409 -0.00394411 0)
(0.286203 -0.00501721 0)
(0.28295 -0.00632903 0)
(0.278401 -0.00827217 0)
(0.2744 -0.0104403 0)
(0.267986 -0.0143383 0)
(0.263646 -0.0179163 0)
(0.255038 -0.0268353 0)
(0.252001 -0.0318529 0)
(0.244255 -0.0543203 0)
(0.243839 -0.0527339 0)
(0.255502 -0.10504 0)
(0.299992 -1.26113e-05 0)
(0.299713 -2.19992e-05 0)
(0.299168 -5.02673e-05 0)
(0.298295 -8.24853e-05 0)
(0.297154 -0.000162649 0)
(0.295596 -0.000249582 0)
(0.293786 -0.000442589 0)
(0.291379 -0.000660454 0)
(0.288813 -0.00106766 0)
(0.285234 -0.00152878 0)
(0.281794 -0.00234948 0)
(0.276411 -0.00341911 0)
(0.272134 -0.00504399 0)
(0.263614 -0.00761265 0)
(0.259098 -0.010852 0)
(0.244488 -0.0183074 0)
(0.243564 -0.0250069 0)
(0.219539 -0.0515739 0)
(0.240486 -0.0615696 0)
(0.239302 -0.185076 0)
(0.291643 -0.0849355 0)
(0.290871 -0.0876267 0)
(0.290087 -0.0903429 0)
(0.289254 -0.0930675 0)
(0.288346 -0.0957883 0)
(0.287356 -0.0984961 0)
(0.286285 -0.101187 0)
(0.285133 -0.103854 0)
(0.283905 -0.106528 0)
(0.282568 -0.109103 0)
(0.289061 -0.0813863 0)
(0.288243 -0.0836727 0)
(0.287319 -0.0859601 0)
(0.286305 -0.088238 0)
(0.285209 -0.0904933 0)
(0.28403 -0.0927154 0)
(0.282763 -0.0948989 0)
(0.2814 -0.0970395 0)
(0.279943 -0.0991607 0)
(0.278339 -0.101191 0)
(0.286725 -0.0784847 0)
(0.285774 -0.0806334 0)
(0.284765 -0.0827801 0)
(0.283695 -0.0849079 0)
(0.282557 -0.0870051 0)
(0.28135 -0.0890634 0)
(0.280072 -0.091079 0)
(0.27872 -0.0930487 0)
(0.277306 -0.0949926 0)
(0.275775 -0.0968531 0)
(0.285124 -0.075308 0)
(0.284193 -0.0771972 0)
(0.283197 -0.0790676 0)
(0.282134 -0.0809082 0)
(0.281004 -0.0827092 0)
(0.279805 -0.0844628 0)
(0.278535 -0.0861656 0)
(0.277189 -0.0878157 0)
(0.275774 -0.0894314 0)
(0.27424 -0.0909673 0)
(0.283908 -0.0720552 0)
(0.28296 -0.0737489 0)
(0.281948 -0.0754217 0)
(0.280874 -0.0770617 0)
(0.279738 -0.0786591 0)
(0.27854 -0.0802065 0)
(0.27728 -0.0817009 0)
(0.275952 -0.0831402 0)
(0.27457 -0.0845401 0)
(0.273079 -0.085865 0)
(0.283073 -0.0688526 0)
(0.282151 -0.0703496 0)
(0.281169 -0.071817 0)
(0.280131 -0.0732441 0)
(0.279035 -0.0746222 0)
(0.277881 -0.0759453 0)
(0.276668 -0.0772108 0)
(0.275392 -0.0784177 0)
(0.274062 -0.0795801 0)
(0.272625 -0.0806713 0)
(0.282572 -0.065751 0)
(0.281693 -0.0670639 0)
(0.280755 -0.0683421 0)
(0.279762 -0.0695764 0)
(0.278715 -0.0707588 0)
(0.277612 -0.071884 0)
(0.276453 -0.0729498 0)
(0.275235 -0.0739554 0)
(0.273968 -0.0749128 0)
(0.272598 -0.0758036 0)
(0.282351 -0.0628249 0)
(0.281535 -0.0639643 0)
(0.280663 -0.065063 0)
(0.279739 -0.0661127 0)
(0.278763 -0.0671064 0)
(0.277735 -0.0680393 0)
(0.276654 -0.0689095 0)
(0.275515 -0.0697169 0)
(0.274329 -0.0704718 0)
(0.273041 -0.0711631 0)
(0.282357 -0.0601532 0)
(0.28163 -0.0611291 0)
(0.280848 -0.0620574 0)
(0.280014 -0.0629313 0)
(0.279131 -0.0637446 0)
(0.278198 -0.0644934 0)
(0.277212 -0.0651762 0)
(0.27617 -0.0657932 0)
(0.275082 -0.0663531 0)
(0.273891 -0.0668524 0)
(0.282547 -0.0578199 0)
(0.281937 -0.0586417 0)
(0.281271 -0.0594079 0)
(0.280555 -0.0601124 0)
(0.279791 -0.0607503 0)
(0.278978 -0.0613182 0)
(0.278113 -0.0618152 0)
(0.277191 -0.0622419 0)
(0.276224 -0.0626055 0)
(0.275149 -0.0629105 0)
(0.282865 -0.0559304 0)
(0.282407 -0.0566092 0)
(0.281894 -0.0572211 0)
(0.28133 -0.0577615 0)
(0.280719 -0.0582264 0)
(0.280059 -0.0586134 0)
(0.279347 -0.0589224 0)
(0.278575 -0.0591548 0)
(0.277756 -0.0593159 0)
(0.276823 -0.0594194 0)
(0.283252 -0.0546209 0)
(0.282997 -0.0551692 0)
(0.282684 -0.0556346 0)
(0.282319 -0.056014 0)
(0.281907 -0.0563048 0)
(0.281445 -0.0565057 0)
(0.280926 -0.0566177 0)
(0.280344 -0.0566436 0)
(0.27971 -0.0565872 0)
(0.27895 -0.0564729 0)
(0.283637 -0.0540811 0)
(0.283653 -0.0545134 0)
(0.283609 -0.0548389 0)
(0.283511 -0.0550568 0)
(0.283363 -0.0551667 0)
(0.283159 -0.0551692 0)
(0.282892 -0.0550666 0)
(0.282552 -0.0548638 0)
(0.282152 -0.0545633 0)
(0.281605 -0.0542033 0)
(0.283932 -0.0545909 0)
(0.284328 -0.0549228 0)
(0.284656 -0.0551056 0)
(0.28492 -0.0551464 0)
(0.285125 -0.0550508 0)
(0.285264 -0.0548233 0)
(0.285328 -0.054469 0)
(0.285301 -0.0539963 0)
(0.285199 -0.0534061 0)
(0.284917 -0.0527559 0)
(0.284022 -0.0565776 0)
(0.285011 -0.0568426 0)
(0.285897 -0.0568799 0)
(0.286673 -0.0567123 0)
(0.287357 -0.0563572 0)
(0.287947 -0.0558274 0)
(0.288433 -0.055135 0)
(0.288795 -0.0542973 0)
(0.289048 -0.0533175 0)
(0.289084 -0.0522806 0)
(0.283713 -0.0607357 0)
(0.285689 -0.0609043 0)
(0.287475 -0.060752 0)
(0.289038 -0.0603358 0)
(0.29042 -0.0596746 0)
(0.291626 -0.0587777 0)
(0.292638 -0.057661 0)
(0.293431 -0.0563527 0)
(0.294011 -0.0548587 0)
(0.294298 -0.0533103 0)
(0.283548 -0.068824 0)
(0.287005 -0.0682705 0)
(0.289812 -0.0672005 0)
(0.292143 -0.0658289 0)
(0.294169 -0.0641955 0)
(0.295897 -0.0623031 0)
(0.297262 -0.0601754 0)
(0.298227 -0.0578555 0)
(0.29877 -0.0553727 0)
(0.298997 -0.0528279 0)
(0.286607 -0.0855589 0)
(0.292551 -0.0845701 0)
(0.295771 -0.082624 0)
(0.297479 -0.0799622 0)
(0.298494 -0.0766666 0)
(0.298945 -0.072853 0)
(0.298747 -0.0686729 0)
(0.297892 -0.064266 0)
(0.296405 -0.0597645 0)
(0.294547 -0.0551726 0)
(0.279144 -0.089056 0)
(0.284089 -0.0814658 0)
(0.284327 -0.0752451 0)
(0.282572 -0.069571 0)
(0.279783 -0.0638472 0)
(0.275936 -0.0580069 0)
(0.271031 -0.0521262 0)
(0.26527 -0.0462532 0)
(0.258921 -0.0404323 0)
(0.252219 -0.0345116 0)
(0.247665 -0.136109 0)
(0.221502 -0.114567 0)
(0.190652 -0.0955219 0)
(0.167197 -0.0784193 0)
(0.149083 -0.0628714 0)
(0.133648 -0.048964 0)
(0.120364 -0.0368098 0)
(0.109317 -0.0264138 0)
(0.100182 -0.0178314 0)
(0.0926233 -0.0116436 0)
(0.276223 -0.123467 0)
(0.25062 -0.163057 0)
(0.213486 -0.189668 0)
(0.171242 -0.195532 0)
(0.129912 -0.185745 0)
(0.0938539 -0.166918 0)
(0.0653494 -0.144023 0)
(0.0445877 -0.120586 0)
(0.030321 -0.0988619 0)
(0.0208232 -0.0799457 0)
(0.0145591 -0.0640825 0)
(0.0104052 -0.0510457 0)
(0.00761337 -0.0404206 0)
(0.00570682 -0.0317625 0)
(0.00438648 -0.0246642 0)
(0.00346484 -0.018775 0)
(0.0028245 -0.0137986 0)
(0.00239067 -0.00948406 0)
(0.00212442 -0.0056662 0)
(0.00197791 -0.00251015 0)
(0.270628 -0.112207 0)
(0.246913 -0.143663 0)
(0.214019 -0.164708 0)
(0.176878 -0.16921 0)
(0.139905 -0.161573 0)
(0.106214 -0.147011 0)
(0.0778307 -0.129058 0)
(0.0556074 -0.11011 0)
(0.0392508 -0.0918669 0)
(0.0277154 -0.0753808 0)
(0.0197586 -0.0611139 0)
(0.0143043 -0.0490981 0)
(0.0105513 -0.0391236 0)
(0.00794692 -0.0308848 0)
(0.00612399 -0.0240629 0)
(0.00484281 -0.0183613 0)
(0.00394914 -0.0135175 0)
(0.00334227 -0.00930227 0)
(0.00297156 -0.00556319 0)
(0.00276436 -0.00247035 0)
(0.268821 -0.106658 0)
(0.246492 -0.136759 0)
(0.214533 -0.157217 0)
(0.178256 -0.161251 0)
(0.142523 -0.153224 0)
(0.110468 -0.138648 0)
(0.0836084 -0.12129 0)
(0.0621961 -0.10349 0)
(0.0457885 -0.0866394 0)
(0.0336111 -0.0714755 0)
(0.0247701 -0.0582902 0)
(0.0184256 -0.0470862 0)
(0.0138889 -0.037695 0)
(0.0106409 -0.0298686 0)
(0.00831108 -0.0233389 0)
(0.0066427 -0.0178479 0)
(0.00546324 -0.0131605 0)
(0.00465536 -0.00906747 0)
(0.00416158 -0.00542914 0)
(0.00388317 -0.00241603 0)
(0.267085 -0.0990189 0)
(0.245817 -0.123959 0)
(0.216149 -0.140591 0)
(0.182484 -0.143706 0)
(0.148664 -0.137174 0)
(0.117396 -0.125303 0)
(0.0905347 -0.110819 0)
(0.068775 -0.095521 0)
(0.0518385 -0.0806845 0)
(0.0389968 -0.0670883 0)
(0.0294227 -0.0550917 0)
(0.0223552 -0.0447673 0)
(0.0171632 -0.036016 0)
(0.0133555 -0.0286525 0)
(0.010568 -0.0224591 0)
(0.00853868 -0.0172164 0)
(0.00708634 -0.0127179 0)
(0.00608325 -0.00877515 0)
(0.00546844 -0.00526236 0)
(0.00511952 -0.00234709 0)
(0.266262 -0.0925839 0)
(0.246156 -0.115081 0)
(0.217484 -0.130228 0)
(0.184841 -0.132548 0)
(0.15232 -0.125826 0)
(0.122286 -0.114557 0)
(0.096128 -0.101411 0)
(0.0744698 -0.0878058 0)
(0.0572251 -0.0746345 0)
(0.0438617 -0.0624733 0)
(0.0336823 -0.051628 0)
(0.0260072 -0.0421899 0)
(0.0202542 -0.0341063 0)
(0.0159574 -0.0272413 0)
(0.0127616 -0.0214212 0)
(0.0104047 -0.0164619 0)
(0.00870091 -0.012184 0)
(0.00751569 -0.0084205 0)
(0.00678628 -0.0050593 0)
(0.00636933 -0.00226208 0)
(0.266064 -0.0860929 0)
(0.246969 -0.104891 0)
(0.219648 -0.117322 0)
(0.188247 -0.118877 0)
(0.156581 -0.112903 0)
(0.127061 -0.103139 0)
(0.101154 -0.091768 0)
(0.0794862 -0.0799486 0)
(0.0619914 -0.0684131 0)
(0.0482131 -0.0576504 0)
(0.0375384 -0.0479415 0)
(0.0293537 -0.0393961 0)
(0.0231202 -0.0320001 0)
(0.0183967 -0.0256606 0)
(0.0148389 -0.020243 0)
(0.0121871 -0.015596 0)
(0.0102544 -0.0115663 0)
(0.00890134 -0.00800769 0)
(0.00806458 -0.00482158 0)
(0.00758221 -0.00216142 0)
(0.26639 -0.0800236 0)
(0.248266 -0.0959776 0)
(0.221784 -0.106386 0)
(0.191117 -0.107006 0)
(0.160152 -0.101091 0)
(0.131155 -0.0922226 0)
(0.105505 -0.0822794 0)
(0.0838475 -0.0720707 0)
(0.0661663 -0.0620779 0)
(0.0520645 -0.0526642 0)
(0.0409912 -0.0440721 0)
(0.0323846 -0.0364201 0)
(0.0257437 -0.0297254 0)
(0.0206511 -0.0239321 0)
(0.0167749 -0.0189409 0)
(0.0138603 -0.0146306 0)
(0.0117209 -0.010873 0)
(0.0102147 -0.00754167 0)
(0.00927814 -0.00455146 0)
(0.00873328 -0.00204584 0)
(0.267249 -0.074238 0)
(0.250112 -0.0869598 0)
(0.224416 -0.0949697 0)
(0.194214 -0.094705 0)
(0.163544 -0.089104 0)
(0.134766 -0.0812918 0)
(0.10924 -0.0727976 0)
(0.087583 -0.0641557 0)
(0.0697707 -0.0556535 0)
(0.0554283 -0.0475505 0)
(0.0440441 -0.0400551 0)
(0.0350962 -0.033293 0)
(0.0281161 -0.0273075 0)
(0.0227088 -0.0220756 0)
(0.0185561 -0.0175298 0)
(0.0154099 -0.0135767 0)
(0.0130862 -0.0101114 0)
(0.0114414 -0.00702705 0)
(0.0104132 -0.00425109 0)
(0.00980926 -0.00191607 0)
(0.268587 -0.0688026 0)
(0.252374 -0.0784631 0)
(0.227227 -0.084121 0)
(0.197209 -0.0828122 0)
(0.166597 -0.0773241 0)
(0.137863 -0.0704456 0)
(0.112374 -0.0633394 0)
(0.0907133 -0.05622 0)
(0.0728216 -0.0491674 0)
(0.0583156 -0.0423422 0)
(0.0467021 -0.0359231 0)
(0.0374881 -0.0300434 0)
(0.0302328 -0.0247702 0)
(0.0245627 -0.0201101 0)
(0.020174 -0.0160241 0)
(0.0168266 -0.0124446 0)
(0.0143407 -0.00928892 0)
(0.0125723 -0.00646842 0)
(0.0114609 -0.00392276 0)
(0.0108021 -0.00177294 0)
(0.270436 -0.0637305 0)
(0.255163 -0.0701225 0)
(0.230368 -0.0732073 0)
(0.200196 -0.070801 0)
(0.169328 -0.0654656 0)
(0.14044 -0.0595694 0)
(0.114905 -0.0538745 0)
(0.0932472 -0.0482719 0)
(0.0753312 -0.0426454 0)
(0.0607366 -0.0370706 0)
(0.0489712 -0.0317069 0)
(0.039562 -0.0266986 0)
(0.0320919 -0.0221362 0)
(0.0262084 -0.0180534 0)
(0.0216227 -0.0144377 0)
(0.0181039 -0.011245 0)
(0.0154776 -0.008413 0)
(0.0136006 -0.00587055 0)
(0.0124151 -0.00356903 0)
(0.011706 -0.00161742 0)
(0.272826 -0.0590564 0)
(0.258461 -0.0620489 0)
(0.233768 -0.0623563 0)
(0.203092 -0.0587194 0)
(0.171675 -0.0535048 0)
(0.142456 -0.0486307 0)
(0.116818 -0.0443945 0)
(0.0951851 -0.0403262 0)
(0.0773079 -0.0361141 0)
(0.0627007 -0.0317661 0)
(0.0508583 -0.0274356 0)
(0.0413211 -0.0232841 0)
(0.0336934 -0.0194268 0)
(0.0276434 -0.0159229 0)
(0.022898 -0.0127841 0)
(0.0192368 -0.00998784 0)
(0.0164915 -0.00749094 0)
(0.0145211 -0.00523832 0)
(0.0132709 -0.00319264 0)
(0.0125167 -0.00145065 0)
(0.275846 -0.0548208 0)
(0.262356 -0.0541213 0)
(0.237435 -0.0513356 0)
(0.205821 -0.0463665 0)
(0.173541 -0.0413195 0)
(0.143842 -0.0375792 0)
(0.118078 -0.0348953 0)
(0.0965186 -0.032403 0)
(0.0787568 -0.0296031 0)
(0.0642172 -0.0264594 0)
(0.0523714 -0.0231373 0)
(0.0427702 -0.0198244 0)
(0.035039 -0.0166624 0)
(0.0288668 -0.0137351 0)
(0.0239974 -0.0110763 0)
(0.0202216 -0.00868321 0)
(0.0173783 -0.00653003 0)
(0.0153295 -0.00457664 0)
(0.0140242 -0.00279651 0)
(0.0132306 -0.00127382 0)
(0.279619 -0.0510751 0)
(0.266873 -0.046287 0)
(0.241266 -0.0400145 0)
(0.208206 -0.033622 0)
(0.174762 -0.0288318 0)
(0.144485 -0.0263909 0)
(0.118628 -0.0253905 0)
(0.0972318 -0.0245326 0)
(0.0796817 -0.0231461 0)
(0.0652959 -0.0211817 0)
(0.0535199 -0.0188392 0)
(0.0439157 -0.0163424 0)
(0.0361318 -0.013862 0)
(0.0298792 -0.0115055 0)
(0.0249195 -0.00932678 0)
(0.0210557 -0.00734065 0)
(0.018135 -0.00553739 0)
(0.0160226 -0.00389043 0)
(0.0146718 -0.00238368 0)
(0.0138448 -0.00108826 0)
(0.284312 -0.0478514 0)
(0.271946 -0.0383887 0)
(0.245001 -0.0281468 0)
(0.209912 -0.0203186 0)
(0.175064 -0.0159668 0)
(0.144214 -0.0150645 0)
(0.118392 -0.0159158 0)
(0.0973031 -0.0167596 0)
(0.0800867 -0.0167829 0)
(0.0659486 -0.0159658 0)
(0.0543149 -0.014568 0)
(0.0447658 -0.0128599 0)
(0.0369764 -0.0110436 0)
(0.0306823 -0.00924869 0)
(0.025664 -0.00754719 0)
(0.0217377 -0.0059694 0)
(0.0187592 -0.00451998 0)
(0.0165976 -0.00318457 0)
(0.0152112 -0.00195727 0)
(0.0143569 -0.000895281 0)
(0.289951 -0.0451532 0)
(0.277075 -0.0302644 0)
(0.247957 -0.0154742 0)
(0.210302 -0.00632123 0)
(0.174007 -0.00270187 0)
(0.142785 -0.00364452 0)
(0.117269 -0.00653782 0)
(0.096709 -0.00914469 0)
(0.079979 -0.0105601 0)
(0.0661902 -0.010846 0)
(0.0547704 -0.0103494 0)
(0.0453304 -0.00939718 0)
(0.0375789 -0.0082236 0)
(0.0312791 -0.0069783 0)
(0.0262319 -0.00574865 0)
(0.0222669 -0.00457823 0)
(0.0192495 -0.00348452 0)
(0.0170528 -0.00246388 0)
(0.0156407 -0.00152048 0)
(0.0147653 -0.000696255 0)
(0.29564 -0.0429149 0)
(0.280499 -0.0216771 0)
(0.248549 -0.0018479 0)
(0.208191 0.00834462 0)
(0.170893 0.0108592 0)
(0.139861 0.00770929 0)
(0.115137 0.0026135 0)
(0.0954288 -0.00176788 0)
(0.0793724 -0.004529 0)
(0.0660407 -0.00585591 0)
(0.0549031 -0.00620728 0)
(0.0456212 -0.00597265 0)
(0.0379466 -0.00541712 0)
(0.0316736 -0.00470684 0)
(0.0266247 -0.00394149 0)
(0.0226436 -0.00317547 0)
(0.0196053 -0.0024375 0)
(0.0173871 -0.00173302 0)
(0.0159589 -0.00107654 0)
(0.0150687 -0.000492514 0)
(0.297472 -0.0387025 0)
(0.277311 -0.0109614 0)
(0.243321 0.0133195 0)
(0.201504 0.0236352 0)
(0.164689 0.0244693 0)
(0.135018 0.0187234 0)
(0.111894 0.0113354 0)
(0.0934645 0.00523746 0)
(0.0782915 0.00124305 0)
(0.0655258 -0.00102818 0)
(0.0547328 -0.00216096 0)
(0.0456517 -0.00260201 0)
(0.0380879 -0.00263733 0)
(0.0318707 -0.00244555 0)
(0.026845 -0.00213523 0)
(0.0228688 -0.00176894 0)
(0.0198267 -0.0013851 0)
(0.0175999 -0.000996527 0)
(0.0161654 -0.000628617 0)
(0.0152664 -0.00028538 0)
(0.281067 -0.0348575 0)
(0.255483 -0.00101561 0)
(0.22482 0.0278601 0)
(0.186427 0.0381352 0)
(0.153859 0.0372383 0)
(0.127778 0.0288567 0)
(0.107462 0.0193311 0)
(0.0908529 0.0117238 0)
(0.0767914 0.00668425 0)
(0.0646843 0.00359578 0)
(0.0542827 0.00176344 0)
(0.0454359 0.000698795 0)
(0.0380118 0.000103592 0)
(0.0318757 -0.000204723 0)
(0.0268959 -0.000338663 0)
(0.0229439 -0.000365941 0)
(0.0199144 -0.00033319 0)
(0.0176912 -0.000258715 0)
(0.0162599 -0.000179923 0)
(0.0153582 -7.61365e-05 0)
(0.221236 -0.0171208 0)
(0.199585 0.0118435 0)
(0.185869 0.0408257 0)
(0.159899 0.0502395 0)
(0.137523 0.0478754 0)
(0.118075 0.037315 0)
(0.101974 0.0262241 0)
(0.0877089 0.0175497 0)
(0.0749426 0.0117408 0)
(0.0635601 0.00799211 0)
(0.0535826 0.00555237 0)
(0.0449925 0.00391899 0)
(0.0377288 0.00279577 0)
(0.0316949 0.00200648 0)
(0.026781 0.00143994 0)
(0.022871 0.00102653 0)
(0.0198695 0.00071229 0)
(0.0176615 0.000476487 0)
(0.016243 0.000265359 0)
(0.0153444 0.000134657 0)
(0.0837157 -0.00370935 0)
(0.105511 0.0124341 0)
(0.126426 0.0441486 0)
(0.122909 0.0554569 0)
(0.116823 0.0540575 0)
(0.106732 0.0430588 0)
(0.0958866 0.0316512 0)
(0.0842548 0.0225997 0)
(0.072855 0.0163897 0)
(0.0622083 0.0121639 0)
(0.0526602 0.00920999 0)
(0.0443366 0.00705636 0)
(0.0372482 0.00543417 0)
(0.0313339 0.00418189 0)
(0.0265041 0.00319426 0)
(0.0226527 0.00240278 0)
(0.019694 0.00174634 0)
(0.0175117 0.00120558 0)
(0.0161159 0.000703378 0)
(0.0152258 0.000348657 0)
(0.0380704 -0.0151493 0)
(0.0586959 0.00331143 0)
(0.0934544 0.0389129 0)
(0.101314 0.0540329 0)
(0.1046 0.0547417 0)
(0.0999393 0.0448871 0)
(0.0921623 0.0341355 0)
(0.0820464 0.0253438 0)
(0.0714432 0.0191144 0)
(0.0612285 0.0146984 0)
(0.051941 0.0114706 0)
(0.043787 0.00901349 0)
(0.0368171 0.00708888 0)
(0.0309891 0.00555079 0)
(0.0262239 0.00430086 0)
(0.0224202 0.00327168 0)
(0.0194983 0.00240111 0)
(0.0173388 0.00166452 0)
(0.0159648 0.000987066 0)
(0.0150824 0.000474335 0)
(0.0218954 -0.0198592 0)
(0.0402718 5.06947e-05 0)
(0.0797749 0.0362157 0)
(0.092223 0.0530198 0)
(0.0994144 0.0546637 0)
(0.0970396 0.0454868 0)
(0.0905551 0.0351136 0)
(0.0810788 0.0265012 0)
(0.0708129 0.020291 0)
(0.0607826 0.0158052 0)
(0.0516075 0.0124628 0)
(0.0435279 0.00987469 0)
(0.0366109 0.00781804 0)
(0.0308222 0.00615453 0)
(0.0260869 0.00478926 0)
(0.0223056 0.00365517 0)
(0.019401 0.00269054 0)
(0.0172527 0.00186658 0)
(0.0158887 0.00111407 0)
(0.0150104 0.0005272 0)
(0.0095935 -0.0226266 0)
(0.024276 -0.00324916 0)
(0.067258 0.0330964 0)
(0.0837679 0.0516008 0)
(0.0945396 0.0542365 0)
(0.094291 0.0458872 0)
(0.0890088 0.0359793 0)
(0.0801313 0.0276024 0)
(0.0701824 0.0214371 0)
(0.0603272 0.0168946 0)
(0.0512607 0.0134438 0)
(0.0432542 0.0107282 0)
(0.0363904 0.00854156 0)
(0.0306418 0.00675401 0)
(0.0259375 0.00527443 0)
(0.0221797 0.00403617 0)
(0.0192934 0.00297825 0)
(0.0171573 0.00206716 0)
(0.0158035 0.00124069 0)
(0.0149301 0.000579082 0)
(0.000668717 -0.0237956 0)
(0.0107082 -0.00654572 0)
(0.0560502 0.0295776 0)
(0.0760575 0.0497712 0)
(0.0900343 0.0534983 0)
(0.0917202 0.0461048 0)
(0.087535 0.0367462 0)
(0.0792088 0.0286531 0)
(0.0695538 0.0225561 0)
(0.0598635 0.0179682 0)
(0.0509009 0.0144146 0)
(0.0429662 0.0115746 0)
(0.0361556 0.00925975 0)
(0.030448 0.00734939 0)
(0.0257757 0.00575643 0)
(0.0220427 0.00441474 0)
(0.0191756 0.00326415 0)
(0.0170528 0.00226647 0)
(0.0157095 0.0013663 0)
(0.0148416 0.00063083 0)
(-0.00535079 -0.0238409 0)
(-0.000415208 -0.00966281 0)
(0.0462492 0.0257556 0)
(0.0691742 0.047583 0)
(0.0859454 0.0524848 0)
(0.0893489 0.0461581 0)
(0.0861432 0.0374242 0)
(0.0783155 0.0296577 0)
(0.0689288 0.02365 0)
(0.0593923 0.0190269 0)
(0.0505288 0.0153756 0)
(0.0426641 0.0124139 0)
(0.0359067 0.00997258 0)
(0.0302408 0.00794058 0)
(0.0256016 0.00623514 0)
(0.0218945 0.00479075 0)
(0.0190476 0.00354813 0)
(0.0169392 0.00246441 0)
(0.0156066 0.00149089 0)
(0.014745 0.000682351 0)
(-0.00881344 -0.0230668 0)
(-0.00905307 -0.0125269 0)
(0.0379204 0.0217306 0)
(0.0631753 0.0451006 0)
(0.0823071 0.0512327 0)
(0.0871939 0.046067 0)
(0.0848415 0.0380227 0)
(0.0774552 0.0306206 0)
(0.0683094 0.0247209 0)
(0.0589143 0.0200717 0)
(0.0501445 0.0163272 0)
(0.0423481 0.0132462 0)
(0.0356438 0.01068 0)
(0.0300204 0.00852744 0)
(0.0254154 0.00671042 0)
(0.0217353 0.00516408 0)
(0.0189095 0.00383008 0)
(0.0168164 0.00266089 0)
(0.0154949 0.00161447 0)
(0.0146402 0.000733505 0)
(-0.00990903 -0.02173 0)
(-0.0151315 -0.015096 0)
(0.0311107 0.0175955 0)
(0.0580969 0.0423851 0)
(0.0791421 0.0497805 0)
(0.0852676 0.0458529 0)
(0.0836362 0.0385524 0)
(0.076631 0.0315469 0)
(0.0676968 0.025771 0)
(0.0584302 0.0211036 0)
(0.0497484 0.0172697 0)
(0.0420184 0.0140717 0)
(0.0353671 0.0113819 0)
(0.0297869 0.00910987 0)
(0.025217 0.00718214 0)
(0.0215652 0.0055346 0)
(0.0187613 0.00410989 0)
(0.0166847 0.00285582 0)
(0.0153745 0.00173701 0)
(0.0145273 0.000784226 0)
(-0.00866068 -0.020102 0)
(-0.0185344 -0.0173158 0)
(0.0258602 0.0134465 0)
(0.0539586 0.0394973 0)
(0.0764637 0.0481682 0)
(0.0835783 0.0455381 0)
(0.082532 0.0390242 0)
(0.0758453 0.0324419 0)
(0.0670923 0.0268028 0)
(0.0579407 0.0221236 0)
(0.0493409 0.0182036 0)
(0.0416752 0.0148903 0)
(0.0350766 0.0120783 0)
(0.0295403 0.00968776 0)
(0.0250067 0.00765017 0)
(0.0213841 0.00590218 0)
(0.0186032 0.00438746 0)
(0.0165439 0.00304911 0)
(0.0152455 0.00185849 0)
(0.0144064 0.000834417 0)
(-0.00493652 -0.0185293 0)
(-0.0191019 -0.019137 0)
(0.0222152 0.00938912 0)
(0.0507692 0.036501 0)
(0.0742777 0.0464368 0)
(0.0821306 0.0451454 0)
(0.0815321 0.03945 0)
(0.0751001 0.033311 0)
(0.0664967 0.027819 0)
(0.0574461 0.0231329 0)
(0.0489222 0.0191293 0)
(0.0413186 0.0157024 0)
(0.0347725 0.0127691 0)
(0.0292808 0.010261 0)
(0.0247844 0.0081144 0)
(0.0211922 0.00626673 0)
(0.0184351 0.00466268 0)
(0.0163943 0.00324066 0)
(0.0151078 0.00197889 0)
(0.0142775 0.000884005 0)
(0.00152894 -0.0174959 0)
(-0.016629 -0.0205685 0)
(0.020241 0.00552573 0)
(0.048534 0.0334536 0)
(0.0725847 0.0446297 0)
(0.0809266 0.0446946 0)
(0.0806381 0.0398417 0)
(0.0743965 0.0341594 0)
(0.0659108 0.0288221 0)
(0.0569468 0.0241328 0)
(0.0484925 0.0200476 0)
(0.0409487 0.0165081 0)
(0.034455 0.0134545 0)
(0.0290084 0.0108297 0)
(0.0245502 0.00857475 0)
(0.0209896 0.00662817 0)
(0.0182572 0.00493541 0)
(0.0162358 0.00343059 0)
(0.0149615 0.00209779 0)