x,y,z,p
0,0,0,0.0111419
0,0.1,0,0.0244792
0,0.2,0,0.0378165
0,0.3,0,0.0534254
0,0.4,0,0.0713061
0,0.5,0,0.0891867
0,0.6,0,0.107258
0,0.7,0,0.125329
0,0.8,0,0.143481
0,0.9,0,0.161714
0,1,0,0.179946
0,1.1,0,0.198361
0,1.2,0,0.216777
0,1.3,0,0.235289
0,1.4,0,0.253897
0,1.5,0,0.272505
0,1.6,0,0.29131
0,1.7,0,0.310115
0,1.8,0,0.329006
0,1.9,0,0.347983
0,2,0,0.366959
0,2.1,0,0.386018
0,2.2,0,0.405076
0,2.3,0,0.424098
0,2.4,0,0.443084
0,2.5,0,0.46207
0,2.6,0,0.48083
0,2.7,0,0.49959
0,2.8,0,0.518192
0,2.9,0,0.536636
0,3,0,0.55508
0,3.1,0,0.573159
0,3.2,0,0.591237
0,3.3,0,0.608986
0,3.4,0,0.626406
0,3.5,0,0.643825
0,3.6,0,0.660284
0,3.7,0,0.676743
0,3.8,0,0.692903
0,3.9,0,0.708764
0,4,0,0.724626
0,4.1,0,0.740419
0,4.2,0,0.756212
0,4.3,0,0.771597
0,4.4,0,0.786574
0,4.5,0,0.801551
0,4.6,0,0.813619
0,4.7,0,0.825687
0,4.8,0,0.835471
0,4.9,0,0.842969
0,5,0,0.850467
0,5.1,0,0.859873
0,5.2,0,0.86594
0,5.3,0,0.870832
0,5.4,0,0.874447
0,5.5,0,0.876635
0,5.6,0,0.877314
0,5.7,0,0.876468
0,5.8,0,0.874223
0,5.9,0,0.870911
0,6,0,0.865128
0,6.1,0,0.859857
0,6.2,0,0.854587
0,6.3,0,0.849317
0,6.4,0,0.840683
0,6.5,0,0.830238
0,6.6,0,0.819793
0,6.7,0,0.808254
0,6.8,0,0.794164
0,6.9,0,0.780073
0,7,0,0.765983
0,7.1,0,0.751316
0,7.2,0,0.736619
0,7.3,0,0.721921
0,7.4,0,0.708214
0,7.5,0,0.695168
0,7.6,0,0.682121
0,7.7,0,0.669273
0,7.8,0,0.657023
0,7.9,0,0.644773
0,8,0,0.632523
0,8.1,0,0.61995
0,8.2,0,0.607341
0,8.3,0,0.594732
0,8.4,0,0.581829
0,8.5,0,0.568685
0,8.6,0,0.55554
0,8.7,0,0.542245
0,8.8,0,0.528344
0,8.9,0,0.514442
0,9,0,0.500541
0,9.1,0,0.48608
0,9.2,0,0.47152
0,9.3,0,0.45696
0,9.4,0,0.44227
0,9.5,0,0.42745
0,9.6,0,0.41263
0,9.7,0,0.397832
0,9.8,0,0.383156
0,9.9,0,0.36848
0,10,0,0.353804
0,10.1,0,0.339413
0,10.2,0,0.325093
0,10.3,0,0.310773
0,10.4,0,0.296643
0,10.5,0,0.282746
0,10.6,0,0.268848
0,10.7,0,0.254993
0,10.8,0,0.241519
0,10.9,0,0.228046
0,11,0,0.214572
0,11.1,0,0.201384
0,11.2,0,0.188292
0,11.3,0,0.1752
0,11.4,0,0.162234
0,11.5,0,0.149459
0,11.6,0,0.136684
0,11.7,0,0.123922
0,11.8,0,0.111392
0,11.9,0,0.0988622
0,12,0,0.0863326
0,12.1,0,0.0739181
0,12.2,0,0.0615528
0,12.3,0,0.0491876
0,12.4,0,0.0379116
0,12.5,0,0.0286585
0,12.6,0,0.0194053
0,12.7,0,0.0101521
0.1,0,0,0.00668514
0.1,0.1,0,0.0200554
0.1,0.2,0,0.0356962
0.1,0.3,0,0.0534573
0.1,0.4,0,0.0711865
0.1,0.5,0,0.0895179
0.1,0.6,0,0.107187
0.1,0.7,0,0.125503
0.1,0.8,0,0.143645
0.1,0.9,0,0.161624
0.1,1,0,0.180439
0.1,1.1,0,0.198268
0.1,1.2,0,0.217013
0.1,1.3,0,0.235521
0.1,1.4,0,0.253797
0.1,1.5,0,0.273142
0.1,1.6,0,0.291212
0.1,1.7,0,0.310423
0.1,1.8,0,0.329326
0.1,1.9,0,0.347909
0.1,2,0,0.367771
0.1,2.1,0,0.38601
0.1,2.2,0,0.405556
0.1,2.3,0,0.424623
0.1,2.4,0,0.443164
0.1,2.5,0,0.463314
0.1,2.6,0,0.480976
0.1,2.7,0,0.500494
0.1,2.8,0,0.519108
0.1,2.9,0,0.536806
0.1,3,0,0.557234
0.1,3.1,0,0.573354
0.1,3.2,0,0.592605
0.1,3.3,0,0.610488
0.1,3.4,0,0.626869
0.1,3.5,0,0.646512
0.1,3.6,0,0.660782
0.1,3.7,0,0.678146
0.1,3.8,0,0.694107
0.1,3.9,0,0.708864
0.1,4,0,0.725497
0.1,4.1,0,0.740388
0.1,4.2,0,0.755225
0.1,4.3,0,0.771049
0.1,4.4,0,0.787421
0.1,4.5,0,0.796244
0.1,4.6,0,0.81568
0.1,4.7,0,0.823018
0.1,4.8,0,0.833026
0.1,4.9,0,0.845478
0.1,5,0,0.842459
0.1,5.1,0,0.851562
0.1,5.2,0,0.857222
0.1,5.3,0,0.861643
0.1,5.4,0,0.86474
0.1,5.5,0,0.866408
0.1,5.6,0,0.866597
0.1,5.7,0,0.865315
0.1,5.8,0,0.862697
0.1,5.9,0,0.859091
0.1,6,0,0.85302
0.1,6.1,0,0.859602
0.1,6.2,0,0.858362
0.1,6.3,0,0.842992
0.1,6.4,0,0.837121
0.1,6.5,0,0.833398
0.1,6.6,0,0.819346
0.1,6.7,0,0.805231
0.1,6.8,0,0.795706
0.1,6.9,0,0.781842
0.1,7,0,0.767903
0.1,7.1,0,0.75123
0.1,7.2,0,0.735706
0.1,7.3,0,0.726669
0.1,7.4,0,0.711585
0.1,7.5,0,0.693868
0.1,7.6,0,0.68538
0.1,7.7,0,0.676681
0.1,7.8,0,0.657848
0.1,7.9,0,0.646353
0.1,8,0,0.639721
0.1,8.1,0,0.622665
0.1,8.2,0,0.60759
0.1,8.3,0,0.598191
0.1,8.4,0,0.585018
0.1,8.5,0,0.569154
0.1,8.6,0,0.556805
0.1,8.7,0,0.544405
0.1,8.8,0,0.529087
0.1,8.9,0,0.51502
0.1,9,0,0.501291
0.1,9.1,0,0.486578
0.1,9.2,0,0.471858
0.1,9.3,0,0.457107
0.1,9.4,0,0.442295
0.1,9.5,0,0.427461
0.1,9.6,0,0.412566
0.1,9.7,0,0.397636
0.1,9.8,0,0.382954
0.1,9.9,0,0.368274
0.1,10,0,0.353582
0.1,10.1,0,0.339159
0.1,10.2,0,0.324819
0.1,10.3,0,0.310542
0.1,10.4,0,0.296411
0.1,10.5,0,0.282453
0.1,10.6,0,0.268596
0.1,10.7,0,0.254816
0.1,10.8,0,0.241263
0.1,10.9,0,0.227779
0.1,11,0,0.214406
0.1,11.1,0,0.20119
0.1,11.2,0,0.188056
0.1,11.3,0,0.17503
0.1,11.4,0,0.162097
0.1,11.5,0,0.14927
0.1,11.6,0,0.136524
0.1,11.7,0,0.12383
0.1,11.8,0,0.111263
0.1,11.9,0,0.0987246
0.1,12,0,0.0862523
0.1,12.1,0,0.0738459
0.1,12.2,0,0.0614724
0.1,12.3,0,0.0491315
0.1,12.4,0,0.0368189
0.1,12.5,0,0.0245688
0.1,12.6,0,0.0153229
0.1,12.7,0,0.00609128
0.2,0,0,0.00222838
0.2,0.1,0,0.0179022
0.2,0.2,0,0.0358796
0.2,0.3,0,0.0536406
0.2,0.4,0,0.0716691
0.2,0.5,0,0.0898491
0.2,0.6,0,0.107763
0.2,0.7,0,0.125922
0.2,0.8,0,0.144064
0.2,0.9,0,0.162371
0.2,1,0,0.180932
0.2,1.1,0,0.19909
0.2,1.2,0,0.217577
0.2,1.3,0,0.236086
0.2,1.4,0,0.254766
0.2,1.5,0,0.273779
0.2,1.6,0,0.292255
0.2,1.7,0,0.311137
0.2,1.8,0,0.33004
0.2,1.9,0,0.349114
0.2,2,0,0.368582
0.2,2.1,0,0.387309
0.2,2.2,0,0.406525
0.2,2.3,0,0.425592
0.2,2.4,0,0.444853
0.2,2.5,0,0.464558
0.2,2.6,0,0.482978
0.2,2.7,0,0.502156
0.2,2.8,0,0.520771
0.2,2.9,0,0.539706
0.2,3,0,0.559387
0.2,3.1,0,0.57668
0.2,3.2,0,0.595146
0.2,3.3,0,0.613029
0.2,3.4,0,0.630594
0.2,3.5,0,0.649198
0.2,3.6,0,0.664373
0.2,3.7,0,0.680454
0.2,3.8,0,0.696415
0.2,3.9,0,0.710839
0.2,4,0,0.726368
0.2,4.1,0,0.740303
0.2,4.2,0,0.753282
0.2,4.3,0,0.769106
0.2,4.4,0,0.780719
0.2,4.5,0,0.790937
0.2,4.6,0,0.805643
0.2,4.7,0,0.81562
0.2,4.8,0,0.825627
0.2,4.9,0,0.832516
0.2,5,0,0.83445
0.2,5.1,0,0.84325
0.2,5.2,0,0.848504
0.2,5.3,0,0.852453
0.2,5.4,0,0.855033
0.2,5.5,0,0.856181
0.2,5.6,0,0.85588
0.2,5.7,0,0.854162
0.2,5.8,0,0.851171
0.2,5.9,0,0.847271
0.2,6,0,0.840913
0.2,6.1,0,0.844128
0.2,6.2,0,0.840509
0.2,6.3,0,0.833097
0.2,6.4,0,0.827225
0.2,6.5,0,0.820999
0.2,6.6,0,0.81466
0.2,6.7,0,0.800838
0.2,6.8,0,0.791409
0.2,6.9,0,0.782036
0.2,7,0,0.769832
0.2,7.1,0,0.754845
0.2,7.2,0,0.744049
0.2,7.3,0,0.733826
0.2,7.4,0,0.718741
0.2,7.5,0,0.706569
0.2,7.6,0,0.694937
0.2,7.7,0,0.685733
0.2,7.8,0,0.670159
0.2,7.9,0,0.656943
0.2,8,0,0.64748
0.2,8.1,0,0.631254
0.2,8.2,0,0.616647
0.2,8.3,0,0.603273
0.2,8.4,0,0.590099
0.2,8.5,0,0.57481
0.2,8.6,0,0.559697
0.2,8.7,0,0.546849
0.2,8.8,0,0.531622
0.2,8.9,0,0.516475
0.2,9,0,0.502066
0.2,9.1,0,0.487312
0.2,9.2,0,0.472199
0.2,9.3,0,0.457141
0.2,9.4,0,0.442329
0.2,9.5,0,0.427365
0.2,9.6,0,0.412374
0.2,9.7,0,0.397442
0.2,9.8,0,0.382751
0.2,9.9,0,0.368053
0.2,10,0,0.353357
0.2,10.1,0,0.338941
0.2,10.2,0,0.324638
0.2,10.3,0,0.31034
0.2,10.4,0,0.296209
0.2,10.5,0,0.282316
0.2,10.6,0,0.268443
0.2,10.7,0,0.254647
0.2,10.8,0,0.241137
0.2,10.9,0,0.227685
0.2,11,0,0.214265
0.2,11.1,0,0.201057
0.2,11.2,0,0.187983
0.2,11.3,0,0.174915
0.2,11.4,0,0.161981
0.2,11.5,0,0.149206
0.2,11.6,0,0.13645
0.2,11.7,0,0.123741
0.2,11.8,0,0.111195
0.2,11.9,0,0.0986853
0.2,12,0,0.0861892
0.2,12.1,0,0.0737838
0.2,12.2,0,0.061441
0.2,12.3,0,0.0490984
0.2,12.4,0,0.0367858
0.2,12.5,0,0.02452
0.2,12.6,0,0.0122611
0.2,12.7,0,0.00203043
0.3,0,0,0
0.3,0.1,0,0.0180694
0.3,0.2,0,0.0360468
0.3,0.3,0,0.0542067
0.3,0.4,0,0.0722352
0.3,0.5,0,0.0901524
0.3,0.6,0,0.108522
0.3,0.7,0,0.12668
0.3,0.8,0,0.144979
0.3,0.9,0,0.163286
0.3,1,0,0.181352
0.3,1.1,0,0.200148
0.3,1.2,0,0.218635
0.3,1.3,0,0.237287
0.3,1.4,0,0.255968
0.3,1.5,0,0.27426
0.3,1.6,0,0.293602
0.3,1.7,0,0.312484
0.3,1.8,0,0.331548
0.3,1.9,0,0.350622
0.3,2,0,0.36917
0.3,2.1,0,0.389046
0.3,2.2,0,0.408262
0.3,2.3,0,0.427732
0.3,2.4,0,0.446993
0.3,2.5,0,0.465695
0.3,2.6,0,0.485814
0.3,2.7,0,0.504993
0.3,2.8,0,0.524583
0.3,2.9,0,0.543519
0.3,3,0,0.561665
0.3,3.1,0,0.581481
0.3,3.2,0,0.599946
0.3,3.3,0,0.61839
0.3,3.4,0,0.635956
0.3,3.5,0,0.652156
0.3,3.6,0,0.669757
0.3,3.7,0,0.685837
0.3,3.8,0,0.700265
0.3,3.9,0,0.714689
0.3,4,0,0.727643
0.3,4.1,0,0.739936
0.3,4.2,0,0.752916
0.3,4.3,0,0.761701
0.3,4.4,0,0.773314
0.3,4.5,0,0.787164
0.3,4.6,0,0.791822
0.3,4.7,0,0.801798
0.3,4.8,0,0.809853
0.3,4.9,0,0.816742
0.3,5,0,0.828989
0.3,5.1,0,0.837676
0.3,5.2,0,0.842712
0.3,5.3,0,0.846394
0.3,5.4,0,0.84869
0.3,5.5,0,0.849566
0.3,5.6,0,0.84902
0.3,5.7,0,0.847094
0.3,5.8,0,0.84391
0.3,5.9,0,0.839782
0.3,6,0,0.832947
0.3,6.1,0,0.81958
0.3,6.2,0,0.815961
0.3,6.3,0,0.816884
0.3,6.4,0,0.812428
0.3,6.5,0,0.805965
0.3,6.6,0,0.799626
0.3,6.7,0,0.797818
0.3,6.8,0,0.78887
0.3,6.9,0,0.779497
0.3,7,0,0.77147
0.3,7.1,0,0.765097
0.3,7.2,0,0.754301
0.3,7.3,0,0.742648
0.3,7.4,0,0.735895
0.3,7.5,0,0.724942
0.3,7.6,0,0.713311
0.3,7.7,0,0.697699
0.3,7.8,0,0.687996
0.3,7.9,0,0.674781
0.3,8,0,0.656539
0.3,8.1,0,0.644455
0.3,8.2,0,0.629848
0.3,8.3,0,0.61386
0.3,8.4,0,0.596888
0.3,8.5,0,0.581936
0.3,8.6,0,0.566823
0.3,8.7,0,0.549558
0.3,8.8,0,0.534271
0.3,8.9,0,0.519125
0.3,9,0,0.503368
0.3,9.1,0,0.487763
0.3,9.2,0,0.47265
0.3,9.3,0,0.457474
0.3,9.4,0,0.44209
0.3,9.5,0,0.427049
0.3,9.6,0,0.412059
0.3,9.7,0,0.397067
0.3,9.8,0,0.382288
0.3,9.9,0,0.367589
0.3,10,0,0.352925
0.3,10.1,0,0.338504
0.3,10.2,0,0.324201
0.3,10.3,0,0.30991
0.3,10.4,0,0.295829
0.3,10.5,0,0.281945
0.3,10.6,0,0.268072
0.3,10.7,0,0.254304
0.3,10.8,0,0.240831
0.3,10.9,0,0.227379
0.3,11,0,0.213966
0.3,11.1,0,0.2008
0.3,11.2,0,0.187726
0.3,11.3,0,0.174659
0.3,11.4,0,0.16176
0.3,11.5,0,0.149
0.3,11.6,0,0.136244
0.3,11.7,0,0.123557
0.3,11.8,0,0.111044
0.3,11.9,0,0.0985337
0.3,12,0,0.0860509
0.3,12.1,0,0.073683
0.3,12.2,0,0.0613401
0.3,12.3,0,0.0489986
0.3,12.4,0,0.0367379
0.3,12.5,0,0.0244882
0.3,12.6,0,0.0122293
0.3,12.7,0,0
0.4,0,0,0
0.4,0.1,0,0.0181615
0.4,0.2,0,0.0362033
0.4,0.3,0,0.0543631
0.4,0.4,0,0.0726219
0.4,0.5,0,0.0904277
0.4,0.6,0,0.109008
0.4,0.7,0,0.127005
0.4,0.8,0,0.145304
0.4,0.9,0,0.163873
0.4,1,0,0.181697
0.4,1.1,0,0.200802
0.4,1.2,0,0.218977
0.4,1.3,0,0.23763
0.4,1.4,0,0.256681
0.4,1.5,0,0.274584
0.4,1.6,0,0.294387
0.4,1.7,0,0.312797
0.4,1.8,0,0.331861
0.4,1.9,0,0.351514
0.4,2,0,0.369536
0.4,2.1,0,0.390071
0.4,2.2,0,0.40884
0.4,2.3,0,0.42831
0.4,2.4,0,0.448581
0.4,2.5,0,0.466725
0.4,2.6,0,0.487785
0.4,2.7,0,0.506688
0.4,2.8,0,0.526279
0.4,2.9,0,0.54671
0.4,3,0,0.564067
0.4,3.1,0,0.585233
0.4,3.2,0,0.6029
0.4,3.3,0,0.621344
0.4,3.4,0,0.640551
0.4,3.5,0,0.655387
0.4,3.6,0,0.674507
0.4,3.7,0,0.688794
0.4,3.8,0,0.703222
0.4,3.9,0,0.717839
0.4,4,0,0.729322
0.4,4.1,0,0.74093
0.4,4.2,0,0.752472
0.4,4.3,0,0.761258
0.4,4.4,0,0.768837
0.4,4.5,0,0.784925
0.4,4.6,0,0.784264
0.4,4.7,0,0.798872
0.4,4.8,0,0.806926
0.4,4.9,0,0.808468
0.4,5,0,0.826073
0.4,5.1,0,0.834842
0.4,5.2,0,0.839846
0.4,5.3,0,0.843464
0.4,5.4,0,0.845712
0.4,5.5,0,0.846562
0.4,5.6,0,0.846019
0.4,5.7,0,0.844112
0.4,5.8,0,0.840912
0.4,5.9,0,0.836623
0.4,6,0,0.829122
0.4,6.1,0,0.810954
0.4,6.2,0,0.802158
0.4,6.3,0,0.81259
0.4,6.4,0,0.808133
0.4,6.5,0,0.79794
0.4,6.6,0,0.796971
0.4,6.7,0,0.795391
0.4,6.8,0,0.787167
0.4,6.9,0,0.780694
0.4,7,0,0.773493
0.4,7.1,0,0.768893
0.4,7.2,0,0.76249
0.4,7.3,0,0.748896
0.4,7.4,0,0.742144
0.4,7.5,0,0.738004
0.4,7.6,0,0.721878
0.4,7.7,0,0.705589
0.4,7.8,0,0.700735
0.4,7.9,0,0.685851
0.4,8,0,0.663818
0.4,8.1,0,0.652855
0.4,8.2,0,0.639606
0.4,8.3,0,0.61926
0.4,8.4,0,0.602288
0.4,8.5,0,0.587862
0.4,8.6,0,0.570251
0.4,8.7,0,0.552581
0.4,8.8,0,0.537137
0.4,8.9,0,0.52074
0.4,9,0,0.504421
0.4,9.1,0,0.488732
0.4,9.2,0,0.472968
0.4,9.3,0,0.457413
0.4,9.4,0,0.442028
0.4,9.5,0,0.426736
0.4,9.6,0,0.411562
0.4,9.7,0,0.396565
0.4,9.8,0,0.381711
0.4,9.9,0,0.366937
0.4,10,0,0.352312
0.4,10.1,0,0.33788
0.4,10.2,0,0.323541
0.4,10.3,0,0.309315
0.4,10.4,0,0.295234
0.4,10.5,0,0.281322
0.4,10.6,0,0.26752
0.4,10.7,0,0.253775
0.4,10.8,0,0.240287
0.4,10.9,0,0.226873
0.4,11,0,0.213515
0.4,11.1,0,0.200346
0.4,11.2,0,0.187279
0.4,11.3,0,0.17429
0.4,11.4,0,0.161391
0.4,11.5,0,0.148621
0.4,11.6,0,0.135938
0.4,11.7,0,0.123275
0.4,11.8,0,0.110759
0.4,11.9,0,0.0982955
0.4,12,0,0.0858592
0.4,12.1,0,0.0734914
0.4,12.2,0,0.0611766
0.4,12.3,0,0.0489009
0.4,12.4,0,0.0366402
0.4,12.5,0,0.0244104
0.4,12.6,0,0.0122147
0.4,12.7,0,0
0.5,0,0,0
0.5,0.1,0,0.0181338
0.5,0.2,0,0.0362676
0.5,0.3,0,0.0544082
0.5,0.4,0,0.0725556
0.5,0.5,0,0.090703
0.5,0.6,0,0.108911
0.5,0.7,0,0.12712
0.5,0.8,0,0.145388
0.5,0.9,0,0.163715
0.5,1,0,0.182043
0.5,1.1,0,0.200527
0.5,1.2,0,0.219011
0.5,1.3,0,0.237584
0.5,1.4,0,0.256246
0.5,1.5,0,0.274909
0.5,1.6,0,0.293778
0.5,1.7,0,0.312648
0.5,1.8,0,0.331647
0.5,1.9,0,0.350775
0.5,2,0,0.369903
0.5,2.1,0,0.389331
0.5,2.2,0,0.408759
0.5,2.3,0,0.42833
0.5,2.4,0,0.448043
0.5,2.5,0,0.467755
0.5,2.6,0,0.487599
0.5,2.7,0,0.507442
0.5,2.8,0,0.527185
0.5,2.9,0,0.546827
0.5,3,0,0.566469
0.5,3.1,0,0.585486
0.5,3.2,0,0.604503
0.5,3.3,0,0.622933
0.5,3.4,0,0.640775
0.5,3.5,0,0.658618
0.5,3.6,0,0.674425
0.5,3.7,0,0.690232
0.5,3.8,0,0.704709
0.5,3.9,0,0.717855
0.5,4,0,0.731001
0.5,4.1,0,0.741858
0.5,4.2,0,0.752715
0.5,4.3,0,0.763052
0.5,4.4,0,0.772869
0.5,4.5,0,0.782686
0.5,4.6,0,0.791975
0.5,4.7,0,0.801264
0.5,4.8,0,0.809358
0.5,4.9,0,0.816258
0.5,5,0,0.823158
0.5,5.1,0,0.832007
0.5,5.2,0,0.836979
0.5,5.3,0,0.840535
0.5,5.4,0,0.842735
0.5,5.5,0,0.843559
0.5,5.6,0,0.843017
0.5,5.7,0,0.84113
0.5,5.8,0,0.837913
0.5,5.9,0,0.833465
0.5,6,0,0.825296
0.5,6.1,0,0.821326
0.5,6.2,0,0.817357
0.5,6.3,0,0.813387
0.5,6.4,0,0.808783
0.5,6.5,0,0.803838
0.5,6.6,0,0.798893
0.5,6.7,0,0.793616
0.5,6.8,0,0.787563
0.5,6.9,0,0.781511
0.5,7,0,0.775458
0.5,7.1,0,0.767895
0.5,7.2,0,0.760253
0.5,7.3,0,0.752611
0.5,7.4,0,0.74331
0.5,7.5,0,0.732904
0.5,7.6,0,0.722498
0.5,7.7,0,0.711275
0.5,7.8,0,0.697604
0.5,7.9,0,0.683932
0.5,8,0,0.670261
0.5,8.1,0,0.654486
0.5,8.2,0,0.638476
0.5,8.3,0,0.622467
0.5,8.4,0,0.605975
0.5,8.5,0,0.589088
0.5,8.6,0,0.572202
0.5,8.7,0,0.555369
0.5,8.8,0,0.538752
0.5,8.9,0,0.522135
0.5,9,0,0.505518
0.5,9.1,0,0.489472
0.5,9.2,0,0.473528
0.5,9.3,0,0.457583
0.5,9.4,0,0.441951
0.5,9.5,0,0.426631
0.5,9.6,0,0.411312
0.5,9.7,0,0.396073
0.5,9.8,0,0.381292
0.5,9.9,0,0.366511
0.5,10,0,0.351729
0.5,10.1,0,0.337342
0.5,10.2,0,0.323053
0.5,10.3,0,0.308764
0.5,10.4,0,0.294684
0.5,10.5,0,0.28086
0.5,10.6,0,0.267036
0.5,10.7,0,0.253255
0.5,10.8,0,0.239861
0.5,10.9,0,0.226467
0.5,11,0,0.213072
0.5,11.1,0,0.199964
0.5,11.2,0,0.186952
0.5,11.3,0,0.173939
0.5,11.4,0,0.161055
0.5,11.5,0,0.148365
0.5,11.6,0,0.135674
0.5,11.7,0,0.122996
0.5,11.8,0,0.110554
0.5,11.9,0,0.0981114
0.5,12,0,0.0856693
0.5,12.1,0,0.0733457
0.5,12.2,0,0.061073
0.5,12.3,0,0.0488003
0.5,12.4,0,0.0365579
0.5,12.5,0,0.024372
0.5,12.6,0,0.012186
0.5,12.7,0,0
0.6,0,0,0
0.6,0.1,0,0.0181081
0.6,0.2,0,0.0361321
0.6,0.3,0,0.0542379
0.6,0.4,0,0.0724602
0.6,0.5,0,0.0902357
0.6,0.6,0,0.108722
0.6,0.7,0,0.126696
0.6,0.8,0,0.144907
0.6,0.9,0,0.163412
0.6,1,0,0.181231
0.6,1.1,0,0.200084
0.6,1.2,0,0.218332
0.6,1.3,0,0.236816
0.6,1.4,0,0.255624
0.6,1.5,0,0.273964
0.6,1.6,0,0.292942
0.6,1.7,0,0.311792
0.6,1.8,0,0.330696
0.6,1.9,0,0.349749
0.6,2,0,0.369209
0.6,2.1,0,0.388277
0.6,2.2,0,0.408037
0.6,2.3,0,0.427738
0.6,2.4,0,0.44725
0.6,2.5,0,0.467755
0.6,2.6,0,0.487404
0.6,2.7,0,0.507554
0.6,2.8,0,0.527658
0.6,2.9,0,0.547355
0.6,3,0,0.567289
0.6,3.1,0,0.586578
0.6,3.2,0,0.605658
0.6,3.3,0,0.624409
0.6,3.4,0,0.64251
0.6,3.5,0,0.660287
0.6,3.6,0,0.676904
0.6,3.7,0,0.692595
0.6,3.8,0,0.707221
0.6,3.9,0,0.720633
0.6,4,0,0.734024
0.6,4.1,0,0.744603
0.6,4.2,0,0.756273
0.6,4.3,0,0.767384
0.6,4.4,0,0.777164
0.6,4.5,0,0.788956
0.6,4.6,0,0.800478
0.6,4.7,0,0.809481
0.6,4.8,0,0.819211
0.6,4.9,0,0.828032
0.6,5,0,0.83197
0.6,5.1,0,0.841152
0.6,5.2,0,0.84638
0.6,5.3,0,0.850209
0.6,5.4,0,0.852665
0.6,5.5,0,0.853707
0.6,5.6,0,0.853323
0.6,5.7,0,0.85152
0.6,5.8,0,0.84831
0.6,5.9,0,0.843765
0.6,6,0,0.835077
0.6,6.1,0,0.836018
0.6,6.2,0,0.833718
0.6,6.3,0,0.82316
0.6,6.4,0,0.816181
0.6,6.5,0,0.811187
0.6,6.6,0,0.804621
0.6,6.7,0,0.797134
0.6,6.8,0,0.789623
0.6,6.9,0,0.783425
0.6,7,0,0.777074
0.6,7.1,0,0.768719
0.6,7.2,0,0.760758
0.6,7.3,0,0.753085
0.6,7.4,0,0.74337
0.6,7.5,0,0.73247
0.6,7.6,0,0.722239
0.6,7.7,0,0.711275
0.6,7.8,0,0.69775
0.6,7.9,0,0.684062
0.6,8,0,0.67027
0.6,8.1,0,0.655191
0.6,8.2,0,0.639528
0.6,8.3,0,0.623041
0.6,8.4,0,0.606744
0.6,8.5,0,0.590484
0.6,8.6,0,0.573216
0.6,8.7,0,0.555835
0.6,8.8,0,0.539301
0.6,8.9,0,0.522628
0.6,9,0,0.505655
0.6,9.1,0,0.48928
0.6,9.2,0,0.473176
0.6,9.3,0,0.457196
0.6,9.4,0,0.441371
0.6,9.5,0,0.425762
0.6,9.6,0,0.410491
0.6,9.7,0,0.395297
0.6,9.8,0,0.380258
0.6,9.9,0,0.365448
0.6,10,0,0.35081
0.6,10.1,0,0.336309
0.6,10.2,0,0.321924
0.6,10.3,0,0.307762
0.6,10.4,0,0.293719
0.6,10.5,0,0.279793
0.6,10.6,0,0.266039
0.6,10.7,0,0.252394
0.6,10.8,0,0.238928
0.6,10.9,0,0.225531
0.6,11,0,0.212288
0.6,11.1,0,0.199186
0.6,11.2,0,0.186148
0.6,11.3,0,0.17324
0.6,11.4,0,0.160432
0.6,11.5,0,0.147722
0.6,11.6,0,0.135081
0.6,11.7,0,0.122526
0.6,11.8,0,0.110089
0.6,11.9,0,0.0976524
0.6,12,0,0.0853194
0.6,12.1,0,0.073049
0.6,12.2,0,0.0607949
0.6,12.3,0,0.0485835
0.6,12.4,0,0.0364153
0.6,12.5,0,0.0242755
0.6,12.6,0,0.012114
0.6,12.7,0,0
0.7,0,0,0
0.7,0.1,0,0.0179983
0.7,0.2,0,0.0358869
0.7,0.3,0,0.0539926
0.7,0.4,0,0.071918
0.7,0.5,0,0.0897684
0.7,0.6,0,0.108021
0.7,0.7,0,0.126039
0.7,0.8,0,0.144249
0.7,0.9,0,0.162423
0.7,1,0,0.18042
0.7,1.1,0,0.199037
0.7,1.2,0,0.217417
0.7,1.3,0,0.235901
0.7,1.4,0,0.254533
0.7,1.5,0,0.273019
0.7,1.6,0,0.291977
0.7,1.7,0,0.310915
0.7,1.8,0,0.329819
0.7,1.9,0,0.34913
0.7,2,0,0.368517
0.7,2.1,0,0.387915
0.7,2.2,0,0.407646
0.7,2.3,0,0.427348
0.7,2.4,0,0.447451
0.7,2.5,0,0.467754
0.7,2.6,0,0.48771
0.7,2.7,0,0.507972
0.7,2.8,0,0.528076
0.7,2.9,0,0.54812
0.7,3,0,0.568108
0.7,3.1,0,0.58746
0.7,3.2,0,0.606875
0.7,3.3,0,0.625626
0.7,3.4,0,0.643921
0.7,3.5,0,0.661957
0.7,3.6,0,0.678457
0.7,3.7,0,0.694841
0.7,3.8,0,0.709467
0.7,3.9,0,0.72339
0.7,4,0,0.737047
0.7,4.1,0,0.748439
0.7,4.2,0,0.760643
0.7,4.3,0,0.771754
0.7,4.4,0,0.783471
0.7,4.5,0,0.795226
0.7,4.6,0,0.806462
0.7,4.7,0,0.817413
0.7,4.8,0,0.827143
0.7,4.9,0,0.834923
0.7,5,0,0.840781
0.7,5.1,0,0.850297
0.7,5.2,0,0.85578
0.7,5.3,0,0.859882
0.7,5.4,0,0.862596
0.7,5.5,0,0.863856
0.7,5.6,0,0.863629
0.7,5.7,0,0.861911
0.7,5.8,0,0.858707
0.7,5.9,0,0.854064
0.7,6,0,0.844858
0.7,6.1,0,0.843603
0.7,6.2,0,0.837889
0.7,6.3,0,0.830603
0.7,6.4,0,0.823625
0.7,6.5,0,0.816127
0.7,6.6,0,0.808579
0.7,6.7,0,0.801089
0.7,6.8,0,0.79339
0.7,6.9,0,0.785581
0.7,7,0,0.778675
0.7,7.1,0,0.770311
0.7,7.2,0,0.761817
0.7,7.3,0,0.753545
0.7,7.4,0,0.74383
0.7,7.5,0,0.733032
0.7,7.6,0,0.722256
0.7,7.7,0,0.711239
0.7,7.8,0,0.697643
0.7,7.9,0,0.683997
0.7,8,0,0.670267
0.7,8.1,0,0.655065
0.7,8.2,0,0.639306
0.7,8.3,0,0.623375
0.7,8.4,0,0.607078
0.7,8.5,0,0.590362
0.7,8.6,0,0.573562
0.7,8.7,0,0.556284
0.7,8.8,0,0.539562
0.7,8.9,0,0.522672
0.7,9,0,0.505739
0.7,9.1,0,0.489357
0.7,9.2,0,0.473045
0.7,9.3,0,0.456788
0.7,9.4,0,0.440962
0.7,9.5,0,0.42538
0.7,9.6,0,0.409815
0.7,9.7,0,0.394559
0.7,9.8,0,0.379589
0.7,9.9,0,0.364694
0.7,10,0,0.34992
0.7,10.1,0,0.33544
0.7,10.2,0,0.321134
0.7,10.3,0,0.306849
0.7,10.4,0,0.292806
0.7,10.5,0,0.278991
0.7,10.6,0,0.265212
0.7,10.7,0,0.251541
0.7,10.8,0,0.23814
0.7,10.9,0,0.224826
0.7,11,0,0.211542
0.7,11.1,0,0.198451
0.7,11.2,0,0.185537
0.7,11.3,0,0.172626
0.7,11.4,0,0.159818
0.7,11.5,0,0.1472
0.7,11.6,0,0.134617
0.7,11.7,0,0.122055
0.7,11.8,0,0.10966
0.7,11.9,0,0.097332
0.7,12,0,0.0850023
0.7,12.1,0,0.0727346
0.7,12.2,0,0.0605798
0.7,12.3,0,0.0484245
0.7,12.4,0,0.0362562
0.7,12.5,0,0.0241659
0.7,12.6,0,0.0120986
0.7,12.7,0,0
0.8,0,0,0
0.8,0.1,0,0.0177716
0.8,0.2,0,0.0356601
0.8,0.3,0,0.0533459
0.8,0.4,0,0.0712713
0.8,0.5,0,0.0891376
0.8,0.6,0,0.107022
0.8,0.7,0,0.12504
0.8,0.8,0,0.142991
0.8,0.9,0,0.161165
0.8,1,0,0.17937
0.8,1.1,0,0.197639
0.8,1.2,0,0.21602
0.8,1.3,0,0.234526
0.8,1.4,0,0.253158
0.8,1.5,0,0.271886
0.8,1.6,0,0.290823
0.8,1.7,0,0.309761
0.8,1.8,0,0.32907
0.8,1.9,0,0.348381
0.8,2,0,0.367736
0.8,2.1,0,0.387672
0.8,2.2,0,0.407403
0.8,2.3,0,0.427591
0.8,2.4,0,0.447694
0.8,2.5,0,0.467604
0.8,2.6,0,0.488321
0.8,2.7,0,0.508583
0.8,2.8,0,0.529005
0.8,2.9,0,0.549048
0.8,3,0,0.568686
0.8,3.1,0,0.588815
0.8,3.2,0,0.60823
0.8,3.3,0,0.627488
0.8,3.4,0,0.645783
0.8,3.5,0,0.663708
0.8,3.6,0,0.681095
0.8,3.7,0,0.697479
0.8,3.8,0,0.713219
0.8,3.9,0,0.727142
0.8,4,0,0.741062
0.8,4.1,0,0.753545
0.8,4.2,0,0.765749
0.8,4.3,0,0.778128
0.8,4.4,0,0.789845
0.8,4.5,0,0.803417
0.8,4.6,0,0.812899
0.8,4.7,0,0.823849
0.8,4.8,0,0.834543
0.8,4.9,0,0.842323
0.8,5,0,0.851802
0.8,5.1,0,0.861669
0.8,5.2,0,0.867418
0.8,5.3,0,0.871757
0.8,5.4,0,0.874677
0.8,5.5,0,0.87609
0.8,5.6,0,0.87595
0.8,5.7,0,0.874241
0.8,5.8,0,0.870966
0.8,5.9,0,0.86615
0.8,6,0,0.856374
0.8,6.1,0,0.846469
0.8,6.2,0,0.840755
0.8,6.3,0,0.836475
0.8,6.4,0,0.828269
0.8,6.5,0,0.820632
0.8,6.6,0,0.813084
0.8,6.7,0,0.80561
0.8,6.8,0,0.79684
0.8,6.9,0,0.78903
0.8,7,0,0.781061
0.8,7.1,0,0.77289
0.8,7.2,0,0.764397
0.8,7.3,0,0.755254
0.8,7.4,0,0.746466
0.8,7.5,0,0.735926
0.8,7.6,0,0.72515
0.8,7.7,0,0.711517
0.8,7.8,0,0.699253
0.8,7.9,0,0.685607
0.8,8,0,0.669852
0.8,8.1,0,0.655365
0.8,8.2,0,0.639607
0.8,8.3,0,0.623391
0.8,8.4,0,0.60678
0.8,8.5,0,0.590123
0.8,8.6,0,0.573323
0.8,8.7,0,0.555988
0.8,8.8,0,0.539278
0.8,8.9,0,0.522389
0.8,9,0,0.505385
0.8,9.1,0,0.488866
0.8,9.2,0,0.472553
0.8,9.3,0,0.456252
0.8,9.4,0,0.440227
0.8,9.5,0,0.424621
0.8,9.6,0,0.409055
0.8,9.7,0,0.393631
0.8,9.8,0,0.378627
0.8,9.9,0,0.363732
0.8,10,0,0.348894
0.8,10.1,0,0.334392
0.8,10.2,0,0.320086
0.8,10.3,0,0.305797
0.8,10.4,0,0.29176
0.8,10.5,0,0.277959
0.8,10.6,0,0.264179
0.8,10.7,0,0.250543
0.8,10.8,0,0.237199
0.8,10.9,0,0.223885
0.8,11,0,0.210635
0.8,11.1,0,0.197648
0.8,11.2,0,0.184734
0.8,11.3,0,0.17183
0.8,11.4,0,0.15914
0.8,11.5,0,0.14656
0.8,11.6,0,0.133977
0.8,11.7,0,0.1215
0.8,11.8,0,0.109191
0.8,11.9,0,0.0968636
0.8,12,0,0.0845819
0.8,12.1,0,0.072449
0.8,12.2,0,0.0602942
0.8,12.3,0,0.0481417
0.8,12.4,0,0.0361158
0.8,12.5,0,0.0240736
0.8,12.6,0,0.0120063
0.8,12.7,0,0
0.9,0,0,0
0.9,0.1,0,0.0176546
0.9,0.2,0,0.0352384
0.9,0.3,0,0.0529242
0.9,0.4,0,0.0705359
0.9,0.5,0,0.0883432
0.9,0.6,0,0.106094
0.9,0.7,0,0.123951
0.9,0.8,0,0.141902
0.9,0.9,0,0.159845
0.9,1,0,0.178083
0.9,1.1,0,0.19624
0.9,1.2,0,0.214648
0.9,1.3,0,0.233154
0.9,1.4,0,0.251742
0.9,1.5,0,0.270565
0.9,1.6,0,0.289502
0.9,1.7,0,0.308622
0.9,1.8,0,0.32793
0.9,1.9,0,0.347471
0.9,2,0,0.366868
0.9,2.1,0,0.38701
0.9,2.2,0,0.406832
0.9,2.3,0,0.42702
0.9,2.4,0,0.447587
0.9,2.5,0,0.467305
0.9,2.6,0,0.488477
0.9,2.7,0,0.508549
0.9,2.8,0,0.52897
0.9,2.9,0,0.54979
0.9,3,0,0.569022
0.9,3.1,0,0.589866
0.9,3.2,0,0.609155
0.9,3.3,0,0.628413
0.9,3.4,0,0.647985
0.9,3.5,0,0.66554
0.9,3.6,0,0.68393
0.9,3.7,0,0.700653
0.9,3.8,0,0.716393
0.9,3.9,0,0.732151
0.9,4,0,0.746067
0.9,4.1,0,0.75883
0.9,4.2,0,0.77314
0.9,4.3,0,0.785519
0.9,4.4,0,0.798103
0.9,4.5,0,0.813529
0.9,4.6,0,0.821543
0.9,4.7,0,0.836103
0.9,4.8,0,0.846797
0.9,4.9,0,0.853855
0.9,5,0,0.865032
0.9,5.1,0,0.875268
0.9,5.2,0,0.881293
0.9,5.3,0,0.885833
0.9,5.4,0,0.888908
0.9,5.5,0,0.890411
0.9,5.6,0,0.890286
0.9,5.7,0,0.888511
0.9,5.8,0,0.885085
0.9,5.9,0,0.880022
0.9,6,0,0.869625
0.9,6.1,0,0.857656
0.9,6.2,0,0.848645
0.9,6.3,0,0.84735
0.9,6.4,0,0.839144
0.9,6.5,0,0.827613
0.9,6.6,0,0.819867
0.9,6.7,0,0.812434
0.9,6.8,0,0.802028
0.9,6.9,0,0.792126
0.9,7,0,0.784058
0.9,7.1,0,0.776014
0.9,7.2,0,0.766505
0.9,7.3,0,0.755635
0.9,7.4,0,0.746847
0.9,7.5,0,0.738316
0.9,7.6,0,0.724512
0.9,7.7,0,0.710527
0.9,7.8,0,0.700171
0.9,7.9,0,0.685659
0.9,8,0,0.668312
0.9,8.1,0,0.654317
0.9,8.2,0,0.639529
0.9,8.3,0,0.621925
0.9,8.4,0,0.605315
0.9,8.5,0,0.589523
0.9,8.6,0,0.572388
0.9,8.7,0,0.554938
0.9,8.8,0,0.538431
0.9,8.9,0,0.52166
0.9,9,0,0.50455
0.9,9.1,0,0.488007
0.9,9.2,0,0.471598
0.9,9.3,0,0.45533
0.9,9.4,0,0.439304
0.9,9.5,0,0.423518
0.9,9.6,0,0.407938
0.9,9.7,0,0.392533
0.9,9.8,0,0.377429
0.9,9.9,0,0.362453
0.9,10,0,0.347679
0.9,10.1,0,0.333157
0.9,10.2,0,0.318762
0.9,10.3,0,0.304563
0.9,10.4,0,0.290527
0.9,10.5,0,0.276665
0.9,10.6,0,0.262982
0.9,10.7,0,0.249381
0.9,10.8,0,0.236015
0.9,10.9,0,0.22277
0.9,11,0,0.209608
0.9,11.1,0,0.19662
0.9,11.2,0,0.183751
0.9,11.3,0,0.170979
0.9,11.4,0,0.158289
0.9,11.5,0,0.145724
0.9,11.6,0,0.133284
0.9,11.7,0,0.120845
0.9,11.8,0,0.108549
0.9,11.9,0,0.0963392
0.9,12,0,0.0841359
0.9,12.1,0,0.0720046
0.9,12.2,0,0.0599436
0.9,12.3,0,0.0479148
0.9,12.4,0,0.035889
0.9,12.5,0,0.0239008
0.9,12.6,0,0.0119762
0.9,12.7,0,0
1,0,0,0
1,0.1,0,0.0174669
1,0.2,0,0.0349338
1,0.3,0,0.0524435
1,0.4,0,0.0699961
1,0.5,0,0.0875488
1,0.6,0,0.105272
1,0.7,0,0.122996
1,0.8,0,0.140845
1,0.9,0,0.15882
1,1,0,0.176795
1,1.1,0,0.195091
1,1.2,0,0.213388
1,1.3,0,0.231878
1,1.4,0,0.250561
1,1.5,0,0.269244
1,1.6,0,0.288363
1,1.7,0,0.307483
1,1.8,0,0.326834
1,1.9,0,0.346417
1,2,0,0.366
1,2.1,0,0.386028
1,2.2,0,0.406056
1,2.3,0,0.426256
1,2.4,0,0.446631
1,2.5,0,0.467005
1,2.6,0,0.487532
1,2.7,0,0.50806
1,2.8,0,0.528531
1,2.9,0,0.548944
1,3,0,0.569358
1,3.1,0,0.589361
1,3.2,0,0.609364
1,3.3,0,0.628967
1,3.4,0,0.64817
1,3.5,0,0.667372
1,3.6,0,0.685098
1,3.7,0,0.702824
1,3.8,0,0.719564
1,3.9,0,0.735318
1,4,0,0.751073
1,4.1,0,0.765662
1,4.2,0,0.780252
1,4.3,0,0.794765
1,4.4,0,0.809203
1,4.5,0,0.823641
1,4.6,0,0.836733
1,4.7,0,0.849826
1,4.8,0,0.86075
1,4.9,0,0.869506
1,5,0,0.878262
1,5.1,0,0.888867
1,5.2,0,0.895167
1,5.3,0,0.899909
1,5.4,0,0.903139
1,5.5,0,0.904732
1,5.6,0,0.904622
1,5.7,0,0.902781
1,5.8,0,0.899205
1,5.9,0,0.893894
1,6,0,0.882876
1,6.1,0,0.875388
1,6.2,0,0.867901
1,6.3,0,0.860414
1,6.4,0,0.850922
1,6.5,0,0.840352
1,6.6,0,0.829781
1,6.7,0,0.819181
1,6.8,0,0.808516
1,6.9,0,0.797851
1,7,0,0.787185
1,7.1,0,0.776728
1,7.2,0,0.766282
1,7.3,0,0.755836
1,7.4,0,0.744577
1,7.5,0,0.732776
1,7.6,0,0.720975
1,7.7,0,0.708611
1,7.8,0,0.694555
1,7.9,0,0.680499
1,8,0,0.666443
1,8.1,0,0.650905
1,8.2,0,0.635201
1,8.3,0,0.619498
1,8.4,0,0.603362
1,8.5,0,0.586872
1,8.6,0,0.570382
1,8.7,0,0.553844
1,8.8,0,0.537115
1,8.9,0,0.520386
1,9,0,0.503657
1,9.1,0,0.487227
1,9.2,0,0.47085
1,9.3,0,0.454472
1,9.4,0,0.438435
1,9.5,0,0.422739
1,9.6,0,0.407042
1,9.7,0,0.391452
1,9.8,0,0.37647
1,9.9,0,0.361488
1,10,0,0.346505
1,10.1,0,0.332053
1,10.2,0,0.317734
1,10.3,0,0.303414
1,10.4,0,0.289362
1,10.5,0,0.275636
1,10.6,0,0.261909
1,10.7,0,0.248234
1,10.8,0,0.235021
1,10.9,0,0.221808
1,11,0,0.208594
1,11.1,0,0.195703
1,11.2,0,0.18292
1,11.3,0,0.170137
1,11.4,0,0.157492
1,11.5,0,0.145056
1,11.6,0,0.13262
1,11.7,0,0.120197
1,11.8,0,0.108025
1,11.9,0,0.0958525
1,12,0,0.0836805
1,12.1,0,0.071635
1,12.2,0,0.0596438
1,12.3,0,0.0476526
1,12.4,0,0.035694
1,12.5,0,0.023796
1,12.6,0,0.011898
1,12.7,0,0
1.1,0,0,0
1.1,0.1,0,0.0172349
1.1,0.2,0,0.034586
1.1,0.3,0,0.0518783
1.1,0.4,0,0.0693292
1.1,0.5,0,0.0866784
1.1,0.6,0,0.104236
1.1,0.7,0,0.121882
1.1,0.8,0,0.139592
1.1,0.9,0,0.157507
1.1,1,0,0.175382
1.1,1.1,0,0.193587
1.1,1.2,0,0.21188
1.1,1.3,0,0.230324
1.1,1.4,0,0.248964
1.1,1.5,0,0.267768
1.1,1.6,0,0.286767
1.1,1.7,0,0.306029
1.1,1.8,0,0.325417
1.1,1.9,0,0.344894
1.1,2,0,0.364946
1.1,2.1,0,0.384627
1.1,2.2,0,0.404984
1.1,2.3,0,0.42527
1.1,2.4,0,0.4454
1.1,2.5,0,0.466631
1.1,2.6,0,0.486556
1.1,2.7,0,0.507633
1.1,2.8,0,0.528298
1.1,2.9,0,0.548358
1.1,3,0,0.570209
1.1,3.1,0,0.589416
1.1,3.2,0,0.610338
1.1,3.3,0,0.630526
1.1,3.4,0,0.649396
1.1,3.5,0,0.670661
1.1,3.6,0,0.688178
1.1,3.7,0,0.706891
1.1,3.8,0,0.724691
1.1,3.9,0,0.740516
1.1,4,0,0.758157
1.1,4.1,0,0.772794
1.1,4.2,0,0.788378
1.1,4.3,0,0.804878
1.1,4.4,0,0.820307
1.1,4.5,0,0.834545
1.1,4.6,0,0.854611
1.1,4.7,0,0.864968
1.1,4.8,0,0.877773
1.1,4.9,0,0.891144
1.1,5,0,0.891733
1.1,5.1,0,0.902835
1.1,5.2,0,0.909373
1.1,5.3,0,0.914232
1.1,5.4,0,0.91744
1.1,5.5,0,0.918875
1.1,5.6,0,0.91847
1.1,5.7,0,0.916198
1.1,5.8,0,0.912066
1.1,5.9,0,0.906108
1.1,6,0,0.893978
1.1,6.1,0,0.897641
1.1,6.2,0,0.893945
1.1,6.3,0,0.874273
1.1,6.4,0,0.862736
1.1,6.5,0,0.854567
1.1,6.6,0,0.840835
1.1,6.7,0,0.826254
1.1,6.8,0,0.81384
1.1,6.9,0,0.803125
1.1,7,0,0.792531
1.1,7.1,0,0.778578
1.1,7.2,0,0.766695
1.1,7.3,0,0.758526
1.1,7.4,0,0.745458
1.1,7.5,0,0.73023
1.1,7.6,0,0.720497
1.1,7.7,0,0.709819
1.1,7.8,0,0.691993
1.1,7.9,0,0.678191
1.1,8,0,0.666604
1.1,8.1,0,0.649049
1.1,8.2,0,0.63224
1.1,8.3,0,0.617865
1.1,8.4,0,0.602012
1.1,8.5,0,0.584963
1.1,8.6,0,0.568631
1.1,8.7,0,0.552337
1.1,8.8,0,0.535658
1.1,8.9,0,0.51892
1.1,9,0,0.502109
1.1,9.1,0,0.48565
1.1,9.2,0,0.469264
1.1,9.3,0,0.452906
1.1,9.4,0,0.436802
1.1,9.5,0,0.420973
1.1,9.6,0,0.405332
1.1,9.7,0,0.38981
1.1,9.8,0,0.374641
1.1,9.9,0,0.359645
1.1,10,0,0.34482
1.1,10.1,0,0.330266
1.1,10.2,0,0.315857
1.1,10.3,0,0.301689
1.1,10.4,0,0.287691
1.1,10.5,0,0.273864
1.1,10.6,0,0.260224
1.1,10.7,0,0.246718
1.1,10.8,0,0.233445
1.1,10.9,0,0.220235
1.1,11,0,0.20721
1.1,11.1,0,0.194359
1.1,11.2,0,0.181569
1.1,11.3,0,0.168916
1.1,11.4,0,0.156389
1.1,11.5,0,0.143978
1.1,11.6,0,0.131606
1.1,11.7,0,0.119341
1.1,11.8,0,0.107222
1.1,11.9,0,0.0950719
1.1,12,0,0.0830536
1.1,12.1,0,0.071104
1.1,12.2,0,0.0591583
1.1,12.3,0,0.0472661
1.1,12.4,0,0.0354333
1.1,12.5,0,0.0236272
1.1,12.6,0,0.011772
1.1,12.7,0,0
1.2,0,0,0
1.2,0.1,0,0.0171191
1.2,0.2,0,0.0341225
1.2,0.3,0,0.0514148
1.2,0.4,0,0.0685606
1.2,0.5,0,0.085808
1.2,0.6,0,0.103288
1.2,0.7,0,0.120689
1.2,0.8,0,0.1384
1.2,0.9,0,0.156154
1.2,1,0,0.173969
1.2,1.1,0,0.192171
1.2,1.2,0,0.210368
1.2,1.3,0,0.228812
1.2,1.4,0,0.247531
1.2,1.5,0,0.266292
1.2,1.6,0,0.285433
1.2,1.7,0,0.304717
1.2,1.8,0,0.324105
1.2,1.9,0,0.343945
1.2,2,0,0.363891
1.2,2.1,0,0.383902
1.2,2.2,0,0.404242
1.2,2.3,0,0.424528
1.2,2.4,0,0.445271
1.2,2.5,0,0.466258
1.2,2.6,0,0.486731
1.2,2.7,0,0.507754
1.2,2.8,0,0.52842
1.2,2.9,0,0.549563
1.2,3,0,0.57106
1.2,3.1,0,0.591186
1.2,3.2,0,0.61223
1.2,3.3,0,0.632418
1.2,3.4,0,0.653018
1.2,3.5,0,0.67395
1.2,3.6,0,0.692454
1.2,3.7,0,0.711947
1.2,3.8,0,0.729746
1.2,3.9,0,0.747529
1.2,4,0,0.765241
1.2,4.1,0,0.780872
1.2,4.2,0,0.797498
1.2,4.3,0,0.813998
1.2,4.4,0,0.830219
1.2,4.5,0,0.845449
1.2,4.6,0,0.86278
1.2,4.7,0,0.877376
1.2,4.8,0,0.890181
1.2,4.9,0,0.9
1.2,5,0,0.905204
1.2,5.1,0,0.916804
1.2,5.2,0,0.923578
1.2,5.3,0,0.928554
1.2,5.4,0,0.931741
1.2,5.5,0,0.933017
1.2,5.6,0,0.932318
1.2,5.7,0,0.929615
1.2,5.8,0,0.924928
1.2,5.9,0,0.918322
1.2,6,0,0.905081
1.2,6.1,0,0.904682
1.2,6.2,0,0.896037
1.2,6.3,0,0.883824
1.2,6.4,0,0.872288
1.2,6.5,0,0.860357
1.2,6.6,0,0.848327
1.2,6.7,0,0.83385
1.2,6.8,0,0.821482
1.2,6.9,0,0.809139
1.2,7,0,0.797881
1.2,7.1,0,0.784606
1.2,7.2,0,0.772898
1.2,7.3,0,0.762185
1.2,7.4,0,0.749117
1.2,7.5,0,0.735945
1.2,7.6,0,0.723018
1.2,7.7,0,0.71197